 Entering Gaussian System, Link 0=g16
 Initial command:
 /home/szhao/Apps/g16/l1.exe "/home/szhao/tmp/Gau-94420.inp" -scrdir="/home/szhao/tmp/"
 Default is to use a total of  16 processors:
                               16 via shared-memory
                                1 via Linda
 Entering Link 1 = /home/szhao/Apps/g16/l1.exe PID=     94421.
  
 Copyright (c) 1988,1990,1992,1993,1995,1998,2003,2009,2016,
            Gaussian, Inc.  All Rights Reserved.
  
 This is part of the Gaussian(R) 16 program.  It is based on
 the Gaussian(R) 09 system (copyright 2009, Gaussian, Inc.),
 the Gaussian(R) 03 system (copyright 2003, Gaussian, Inc.),
 the Gaussian(R) 98 system (copyright 1998, Gaussian, Inc.),
 the Gaussian(R) 94 system (copyright 1995, Gaussian, Inc.),
 the Gaussian 92(TM) system (copyright 1992, Gaussian, Inc.),
 the Gaussian 90(TM) system (copyright 1990, Gaussian, Inc.),
 the Gaussian 88(TM) system (copyright 1988, Gaussian, Inc.),
 the Gaussian 86(TM) system (copyright 1986, Carnegie Mellon
 University), and the Gaussian 82(TM) system (copyright 1983,
 Carnegie Mellon University). Gaussian is a federally registered
 trademark of Gaussian, Inc.
  
 This software contains proprietary and confidential information,
 including trade secrets, belonging to Gaussian, Inc.
  
 This software is provided under written license and may be
 used, copied, transmitted, or stored only in accord with that
 written license.
  
 The following legend is applicable only to US Government
 contracts under FAR:
  
                    RESTRICTED RIGHTS LEGEND
  
 Use, reproduction and disclosure by the US Government is
 subject to restrictions as set forth in subparagraphs (a)
 and (c) of the Commercial Computer Software - Restricted
 Rights clause in FAR 52.227-19.
  
 Gaussian, Inc.
 340 Quinnipiac St., Bldg. 40, Wallingford CT 06492
  
  
 ---------------------------------------------------------------
 Warning -- This program may not be used in any manner that
 competes with the business of Gaussian, Inc. or will provide
 assistance to any competitor of Gaussian, Inc.  The licensee
 of this program is prohibited from giving any competitor of
 Gaussian, Inc. access to this program.  By using this program,
 the user acknowledges that Gaussian, Inc. is engaged in the
 business of creating and licensing software in the field of
 computational chemistry and represents and warrants to the
 licensee that it is not a competitor of Gaussian, Inc. and that
 it will not use this program in any manner prohibited above.
 ---------------------------------------------------------------
  

 Cite this work as:
 Gaussian 16, Revision A.03,
 M. J. Frisch, G. W. Trucks, H. B. Schlegel, G. E. Scuseria, 
 M. A. Robb, J. R. Cheeseman, G. Scalmani, V. Barone, 
 G. A. Petersson, H. Nakatsuji, X. Li, M. Caricato, A. V. Marenich, 
 J. Bloino, B. G. Janesko, R. Gomperts, B. Mennucci, H. P. Hratchian, 
 J. V. Ortiz, A. F. Izmaylov, J. L. Sonnenberg, D. Williams-Young, 
 F. Ding, F. Lipparini, F. Egidi, J. Goings, B. Peng, A. Petrone, 
 T. Henderson, D. Ranasinghe, V. G. Zakrzewski, J. Gao, N. Rega, 
 G. Zheng, W. Liang, M. Hada, M. Ehara, K. Toyota, R. Fukuda, 
 J. Hasegawa, M. Ishida, T. Nakajima, Y. Honda, O. Kitao, H. Nakai, 
 T. Vreven, K. Throssell, J. A. Montgomery, Jr., J. E. Peralta, 
 F. Ogliaro, M. J. Bearpark, J. J. Heyd, E. N. Brothers, K. N. Kudin, 
 V. N. Staroverov, T. A. Keith, R. Kobayashi, J. Normand, 
 K. Raghavachari, A. P. Rendell, J. C. Burant, S. S. Iyengar, 
 J. Tomasi, M. Cossi, J. M. Millam, M. Klene, C. Adamo, R. Cammi, 
 J. W. Ochterski, R. L. Martin, K. Morokuma, O. Farkas, 
 J. B. Foresman, and D. J. Fox, Gaussian, Inc., Wallingford CT, 2016.
 
 ******************************************
 Gaussian 16:  ES64L-G16RevA.03 25-Dec-2016
                 3-Dec-2024 
 ******************************************
 %chk=opt.chk
 %mem=16GB
 %nprocshared=24
 Will use up to   24 processors via shared memory.
 --------------------------------------------
 #p opt UM062X/6-311+G** nosymm int=superfine
 --------------------------------------------
 1/18=20,19=15,26=5,38=1/1,3;
 2/9=110,12=2,15=1,17=6,18=5,40=1/2;
 3/5=4,6=6,7=111,11=2,25=1,30=1,71=1,74=-55,75=-7,116=2/1,2,3;
 4//1;
 5/5=2,38=5/2;
 6/7=2,8=2,9=2,10=2,28=1/1;
 7/30=1/1,2,3,16;
 1/18=20,19=15,26=5/3(2);
 2/9=110,15=1/2;
 99//99;
 2/9=110,15=1/2;
 3/5=4,6=6,7=111,11=2,25=1,30=1,71=1,74=-55,75=-7,116=2/1,2,3;
 4/5=5,16=3,69=1/1;
 5/5=2,38=5/2;
 7/30=1/1,2,3,16;
 1/18=20,19=15,26=5/3(-5);
 2/9=110,15=1/2;
 6/7=2,8=2,9=2,10=2,19=2,28=1/1;
 99/9=1/99;
 Leave Link    1 at Tue Dec  3 11:29:47 2024, MaxMem=  2147483648 cpu:               0.8 elap:               0.0
 (Enter /home/szhao/Apps/g16/l101.exe)
 -------------------
 Title Card Required
 -------------------
 Symbolic Z-matrix:
 Charge =  1 Multiplicity = 2
 C                    -1   -1.73216   0.        0. 
 C                    -1    1.73216   0.        0. 
 H                    0    -2.83315   0.        0. 
 H                    0     2.83313   0.        0. 
 
 Add virtual bond connecting atoms C2         and C1         Dist= 6.55D+00.
 ITRead=  2  2  0  0
 MicOpt= -2 -2 -1 -1
 NAtoms=      4 NQM=        2 NQMF=       2 NMMI=      0 NMMIF=      0
                NMic=       0 NMicF=      0.
                    Isotopes and Nuclear Properties:
 (Nuclear quadrupole moments (NQMom) in fm**2, nuclear magnetic moments (NMagM)
  in nuclear magnetons)

  Atom         1           2           3           4
 IAtWgt=          12          12           1           1
 AtmWgt=  12.0000000  12.0000000   1.0078250   1.0078250
 NucSpn=           0           0           1           1
 AtZEff=  -0.0000000  -0.0000000  -0.0000000  -0.0000000
 NQMom=    0.0000000   0.0000000   0.0000000   0.0000000
 NMagM=    0.0000000   0.0000000   2.7928460   2.7928460
 AtZNuc=   6.0000000   6.0000000   1.0000000   1.0000000
 Leave Link  101 at Tue Dec  3 11:29:48 2024, MaxMem=  2147483648 cpu:              15.8 elap:               0.7
 (Enter /home/szhao/Apps/g16/l103.exe)

 GradGradGradGradGradGradGradGradGradGradGradGradGradGradGradGradGradGrad
 Berny optimization.
 Initialization pass.
                           ----------------------------
                           !    Initial Parameters    !
                           ! (Angstroms and Degrees)  !
 --------------------------                            --------------------------
 ! Name  Definition              Value          Derivative Info.                !
 --------------------------------------------------------------------------------
 ! X1    R(1,-1)                -1.7322         Frozen                          !
 ! Y1    R(1,-2)                 0.0            Frozen                          !
 ! Z1    R(1,-3)                 0.0            Frozen                          !
 ! X2    R(2,-1)                 1.7322         Frozen                          !
 ! Y2    R(2,-2)                 0.0            Frozen                          !
 ! Z2    R(2,-3)                 0.0            Frozen                          !
 ! R1    R(1,3)                  1.101          estimate D2E/DX2                !
 ! R2    R(2,4)                  1.101          estimate D2E/DX2                !
 ! A1    L(2,1,3,-2,-1)        180.0            estimate D2E/DX2                !
 ! A2    L(1,2,4,-2,-1)        180.0            estimate D2E/DX2                !
 ! A3    L(2,1,3,-3,-2)        180.0            estimate D2E/DX2                !
 ! A4    L(1,2,4,-3,-2)        180.0            estimate D2E/DX2                !
 --------------------------------------------------------------------------------
 Trust Radius=3.00D-01 FncErr=1.00D-07 GrdErr=1.00D-07 EigMax=2.50D+02 EigMin=1.00D-04
 Number of steps in this run=     22 maximum allowed number of steps=    100.
 GradGradGradGradGradGradGradGradGradGradGradGradGradGradGradGradGradGrad

 Leave Link  103 at Tue Dec  3 11:29:48 2024, MaxMem=  2147483648 cpu:               0.2 elap:               0.0
 (Enter /home/szhao/Apps/g16/l202.exe)
                          Input orientation:                          
 ---------------------------------------------------------------------
 Center     Atomic      Atomic             Coordinates (Angstroms)
 Number     Number       Type             X           Y           Z
 ---------------------------------------------------------------------
      1          6           0       -1.732160    0.000000    0.000000
      2          6           0        1.732160    0.000000    0.000000
      3          1           0       -2.833153    0.000000    0.000000
      4          1           0        2.833131    0.000000    0.000000
 ---------------------------------------------------------------------
                    Distance matrix (angstroms):
                    1          2          3          4
     1  C    0.000000
     2  C    3.464320   0.000000
     3  H    1.100993   4.565313   0.000000
     4  H    4.565291   1.100971   5.666284   0.000000
 Symmetry turned off by external request.
 Stoichiometry    C2H2(1+,2)
 Framework group  C*V[C*(HCCH)]
 Deg. of freedom     3
 Full point group                 C*V     NOp   4
 Rotational constants (GHZ):           0.0000000           5.7306950           5.7306950
 Leave Link  202 at Tue Dec  3 11:29:48 2024, MaxMem=  2147483648 cpu:               0.1 elap:               0.0
 (Enter /home/szhao/Apps/g16/l301.exe)
 Standard basis: 6-311+G(d,p) (5D, 7F)
 Ernie: Thresh=  0.10000D-02 Tol=  0.10000D-05 Strict=F.
    56 basis functions,    88 primitive gaussians,    58 cartesian basis functions
     7 alpha electrons        6 beta electrons
       nuclear repulsion energy        12.7510623851 Hartrees.
 IExCor= 4336 DFT=T Ex+Corr=M062X ExCW=0 ScaHFX=  0.540000
 ScaDFX=  1.000000  1.000000  1.000000  1.000000 ScalE2=  1.000000  1.000000
 IRadAn=      7 IRanWt=     -1 IRanGd=            0 ICorTp=0 IEmpDi=  4
 NAtoms=    4 NActive=    4 NUniq=    4 SFac= 1.00D+00 NAtFMM=   60 NAOKFM=F Big=F
 Integral buffers will be    131072 words long.
 Raffenetti 2 integral format.
 Two-electron integral symmetry is turned off.
 Leave Link  301 at Tue Dec  3 11:29:48 2024, MaxMem=  2147483648 cpu:               0.9 elap:               0.0
 (Enter /home/szhao/Apps/g16/l302.exe)
 NPDir=0 NMtPBC=     1 NCelOv=     1 NCel=       1 NClECP=     1 NCelD=      1
         NCelK=      1 NCelE2=     1 NClLst=     1 CellRange=     0.0.
 One-electron integrals computed using PRISM.
 NBasis=    56 RedAO= T EigKep=  1.25D-02  NBF=    56
 NBsUse=    56 1.00D-06 EigRej= -1.00D+00 NBFU=    56
 Precomputing XC quadrature grid using
 IXCGrd= 4 IRadAn=           7 IRanWt=          -1 IRanGd=           0 AccXCQ= 0.00D+00.
 Generated NRdTot=       0 NPtTot=           0 NUsed=           0 NTot=          32
 NSgBfM=    58    58    58    58    58 MxSgAt=     4 MxSgA2=     4.
 Leave Link  302 at Tue Dec  3 11:29:48 2024, MaxMem=  2147483648 cpu:               3.2 elap:               0.1
 (Enter /home/szhao/Apps/g16/l303.exe)
 DipDrv:  MaxL=1.
 Leave Link  303 at Tue Dec  3 11:29:48 2024, MaxMem=  2147483648 cpu:               0.7 elap:               0.0
 (Enter /home/szhao/Apps/g16/l401.exe)
 ExpMin= 4.38D-02 ExpMax= 4.56D+03 ExpMxC= 6.82D+02 IAcc=3 IRadAn=         7 AccDes= 0.00D+00
 Harris functional with IExCor= 1009 and IRadAn=       7 diagonalized for initial guess.
 HarFok:  IExCor= 1009 AccDes= 0.00D+00 IRadAn=         7 IDoV= 1 UseB2=F ITyADJ=14
 ICtDFT=  3500011 ScaDFX=  1.000000  1.000000  1.000000  1.000000
 FoFCou: FMM=F IPFlag=           0 FMFlag=      100000 FMFlg1=           0
         NFxFlg=           0 DoJE=T BraDBF=F KetDBF=T FulRan=T
         wScrn=  0.000000 ICntrl=       500 IOpCl=  0 I1Cent=   200000004 NGrid=           0
         NMat0=    1 NMatS0=      1 NMatT0=    0 NMatD0=    1 NMtDS0=    0 NMtDT0=    0
 Symmetry not used in FoFCou.
 Harris En= -76.6194526573387    
 JPrj=0 DoOrth=F DoCkMO=F.
 Initial guess <Sx>= 0.0000 <Sy>= 0.0000 <Sz>= 0.5000 <S**2>= 0.7500 S= 0.5000
 Leave Link  401 at Tue Dec  3 11:29:48 2024, MaxMem=  2147483648 cpu:               4.2 elap:               0.2
 (Enter /home/szhao/Apps/g16/l502.exe)
 Keep R1 and R2 ints in memory in canonical form, NReq=23774294.
 FoFCou: FMM=F IPFlag=           0 FMFlag=           0 FMFlg1=           0
         NFxFlg=           0 DoJE=F BraDBF=F KetDBF=F FulRan=T
         wScrn=  0.000000 ICntrl=       600 IOpCl=  0 I1Cent=           0 NGrid=           0
         NMat0=    1 NMatS0=   1596 NMatT0=    0 NMatD0=    1 NMtDS0=    0 NMtDT0=    0
 Symmetry not used in FoFCou.
 Two-electron integral symmetry not used.
 UHF open shell SCF:
 Using DIIS extrapolation, IDIIS=  1040.
 NGot=  2147483648 LenX=  2144926146 LenY=  2144922341
 Requested convergence on RMS density matrix=1.00D-08 within 128 cycles.
 Requested convergence on MAX density matrix=1.00D-06.
 Requested convergence on             energy=1.00D-06.
 No special actions if energy rises.

 Cycle   1  Pass 1  IDiag  1:
 E= -76.5652372908260    
 DIIS: error= 1.86D-02 at cycle   1 NSaved=   1.
 NSaved= 1 IEnMin= 1 EnMin= -76.5652372908260     IErMin= 1 ErrMin= 1.86D-02
 ErrMax= 1.86D-02  0.00D+00 EMaxC= 1.00D-01 BMatC= 8.50D-02 BMatP= 8.50D-02
 IDIUse=3 WtCom= 8.14D-01 WtEn= 1.86D-01
 Coeff-Com:  0.100D+01
 Coeff-En:   0.100D+01
 Coeff:      0.100D+01
 Gap=     0.147 Goal=   None    Shift=    0.000
 Gap=     0.300 Goal=   None    Shift=    0.000
 GapD=    0.147 DampG=1.000 DampE=0.500 DampFc=0.5000 IDamp=-1.
 Damping current iteration by 5.00D-01
 RMSDP=3.67D-03 MaxDP=8.15D-02              OVMax= 7.76D-02

 Cycle   2  Pass 1  IDiag  1:
 E= -76.5762046788221     Delta-E=       -0.010967387996 Rises=F Damp=T
 DIIS: error= 7.68D-03 at cycle   2 NSaved=   2.
 NSaved= 2 IEnMin= 2 EnMin= -76.5762046788221     IErMin= 2 ErrMin= 7.68D-03
 ErrMax= 7.68D-03  0.00D+00 EMaxC= 1.00D-01 BMatC= 1.53D-02 BMatP= 8.50D-02
 IDIUse=3 WtCom= 9.23D-01 WtEn= 7.68D-02
 Coeff-Com: -0.582D+00 0.158D+01
 Coeff-En:   0.000D+00 0.100D+01
 Coeff:     -0.537D+00 0.154D+01
 Gap=     0.084 Goal=   None    Shift=    0.000
 Gap=     0.291 Goal=   None    Shift=    0.000
 RMSDP=1.03D-03 MaxDP=1.99D-02 DE=-1.10D-02 OVMax= 2.03D-02

 Cycle   3  Pass 1  IDiag  1:
 E= -76.5857664546236     Delta-E=       -0.009561775801 Rises=F Damp=F
 DIIS: error= 1.10D-03 at cycle   3 NSaved=   3.
 NSaved= 3 IEnMin= 3 EnMin= -76.5857664546236     IErMin= 3 ErrMin= 1.10D-03
 ErrMax= 1.10D-03  0.00D+00 EMaxC= 1.00D-01 BMatC= 1.64D-04 BMatP= 1.53D-02
 IDIUse=3 WtCom= 9.89D-01 WtEn= 1.10D-02
 Coeff-Com: -0.726D-01 0.120D+00 0.953D+00
 Coeff-En:   0.000D+00 0.000D+00 0.100D+01
 Coeff:     -0.718D-01 0.118D+00 0.953D+00
 Gap=     0.084 Goal=   None    Shift=    0.000
 Gap=     0.292 Goal=   None    Shift=    0.000
 RMSDP=1.47D-04 MaxDP=3.34D-03 DE=-9.56D-03 OVMax= 2.95D-03

 Cycle   4  Pass 1  IDiag  1:
 E= -76.5858180946241     Delta-E=       -0.000051640001 Rises=F Damp=F
 DIIS: error= 2.82D-04 at cycle   4 NSaved=   4.
 NSaved= 4 IEnMin= 4 EnMin= -76.5858180946241     IErMin= 4 ErrMin= 2.82D-04
 ErrMax= 2.82D-04  0.00D+00 EMaxC= 1.00D-01 BMatC= 7.86D-06 BMatP= 1.64D-04
 IDIUse=3 WtCom= 9.97D-01 WtEn= 2.82D-03
 Coeff-Com:  0.206D-01-0.467D-01-0.125D+00 0.115D+01
 Coeff-En:   0.000D+00 0.000D+00 0.000D+00 0.100D+01
 Coeff:      0.206D-01-0.466D-01-0.125D+00 0.115D+01
 Gap=     0.084 Goal=   None    Shift=    0.000
 Gap=     0.292 Goal=   None    Shift=    0.000
 RMSDP=4.16D-05 MaxDP=1.36D-03 DE=-5.16D-05 OVMax= 2.42D-03

 Cycle   5  Pass 1  IDiag  1:
 E= -76.5858197046273     Delta-E=       -0.000001610003 Rises=F Damp=F
 DIIS: error= 1.73D-04 at cycle   5 NSaved=   5.
 NSaved= 5 IEnMin= 5 EnMin= -76.5858197046273     IErMin= 5 ErrMin= 1.73D-04
 ErrMax= 1.73D-04  0.00D+00 EMaxC= 1.00D-01 BMatC= 3.15D-06 BMatP= 7.86D-06
 IDIUse=3 WtCom= 9.98D-01 WtEn= 1.73D-03
 Coeff-Com:  0.113D-01-0.239D-01-0.901D-01 0.475D+00 0.628D+00
 Coeff-En:   0.000D+00 0.000D+00 0.000D+00 0.000D+00 0.100D+01
 Coeff:      0.113D-01-0.239D-01-0.900D-01 0.474D+00 0.628D+00
 Gap=     0.084 Goal=   None    Shift=    0.000
 Gap=     0.292 Goal=   None    Shift=    0.000
 RMSDP=3.32D-05 MaxDP=7.41D-04 DE=-1.61D-06 OVMax= 3.46D-03

 Cycle   6  Pass 1  IDiag  1:
 E= -76.5858199002305     Delta-E=       -0.000000195603 Rises=F Damp=F
 DIIS: error= 1.67D-04 at cycle   6 NSaved=   6.
 NSaved= 6 IEnMin= 6 EnMin= -76.5858199002305     IErMin= 6 ErrMin= 1.67D-04
 ErrMax= 1.67D-04  0.00D+00 EMaxC= 1.00D-01 BMatC= 2.73D-06 BMatP= 3.15D-06
 IDIUse=3 WtCom= 9.98D-01 WtEn= 1.67D-03
 Coeff-Com:  0.841D-03-0.714D-03-0.216D-01-0.669D-01 0.521D+00 0.567D+00
 Coeff-En:   0.000D+00 0.000D+00 0.000D+00 0.000D+00 0.469D+00 0.531D+00
 Coeff:      0.840D-03-0.713D-03-0.215D-01-0.668D-01 0.521D+00 0.567D+00
 Gap=     0.084 Goal=   None    Shift=    0.000
 Gap=     0.292 Goal=   None    Shift=    0.000
 RMSDP=1.66D-05 MaxDP=3.68D-04 DE=-1.96D-07 OVMax= 1.71D-03

 Cycle   7  Pass 1  IDiag  1:
 E= -76.5858210332619     Delta-E=       -0.000001133031 Rises=F Damp=F
 DIIS: error= 5.66D-06 at cycle   7 NSaved=   7.
 NSaved= 7 IEnMin= 7 EnMin= -76.5858210332619     IErMin= 7 ErrMin= 5.66D-06
 ErrMax= 5.66D-06  0.00D+00 EMaxC= 1.00D-01 BMatC= 3.32D-09 BMatP= 2.73D-06
 IDIUse=1 WtCom= 1.00D+00 WtEn= 0.00D+00
 Coeff-Com: -0.401D-03 0.667D-03 0.625D-02-0.665D-02-0.111D+00-0.101D+00
 Coeff-Com:  0.121D+01
 Coeff:     -0.401D-03 0.667D-03 0.625D-02-0.665D-02-0.111D+00-0.101D+00
 Coeff:      0.121D+01
 Gap=     0.084 Goal=   None    Shift=    0.000
 Gap=     0.292 Goal=   None    Shift=    0.000
 RMSDP=1.17D-06 MaxDP=2.80D-05 DE=-1.13D-06 OVMax= 2.94D-05

 Cycle   8  Pass 1  IDiag  1:
 E= -76.5858210354605     Delta-E=       -0.000000002199 Rises=F Damp=F
 DIIS: error= 1.22D-06 at cycle   8 NSaved=   8.
 NSaved= 8 IEnMin= 8 EnMin= -76.5858210354605     IErMin= 8 ErrMin= 1.22D-06
 ErrMax= 1.22D-06  0.00D+00 EMaxC= 1.00D-01 BMatC= 1.05D-10 BMatP= 3.32D-09
 IDIUse=1 WtCom= 1.00D+00 WtEn= 0.00D+00
 Coeff-Com:  0.120D-03-0.215D-03-0.181D-02 0.324D-02 0.244D-01 0.205D-01
 Coeff-Com: -0.334D+00 0.129D+01
 Coeff:      0.120D-03-0.215D-03-0.181D-02 0.324D-02 0.244D-01 0.205D-01
 Coeff:     -0.334D+00 0.129D+01
 Gap=     0.084 Goal=   None    Shift=    0.000
 Gap=     0.292 Goal=   None    Shift=    0.000
 RMSDP=2.03D-07 MaxDP=3.56D-06 DE=-2.20D-09 OVMax= 6.37D-06

 Cycle   9  Pass 1  IDiag  1:
 E= -76.5858210355533     Delta-E=       -0.000000000093 Rises=F Damp=F
 DIIS: error= 3.00D-07 at cycle   9 NSaved=   9.
 NSaved= 9 IEnMin= 9 EnMin= -76.5858210355533     IErMin= 9 ErrMin= 3.00D-07
 ErrMax= 3.00D-07  0.00D+00 EMaxC= 1.00D-01 BMatC= 1.05D-11 BMatP= 1.05D-10
 IDIUse=1 WtCom= 1.00D+00 WtEn= 0.00D+00
 Coeff-Com: -0.225D-04 0.441D-04 0.307D-03-0.102D-02-0.101D-02-0.220D-03
 Coeff-Com:  0.401D-01-0.455D+00 0.142D+01
 Coeff:     -0.225D-04 0.441D-04 0.307D-03-0.102D-02-0.101D-02-0.220D-03
 Coeff:      0.401D-01-0.455D+00 0.142D+01
 Gap=     0.084 Goal=   None    Shift=    0.000
 Gap=     0.292 Goal=   None    Shift=    0.000
 RMSDP=8.86D-08 MaxDP=9.71D-07 DE=-9.28D-11 OVMax= 7.29D-06

 Cycle  10  Pass 1  IDiag  1:
 E= -76.5858210355717     Delta-E=       -0.000000000018 Rises=F Damp=F
 DIIS: error= 3.00D-07 at cycle  10 NSaved=  10.
 NSaved=10 IEnMin=10 EnMin= -76.5858210355717     IErMin= 9 ErrMin= 3.00D-07
 ErrMax= 3.00D-07  0.00D+00 EMaxC= 1.00D-01 BMatC= 1.53D-12 BMatP= 1.05D-11
 IDIUse=1 WtCom= 1.00D+00 WtEn= 0.00D+00
 Coeff-Com: -0.160D-05 0.223D-05 0.683D-05 0.216D-04-0.927D-03-0.893D-03
 Coeff-Com:  0.975D-02 0.481D-01-0.365D+00 0.131D+01
 Coeff:     -0.160D-05 0.223D-05 0.683D-05 0.216D-04-0.927D-03-0.893D-03
 Coeff:      0.975D-02 0.481D-01-0.365D+00 0.131D+01
 Gap=     0.084 Goal=   None    Shift=    0.000
 Gap=     0.292 Goal=   None    Shift=    0.000
 RMSDP=5.77D-08 MaxDP=6.08D-07 DE=-1.84D-11 OVMax= 6.72D-06

 Cycle  11  Pass 1  IDiag  1:
 E= -76.5858210355819     Delta-E=       -0.000000000010 Rises=F Damp=F
 DIIS: error= 3.00D-07 at cycle  11 NSaved=  11.
 NSaved=11 IEnMin=11 EnMin= -76.5858210355819     IErMin= 9 ErrMin= 3.00D-07
 ErrMax= 3.00D-07  0.00D+00 EMaxC= 1.00D-01 BMatC= 1.20D-12 BMatP= 1.53D-12
 IDIUse=1 WtCom= 1.00D+00 WtEn= 0.00D+00
 Coeff-Com:  0.680D-06-0.124D-05-0.487D-05 0.128D-04 0.129D-03 0.109D-03
 Coeff-Com: -0.193D-02 0.558D-03 0.308D-01-0.243D+00 0.121D+01
 Coeff:      0.680D-06-0.124D-05-0.487D-05 0.128D-04 0.129D-03 0.109D-03
 Coeff:     -0.193D-02 0.558D-03 0.308D-01-0.243D+00 0.121D+01
 Gap=     0.084 Goal=   None    Shift=    0.000
 Gap=     0.292 Goal=   None    Shift=    0.000
 RMSDP=5.17D-08 MaxDP=5.50D-07 DE=-1.02D-11 OVMax= 6.09D-06

 Cycle  12  Pass 1  IDiag  1:
 E= -76.5858210355909     Delta-E=       -0.000000000009 Rises=F Damp=F
 DIIS: error= 3.00D-07 at cycle  12 NSaved=  12.
 NSaved=12 IEnMin=12 EnMin= -76.5858210355909     IErMin= 9 ErrMin= 3.00D-07
 ErrMax= 3.00D-07  0.00D+00 EMaxC= 1.00D-01 BMatC= 1.20D-12 BMatP= 1.20D-12
 IDIUse=1 WtCom= 1.00D+00 WtEn= 0.00D+00
 Coeff-Com: -0.231D-07 0.493D-07 0.954D-07 0.406D-06 0.128D-06-0.138D-05
 Coeff-Com:  0.183D-05-0.238D-03 0.656D-03 0.759D-02-0.113D+00 0.111D+01
 Coeff:     -0.231D-07 0.493D-07 0.954D-07 0.406D-06 0.128D-06-0.138D-05
 Coeff:      0.183D-05-0.238D-03 0.656D-03 0.759D-02-0.113D+00 0.111D+01
 Gap=     0.084 Goal=   None    Shift=    0.000
 Gap=     0.292 Goal=   None    Shift=    0.000
 RMSDP=4.62D-08 MaxDP=4.92D-07 DE=-9.01D-12 OVMax= 5.45D-06

 Cycle  13  Pass 1  IDiag  1:
 E= -76.5858210355991     Delta-E=       -0.000000000008 Rises=F Damp=F
 DIIS: error= 3.00D-07 at cycle  13 NSaved=  13.
 NSaved=13 IEnMin=13 EnMin= -76.5858210355991     IErMin= 9 ErrMin= 3.00D-07
 ErrMax= 3.00D-07  0.00D+00 EMaxC= 1.00D-01 BMatC= 1.20D-12 BMatP= 1.20D-12
 IDIUse=1 WtCom= 1.00D+00 WtEn= 0.00D+00
 Coeff-Com: -0.460D-07 0.964D-07 0.200D-06 0.595D-06-0.796D-06-0.279D-05
 Coeff-Com:  0.156D-04-0.392D-03 0.848D-03 0.146D-01-0.199D+00 0.187D+01
 Coeff-Com: -0.691D+00
 Coeff:     -0.460D-07 0.964D-07 0.200D-06 0.595D-06-0.796D-06-0.279D-05
 Coeff:      0.156D-04-0.392D-03 0.848D-03 0.146D-01-0.199D+00 0.187D+01
 Coeff:     -0.691D+00
 Gap=     0.084 Goal=   None    Shift=    0.000
 Gap=     0.292 Goal=   None    Shift=    0.000
 RMSDP=2.82D-08 MaxDP=3.01D-07 DE=-8.21D-12 OVMax= 3.33D-06

 Cycle  14  Pass 1  IDiag  1:
 E= -76.5858210355941     Delta-E=        0.000000000005 Rises=F Damp=F
 DIIS: error= 3.00D-07 at cycle  14 NSaved=  14.
 NSaved=14 IEnMin=13 EnMin= -76.5858210355991     IErMin= 9 ErrMin= 3.00D-07
 ErrMax= 3.00D-07  0.00D+00 EMaxC= 1.00D-01 BMatC= 1.20D-12 BMatP= 1.20D-12
 IDIUse=1 WtCom= 1.00D+00 WtEn= 0.00D+00
 Large coefficients: NSaved= 14 BigCof=  279.81 CofMax=   10.00 Det=-3.82D-20
 Inversion failed.  Reducing to 13 matrices.
 Large coefficients: NSaved= 13 BigCof=  274.10 CofMax=   10.00 Det=-3.90D-20
 Inversion failed.  Reducing to 12 matrices.
 Large coefficients: NSaved= 12 BigCof=  246.43 CofMax=   10.00 Det=-4.32D-20
 Inversion failed.  Reducing to 11 matrices.
 Large coefficients: NSaved= 11 BigCof=  224.87 CofMax=   10.00 Det=-4.71D-20
 Inversion failed.  Reducing to 10 matrices.
 Large coefficients: NSaved= 10 BigCof=  145.31 CofMax=   10.00 Det=-7.17D-20
 Inversion failed.  Reducing to  9 matrices.
 Large coefficients: NSaved=  9 BigCof=  111.01 CofMax=   10.00 Det=-9.27D-20
 Inversion failed.  Reducing to  8 matrices.
 Large coefficients: NSaved=  8 BigCof=   65.42 CofMax=   10.00 Det=-1.54D-19
 Inversion failed.  Reducing to  7 matrices.
 Large coefficients: NSaved=  7 BigCof=   61.70 CofMax=   10.00 Det=-1.64D-19
 Inversion failed.  Reducing to  6 matrices.
 Large coefficients: NSaved=  6 BigCof=   60.46 CofMax=   10.00 Det=-1.68D-19
 Inversion failed.  Reducing to  5 matrices.
 Large coefficients: NSaved=  5 BigCof=   59.89 CofMax=   10.00 Det=-1.69D-19
 Inversion failed.  Reducing to  4 matrices.
 Large coefficients: NSaved=  4 BigCof=   59.94 CofMax=   10.00 Det=-1.69D-19
 Inversion failed.  Reducing to  3 matrices.
 Large coefficients: NSaved=  3 BigCof=   59.73 CofMax=   10.00 Det=-1.70D-19
 Inversion failed.  Reducing to  2 matrices.
 Large coefficients: NSaved=  2 BigCof=   43.04 CofMax=   10.00 Det=-2.30D-19
 Coeff-Com: -0.420D+02 0.430D+02
 Coeff:     -0.420D+02 0.430D+02
 Gap=     0.084 Goal=   None    Shift=    0.000
 Gap=     0.292 Goal=   None    Shift=    0.000
 RMSDP=1.15D-06 MaxDP=1.22D-05 DE= 5.06D-12 OVMax= 1.35D-04

 Cycle  15  Pass 1  IDiag  1:
 E= -76.5858210353935     Delta-E=        0.000000000201 Rises=F Damp=F
 DIIS: error= 3.00D-07 at cycle  15 NSaved=   3.
 NSaved= 3 IEnMin= 1 EnMin= -76.5858210355991     IErMin= 3 ErrMin= 3.00D-07
 ErrMax= 3.00D-07  0.00D+00 EMaxC= 1.00D-01 BMatC= 1.20D-12 BMatP= 1.20D-12
 IDIUse=1 WtCom= 1.00D+00 WtEn= 0.00D+00
 Large coefficients: NSaved=  3 BigCof=   89.17 CofMax=   10.00 Det=-1.63D-19
 Inversion failed.  Reducing to  2 matrices.
 Coeff-Com:  0.213D+00 0.787D+00
 Coeff:      0.213D+00 0.787D+00
 Gap=     0.084 Goal=   None    Shift=    0.000
 Gap=     0.292 Goal=   None    Shift=    0.000
 RMSDP=2.85D-07 MaxDP=3.04D-06 DE= 2.01D-10 OVMax= 3.36D-05

 Cycle  16  Pass 1  IDiag  1:
 E= -76.5858210354434     Delta-E=       -0.000000000050 Rises=F Damp=F
 DIIS: error= 3.00D-07 at cycle  16 NSaved=   3.
 NSaved= 3 IEnMin= 1 EnMin= -76.5858210355941     IErMin= 2 ErrMin= 3.00D-07
 ErrMax= 3.00D-07  0.00D+00 EMaxC= 1.00D-01 BMatC= 1.20D-12 BMatP= 1.20D-12
 IDIUse=1 WtCom= 1.00D+00 WtEn= 0.00D+00
 Large coefficients: NSaved=  3 BigCof=   53.49 CofMax=   10.00 Det=-7.05D-18
 Inversion failed.  Reducing to  2 matrices.
 Coeff-Com:  0.675D+00 0.325D+00
 Coeff:      0.675D+00 0.325D+00
 Gap=     0.084 Goal=   None    Shift=    0.000
 Gap=     0.292 Goal=   None    Shift=    0.000
 RMSDP=1.51D-07 MaxDP=1.61D-06 DE=-4.99D-11 OVMax= 1.78D-05

 Cycle  17  Pass 1  IDiag  1:
 E= -76.5858210354170     Delta-E=        0.000000000026 Rises=F Damp=F
 DIIS: error= 3.00D-07 at cycle  17 NSaved=   3.
 NSaved= 3 IEnMin= 2 EnMin= -76.5858210354434     IErMin= 1 ErrMin= 3.00D-07
 ErrMax= 3.00D-07  0.00D+00 EMaxC= 1.00D-01 BMatC= 1.20D-12 BMatP= 1.20D-12
 IDIUse=1 WtCom= 1.00D+00 WtEn= 0.00D+00
 Coeff-Com: -0.378D-01-0.272D+00 0.131D+01
 Coeff:     -0.378D-01-0.272D+00 0.131D+01
 Gap=     0.084 Goal=   None    Shift=    0.000
 Gap=     0.292 Goal=   None    Shift=    0.000
 RMSDP=5.25D-09 MaxDP=5.60D-08 DE= 2.65D-11 OVMax= 6.19D-07

 SCF Done:  E(UM062X) =  -76.5858210354     A.U. after   17 cycles
            NFock= 17  Conv=0.53D-08     -V/T= 2.0024
 <Sx>= 0.0000 <Sy>= 0.0000 <Sz>= 0.5000 <S**2>= 0.7512 S= 0.5006
 <L.S>=  0.00000000000    
 KE= 7.639907135538D+01 PE=-2.000871166377D+02 EE= 3.435116186180D+01
 Annihilation of the first spin contaminant:
 S**2 before annihilation     0.7512,   after     0.7500
 Leave Link  502 at Tue Dec  3 11:29:51 2024, MaxMem=  2147483648 cpu:              76.5 elap:               3.3
 (Enter /home/szhao/Apps/g16/l601.exe)
 Copying SCF densities to generalized density rwf, IOpCl= 1 IROHF=0.

 **********************************************************************

            Population analysis using the SCF density.

 **********************************************************************

 Alpha  occ. eigenvalues --  -10.94676 -10.94675  -0.98969  -0.98737  -0.65028
 Alpha  occ. eigenvalues --   -0.62624  -0.48863
 Alpha virt. eigenvalues --   -0.40473  -0.33807  -0.33197  -0.12510  -0.11446
 Alpha virt. eigenvalues --   -0.07843  -0.07354  -0.05302  -0.04889  -0.04518
 Alpha virt. eigenvalues --   -0.01362   0.00018   0.06285   0.23500   0.30818
 Alpha virt. eigenvalues --    0.35337   0.35683   0.36203   0.38386   0.39210
 Alpha virt. eigenvalues --    0.53353   0.54472   0.60068   0.89212   0.89356
 Alpha virt. eigenvalues --    0.89587   0.89874   1.07381   1.07456   1.08450
 Alpha virt. eigenvalues --    1.08524   1.34518   1.37663   1.63548   1.63851
 Alpha virt. eigenvalues --    1.64002   1.64274   2.16991   2.18750   2.26955
 Alpha virt. eigenvalues --    2.34496   2.42631   2.44078   2.45466   2.46859
 Alpha virt. eigenvalues --    2.90629   3.04520  23.27709  23.29426
  Beta  occ. eigenvalues --  -10.94268 -10.94268  -0.96604  -0.96479  -0.63686
  Beta  occ. eigenvalues --   -0.61196
  Beta virt. eigenvalues --   -0.31977  -0.31226  -0.30399  -0.29565  -0.13021
  Beta virt. eigenvalues --   -0.11381  -0.07310  -0.06574  -0.06122  -0.04160
  Beta virt. eigenvalues --   -0.03229  -0.02016   0.01731   0.07832   0.22752
  Beta virt. eigenvalues --    0.31759   0.35898   0.36075   0.38418   0.38836
  Beta virt. eigenvalues --    0.39064   0.54963   0.56360   0.62552   0.96766
  Beta virt. eigenvalues --    0.97127   0.97691   0.98042   1.10696   1.10696
  Beta virt. eigenvalues --    1.10706   1.10708   1.34778   1.37994   1.65357
  Beta virt. eigenvalues --    1.65811   1.66022   1.66477   2.30418   2.31809
  Beta virt. eigenvalues --    2.36755   2.42007   2.45240   2.47602   2.47950
  Beta virt. eigenvalues --    2.50209   3.02644   3.15472  23.29125  23.30841
          Condensed to atoms (all electrons):
               1          2          3          4
     1  C    5.476026  -0.000531   0.259871   0.001363
     2  C   -0.000531   5.476030   0.001363   0.259872
     3  H    0.259871   0.001363   0.502030   0.000003
     4  H    0.001363   0.259872   0.000003   0.502031
          Atomic-Atomic Spin Densities.
               1          2          3          4
     1  C    0.509545   0.013145  -0.006197  -0.000171
     2  C    0.013145   0.509551  -0.000171  -0.006197
     3  H   -0.006197  -0.000171  -0.009956  -0.000000
     4  H   -0.000171  -0.006197  -0.000000  -0.009956
 Mulliken charges and spin densities:
               1          2
     1  C    0.263270   0.516322
     2  C    0.263267   0.516327
     3  H    0.236732  -0.016325
     4  H    0.236731  -0.016325
 Sum of Mulliken charges =   1.00000   1.00000
 Mulliken charges and spin densities with hydrogens summed into heavy atoms:
               1          2
     1  C    0.500003   0.499997
     2  C    0.499997   0.500003
 Electronic spatial extent (au):  <R**2>=            188.1033
 Charge=              1.0000 electrons
 Dipole moment (field-independent basis, Debye):
    X=             -0.0000    Y=              0.0000    Z=             -0.0000  Tot=              0.0000
 Quadrupole moment (field-independent basis, Debye-Ang):
   XX=             18.0031   YY=            -11.3496   ZZ=             -9.6141
   XY=             -0.0000   XZ=             -0.0000   YZ=             -0.5198
 Traceless Quadrupole moment (field-independent basis, Debye-Ang):
   XX=             18.9900   YY=            -10.3627   ZZ=             -8.6272
   XY=             -0.0000   XZ=             -0.0000   YZ=             -0.5198
 Octapole moment (field-independent basis, Debye-Ang**2):
  XXX=             -0.0003  YYY=             -0.0000  ZZZ=             -0.0000  XYY=              0.0000
  XXY=              0.0000  XXZ=              0.0000  XZZ=              0.0001  YZZ=             -0.0000
  YYZ=             -0.0000  XYZ=             -0.0000
 Hexadecapole moment (field-independent basis, Debye-Ang**3):
 XXXX=            -73.1856 YYYY=            -12.3309 ZZZZ=             -8.6071 XXXY=             -0.0000
 XXXZ=             -0.0000 YYYX=             -0.0000 YYYZ=             -0.5577 ZZZX=             -0.0000
 ZZZY=             -0.5576 XXYY=            -41.2883 XXZZ=            -35.5140 YYZZ=             -3.4897
 XXYZ=             -1.7294 YYXZ=             -0.0000 ZZXY=             -0.0000
 N-N= 1.275106238506D+01 E-N=-2.000871166366D+02  KE= 7.639907135538D+01
                          Isotropic Fermi Contact Couplings
        Atom                 a.u.       MegaHertz       Gauss      10(-4) cm-1
     1  C(13)              0.07562      85.01688      30.33614      28.35858
     2  C(13)              0.07563      85.01765      30.33641      28.35883
     3  H(1)              -0.00389     -17.38451      -6.20323      -5.79885
     4  H(1)              -0.00389     -17.38270      -6.20258      -5.79825
 --------------------------------------------------------
       Center         ----  Spin Dipole Couplings  ----
                      3XX-RR        3YY-RR        3ZZ-RR
 --------------------------------------------------------
     1   Atom       -0.317235      0.588891     -0.271656
     2   Atom       -0.317240      0.588898     -0.271658
     3   Atom        0.043043     -0.006229     -0.036814
     4   Atom        0.043044     -0.006228     -0.036816
 --------------------------------------------------------
                        XY            XZ            YZ
 --------------------------------------------------------
     1   Atom        0.000000      0.000000      0.257731
     2   Atom        0.000000      0.000000      0.257733
     3   Atom       -0.000000      0.000000      0.009160
     4   Atom        0.000000      0.000000      0.009161
 --------------------------------------------------------


 ---------------------------------------------------------------------------------
              Anisotropic Spin Dipole Couplings in Principal Axis System
 ---------------------------------------------------------------------------------

       Atom             a.u.   MegaHertz   Gauss  10(-4) cm-1        Axes

              Baa    -0.3429   -46.019   -16.421   -15.350  0.0000 -0.2666  0.9638
     1 C(13)  Bbb    -0.3172   -42.570   -15.190   -14.200  1.0000  0.0000 -0.0000
              Bcc     0.6602    88.589    31.611    29.550  0.0000  0.9638  0.2666
 
              Baa    -0.3429   -46.020   -16.421   -15.351  0.0000 -0.2666  0.9638
     2 C(13)  Bbb    -0.3172   -42.571   -15.190   -14.200  1.0000  0.0000 -0.0000
              Bcc     0.6602    88.590    31.611    29.551  0.0000  0.9638  0.2666
 
              Baa    -0.0393   -20.994    -7.491    -7.003 -0.0000 -0.2666  0.9638
     3 H(1)   Bbb    -0.0037    -1.972    -0.703    -0.658  0.0000  0.9638  0.2666
              Bcc     0.0430    22.966     8.195     7.661  1.0000 -0.0000 -0.0000
 
              Baa    -0.0394   -20.995    -7.492    -7.003  0.0000 -0.2666  0.9638
     4 H(1)   Bbb    -0.0037    -1.971    -0.703    -0.657 -0.0000  0.9638  0.2666
              Bcc     0.0430    22.966     8.195     7.661  1.0000  0.0000  0.0000
 

 ---------------------------------------------------------------------------------

 No NMR shielding tensors so no spin-rotation constants.
 Leave Link  601 at Tue Dec  3 11:29:52 2024, MaxMem=  2147483648 cpu:               5.3 elap:               0.2
 (Enter /home/szhao/Apps/g16/l701.exe)
 ... and contract with generalized density number  0.
 Compute integral first derivatives.
 Leave Link  701 at Tue Dec  3 11:29:52 2024, MaxMem=  2147483648 cpu:               2.8 elap:               0.1
 (Enter /home/szhao/Apps/g16/l702.exe)
 L702 exits ... SP integral derivatives will be done elsewhere.
 Leave Link  702 at Tue Dec  3 11:29:52 2024, MaxMem=  2147483648 cpu:               0.7 elap:               0.0
 (Enter /home/szhao/Apps/g16/l703.exe)
 Integral derivatives from FoFJK, PRISM(SPDF).
 Compute integral first derivatives, UseDBF=F ICtDFT=           0.
 Calling FoFJK, ICntrl=      2127 FMM=F ISym2X=0 I1Cent= 0 IOpClX= 1 NMat=1 NMatS=1 NMatT=0.
 FoFJK:  IHMeth= 1 ICntrl=    2127 DoSepK=F KAlg= 0 I1Cent=           0 FoldK=F
 IRaf=         0 NMat=       1 IRICut=       1 DoRegI=T DoRafI=F ISym2E= 0 IDoP0=0 IntGTp=1.
 FoFCou: FMM=F IPFlag=           0 FMFlag=      100000 FMFlg1=         800
         NFxFlg=           0 DoJE=F BraDBF=F KetDBF=F FulRan=T
         wScrn=  0.000000 ICntrl=      2127 IOpCl=  1 I1Cent=           0 NGrid=           0
         NMat0=    1 NMatS0=      1 NMatT0=    0 NMatD0=    1 NMtDS0=    0 NMtDT0=    0
 Symmetry not used in FoFCou.
 Leave Link  703 at Tue Dec  3 11:29:52 2024, MaxMem=  2147483648 cpu:              11.7 elap:               0.5
 (Enter /home/szhao/Apps/g16/l716.exe)
 Dipole        =-1.38465412D-05 9.83988485D-16-9.64535125D-16
 -------------------------------------------------------------------
 Center     Atomic                   Forces (Hartrees/Bohr)
 Number     Number              X              Y              Z
 -------------------------------------------------------------------
      1        6          -0.000000000   -0.000000000   -0.000000000
      2        6          -0.000000000   -0.000000000   -0.000000000
      3        1          -0.010768371    0.000000000   -0.000000000
      4        1           0.010782545   -0.000000000   -0.000000000
 -------------------------------------------------------------------
 Cartesian Forces:  Max     0.010782545 RMS     0.004399063
 Leave Link  716 at Tue Dec  3 11:29:53 2024, MaxMem=  2147483648 cpu:               0.7 elap:               0.0
 (Enter /home/szhao/Apps/g16/l103.exe)

 GradGradGradGradGradGradGradGradGradGradGradGradGradGradGradGradGradGrad
 Berny optimization.
 FormGI is forming the generalized inverse of G from B-inverse, IUseBI=4.
 Internal  Forces:  Max     0.010782545 RMS     0.006221215
 Search for a local minimum.
 Step number   1 out of a maximum of   22
 All quantities printed in internal units (Hartrees-Bohrs-Radians)
 RMS Force = .62212D-02 SwitMx=.10000D-02 MixMth= 1
 Mixed Optimization -- RFO/linear search
 Second derivative matrix not updated -- first step.
 The second derivative matrix:
                          X1        Y1        Z1        X2        Y2
           X1           0.50000
           Y1           0.00000   0.50000
           Z1           0.00000   0.00000   0.50000
           X2           0.00000   0.00000   0.00000   0.50000
           Y2           0.00000   0.00000   0.00000   0.00000   0.50000
           Z2           0.00000   0.00000   0.00000   0.00000   0.00000
           R1           0.00000   0.00000   0.00000   0.00000   0.00000
           R2           0.00000   0.00000   0.00000   0.00000   0.00000
           A1           0.00000   0.00000   0.00000   0.00000   0.00000
           A2           0.00000   0.00000   0.00000   0.00000   0.00000
           A3           0.00000   0.00000   0.00000   0.00000   0.00000
           A4           0.00000   0.00000   0.00000   0.00000   0.00000
                          Z2        R1        R2        A1        A2
           Z2           0.50000
           R1           0.00000   0.33573
           R2           0.00000   0.00000   0.33575
           A1           0.00000   0.00000   0.00000   0.00230
           A2           0.00000   0.00000   0.00000   0.00000   0.00230
           A3           0.00000   0.00000   0.00000   0.00000   0.00000
           A4           0.00000   0.00000   0.00000   0.00000   0.00000
                          A3        A4
           A3           0.00230
           A4           0.00000   0.00230
 ITU=  0
     Eigenvalues ---    0.00230   0.00230   0.00230   0.33573   0.33575
     Eigenvalues --- 1000.000001000.000001000.000001000.000001000.00000
     Eigenvalues --- 1000.000001000.00000
 RFO step:  Lambda=-6.90252426D-04 EMin= 2.30000000D-03
 Linear search not attempted -- first point.
 Iteration  1 RMS(Cart)=  0.01307580 RMS(Int)=  0.00000000
 Iteration  2 RMS(Cart)=  0.00000000 RMS(Int)=  0.00000000
 ITry= 1 IFail=0 DXMaxC= 3.20D-02 DCOld= 1.00D+10 DXMaxT= 3.00D-01 DXLimC= 3.00D+00 Rises=F
 Variable       Old X    -DE/DX   Delta X   Delta X   Delta X     New X
                                 (Linear)    (Quad)   (Total)
    X1       -3.27331  -0.01077   0.00000   0.00000   0.00000  -3.27331
    Y1        0.00000   0.00000   0.00000   0.00000   0.00000   0.00000
    Z1        0.00000  -0.00000   0.00000   0.00000   0.00000   0.00000
    X2        3.27331   0.01078   0.00000   0.00000   0.00000   3.27331
    Y2        0.00000   0.00000   0.00000   0.00000   0.00000   0.00000
    Z2        0.00000  -0.00000   0.00000   0.00000   0.00000   0.00000
    R1        2.08058   0.01077   0.00000   0.03201   0.03201   2.11258
    R2        2.08053   0.01078   0.00000   0.03205   0.03205   2.11258
    A1        3.14159   0.00000   0.00000   0.00000   0.00000   3.14159
    A2        3.14159  -0.00000   0.00000   0.00000   0.00000   3.14159
    A3        3.14159   0.00000   0.00000   0.00000   0.00000   3.14159
    A4        3.14159  -0.00000   0.00000  -0.00000   0.00000   3.14159
         Item               Value     Threshold  Converged?
 Maximum Force            0.010783     0.000450     NO 
 RMS     Force            0.006221     0.000300     NO 
 Maximum Displacement     0.032049     0.001800     NO 
 RMS     Displacement     0.013076     0.001200     NO 
 Predicted change in Energy=-3.458358D-04
 Lowest energy point so far.  Saving SCF results.
 GradGradGradGradGradGradGradGradGradGradGradGradGradGradGradGradGradGrad

 Leave Link  103 at Tue Dec  3 11:29:53 2024, MaxMem=  2147483648 cpu:               0.5 elap:               0.0
 (Enter /home/szhao/Apps/g16/l202.exe)
                          Input orientation:                          
 ---------------------------------------------------------------------
 Center     Atomic      Atomic             Coordinates (Angstroms)
 Number     Number       Type             X           Y           Z
 ---------------------------------------------------------------------
      1          6           0       -1.732160    0.000000    0.000000
      2          6           0        1.732160    0.000000    0.000000
      3          1           0       -2.850091    0.000000   -0.000000
      4          1           0        2.850091    0.000000    0.000000
 ---------------------------------------------------------------------
                    Distance matrix (angstroms):
                    1          2          3          4
     1  C    0.000000
     2  C    3.464320   0.000000
     3  H    1.117931   4.582251   0.000000
     4  H    4.582251   1.117931   5.700182   0.000000
 Symmetry turned off by external request.
 Stoichiometry    C2H2(1+,2)
 Framework group  C*V[C*(HCCH)]
 Deg. of freedom     3
 Full point group                 C*V     NOp   4
 Rotational constants (GHZ):           0.0000000           5.7181058           5.7181058
 Leave Link  202 at Tue Dec  3 11:29:53 2024, MaxMem=  2147483648 cpu:               0.1 elap:               0.0
 (Enter /home/szhao/Apps/g16/l301.exe)
 Standard basis: 6-311+G(d,p) (5D, 7F)
 Ernie: Thresh=  0.10000D-02 Tol=  0.10000D-05 Strict=F.
    56 basis functions,    88 primitive gaussians,    58 cartesian basis functions
     7 alpha electrons        6 beta electrons
       nuclear repulsion energy        12.6579176528 Hartrees.
 IExCor= 4336 DFT=T Ex+Corr=M062X ExCW=0 ScaHFX=  0.540000
 ScaDFX=  1.000000  1.000000  1.000000  1.000000 ScalE2=  1.000000  1.000000
 IRadAn=      7 IRanWt=     -1 IRanGd=            0 ICorTp=0 IEmpDi=  4
 NAtoms=    4 NActive=    4 NUniq=    4 SFac= 1.00D+00 NAtFMM=   60 NAOKFM=F Big=F
 Integral buffers will be    131072 words long.
 Raffenetti 2 integral format.
 Two-electron integral symmetry is turned off.
 Leave Link  301 at Tue Dec  3 11:29:53 2024, MaxMem=  2147483648 cpu:               1.0 elap:               0.0
 (Enter /home/szhao/Apps/g16/l302.exe)
 NPDir=0 NMtPBC=     1 NCelOv=     1 NCel=       1 NClECP=     1 NCelD=      1
         NCelK=      1 NCelE2=     1 NClLst=     1 CellRange=     0.0.
 One-electron integrals computed using PRISM.
 NBasis=    56 RedAO= T EigKep=  1.26D-02  NBF=    56
 NBsUse=    56 1.00D-06 EigRej= -1.00D+00 NBFU=    56
 Precomputing XC quadrature grid using
 IXCGrd= 4 IRadAn=           7 IRanWt=          -1 IRanGd=           0 AccXCQ= 0.00D+00.
 Generated NRdTot=       0 NPtTot=           0 NUsed=           0 NTot=          32
 NSgBfM=    58    58    58    58    58 MxSgAt=     4 MxSgA2=     4.
 Leave Link  302 at Tue Dec  3 11:29:53 2024, MaxMem=  2147483648 cpu:               4.1 elap:               0.2
 (Enter /home/szhao/Apps/g16/l303.exe)
 DipDrv:  MaxL=1.
 Leave Link  303 at Tue Dec  3 11:29:53 2024, MaxMem=  2147483648 cpu:               0.8 elap:               0.0
 (Enter /home/szhao/Apps/g16/l401.exe)
 Initial guess from the checkpoint file:  "opt.chk"
 B after Tr=     0.000003    0.000000   -0.000000
         Rot=    1.000000   -0.000001    0.000000   -0.000000 Ang=  -0.00 deg.
 Guess basis will be translated and rotated to current coordinates.
 JPrj=2 DoOrth=T DoCkMO=T.
 Initial guess <Sx>= 0.0000 <Sy>= 0.0000 <Sz>= 0.5000 <S**2>= 0.7513 S= 0.5006
 Generating alternative initial guess.
 ExpMin= 4.38D-02 ExpMax= 4.56D+03 ExpMxC= 6.82D+02 IAcc=3 IRadAn=         5 AccDes= 0.00D+00
 Harris functional with IExCor= 1009 and IRadAn=       5 diagonalized for initial guess.
 HarFok:  IExCor= 1009 AccDes= 0.00D+00 IRadAn=         5 IDoV= 1 UseB2=F ITyADJ=14
 ICtDFT=  3500011 ScaDFX=  1.000000  1.000000  1.000000  1.000000
 FoFCou: FMM=F IPFlag=           0 FMFlag=      100000 FMFlg1=           0
         NFxFlg=           0 DoJE=T BraDBF=F KetDBF=T FulRan=T
         wScrn=  0.000000 ICntrl=       500 IOpCl=  0 I1Cent=   200000004 NGrid=           0
         NMat0=    1 NMatS0=      1 NMatT0=    0 NMatD0=    1 NMtDS0=    0 NMtDT0=    0
 Symmetry not used in FoFCou.
 Harris En= -76.6211556057920    
 Leave Link  401 at Tue Dec  3 11:29:53 2024, MaxMem=  2147483648 cpu:               7.0 elap:               0.3
 (Enter /home/szhao/Apps/g16/l502.exe)
 Keep R1 and R2 ints in memory in canonical form, NReq=23774294.
 FoFCou: FMM=F IPFlag=           0 FMFlag=           0 FMFlg1=           0
         NFxFlg=           0 DoJE=F BraDBF=F KetDBF=F FulRan=T
         wScrn=  0.000000 ICntrl=       600 IOpCl=  0 I1Cent=           0 NGrid=           0
         NMat0=    1 NMatS0=   1596 NMatT0=    0 NMatD0=    1 NMtDS0=    0 NMtDT0=    0
 Symmetry not used in FoFCou.
 Two-electron integral symmetry not used.
 UHF open shell SCF:
 Using DIIS extrapolation, IDIIS=  1040.
 NGot=  2147483648 LenX=  2144926146 LenY=  2144922341
 Requested convergence on RMS density matrix=1.00D-08 within 128 cycles.
 Requested convergence on MAX density matrix=1.00D-06.
 Requested convergence on             energy=1.00D-06.
 No special actions if energy rises.

 Cycle   1  Pass 1  IDiag  1:
 E= -76.5860751479534    
 DIIS: error= 1.56D-03 at cycle   1 NSaved=   1.
 NSaved= 1 IEnMin= 1 EnMin= -76.5860751479534     IErMin= 1 ErrMin= 1.56D-03
 ErrMax= 1.56D-03  0.00D+00 EMaxC= 1.00D-01 BMatC= 3.76D-04 BMatP= 3.76D-04
 IDIUse=3 WtCom= 9.84D-01 WtEn= 1.56D-02
 Coeff-Com:  0.100D+01
 Coeff-En:   0.100D+01
 Coeff:      0.100D+01
 Gap=     0.509 Goal=   None    Shift=    0.000
 Gap=     0.627 Goal=   None    Shift=    0.000
 GapD=    0.509 DampG=2.000 DampE=1.000 DampFc=2.0000 IDamp=-1.
 RMSDP=1.34D-04 MaxDP=1.50D-03              OVMax= 3.06D-03

 Cycle   2  Pass 1  IDiag  1:
 E= -76.5861672641624     Delta-E=       -0.000092116209 Rises=F Damp=F
 DIIS: error= 1.73D-04 at cycle   2 NSaved=   2.
 NSaved= 2 IEnMin= 2 EnMin= -76.5861672641624     IErMin= 2 ErrMin= 1.73D-04
 ErrMax= 1.73D-04  0.00D+00 EMaxC= 1.00D-01 BMatC= 8.07D-06 BMatP= 3.76D-04
 IDIUse=3 WtCom= 9.98D-01 WtEn= 1.73D-03
 Coeff-Com: -0.401D-02 0.100D+01
 Coeff-En:   0.000D+00 0.100D+01
 Coeff:     -0.400D-02 0.100D+01
 Gap=     0.084 Goal=   None    Shift=    0.000
 Gap=     0.291 Goal=   None    Shift=    0.000
 RMSDP=4.50D-05 MaxDP=1.21D-03 DE=-9.21D-05 OVMax= 7.55D-04

 Cycle   3  Pass 1  IDiag  1:
 E= -76.5861703433004     Delta-E=       -0.000003079138 Rises=F Damp=F
 DIIS: error= 9.48D-05 at cycle   3 NSaved=   3.
 NSaved= 3 IEnMin= 3 EnMin= -76.5861703433004     IErMin= 3 ErrMin= 9.48D-05
 ErrMax= 9.48D-05  0.00D+00 EMaxC= 1.00D-01 BMatC= 7.55D-07 BMatP= 8.07D-06
 IDIUse=1 WtCom= 1.00D+00 WtEn= 0.00D+00
 Coeff-Com: -0.161D-01 0.851D-01 0.931D+00
 Coeff:     -0.161D-01 0.851D-01 0.931D+00
 Gap=     0.084 Goal=   None    Shift=    0.000
 Gap=     0.291 Goal=   None    Shift=    0.000
 RMSDP=9.10D-06 MaxDP=1.45D-04 DE=-3.08D-06 OVMax= 3.14D-04

 Cycle   4  Pass 1  IDiag  1:
 E= -76.5861706303729     Delta-E=       -0.000000287073 Rises=F Damp=F
 DIIS: error= 2.37D-05 at cycle   4 NSaved=   4.
 NSaved= 4 IEnMin= 4 EnMin= -76.5861706303729     IErMin= 4 ErrMin= 2.37D-05
 ErrMax= 2.37D-05  0.00D+00 EMaxC= 1.00D-01 BMatC= 8.12D-08 BMatP= 7.55D-07
 IDIUse=1 WtCom= 1.00D+00 WtEn= 0.00D+00
 Coeff-Com:  0.337D-03-0.715D-01 0.411D-02 0.107D+01
 Coeff:      0.337D-03-0.715D-01 0.411D-02 0.107D+01
 Gap=     0.084 Goal=   None    Shift=    0.000
 Gap=     0.291 Goal=   None    Shift=    0.000
 RMSDP=4.63D-06 MaxDP=1.36D-04 DE=-2.87D-07 OVMax= 1.10D-04

 Cycle   5  Pass 1  IDiag  1:
 E= -76.5861706637096     Delta-E=       -0.000000033337 Rises=F Damp=F
 DIIS: error= 8.19D-06 at cycle   5 NSaved=   5.
 NSaved= 5 IEnMin= 5 EnMin= -76.5861706637096     IErMin= 5 ErrMin= 8.19D-06
 ErrMax= 8.19D-06  0.00D+00 EMaxC= 1.00D-01 BMatC= 7.70D-09 BMatP= 8.12D-08
 IDIUse=1 WtCom= 1.00D+00 WtEn= 0.00D+00
 Coeff-Com:  0.125D-02-0.127D-01-0.580D-01 0.125D+00 0.945D+00
 Coeff:      0.125D-02-0.127D-01-0.580D-01 0.125D+00 0.945D+00
 Gap=     0.084 Goal=   None    Shift=    0.000
 Gap=     0.291 Goal=   None    Shift=    0.000
 RMSDP=1.97D-06 MaxDP=3.98D-05 DE=-3.33D-08 OVMax= 1.86D-04

 Cycle   6  Pass 1  IDiag  1:
 E= -76.5861706615365     Delta-E=        0.000000002173 Rises=F Damp=F
 DIIS: error= 1.40D-05 at cycle   6 NSaved=   6.
 NSaved= 6 IEnMin= 5 EnMin= -76.5861706637096     IErMin= 5 ErrMin= 8.19D-06
 ErrMax= 1.40D-05  0.00D+00 EMaxC= 1.00D-01 BMatC= 1.44D-08 BMatP= 7.70D-09
 IDIUse=1 WtCom= 1.00D+00 WtEn= 0.00D+00
 Coeff-Com:  0.870D-03-0.139D-02-0.414D-01-0.263D-01 0.680D+00 0.388D+00
 Coeff:      0.870D-03-0.139D-02-0.414D-01-0.263D-01 0.680D+00 0.388D+00
 Gap=     0.084 Goal=   None    Shift=    0.000
 Gap=     0.291 Goal=   None    Shift=    0.000
 RMSDP=1.27D-06 MaxDP=2.83D-05 DE= 2.17D-09 OVMax= 1.33D-04

 Cycle   7  Pass 1  IDiag  1:
 E= -76.5861706674714     Delta-E=       -0.000000005935 Rises=F Damp=F
 DIIS: error= 1.34D-06 at cycle   7 NSaved=   7.
 NSaved= 7 IEnMin= 7 EnMin= -76.5861706674714     IErMin= 7 ErrMin= 1.34D-06
 ErrMax= 1.34D-06  0.00D+00 EMaxC= 1.00D-01 BMatC= 2.53D-10 BMatP= 7.70D-09
 IDIUse=1 WtCom= 1.00D+00 WtEn= 0.00D+00
 Coeff-Com: -0.260D-03 0.356D-02 0.129D-01-0.429D-01-0.199D+00 0.103D-01
 Coeff-Com:  0.122D+01
 Coeff:     -0.260D-03 0.356D-02 0.129D-01-0.429D-01-0.199D+00 0.103D-01
 Coeff:      0.122D+01
 Gap=     0.084 Goal=   None    Shift=    0.000
 Gap=     0.291 Goal=   None    Shift=    0.000
 RMSDP=2.68D-07 MaxDP=3.21D-06 DE=-5.93D-09 OVMax= 1.15D-05

 Cycle   8  Pass 1  IDiag  1:
 E= -76.5861706676434     Delta-E=       -0.000000000172 Rises=F Damp=F
 DIIS: error= 3.24D-07 at cycle   8 NSaved=   8.
 NSaved= 8 IEnMin= 8 EnMin= -76.5861706676434     IErMin= 8 ErrMin= 3.24D-07
 ErrMax= 3.24D-07  0.00D+00 EMaxC= 1.00D-01 BMatC= 9.59D-12 BMatP= 2.53D-10
 IDIUse=1 WtCom= 1.00D+00 WtEn= 0.00D+00
 Coeff-Com:  0.352D-04-0.108D-02-0.199D-02 0.171D-01 0.158D-01-0.290D-01
 Coeff-Com: -0.370D+00 0.137D+01
 Coeff:      0.352D-04-0.108D-02-0.199D-02 0.171D-01 0.158D-01-0.290D-01
 Coeff:     -0.370D+00 0.137D+01
 Gap=     0.084 Goal=   None    Shift=    0.000
 Gap=     0.291 Goal=   None    Shift=    0.000
 RMSDP=7.62D-08 MaxDP=8.77D-07 DE=-1.72D-10 OVMax= 4.93D-06

 Cycle   9  Pass 1  IDiag  1:
 E= -76.5861706676562     Delta-E=       -0.000000000013 Rises=F Damp=F
 DIIS: error= 2.08D-07 at cycle   9 NSaved=   9.
 NSaved= 9 IEnMin= 9 EnMin= -76.5861706676562     IErMin= 9 ErrMin= 2.08D-07
 ErrMax= 2.08D-07  0.00D+00 EMaxC= 1.00D-01 BMatC= 8.99D-13 BMatP= 9.59D-12
 IDIUse=1 WtCom= 1.00D+00 WtEn= 0.00D+00
 Coeff-Com:  0.146D-05 0.145D-03 0.161D-03-0.323D-02 0.165D-02 0.772D-02
 Coeff-Com:  0.658D-01-0.418D+00 0.135D+01
 Coeff:      0.146D-05 0.145D-03 0.161D-03-0.323D-02 0.165D-02 0.772D-02
 Coeff:      0.658D-01-0.418D+00 0.135D+01
 Gap=     0.084 Goal=   None    Shift=    0.000
 Gap=     0.291 Goal=   None    Shift=    0.000
 RMSDP=4.13D-08 MaxDP=4.24D-07 DE=-1.28D-11 OVMax= 4.75D-06

 Cycle  10  Pass 1  IDiag  1:
 E= -76.5861706676614     Delta-E=       -0.000000000005 Rises=F Damp=F
 DIIS: error= 2.08D-07 at cycle  10 NSaved=  10.
 NSaved=10 IEnMin=10 EnMin= -76.5861706676614     IErMin=10 ErrMin= 2.08D-07
 ErrMax= 2.08D-07  0.00D+00 EMaxC= 1.00D-01 BMatC= 5.83D-13 BMatP= 8.99D-13
 IDIUse=1 WtCom= 1.00D+00 WtEn= 0.00D+00
 Coeff-Com: -0.108D-05 0.869D-05-0.121D-04 0.100D-03-0.180D-03-0.417D-03
 Coeff-Com: -0.283D-02 0.409D-01-0.237D+00 0.120D+01
 Coeff:     -0.108D-05 0.869D-05-0.121D-04 0.100D-03-0.180D-03-0.417D-03
 Coeff:     -0.283D-02 0.409D-01-0.237D+00 0.120D+01
 Gap=     0.084 Goal=   None    Shift=    0.000
 Gap=     0.291 Goal=   None    Shift=    0.000
 RMSDP=3.53D-08 MaxDP=3.74D-07 DE=-5.20D-12 OVMax= 4.16D-06

 Cycle  11  Pass 1  IDiag  1:
 E= -76.5861706676657     Delta-E=       -0.000000000004 Rises=F Damp=F
 DIIS: error= 2.08D-07 at cycle  11 NSaved=  11.
 NSaved=11 IEnMin=11 EnMin= -76.5861706676657     IErMin=10 ErrMin= 2.08D-07
 ErrMax= 2.08D-07  0.00D+00 EMaxC= 1.00D-01 BMatC= 5.78D-13 BMatP= 5.83D-13
 IDIUse=1 WtCom= 1.00D+00 WtEn= 0.00D+00
 Coeff-Com:  0.118D-06-0.173D-05 0.377D-06 0.562D-05 0.353D-04 0.866D-05
 Coeff-Com: -0.144D-03-0.232D-02 0.220D-01-0.170D+00 0.115D+01
 Coeff:      0.118D-06-0.173D-05 0.377D-06 0.562D-05 0.353D-04 0.866D-05
 Coeff:     -0.144D-03-0.232D-02 0.220D-01-0.170D+00 0.115D+01
 Gap=     0.084 Goal=   None    Shift=    0.000
 Gap=     0.291 Goal=   None    Shift=    0.000
 RMSDP=3.33D-08 MaxDP=3.54D-07 DE=-4.26D-12 OVMax= 3.92D-06

 Cycle  12  Pass 1  IDiag  1:
 E= -76.5861706676697     Delta-E=       -0.000000000004 Rises=F Damp=F
 DIIS: error= 2.08D-07 at cycle  12 NSaved=  12.
 NSaved=12 IEnMin=12 EnMin= -76.5861706676697     IErMin=10 ErrMin= 2.08D-07
 ErrMax= 2.08D-07  0.00D+00 EMaxC= 1.00D-01 BMatC= 5.78D-13 BMatP= 5.78D-13
 IDIUse=1 WtCom= 1.00D+00 WtEn= 0.00D+00
 Coeff-Com:  0.560D-08-0.153D-07 0.115D-06-0.262D-06-0.136D-05 0.141D-05
 Coeff-Com:  0.206D-04-0.226D-03 0.114D-02-0.436D-02-0.473D-01 0.105D+01
 Coeff:      0.560D-08-0.153D-07 0.115D-06-0.262D-06-0.136D-05 0.141D-05
 Coeff:      0.206D-04-0.226D-03 0.114D-02-0.436D-02-0.473D-01 0.105D+01
 Gap=     0.084 Goal=   None    Shift=    0.000
 Gap=     0.291 Goal=   None    Shift=    0.000
 RMSDP=3.04D-08 MaxDP=3.24D-07 DE=-4.04D-12 OVMax= 3.59D-06

 Cycle  13  Pass 1  IDiag  1:
 E= -76.5861706676734     Delta-E=       -0.000000000004 Rises=F Damp=F
 DIIS: error= 2.08D-07 at cycle  13 NSaved=  13.
 NSaved=13 IEnMin=13 EnMin= -76.5861706676734     IErMin=10 ErrMin= 2.08D-07
 ErrMax= 2.08D-07  0.00D+00 EMaxC= 1.00D-01 BMatC= 5.78D-13 BMatP= 5.78D-13
 IDIUse=1 WtCom= 1.00D+00 WtEn= 0.00D+00
 Large coefficients: NSaved= 13 BigCof=   10.58 CofMax=   10.00 Det=-4.60D-20
 Inversion failed.  Reducing to 12 matrices.
 Large coefficients: NSaved= 12 BigCof=   10.30 CofMax=   10.00 Det=-4.81D-20
 Inversion failed.  Reducing to 11 matrices.
 Coeff-Com:  0.110D-07 0.407D-05-0.212D-04-0.583D-05 0.702D-04-0.230D-03
 Coeff-Com: -0.131D-02 0.388D-01-0.985D+00 0.896D+01-0.701D+01
 Coeff:      0.110D-07 0.407D-05-0.212D-04-0.583D-05 0.702D-04-0.230D-03
 Coeff:     -0.131D-02 0.388D-01-0.985D+00 0.896D+01-0.701D+01
 Gap=     0.084 Goal=   None    Shift=    0.000
 Gap=     0.291 Goal=   None    Shift=    0.000
 RMSDP=1.85D-07 MaxDP=1.97D-06 DE=-3.72D-12 OVMax= 2.18D-05

 Cycle  14  Pass 1  IDiag  1:
 E= -76.5861706676510     Delta-E=        0.000000000022 Rises=F Damp=F
 DIIS: error= 2.08D-07 at cycle  14 NSaved=  12.
 NSaved=12 IEnMin=11 EnMin= -76.5861706676734     IErMin=12 ErrMin= 2.08D-07
 ErrMax= 2.08D-07  0.00D+00 EMaxC= 1.00D-01 BMatC= 5.78D-13 BMatP= 5.78D-13
 IDIUse=1 WtCom= 1.00D+00 WtEn= 0.00D+00
 Large coefficients: NSaved= 12 BigCof=  119.32 CofMax=   10.00 Det=-1.54D-20
 Inversion failed.  Reducing to 11 matrices.
 Large coefficients: NSaved= 11 BigCof=  113.42 CofMax=   10.00 Det=-1.59D-20
 Inversion failed.  Reducing to 10 matrices.
 Large coefficients: NSaved= 10 BigCof=   97.58 CofMax=   10.00 Det=-1.86D-20
 Inversion failed.  Reducing to  9 matrices.
 Large coefficients: NSaved=  9 BigCof=   71.86 CofMax=   10.00 Det=-2.39D-20
 Inversion failed.  Reducing to  8 matrices.
 Large coefficients: NSaved=  8 BigCof=   63.71 CofMax=   10.00 Det=-3.34D-20
 Inversion failed.  Reducing to  7 matrices.
 Large coefficients: NSaved=  7 BigCof=   60.72 CofMax=   10.00 Det=-3.80D-20
 Inversion failed.  Reducing to  6 matrices.
 Large coefficients: NSaved=  6 BigCof=   37.60 CofMax=   10.00 Det=-6.48D-20
 Inversion failed.  Reducing to  5 matrices.
 Large coefficients: NSaved=  5 BigCof=   35.04 CofMax=   10.00 Det=-6.54D-20
 Inversion failed.  Reducing to  4 matrices.
 Large coefficients: NSaved=  4 BigCof=   34.84 CofMax=   10.00 Det=-6.99D-20
 Inversion failed.  Reducing to  3 matrices.
 Large coefficients: NSaved=  3 BigCof=   31.51 CofMax=   10.00 Det=-1.51D-19
 Inversion failed.  Reducing to  2 matrices.
 Large coefficients: NSaved=  2 BigCof=   21.24 CofMax=   10.00 Det=-1.97D-19
 Coeff-Com: -0.202D+02 0.212D+02
 Coeff:     -0.202D+02 0.212D+02
 Gap=     0.084 Goal=   None    Shift=    0.000
 Gap=     0.291 Goal=   None    Shift=    0.000
 RMSDP=3.71D-06 MaxDP=3.95D-05 DE= 2.25D-11 OVMax= 4.38D-04

 Cycle  15  Pass 1  IDiag  1:
 E= -76.5861706671996     Delta-E=        0.000000000451 Rises=F Damp=F
 DIIS: error= 2.08D-07 at cycle  15 NSaved=   3.
 NSaved= 3 IEnMin= 1 EnMin= -76.5861706676734     IErMin= 3 ErrMin= 2.08D-07
 ErrMax= 2.08D-07  0.00D+00 EMaxC= 1.00D-01 BMatC= 5.78D-13 BMatP= 5.78D-13
 IDIUse=1 WtCom= 1.00D+00 WtEn= 0.00D+00
 Large coefficients: NSaved=  3 BigCof=   19.03 CofMax=   10.00 Det=-1.90D-19
 Inversion failed.  Reducing to  2 matrices.
 Coeff-Com:  0.489D+00 0.511D+00
 Coeff:      0.489D+00 0.511D+00
 Gap=     0.084 Goal=   None    Shift=    0.000
 Gap=     0.291 Goal=   None    Shift=    0.000
 RMSDP=1.84D-06 MaxDP=1.96D-05 DE= 4.51D-10 OVMax= 2.18D-04

 Cycle  16  Pass 1  IDiag  1:
 E= -76.5861706674238     Delta-E=       -0.000000000224 Rises=F Damp=F
 DIIS: error= 2.08D-07 at cycle  16 NSaved=   3.
 NSaved= 3 IEnMin= 1 EnMin= -76.5861706676510     IErMin= 2 ErrMin= 2.08D-07
 ErrMax= 2.08D-07  0.00D+00 EMaxC= 1.00D-01 BMatC= 5.78D-13 BMatP= 5.78D-13
 IDIUse=1 WtCom= 1.00D+00 WtEn= 0.00D+00
 Large coefficients: NSaved=  3 BigCof=   32.49 CofMax=   10.00 Det=-1.48D-18
 Inversion failed.  Reducing to  2 matrices.
 Coeff-Com:  0.340D+00 0.660D+00
 Coeff:      0.340D+00 0.660D+00
 Gap=     0.084 Goal=   None    Shift=    0.000
 Gap=     0.291 Goal=   None    Shift=    0.000
 RMSDP=5.98D-07 MaxDP=6.37D-06 DE=-2.24D-10 OVMax= 7.06D-05

 Cycle  17  Pass 1  IDiag  1:
 E= -76.5861706673511     Delta-E=        0.000000000073 Rises=F Damp=F
 DIIS: error= 2.08D-07 at cycle  17 NSaved=   3.
 NSaved= 3 IEnMin= 2 EnMin= -76.5861706674238     IErMin= 1 ErrMin= 2.08D-07
 ErrMax= 2.08D-07  0.00D+00 EMaxC= 1.00D-01 BMatC= 5.78D-13 BMatP= 5.78D-13
 IDIUse=1 WtCom= 1.00D+00 WtEn= 0.00D+00
 Coeff-Com: -0.957D+00-0.699D+01 0.895D+01
 Coeff:     -0.957D+00-0.699D+01 0.895D+01
 Gap=     0.084 Goal=   None    Shift=    0.000
 Gap=     0.291 Goal=   None    Shift=    0.000
 RMSDP=2.96D-06 MaxDP=3.15D-05 DE= 7.27D-11 OVMax= 3.49D-04

 Cycle  18  Pass 1  IDiag  1:
 E= -76.5861706669913     Delta-E=        0.000000000360 Rises=F Damp=F
 DIIS: error= 2.08D-07 at cycle  18 NSaved=   4.
 NSaved= 4 IEnMin= 2 EnMin= -76.5861706674238     IErMin= 4 ErrMin= 2.08D-07
 ErrMax= 2.08D-07  0.00D+00 EMaxC= 1.00D-01 BMatC= 5.78D-13 BMatP= 5.78D-13
 IDIUse=1 WtCom= 1.00D+00 WtEn= 0.00D+00
 Large coefficients: NSaved=  4 BigCof=   13.66 CofMax=   10.00 Det=-9.24D-19
 Inversion failed.  Reducing to  3 matrices.
 Coeff-Com: -0.128D+01 0.183D+01 0.453D+00
 Coeff:     -0.128D+01 0.183D+01 0.453D+00
 Gap=     0.084 Goal=   None    Shift=    0.000
 Gap=     0.291 Goal=   None    Shift=    0.000
 RMSDP=8.80D-07 MaxDP=9.36D-06 DE= 3.60D-10 OVMax= 1.04D-04

 Cycle  19  Pass 1  IDiag  1:
 E= -76.5861706670983     Delta-E=       -0.000000000107 Rises=F Damp=F
 DIIS: error= 2.08D-07 at cycle  19 NSaved=   4.
 NSaved= 4 IEnMin= 1 EnMin= -76.5861706674238     IErMin= 3 ErrMin= 2.08D-07
 ErrMax= 2.08D-07  0.00D+00 EMaxC= 1.00D-01 BMatC= 5.78D-13 BMatP= 5.78D-13
 IDIUse=1 WtCom= 1.00D+00 WtEn= 0.00D+00
 Coeff-Com: -0.358D+00-0.344D+01 0.202D+00 0.459D+01
 Coeff:     -0.358D+00-0.344D+01 0.202D+00 0.459D+01
 Gap=     0.084 Goal=   None    Shift=    0.000
 Gap=     0.291 Goal=   None    Shift=    0.000
 RMSDP=8.26D-06 MaxDP=8.78D-05 DE=-1.07D-10 OVMax= 9.74D-04

 Cycle  20  Pass 1  IDiag  1:
 E= -76.5861706660954     Delta-E=        0.000000001003 Rises=F Damp=F
 DIIS: error= 2.08D-07 at cycle  20 NSaved=   5.
 NSaved= 5 IEnMin= 1 EnMin= -76.5861706674238     IErMin= 5 ErrMin= 2.08D-07
 ErrMax= 2.08D-07  0.00D+00 EMaxC= 1.00D-01 BMatC= 5.84D-13 BMatP= 5.78D-13
 IDIUse=1 WtCom= 1.00D+00 WtEn= 0.00D+00
 Large coefficients: NSaved=  5 BigCof=   25.04 CofMax=   10.00 Det=-7.80D-19
 Inversion failed.  Reducing to  4 matrices.
 Coeff-Com: -0.215D+01-0.144D+01 0.464D+01-0.516D-01
 Coeff:     -0.215D+01-0.144D+01 0.464D+01-0.516D-01
 Gap=     0.084 Goal=   None    Shift=    0.000
 Gap=     0.291 Goal=   None    Shift=    0.000
 RMSDP=5.05D-08 MaxDP=5.37D-07 DE= 1.00D-09 OVMax= 5.95D-06

 Cycle  21  Pass 1  IDiag  1:
 E= -76.5861706660892     Delta-E=        0.000000000006 Rises=F Damp=F
 DIIS: error= 2.08D-07 at cycle  21 NSaved=   5.
 NSaved= 5 IEnMin= 1 EnMin= -76.5861706674238     IErMin= 5 ErrMin= 2.08D-07
 ErrMax= 2.08D-07  0.00D+00 EMaxC= 1.00D-01 BMatC= 5.85D-13 BMatP= 5.78D-13
 IDIUse=1 WtCom= 1.00D+00 WtEn= 0.00D+00
 Large coefficients: NSaved=  5 BigCof=   75.94 CofMax=   10.00 Det=-2.22D-19
 Inversion failed.  Reducing to  4 matrices.
 Coeff-Com: -0.925D+00 0.167D+01 0.255D+01-0.229D+01
 Coeff:     -0.925D+00 0.167D+01 0.255D+01-0.229D+01
 Gap=     0.084 Goal=   None    Shift=    0.000
 Gap=     0.291 Goal=   None    Shift=    0.000
 RMSDP=7.37D-06 MaxDP=7.83D-05 DE= 6.21D-12 OVMax= 8.69D-04

 Cycle  22  Pass 1  IDiag  1:
 E= -76.5861706669840     Delta-E=       -0.000000000895 Rises=F Damp=F
 DIIS: error= 2.08D-07 at cycle  22 NSaved=   5.
 NSaved= 5 IEnMin= 1 EnMin= -76.5861706674238     IErMin= 4 ErrMin= 2.08D-07
 ErrMax= 2.08D-07  0.00D+00 EMaxC= 1.00D-01 BMatC= 5.78D-13 BMatP= 5.78D-13
 IDIUse=1 WtCom= 1.00D+00 WtEn= 0.00D+00
 Large coefficients: NSaved=  5 BigCof=  225.58 CofMax=   10.00 Det=-1.46D-19
 Inversion failed.  Reducing to  4 matrices.
 Large coefficients: NSaved=  4 BigCof=   10.70 CofMax=   10.00 Det=-1.42D-18
 Inversion failed.  Reducing to  3 matrices.
 Coeff-Com:  0.620D+00 0.718D-01 0.308D+00
 Coeff:      0.620D+00 0.718D-01 0.308D+00
 Gap=     0.084 Goal=   None    Shift=    0.000
 Gap=     0.291 Goal=   None    Shift=    0.000
 RMSDP=1.75D-06 MaxDP=1.86D-05 DE=-8.95D-10 OVMax= 2.06D-04

 Cycle  23  Pass 1  IDiag  1:
 E= -76.5861706671962     Delta-E=       -0.000000000212 Rises=F Damp=F
 DIIS: error= 2.08D-07 at cycle  23 NSaved=   4.
 NSaved= 4 IEnMin= 1 EnMin= -76.5861706674238     IErMin= 2 ErrMin= 2.08D-07
 ErrMax= 2.08D-07  0.00D+00 EMaxC= 1.00D-01 BMatC= 5.78D-13 BMatP= 5.78D-13
 IDIUse=1 WtCom= 1.00D+00 WtEn= 0.00D+00
 Large coefficients: NSaved=  4 BigCof=   47.53 CofMax=   10.00 Det=-1.58D-18
 Inversion failed.  Reducing to  3 matrices.
 Coeff-Com:  0.110D+00 0.443D+00 0.447D+00
 Coeff:      0.110D+00 0.443D+00 0.447D+00
 Gap=     0.084 Goal=   None    Shift=    0.000
 Gap=     0.291 Goal=   None    Shift=    0.000
 RMSDP=5.39D-07 MaxDP=5.73D-06 DE=-2.12D-10 OVMax= 6.35D-05

 Cycle  24  Pass 1  IDiag  1:
 E= -76.5861706671307     Delta-E=        0.000000000065 Rises=F Damp=F
 DIIS: error= 2.08D-07 at cycle  24 NSaved=   4.
 NSaved= 4 IEnMin= 1 EnMin= -76.5861706674238     IErMin= 2 ErrMin= 2.08D-07
 ErrMax= 2.08D-07  0.00D+00 EMaxC= 1.00D-01 BMatC= 5.78D-13 BMatP= 5.78D-13
 IDIUse=1 WtCom= 1.00D+00 WtEn= 0.00D+00
 Coeff-Com: -0.352D+01 0.426D+00 0.394D+00 0.370D+01
 Coeff:     -0.352D+01 0.426D+00 0.394D+00 0.370D+01
 Gap=     0.084 Goal=   None    Shift=    0.000
 Gap=     0.291 Goal=   None    Shift=    0.000
 RMSDP=8.77D-06 MaxDP=9.33D-05 DE= 6.55D-11 OVMax= 1.03D-03

 Cycle  25  Pass 1  IDiag  1:
 E= -76.5861706660647     Delta-E=        0.000000001066 Rises=F Damp=F
 DIIS: error= 2.08D-07 at cycle  25 NSaved=   5.
 NSaved= 5 IEnMin= 1 EnMin= -76.5861706674238     IErMin= 5 ErrMin= 2.08D-07
 ErrMax= 2.08D-07  0.00D+00 EMaxC= 1.00D-01 BMatC= 5.84D-13 BMatP= 5.78D-13
 IDIUse=1 WtCom= 1.00D+00 WtEn= 0.00D+00
 Large coefficients: NSaved=  5 BigCof=  215.47 CofMax=   10.00 Det=-3.94D-19
 Inversion failed.  Reducing to  4 matrices.
 Coeff-Com: -0.288D+01 0.204D+00 0.361D+01 0.595D-01
 Coeff:     -0.288D+01 0.204D+00 0.361D+01 0.595D-01
 Gap=     0.084 Goal=   None    Shift=    0.000
 Gap=     0.291 Goal=   None    Shift=    0.000
 RMSDP=1.45D-06 MaxDP=1.54D-05 DE= 1.07D-09 OVMax= 1.71D-04

 Cycle  26  Pass 1  IDiag  1:
 E= -76.5861706662411     Delta-E=       -0.000000000176 Rises=F Damp=F
 DIIS: error= 2.08D-07 at cycle  26 NSaved=   5.
 NSaved= 5 IEnMin= 1 EnMin= -76.5861706674238     IErMin= 4 ErrMin= 2.08D-07
 ErrMax= 2.08D-07  0.00D+00 EMaxC= 1.00D-01 BMatC= 5.81D-13 BMatP= 5.78D-13
 IDIUse=1 WtCom= 1.00D+00 WtEn= 0.00D+00
 Large coefficients: NSaved=  5 BigCof=  168.88 CofMax=   10.00 Det=-4.97D-19
 Inversion failed.  Reducing to  4 matrices.
 Large coefficients: NSaved=  4 BigCof=   29.22 CofMax=   10.00 Det=-3.96D-18
 Inversion failed.  Reducing to  3 matrices.
 Coeff-Com:  0.622D+00-0.611D+00 0.989D+00
 Coeff:      0.622D+00-0.611D+00 0.989D+00
 Gap=     0.084 Goal=   None    Shift=    0.000
 Gap=     0.291 Goal=   None    Shift=    0.000
 RMSDP=6.97D-06 MaxDP=7.41D-05 DE=-1.76D-10 OVMax= 8.22D-04

 Cycle  27  Pass 1  IDiag  1:
 E= -76.5861706670882     Delta-E=       -0.000000000847 Rises=F Damp=F
 DIIS: error= 2.08D-07 at cycle  27 NSaved=   4.
 NSaved= 4 IEnMin= 1 EnMin= -76.5861706674238     IErMin= 2 ErrMin= 2.08D-07
 ErrMax= 2.08D-07  0.00D+00 EMaxC= 1.00D-01 BMatC= 5.78D-13 BMatP= 5.78D-13
 IDIUse=1 WtCom= 1.00D+00 WtEn= 0.00D+00
 Large coefficients: NSaved=  4 BigCof=   39.27 CofMax=   10.00 Det=-2.18D-18
 Inversion failed.  Reducing to  3 matrices.
 Coeff-Com:  0.345D+00 0.163D+00 0.492D+00
 Coeff:      0.345D+00 0.163D+00 0.492D+00
 Gap=     0.084 Goal=   None    Shift=    0.000
 Gap=     0.291 Goal=   None    Shift=    0.000
 RMSDP=1.53D-07 MaxDP=1.63D-06 DE=-8.47D-10 OVMax= 1.81D-05

 Cycle  28  Pass 1  IDiag  1:
 E= -76.5861706670696     Delta-E=        0.000000000019 Rises=F Damp=F
 DIIS: error= 2.08D-07 at cycle  28 NSaved=   4.
 NSaved= 4 IEnMin= 1 EnMin= -76.5861706674238     IErMin= 2 ErrMin= 2.08D-07
 ErrMax= 2.08D-07  0.00D+00 EMaxC= 1.00D-01 BMatC= 5.78D-13 BMatP= 5.78D-13
 IDIUse=1 WtCom= 1.00D+00 WtEn= 0.00D+00
 Large coefficients: NSaved=  4 BigCof=   43.51 CofMax=   10.00 Det=-1.84D-18
 Inversion failed.  Reducing to  3 matrices.
 Coeff-Com: -0.947D+00 0.971D+00 0.976D+00
 Coeff:     -0.947D+00 0.971D+00 0.976D+00
 Gap=     0.084 Goal=   None    Shift=    0.000
 Gap=     0.291 Goal=   None    Shift=    0.000
 RMSDP=2.58D-06 MaxDP=2.75D-05 DE= 1.86D-11 OVMax= 3.05D-04

 Cycle  29  Pass 1  IDiag  1:
 E= -76.5861706667556     Delta-E=        0.000000000314 Rises=F Damp=F
 DIIS: error= 2.08D-07 at cycle  29 NSaved=   4.
 NSaved= 4 IEnMin= 1 EnMin= -76.5861706674238     IErMin= 4 ErrMin= 2.08D-07
 ErrMax= 2.08D-07  0.00D+00 EMaxC= 1.00D-01 BMatC= 5.78D-13 BMatP= 5.78D-13
 IDIUse=1 WtCom= 1.00D+00 WtEn= 0.00D+00
 Large coefficients: NSaved=  4 BigCof=   13.94 CofMax=   10.00 Det=-5.76D-18
 Inversion failed.  Reducing to  3 matrices.
 Coeff-Com: -0.609D+00 0.547D+00 0.106D+01
 Coeff:     -0.609D+00 0.547D+00 0.106D+01
 Gap=     0.084 Goal=   None    Shift=    0.000
 Gap=     0.291 Goal=   None    Shift=    0.000
 RMSDP=1.91D-06 MaxDP=2.03D-05 DE= 3.14D-10 OVMax= 2.25D-04

 Cycle  30  Pass 1  IDiag  1:
 E= -76.5861706665236     Delta-E=        0.000000000232 Rises=F Damp=F
 DIIS: error= 2.08D-07 at cycle  30 NSaved=   4.
 NSaved= 4 IEnMin= 1 EnMin= -76.5861706674238     IErMin= 4 ErrMin= 2.08D-07
 ErrMax= 2.08D-07  0.00D+00 EMaxC= 1.00D-01 BMatC= 5.79D-13 BMatP= 5.78D-13
 IDIUse=1 WtCom= 1.00D+00 WtEn= 0.00D+00
 Large coefficients: NSaved=  4 BigCof=   47.76 CofMax=   10.00 Det=-2.11D-18
 Inversion failed.  Reducing to  3 matrices.
 Coeff-Com:  0.124D+00 0.808D+00 0.684D-01
 Coeff:      0.124D+00 0.808D+00 0.684D-01
 Gap=     0.084 Goal=   None    Shift=    0.000
 Gap=     0.291 Goal=   None    Shift=    0.000
 RMSDP=2.49D-06 MaxDP=2.65D-05 DE= 2.32D-10 OVMax= 2.93D-04

 Cycle  31  Pass 1  IDiag  1:
 E= -76.5861706668259     Delta-E=       -0.000000000302 Rises=F Damp=F
 DIIS: error= 2.08D-07 at cycle  31 NSaved=   4.
 NSaved= 4 IEnMin= 1 EnMin= -76.5861706674238     IErMin= 3 ErrMin= 2.08D-07
 ErrMax= 2.08D-07  0.00D+00 EMaxC= 1.00D-01 BMatC= 5.78D-13 BMatP= 5.78D-13
 IDIUse=1 WtCom= 1.00D+00 WtEn= 0.00D+00
 Large coefficients: NSaved=  4 BigCof=   79.14 CofMax=   10.00 Det=-1.46D-18
 Inversion failed.  Reducing to  3 matrices.
 Large coefficients: NSaved=  3 BigCof=   78.57 CofMax=   10.00 Det=-1.46D-18
 Inversion failed.  Reducing to  2 matrices.
 Coeff-Com:  0.176D+00 0.824D+00
 Coeff:      0.176D+00 0.824D+00
 Gap=     0.084 Goal=   None    Shift=    0.000
 Gap=     0.291 Goal=   None    Shift=    0.000
 RMSDP=4.08D-07 MaxDP=4.34D-06 DE=-3.02D-10 OVMax= 4.81D-05

 Cycle  32  Pass 1  IDiag  1:
 E= -76.5861706667763     Delta-E=        0.000000000050 Rises=F Damp=F
 DIIS: error= 2.08D-07 at cycle  32 NSaved=   3.
 NSaved= 3 IEnMin= 2 EnMin= -76.5861706668259     IErMin= 1 ErrMin= 2.08D-07
 ErrMax= 2.08D-07  0.00D+00 EMaxC= 1.00D-01 BMatC= 5.78D-13 BMatP= 5.78D-13
 IDIUse=1 WtCom= 1.00D+00 WtEn= 0.00D+00
 Coeff-Com:  0.222D+00-0.921D-01 0.870D+00
 Coeff:      0.222D+00-0.921D-01 0.870D+00
 Gap=     0.084 Goal=   None    Shift=    0.000
 Gap=     0.291 Goal=   None    Shift=    0.000
 RMSDP=4.71D-07 MaxDP=5.01D-06 DE= 4.96D-11 OVMax= 5.56D-05

 Cycle  33  Pass 1  IDiag  1:
 E= -76.5861706667190     Delta-E=        0.000000000057 Rises=F Damp=F
 DIIS: error= 2.08D-07 at cycle  33 NSaved=   4.
 NSaved= 4 IEnMin= 2 EnMin= -76.5861706668259     IErMin= 1 ErrMin= 2.08D-07
 ErrMax= 2.08D-07  0.00D+00 EMaxC= 1.00D-01 BMatC= 5.78D-13 BMatP= 5.78D-13
 IDIUse=1 WtCom= 1.00D+00 WtEn= 0.00D+00
 Large coefficients: NSaved=  4 BigCof=   10.89 CofMax=   10.00 Det=-2.90D-18
 Inversion failed.  Reducing to  3 matrices.
 Coeff-Com: -0.226D+01 0.170D+00 0.309D+01
 Coeff:     -0.226D+01 0.170D+00 0.309D+01
 Gap=     0.084 Goal=   None    Shift=    0.000
 Gap=     0.291 Goal=   None    Shift=    0.000
 RMSDP=1.88D-06 MaxDP=2.00D-05 DE= 5.73D-11 OVMax= 2.22D-04

 Cycle  34  Pass 1  IDiag  1:
 E= -76.5861706664909     Delta-E=        0.000000000228 Rises=F Damp=F
 DIIS: error= 2.08D-07 at cycle  34 NSaved=   4.
 NSaved= 4 IEnMin= 1 EnMin= -76.5861706668259     IErMin= 4 ErrMin= 2.08D-07
 ErrMax= 2.08D-07  0.00D+00 EMaxC= 1.00D-01 BMatC= 5.78D-13 BMatP= 5.78D-13
 IDIUse=1 WtCom= 1.00D+00 WtEn= 0.00D+00
 Coeff-Com: -0.190D+01-0.209D+01 0.314D+01 0.185D+01
 Coeff:     -0.190D+01-0.209D+01 0.314D+01 0.185D+01
 Gap=     0.084 Goal=   None    Shift=    0.000
 Gap=     0.291 Goal=   None    Shift=    0.000
 RMSDP=4.22D-06 MaxDP=4.48D-05 DE= 2.28D-10 OVMax= 4.98D-04

 Cycle  35  Pass 1  IDiag  1:
 E= -76.5861706659784     Delta-E=        0.000000000513 Rises=F Damp=F
 DIIS: error= 2.08D-07 at cycle  35 NSaved=   5.
 NSaved= 5 IEnMin= 1 EnMin= -76.5861706668259     IErMin= 5 ErrMin= 2.08D-07
 ErrMax= 2.08D-07  0.00D+00 EMaxC= 1.00D-01 BMatC= 5.79D-13 BMatP= 5.78D-13
 IDIUse=1 WtCom= 1.00D+00 WtEn= 0.00D+00
 Large coefficients: NSaved=  5 BigCof=  182.68 CofMax=   10.00 Det=-1.82D-19
 Inversion failed.  Reducing to  4 matrices.
 Coeff-Com:  0.748D+00-0.172D+01 0.203D+01-0.549D-01
 Coeff:      0.748D+00-0.172D+01 0.203D+01-0.549D-01
 Gap=     0.084 Goal=   None    Shift=    0.000
 Gap=     0.291 Goal=   None    Shift=    0.000
 RMSDP=2.49D-06 MaxDP=2.65D-05 DE= 5.13D-10 OVMax= 2.94D-04

 Cycle  36  Pass 1  IDiag  1:
 E= -76.5861706662808     Delta-E=       -0.000000000302 Rises=F Damp=F
 DIIS: error= 2.08D-07 at cycle  36 NSaved=   5.
 NSaved= 5 IEnMin= 1 EnMin= -76.5861706668259     IErMin= 4 ErrMin= 2.08D-07
 ErrMax= 2.08D-07  0.00D+00 EMaxC= 1.00D-01 BMatC= 5.78D-13 BMatP= 5.78D-13
 IDIUse=1 WtCom= 1.00D+00 WtEn= 0.00D+00
 Large coefficients: NSaved=  5 BigCof=  471.41 CofMax=   10.00 Det=-9.72D-20
 Inversion failed.  Reducing to  4 matrices.
 Coeff-Com: -0.397D+00 0.887D+00 0.976D-02 0.500D+00
 Coeff:     -0.397D+00 0.887D+00 0.976D-02 0.500D+00
 Gap=     0.084 Goal=   None    Shift=    0.000
 Gap=     0.291 Goal=   None    Shift=    0.000
 RMSDP=1.84D-06 MaxDP=1.96D-05 DE=-3.02D-10 OVMax= 2.17D-04

 Cycle  37  Pass 1  IDiag  1:
 E= -76.5861706665045     Delta-E=       -0.000000000224 Rises=F Damp=F
 DIIS: error= 2.08D-07 at cycle  37 NSaved=   5.
 NSaved= 5 IEnMin= 1 EnMin= -76.5861706668259     IErMin= 3 ErrMin= 2.08D-07
 ErrMax= 2.08D-07  0.00D+00 EMaxC= 1.00D-01 BMatC= 5.78D-13 BMatP= 5.78D-13
 IDIUse=1 WtCom= 1.00D+00 WtEn= 0.00D+00
 Large coefficients: NSaved=  5 BigCof= 2294.57 CofMax=   10.00 Det=-5.77D-20
 Inversion failed.  Reducing to  4 matrices.
 Large coefficients: NSaved=  4 BigCof=  295.75 CofMax=   10.00 Det=-5.49D-19
 Inversion failed.  Reducing to  3 matrices.
 Large coefficients: NSaved=  3 BigCof=   13.02 CofMax=   10.00 Det=-5.50D-18
 Inversion failed.  Reducing to  2 matrices.
 Coeff-Com:  0.384D+00 0.616D+00
 Coeff:      0.384D+00 0.616D+00
 Gap=     0.084 Goal=   None    Shift=    0.000
 Gap=     0.291 Goal=   None    Shift=    0.000
 RMSDP=6.79D-07 MaxDP=7.22D-06 DE=-2.24D-10 OVMax= 8.01D-05

 Cycle  38  Pass 1  IDiag  1:
 E= -76.5861706664221     Delta-E=        0.000000000082 Rises=F Damp=F
 DIIS: error= 2.08D-07 at cycle  38 NSaved=   3.
 NSaved= 3 IEnMin= 2 EnMin= -76.5861706665045     IErMin= 1 ErrMin= 2.08D-07
 ErrMax= 2.08D-07  0.00D+00 EMaxC= 1.00D-01 BMatC= 5.78D-13 BMatP= 5.78D-13
 IDIUse=1 WtCom= 1.00D+00 WtEn= 0.00D+00
 Coeff-Com: -0.214D+00-0.244D+01 0.365D+01
 Coeff:     -0.214D+00-0.244D+01 0.365D+01
 Gap=     0.084 Goal=   None    Shift=    0.000
 Gap=     0.291 Goal=   None    Shift=    0.000
 RMSDP=1.38D-06 MaxDP=1.46D-05 DE= 8.24D-11 OVMax= 1.62D-04

 Cycle  39  Pass 1  IDiag  1:
 E= -76.5861706662549     Delta-E=        0.000000000167 Rises=F Damp=F
 DIIS: error= 2.08D-07 at cycle  39 NSaved=   4.
 NSaved= 4 IEnMin= 2 EnMin= -76.5861706665045     IErMin= 4 ErrMin= 2.08D-07
 ErrMax= 2.08D-07  0.00D+00 EMaxC= 1.00D-01 BMatC= 5.78D-13 BMatP= 5.78D-13
 IDIUse=1 WtCom= 1.00D+00 WtEn= 0.00D+00
 Large coefficients: NSaved=  4 BigCof=   20.66 CofMax=   10.00 Det=-1.22D-18
 Inversion failed.  Reducing to  3 matrices.
 Coeff-Com: -0.536D+00 0.365D+00 0.117D+01
 Coeff:     -0.536D+00 0.365D+00 0.117D+01
 Gap=     0.084 Goal=   None    Shift=    0.000
 Gap=     0.291 Goal=   None    Shift=    0.000
 RMSDP=5.70D-07 MaxDP=6.06D-06 DE= 1.67D-10 OVMax= 6.72D-05

 Cycle  40  Pass 1  IDiag  1:
 E= -76.5861706661856     Delta-E=        0.000000000069 Rises=F Damp=F
 DIIS: error= 2.08D-07 at cycle  40 NSaved=   4.
 NSaved= 4 IEnMin= 1 EnMin= -76.5861706665045     IErMin= 4 ErrMin= 2.08D-07
 ErrMax= 2.08D-07  0.00D+00 EMaxC= 1.00D-01 BMatC= 5.78D-13 BMatP= 5.78D-13
 IDIUse=1 WtCom= 1.00D+00 WtEn= 0.00D+00
 Coeff-Com: -0.539D+00-0.320D+01 0.233D+01 0.240D+01
 Coeff:     -0.539D+00-0.320D+01 0.233D+01 0.240D+01
 Gap=     0.084 Goal=   None    Shift=    0.000
 Gap=     0.291 Goal=   None    Shift=    0.000
 RMSDP=6.28D-06 MaxDP=6.67D-05 DE= 6.93D-11 OVMax= 7.40D-04

 Cycle  41  Pass 1  IDiag  1:
 E= -76.5861706654232     Delta-E=        0.000000000762 Rises=F Damp=F
 DIIS: error= 2.08D-07 at cycle  41 NSaved=   5.
 NSaved= 5 IEnMin= 1 EnMin= -76.5861706665045     IErMin= 5 ErrMin= 2.08D-07
 ErrMax= 2.08D-07  0.00D+00 EMaxC= 1.00D-01 BMatC= 5.80D-13 BMatP= 5.78D-13
 IDIUse=1 WtCom= 1.00D+00 WtEn= 0.00D+00
 Large coefficients: NSaved=  5 BigCof= 1483.39 CofMax=   10.00 Det=-4.09D-20
 Inversion failed.  Reducing to  4 matrices.
 Coeff-Com: -0.547D+01 0.379D+01 0.300D+01-0.324D+00
 Coeff:     -0.547D+01 0.379D+01 0.300D+01-0.324D+00
 Gap=     0.084 Goal=   None    Shift=    0.000
 Gap=     0.291 Goal=   None    Shift=    0.000
 RMSDP=1.37D-06 MaxDP=1.46D-05 DE= 7.62D-10 OVMax= 1.62D-04

 Cycle  42  Pass 1  IDiag  1:
 E= -76.5861706655896     Delta-E=       -0.000000000166 Rises=F Damp=F
 DIIS: error= 2.08D-07 at cycle  42 NSaved=   5.
 NSaved= 5 IEnMin= 1 EnMin= -76.5861706665045     IErMin= 4 ErrMin= 2.08D-07
 ErrMax= 2.08D-07  0.00D+00 EMaxC= 1.00D-01 BMatC= 5.80D-13 BMatP= 5.78D-13
 IDIUse=1 WtCom= 1.00D+00 WtEn= 0.00D+00
 Large coefficients: NSaved=  5 BigCof=  127.87 CofMax=   10.00 Det=-2.18D-19
 Inversion failed.  Reducing to  4 matrices.
 Coeff-Com: -0.199D+01 0.299D+01 0.355D+00-0.351D+00
 Coeff:     -0.199D+01 0.299D+01 0.355D+00-0.351D+00
 Gap=     0.084 Goal=   None    Shift=    0.000
 Gap=     0.291 Goal=   None    Shift=    0.000
 RMSDP=5.02D-06 MaxDP=5.33D-05 DE=-1.66D-10 OVMax= 5.92D-04

 Cycle  43  Pass 1  IDiag  1:
 E= -76.5861706661990     Delta-E=       -0.000000000609 Rises=F Damp=F
 DIIS: error= 2.08D-07 at cycle  43 NSaved=   5.
 NSaved= 5 IEnMin= 1 EnMin= -76.5861706665045     IErMin= 3 ErrMin= 2.08D-07
 ErrMax= 2.08D-07  0.00D+00 EMaxC= 1.00D-01 BMatC= 5.78D-13 BMatP= 5.78D-13
 IDIUse=1 WtCom= 1.00D+00 WtEn= 0.00D+00
 Large coefficients: NSaved=  5 BigCof=  100.01 CofMax=   10.00 Det=-6.66D-19
 Inversion failed.  Reducing to  4 matrices.
 Coeff-Com: -0.986D+00 0.106D+01 0.236D-01 0.900D+00
 Coeff:     -0.986D+00 0.106D+01 0.236D-01 0.900D+00
 Gap=     0.084 Goal=   None    Shift=    0.000
 Gap=     0.291 Goal=   None    Shift=    0.000
 RMSDP=6.19D-07 MaxDP=6.58D-06 DE=-6.09D-10 OVMax= 7.30D-05

 Cycle  44  Pass 1  IDiag  1:
 E= -76.5861706661237     Delta-E=        0.000000000075 Rises=F Damp=F
 DIIS: error= 2.08D-07 at cycle  44 NSaved=   5.
 NSaved= 5 IEnMin= 1 EnMin= -76.5861706665045     IErMin= 3 ErrMin= 2.08D-07
 ErrMax= 2.08D-07  0.00D+00 EMaxC= 1.00D-01 BMatC= 5.78D-13 BMatP= 5.78D-13
 IDIUse=1 WtCom= 1.00D+00 WtEn= 0.00D+00
 Large coefficients: NSaved=  5 BigCof= 1297.94 CofMax=   10.00 Det=-7.33D-20
 Inversion failed.  Reducing to  4 matrices.
 Large coefficients: NSaved=  4 BigCof=   50.42 CofMax=   10.00 Det=-1.46D-18
 Inversion failed.  Reducing to  3 matrices.
 Large coefficients: NSaved=  3 BigCof=   10.47 CofMax=   10.00 Det=-7.11D-18
 Inversion failed.  Reducing to  2 matrices.
 Coeff-Com:  0.687D+00 0.313D+00
 Coeff:      0.687D+00 0.313D+00
 Gap=     0.084 Goal=   None    Shift=    0.000
 Gap=     0.291 Goal=   None    Shift=    0.000
 RMSDP=4.54D-07 MaxDP=4.83D-06 DE= 7.53D-11 OVMax= 5.36D-05

 Cycle  45  Pass 1  IDiag  1:
 E= -76.5861706661789     Delta-E=       -0.000000000055 Rises=F Damp=F
 DIIS: error= 2.08D-07 at cycle  45 NSaved=   3.
 NSaved= 3 IEnMin= 1 EnMin= -76.5861706661990     IErMin= 2 ErrMin= 2.08D-07
 ErrMax= 2.08D-07  0.00D+00 EMaxC= 1.00D-01 BMatC= 5.78D-13 BMatP= 5.78D-13
 IDIUse=1 WtCom= 1.00D+00 WtEn= 0.00D+00
 Coeff-Com:  0.492D-01 0.243D+00 0.707D+00
 Coeff:      0.492D-01 0.243D+00 0.707D+00
 Gap=     0.084 Goal=   None    Shift=    0.000
 Gap=     0.291 Goal=   None    Shift=    0.000
 RMSDP=7.39D-08 MaxDP=7.85D-07 DE=-5.51D-11 OVMax= 8.71D-06

 Cycle  46  Pass 1  IDiag  1:
 E= -76.5861706661698     Delta-E=        0.000000000009 Rises=F Damp=F
 DIIS: error= 2.08D-07 at cycle  46 NSaved=   4.
 NSaved= 4 IEnMin= 1 EnMin= -76.5861706661990     IErMin= 2 ErrMin= 2.08D-07
 ErrMax= 2.08D-07  0.00D+00 EMaxC= 1.00D-01 BMatC= 5.78D-13 BMatP= 5.78D-13
 IDIUse=1 WtCom= 1.00D+00 WtEn= 0.00D+00
 Large coefficients: NSaved=  4 BigCof=   10.55 CofMax=   10.00 Det=-3.35D-19
 Inversion failed.  Reducing to  3 matrices.
 Coeff-Com: -0.442D+00-0.557D+00 0.200D+01
 Coeff:     -0.442D+00-0.557D+00 0.200D+01
 Gap=     0.084 Goal=   None    Shift=    0.000
 Gap=     0.291 Goal=   None    Shift=    0.000
 RMSDP=1.18D-07 MaxDP=1.25D-06 DE= 9.01D-12 OVMax= 1.39D-05

 Cycle  47  Pass 1  IDiag  1:
 E= -76.5861706661556     Delta-E=        0.000000000014 Rises=F Damp=F
 DIIS: error= 2.08D-07 at cycle  47 NSaved=   4.
 NSaved= 4 IEnMin= 1 EnMin= -76.5861706661990     IErMin= 4 ErrMin= 2.08D-07
[...]
 Gap=     0.084 Goal=   None    Shift=    0.000
 Gap=     0.291 Goal=   None    Shift=    0.000
 RMSDP=1.29D-07 MaxDP=1.37D-06 DE= 3.36D-11 OVMax= 1.52D-05

 Cycle  55  Pass 1  IDiag  1:
 E= -76.5861706659600     Delta-E=       -0.000000000016 Rises=F Damp=F
 DIIS: error= 2.08D-07 at cycle  55 NSaved=   3.
 NSaved= 3 IEnMin= 1 EnMin= -76.5861706659780     IErMin= 2 ErrMin= 2.08D-07
 ErrMax= 2.08D-07  0.00D+00 EMaxC= 1.00D-01 BMatC= 5.78D-13 BMatP= 5.78D-13
 IDIUse=1 WtCom= 1.00D+00 WtEn= 0.00D+00
 Coeff-Com:  0.737D-01 0.206D+00 0.720D+00
 Coeff:      0.737D-01 0.206D+00 0.720D+00
 Gap=     0.084 Goal=   None    Shift=    0.000
 Gap=     0.291 Goal=   None    Shift=    0.000
 RMSDP=1.30D-08 MaxDP=1.38D-07 DE=-1.56D-11 OVMax= 1.53D-06

 Cycle  56  Pass 1  IDiag  1:
 E= -76.5861706659617     Delta-E=       -0.000000000002 Rises=F Damp=F
 DIIS: error= 2.08D-07 at cycle  56 NSaved=   4.
 NSaved= 4 IEnMin= 1 EnMin= -76.5861706659780     IErMin= 2 ErrMin= 2.08D-07
 ErrMax= 2.08D-07  0.00D+00 EMaxC= 1.00D-01 BMatC= 5.78D-13 BMatP= 5.78D-13
 IDIUse=1 WtCom= 1.00D+00 WtEn= 0.00D+00
 Coeff-Com:  0.497D-01 0.185D+00 0.599D+00 0.166D+00
 Coeff:      0.497D-01 0.185D+00 0.599D+00 0.166D+00
 Gap=     0.084 Goal=   None    Shift=    0.000
 Gap=     0.291 Goal=   None    Shift=    0.000
 RMSDP=1.28D-09 MaxDP=1.36D-08 DE=-1.66D-12 OVMax= 1.51D-07

 SCF Done:  E(UM062X) =  -76.5861706660     A.U. after   56 cycles
            NFock= 56  Conv=0.13D-08     -V/T= 2.0030
 <Sx>= 0.0000 <Sy>= 0.0000 <Sz>= 0.5000 <S**2>= 0.7512 S= 0.5006
 <L.S>=  0.00000000000    
 KE= 7.635852348294D+01 PE=-1.998831200579D+02 EE= 3.428050825621D+01
 Annihilation of the first spin contaminant:
 S**2 before annihilation     0.7512,   after     0.7500
 Leave Link  502 at Tue Dec  3 11:30:04 2024, MaxMem=  2147483648 cpu:             242.6 elap:              10.5
 (Enter /home/szhao/Apps/g16/l701.exe)
 ... and contract with generalized density number  0.
 Compute integral first derivatives.
 Leave Link  701 at Tue Dec  3 11:30:04 2024, MaxMem=  2147483648 cpu:               2.5 elap:               0.1
 (Enter /home/szhao/Apps/g16/l702.exe)
 L702 exits ... SP integral derivatives will be done elsewhere.
 Leave Link  702 at Tue Dec  3 11:30:04 2024, MaxMem=  2147483648 cpu:               0.7 elap:               0.0
 (Enter /home/szhao/Apps/g16/l703.exe)
 Integral derivatives from FoFJK, PRISM(SPDF).
 Compute integral first derivatives, UseDBF=F ICtDFT=           0.
 Calling FoFJK, ICntrl=      2127 FMM=F ISym2X=0 I1Cent= 0 IOpClX= 1 NMat=1 NMatS=1 NMatT=0.
 FoFJK:  IHMeth= 1 ICntrl=    2127 DoSepK=F KAlg= 0 I1Cent=           0 FoldK=F
 IRaf=         0 NMat=       1 IRICut=       1 DoRegI=T DoRafI=F ISym2E= 0 IDoP0=0 IntGTp=1.
 FoFCou: FMM=F IPFlag=           0 FMFlag=      100000 FMFlg1=         800
         NFxFlg=           0 DoJE=F BraDBF=F KetDBF=F FulRan=T
         wScrn=  0.000000 ICntrl=      2127 IOpCl=  1 I1Cent=           0 NGrid=           0
         NMat0=    1 NMatS0=      1 NMatT0=    0 NMatD0=    1 NMtDS0=    0 NMtDT0=    0
 Symmetry not used in FoFCou.
 Leave Link  703 at Tue Dec  3 11:30:04 2024, MaxMem=  2147483648 cpu:               9.9 elap:               0.4
 (Enter /home/szhao/Apps/g16/l716.exe)
 Dipole        =-5.56972646D-07-7.99907944D-13-1.49189894D-12
 -------------------------------------------------------------------
 Center     Atomic                   Forces (Hartrees/Bohr)
 Number     Number              X              Y              Z
 -------------------------------------------------------------------
      1        6          -0.000000000   -0.000000000   -0.000000000
      2        6          -0.000000000   -0.000000000   -0.000000000
      3        1          -0.000311176    0.000000000    0.000000000
      4        1           0.000311717    0.000000000    0.000000000
 -------------------------------------------------------------------
 Cartesian Forces:  Max     0.000311717 RMS     0.000127148
 Leave Link  716 at Tue Dec  3 11:30:04 2024, MaxMem=  2147483648 cpu:               0.7 elap:               0.0
 (Enter /home/szhao/Apps/g16/l103.exe)

 GradGradGradGradGradGradGradGradGradGradGradGradGradGradGradGradGradGrad
 Berny optimization.
 Using GEDIIS/GDIIS optimizer.
 FormGI is forming the generalized inverse of G from B-inverse, IUseBI=4.
 Internal  Forces:  Max     0.000311717 RMS     0.000179814
 Search for a local minimum.
 Step number   2 out of a maximum of   22
 All quantities printed in internal units (Hartrees-Bohrs-Radians)
 RMS Force = .17981D-03 SwitMx=.10000D-02 MixMth= 2
 Mixed Optimization -- En-DIIS/RFO-DIIS
 Update second derivatives using D2CorX and points    1    2
 DE= -3.50D-04 DEPred=-3.46D-04 R= 1.01D+00
 TightC=F SS=  1.41D+00  RLast= 4.53D-02 DXNew= 5.0454D-01 1.3589D-01
 Trust test= 1.01D+00 RLast= 4.53D-02 DXMaxT set to 3.00D-01
 The second derivative matrix:
                          X1        Y1        Z1        X2        Y2
           X1           0.66314
           Y1           0.00000   0.50000
           Z1           0.00000   0.00000   0.50000
           X2          -0.16335  -0.00000  -0.00000   0.66356
           Y2           0.00000   0.00000   0.00000  -0.00000   0.50000
           Z2           0.00000   0.00000   0.00000  -0.00000   0.00000
           R1          -0.16314  -0.00000  -0.00000   0.16335  -0.00000
           R2          -0.16335  -0.00000  -0.00000   0.16356  -0.00000
           A1          -0.00000  -0.00000  -0.00000   0.00000  -0.00000
           A2           0.00000   0.00000   0.00000  -0.00000   0.00000
           A3           0.00000   0.00000   0.00000  -0.00000   0.00000
           A4          -0.00000  -0.00000  -0.00000   0.00000  -0.00000
                          Z2        R1        R2        A1        A2
           Z2           0.50000
           R1          -0.00000   0.33122
           R2          -0.00000  -0.00452   0.33122
           A1          -0.00000   0.00000   0.00000   0.00230
           A2           0.00000  -0.00000  -0.00000  -0.00000   0.00230
           A3           0.00000  -0.00000  -0.00000  -0.00000   0.00000
           A4          -0.00000   0.00000   0.00000   0.00000  -0.00000
                          A3        A4
           A3           0.00230
           A4          -0.00000   0.00230
 ITU=  1  0
 Use linear search instead of GDIIS.
     Eigenvalues ---    0.00230   0.00230   0.00230   0.32670   0.33574
     Eigenvalues --- 1000.000001000.000001000.000001000.000001000.00000
     Eigenvalues --- 1000.000001000.00000
 RFO step:  Lambda= 0.00000000D+00 EMin= 2.30000000D-03
 Quartic linear search produced a step of  0.03133.
 Iteration  1 RMS(Cart)=  0.00040970 RMS(Int)=  0.00000000
 Iteration  2 RMS(Cart)=  0.00000000 RMS(Int)=  0.00000001
 ITry= 1 IFail=0 DXMaxC= 1.00D-03 DCOld= 1.00D+10 DXMaxT= 3.00D-01 DXLimC= 3.00D+00 Rises=F
 Variable       Old X    -DE/DX   Delta X   Delta X   Delta X     New X
                                 (Linear)    (Quad)   (Total)
    X1       -3.27331  -0.00031   0.00000   0.00000   0.00000  -3.27331
    Y1        0.00000   0.00000   0.00000   0.00000   0.00000   0.00000
    Z1        0.00000   0.00000   0.00000   0.00000   0.00000   0.00000
    X2        3.27331   0.00031   0.00000   0.00000   0.00000   3.27331
    Y2        0.00000   0.00000   0.00000   0.00000   0.00000   0.00000
    Z2        0.00000   0.00000   0.00000   0.00000   0.00000   0.00000
    R1        2.11258   0.00031   0.00100  -0.00000   0.00100   2.11359
    R2        2.11258   0.00031   0.00100   0.00000   0.00100   2.11359
    A1        3.14159  -0.00000   0.00000  -0.00000   0.00000   3.14159
    A2        3.14159   0.00000   0.00000   0.00000   0.00000   3.14159
    A3        3.14159   0.00000   0.00000   0.00000   0.00000   3.14159
    A4        3.14159  -0.00000   0.00000  -0.00000  -0.00000   3.14159
         Item               Value     Threshold  Converged?
 Maximum Force            0.000312     0.000450     YES
 RMS     Force            0.000180     0.000300     YES
 Maximum Displacement     0.001004     0.001800     YES
 RMS     Displacement     0.000410     0.001200     YES
 Predicted change in Energy=-2.960767D-07
 Optimization completed.
    -- Stationary point found.
                           ----------------------------
                           !   Optimized Parameters   !
                           ! (Angstroms and Degrees)  !
 --------------------------                            --------------------------
 ! Name  Definition              Value          Derivative Info.                !
 --------------------------------------------------------------------------------
 ! X1    R(1,-1)                -1.7322         -DE/DX =   -0.0003              !
 ! Y1    R(1,-2)                 0.0            -DE/DX =    0.0                 !
 ! Z1    R(1,-3)                 0.0            -DE/DX =    0.0                 !
 ! X2    R(2,-1)                 1.7322         -DE/DX =    0.0003              !
 ! Y2    R(2,-2)                 0.0            -DE/DX =    0.0                 !
 ! Z2    R(2,-3)                 0.0            -DE/DX =    0.0                 !
 ! R1    R(1,3)                  1.1179         -DE/DX =    0.0003              !
 ! R2    R(2,4)                  1.1179         -DE/DX =    0.0003              !
 ! A1    L(2,1,3,-2,-1)        180.0            -DE/DX =    0.0                 !
 ! A2    L(1,2,4,-2,-1)        180.0            -DE/DX =    0.0                 !
 ! A3    L(2,1,3,-3,-2)        180.0            -DE/DX =    0.0                 !
 ! A4    L(1,2,4,-3,-2)        180.0            -DE/DX =    0.0                 !
 --------------------------------------------------------------------------------
 Lowest energy point so far.  Saving SCF results.
 Largest change from initial coordinates is atom    4       0.017 Angstoms.
 GradGradGradGradGradGradGradGradGradGradGradGradGradGradGradGradGradGrad

 Leave Link  103 at Tue Dec  3 11:30:04 2024, MaxMem=  2147483648 cpu:               1.3 elap:               0.1
 (Enter /home/szhao/Apps/g16/l202.exe)
                          Input orientation:                          
 ---------------------------------------------------------------------
 Center     Atomic      Atomic             Coordinates (Angstroms)
 Number     Number       Type             X           Y           Z
 ---------------------------------------------------------------------
      1          6           0       -1.732160    0.000000    0.000000
      2          6           0        1.732160    0.000000    0.000000
      3          1           0       -2.850091    0.000000   -0.000000
      4          1           0        2.850091    0.000000    0.000000
 ---------------------------------------------------------------------
                    Distance matrix (angstroms):
                    1          2          3          4
     1  C    0.000000
     2  C    3.464320   0.000000
     3  H    1.117931   4.582251   0.000000
     4  H    4.582251   1.117931   5.700182   0.000000
 Symmetry turned off by external request.
 Stoichiometry    C2H2(1+,2)
 Framework group  C*V[C*(HCCH)]
 Deg. of freedom     3
 Full point group                 C*V     NOp   4
 Rotational constants (GHZ):           0.0000000           5.7181058           5.7181058
 Leave Link  202 at Tue Dec  3 11:30:04 2024, MaxMem=  2147483648 cpu:               0.1 elap:               0.0
 (Enter /home/szhao/Apps/g16/l601.exe)
 Copying SCF densities to generalized density rwf, IOpCl= 1 IROHF=0.

 **********************************************************************

            Population analysis using the SCF density.

 **********************************************************************

 Alpha  occ. eigenvalues --  -10.94814 -10.94813  -0.98511  -0.98268  -0.64917
 Alpha  occ. eigenvalues --   -0.62527  -0.48845
 Alpha virt. eigenvalues --   -0.40450  -0.33801  -0.33189  -0.12569  -0.11485
 Alpha virt. eigenvalues --   -0.07848  -0.07355  -0.05361  -0.04894  -0.04519
 Alpha virt. eigenvalues --   -0.01537  -0.00377   0.05974   0.23779   0.30583
 Alpha virt. eigenvalues --    0.35276   0.35310   0.36179   0.38363   0.39189
 Alpha virt. eigenvalues --    0.52791   0.54275   0.59823   0.89103   0.89244
 Alpha virt. eigenvalues --    0.89489   0.89774   1.07400   1.07476   1.08455
 Alpha virt. eigenvalues --    1.08529   1.33708   1.36954   1.62346   1.62652
 Alpha virt. eigenvalues --    1.62797   1.63070   2.16506   2.17855   2.26554
 Alpha virt. eigenvalues --    2.33503   2.42480   2.43951   2.45310   2.46727
 Alpha virt. eigenvalues --    2.89744   3.03344  23.25097  23.27009
  Beta  occ. eigenvalues --  -10.94407 -10.94407  -0.96114  -0.95980  -0.63591
  Beta  occ. eigenvalues --   -0.61115
  Beta virt. eigenvalues --   -0.32014  -0.31264  -0.30439  -0.29607  -0.13065
  Beta virt. eigenvalues --   -0.11405  -0.07325  -0.06594  -0.06156  -0.04181
  Beta virt. eigenvalues --   -0.03262  -0.02138   0.01266   0.07462   0.23087
  Beta virt. eigenvalues --    0.31495   0.35868   0.36042   0.38041   0.38799
  Beta virt. eigenvalues --    0.39027   0.54765   0.55461   0.62058   0.96348
  Beta virt. eigenvalues --    0.96721   0.97258   0.97620   1.10694   1.10695
  Beta virt. eigenvalues --    1.10704   1.10706   1.34075   1.37387   1.64113
  Beta virt. eigenvalues --    1.64565   1.64775   1.65226   2.30974   2.32170
  Beta virt. eigenvalues --    2.33891   2.38831   2.45135   2.47500   2.47839
  Beta virt. eigenvalues --    2.50100   2.99983   3.12818  23.26419  23.28332
          Condensed to atoms (all electrons):
               1          2          3          4
     1  C    5.476873  -0.000585   0.259827   0.001398
     2  C   -0.000585   5.476873   0.001398   0.259827
     3  H    0.259827   0.001398   0.501259   0.000003
     4  H    0.001398   0.259827   0.000003   0.501259
          Atomic-Atomic Spin Densities.
               1          2          3          4
     1  C    0.509496   0.013115  -0.005935  -0.000169
     2  C    0.013115   0.509496  -0.000169  -0.005935
     3  H   -0.005935  -0.000169  -0.010403  -0.000000
     4  H   -0.000169  -0.005935  -0.000000  -0.010403
 Mulliken charges and spin densities:
               1          2
     1  C    0.262487   0.516507
     2  C    0.262486   0.516507
     3  H    0.237513  -0.016507
     4  H    0.237513  -0.016507
 Sum of Mulliken charges =   1.00000   1.00000
 Mulliken charges and spin densities with hydrogens summed into heavy atoms:
               1          2
     1  C    0.500000   0.500000
     2  C    0.500000   0.500000
 Electronic spatial extent (au):  <R**2>=            188.8244
 Charge=              1.0000 electrons
 Dipole moment (field-independent basis, Debye):
    X=             -0.0000    Y=             -0.0000    Z=             -0.0000  Tot=              0.0000
 Quadrupole moment (field-independent basis, Debye-Ang):
   XX=             18.0207   YY=            -11.3793   ZZ=             -9.6465
   XY=             -0.0000   XZ=              0.0000   YZ=             -0.5228
 Traceless Quadrupole moment (field-independent basis, Debye-Ang):
   XX=             19.0224   YY=            -10.3776   ZZ=             -8.6448
   XY=             -0.0000   XZ=              0.0000   YZ=             -0.5228
 Octapole moment (field-independent basis, Debye-Ang**2):
  XXX=             -0.0000  YYY=             -0.0000  ZZZ=             -0.0000  XYY=              0.0000
  XXY=             -0.0000  XXZ=             -0.0000  XZZ=              0.0000  YZZ=             -0.0000
  YYZ=             -0.0000  XYZ=             -0.0000
 Hexadecapole moment (field-independent basis, Debye-Ang**3):
 XXXX=            -72.7045 YYYY=            -12.3670 ZZZZ=             -8.6455 XXXY=             -0.0000
 XXXZ=              0.0000 YYYX=             -0.0000 YYYZ=             -0.5614 ZZZX=             -0.0000
 ZZZY=             -0.5614 XXYY=            -41.6876 XXZZ=            -35.9242 YYZZ=             -3.5021
 XXYZ=             -1.7388 YYXZ=             -0.0000 ZZXY=             -0.0000
 N-N= 1.265791765282D+01 E-N=-1.998831200580D+02  KE= 7.635852348294D+01
                          Isotropic Fermi Contact Couplings
        Atom                 a.u.       MegaHertz       Gauss      10(-4) cm-1
     1  C(13)              0.07536      84.71738      30.22927      28.25868
     2  C(13)              0.07536      84.71744      30.22929      28.25870
     3  H(1)              -0.00422     -18.87913      -6.73654      -6.29740
     4  H(1)              -0.00422     -18.87906      -6.73652      -6.29738
 --------------------------------------------------------
       Center         ----  Spin Dipole Couplings  ----
                      3XX-RR        3YY-RR        3ZZ-RR
 --------------------------------------------------------
     1   Atom       -0.315930      0.587708     -0.271778
     2   Atom       -0.315930      0.587708     -0.271778
     3   Atom        0.042581     -0.006833     -0.035749
     4   Atom        0.042581     -0.006833     -0.035749
 --------------------------------------------------------
                        XY            XZ            YZ
 --------------------------------------------------------
     1   Atom        0.000000     -0.000000      0.259308
     2   Atom        0.000000     -0.000000      0.259308
     3   Atom       -0.000000      0.000000      0.008724
     4   Atom       -0.000000      0.000000      0.008724
 --------------------------------------------------------


 ---------------------------------------------------------------------------------
              Anisotropic Spin Dipole Couplings in Principal Axis System
 ---------------------------------------------------------------------------------

       Atom             a.u.   MegaHertz   Gauss  10(-4) cm-1        Axes

              Baa    -0.3440   -46.155   -16.469   -15.396  0.0000 -0.2681  0.9634
     1 C(13)  Bbb    -0.3159   -42.395   -15.128   -14.141  1.0000  0.0000 -0.0000
              Bcc     0.6599    88.550    31.597    29.537  0.0000  0.9634  0.2681
 
              Baa    -0.3440   -46.155   -16.469   -15.396  0.0000 -0.2681  0.9634
     2 C(13)  Bbb    -0.3159   -42.395   -15.128   -14.141  1.0000  0.0000 -0.0000
              Bcc     0.6599    88.550    31.597    29.537 -0.0000  0.9634  0.2681
 
              Baa    -0.0382   -20.369    -7.268    -6.794 -0.0000 -0.2681  0.9634
     3 H(1)   Bbb    -0.0044    -2.350    -0.839    -0.784  0.0000  0.9634  0.2681
              Bcc     0.0426    22.719     8.107     7.578  1.0000 -0.0000  0.0000
 
              Baa    -0.0382   -20.369    -7.268    -6.794 -0.0000 -0.2681  0.9634
     4 H(1)   Bbb    -0.0044    -2.350    -0.839    -0.784  0.0000  0.9634  0.2681
              Bcc     0.0426    22.719     8.107     7.578  1.0000 -0.0000  0.0000
 

 ---------------------------------------------------------------------------------

 No NMR shielding tensors so no spin-rotation constants.
 Leave Link  601 at Tue Dec  3 11:30:05 2024, MaxMem=  2147483648 cpu:               4.2 elap:               0.2
 (Enter /home/szhao/Apps/g16/l9999.exe)
 1\1\GINC-NODE01\FOpt\UM062X\6-311+G(d,p)\C2H2(1+,2)\SZHAO\03-Dec-2024\
 0\\#p opt UM062X/6-311+G** nosymm int=superfine\\Title Card Required\\
 1,2\C,-1.73216,0.,0.\C,1.73216,0.,0.\H,-2.8500914992,0.,0.\H,2.8500905
 725,0.,0.\\Version=ES64L-G16RevA.03\HF=-76.5861707\S2=0.751249\S2-1=0.
 \S2A=0.750001\RMSD=1.281e-09\RMSF=1.271e-04\Dipole=-0.0000004,0.,0.\Qu
 adrupole=14.1426593,-7.7154841,-6.4271752,0.,0.,-0.3886862\PG=C*V [C*(
 H1C1C1H1)]\\@


 IF AT FIRST YOU DON'T SUCCEED, TRY, TRY AGAIN.
 THEN GIVE UP;
 THERE'S NO USE BEING A DAMN FOOL ABOUT IT.

                                 -- W. C. FIELDS
 Job cpu time:       0 days  0 hours  6 minutes 40.5 seconds.
 Elapsed time:       0 days  0 hours  0 minutes 17.3 seconds.
 File lengths (MBytes):  RWF=      6 Int=      0 D2E=      0 Chk=      1 Scr=      1
 Normal termination of Gaussian 16 at Tue Dec  3 11:30:05 2024.
