Title Card Required                                                     
FOpt      UM062X                                                      6-311+G(d,p)        
Number of atoms                            I                4
Info1-9                                    I   N=           9
          13          13           0           0           0         110
           2          18        -502
Full Title                                 C   N=           2
Title Card Required     
Route                                      C   N=           4
#p opt UM062X/6-311+G** nosymm int=superfine    
Charge                                     I                0
Multiplicity                               I                1
Number of electrons                        I               26
Number of alpha electrons                  I               13
Number of beta electrons                   I               13
Number of basis functions                  I               64
Number of independent functions            I               64
Number of point charges in /Mol/           I                0
Number of translation vectors              I                0
Atomic numbers                             I   N=           4
           8          16           1           1
Nuclear charges                            R   N=           4
  8.00000000E+00  1.60000000E+01  1.00000000E+00  1.00000000E+00
Current cartesian coordinates              R   N=          12
 -2.43020102E+00  1.88972612E-06 -7.55890450E-06  2.43020102E+00 -1.88972612E-06
  7.55890450E-06 -2.49464512E+00 -9.48242871E-01  1.56564198E+00  2.22221636E+00
 -1.25866607E+00 -2.19850270E+00
Number of symbols in /Mol/                 I                0
Force Field                                I                0
Atom Types                                 C   N=           4
                                                
Int Atom Types                             I   N=           4
           0           0           0           0
MM charges                                 R   N=           4
  0.00000000E+00  0.00000000E+00  0.00000000E+00  0.00000000E+00
Integer atomic weights                     I   N=           4
          16          32           1           1
Real atomic weights                        R   N=           4
  1.59949146E+01  3.19720718E+01  1.00782504E+00  1.00782504E+00
Atom fragment info                         I   N=           4
           0           0           0           0
Atom residue num                           I   N=           4
           0           0           0           0
Nuclear spins                              I   N=           4
           0           0           1           1
Nuclear ZEff                               R   N=           4
 -5.60000000E+00 -1.36000000E+01 -1.00000000E+00 -1.00000000E+00
Nuclear ZNuc                               R   N=           4
  8.00000000E+00  1.60000000E+01  1.00000000E+00  1.00000000E+00
Nuclear QMom                               R   N=           4
  0.00000000E+00  0.00000000E+00  0.00000000E+00  0.00000000E+00
Nuclear GFac                               R   N=           4
  0.00000000E+00  0.00000000E+00  2.79284600E+00  2.79284600E+00
MicOpt                                     I   N=           4
          -2          -2          -1          -1
Number of residues                         I                0
Number of secondary structures             I                0
Redundant internal dimensions              I   N=           4
          11           8           2           1
Redundant internal coordinate indices      I   N=          44
           1          -1           0           0           1          -2
           0           0           1          -3           0           0
           2          -1           0           0           2          -2
           0           0           2          -3           0           0
           1           3           0           0           2           4
           0           0           2           1           3           0
           1           2           4           0           3           1
           2           4
Redundant internal coordinates             R   N=          11
 -2.43020102E+00  1.88972612E-06 -7.55890450E-06  2.43020102E+00 -1.88972612E-06
  7.55890450E-06  1.83155115E+00  2.54183802E+00  1.60598605E+00  1.48887792E+00
  2.07706541E+00
ZRed-IntVec                                I   N=          11
          -1          -1          -1          -1          -1          -1
           0           0           0           0           0
ZRed-FPVec                                 R   N=          11
  0.00000000E+00  0.00000000E+00  0.00000000E+00  0.00000000E+00  0.00000000E+00
  0.00000000E+00  0.00000000E+00  0.00000000E+00  0.00000000E+00  0.00000000E+00
  0.00000000E+00
ZRed-Constraint1                           R   N=          11
 -2.43020102E+00  1.88972612E-06 -7.55890450E-06  2.43020102E+00 -1.88972612E-06
  7.55890450E-06  2.02048853E+00  2.54242693E+00  1.57043218E+00  1.56837847E+00
  2.95489807E+00
ZRed-Constraint2                           R   N=          11
 -2.43020102E+00  1.88972612E-06 -7.55890450E-06  2.43020102E+00 -1.88972612E-06
  7.55890450E-06  0.00000000E+00  0.00000000E+00  0.00000000E+00  0.00000000E+00
  0.00000000E+00
Number of contracted shells                I               27
Number of primitive shells                 I               49
Pure/Cartesian d shells                    I                0
Pure/Cartesian f shells                    I                0
Highest angular momentum                   I                2
Largest degree of contraction              I                6
Shell types                                I   N=          27
           0          -1          -1          -1          -1          -2
           0           0           0           0           0           0
          -1           1           1           1           1           1
          -2           0           0           0           1           0
           0           0           1
Number of primitives per shell             I   N=          27
           6           3           1           1           1           1
           6           3           1           1           1           1
           1           4           2           1           1           1
           1           3           1           1           1           3
           1           1           1
Shell to atom map                          I   N=          27
           1           1           1           1           1           1
           2           2           2           2           2           2
           2           2           2           2           2           2
           2           3           3           3           3           4
           4           4           4
Primitive exponents                        R   N=          49
  8.58850000E+03  1.29723000E+03  2.99296000E+02  8.73771000E+01  2.56789000E+01
  3.74004000E+00  4.21175000E+01  9.62837000E+00  2.85332000E+00  9.05661000E-01
  2.55611000E-01  8.45000000E-02  1.29200000E+00  9.34134000E+04  1.39617000E+04
  3.16991000E+03  9.02456000E+02  2.97158000E+02  1.08702000E+02  1.08702000E+02
  4.31553000E+01  1.81079000E+01  5.56009000E+00  2.13183000E+00  4.20403000E-01
  1.36045000E-01  4.05000000E-02  4.95040000E+02  1.17221000E+02  3.77749000E+01
  1.40584000E+01  5.56574000E+00  2.26297000E+00  8.07994000E-01  2.77460000E-01
  7.71410000E-02  6.50000000E-01  3.38650000E+01  5.09479000E+00  1.15879000E+00
  3.25840000E-01  1.02741000E-01  7.50000000E-01  3.38650000E+01  5.09479000E+00
  1.15879000E+00  3.25840000E-01  1.02741000E-01  7.50000000E-01
Contraction coefficients                   R   N=          49
  1.89515008E-03  1.43859006E-02  7.07320031E-02  2.40001011E-01  5.94797026E-01
  2.80802012E-01  1.13889012E-01  9.20811101E-01 -3.27447036E-03  1.00000000E+00
  1.00000000E+00  1.00000000E+00  1.00000000E+00  7.42999957E-04  5.79299966E-03
  2.99539983E-02  1.19027993E-01  3.68431979E-01  5.77298966E-01  1.43186060E-01
  6.24465262E-01  2.83366119E-01  1.00000000E+00  1.00000000E+00  1.00000000E+00
  1.00000000E+00  1.00000000E+00  8.30900251E-03  6.40240194E-02  2.77614084E-01
  7.45076225E-01  6.13711672E-01  4.43817763E-01  1.00000000E+00  1.00000000E+00
  1.00000000E+00  1.00000000E+00  2.54938145E-02  1.90373109E-01  8.52161486E-01
  1.00000000E+00  1.00000000E+00  1.00000000E+00  2.54938145E-02  1.90373109E-01
  8.52161486E-01  1.00000000E+00  1.00000000E+00  1.00000000E+00
P(S=P) Contraction coefficients            R   N=          49
  0.00000000E+00  0.00000000E+00  0.00000000E+00  0.00000000E+00  0.00000000E+00
  0.00000000E+00  3.65113974E-02  2.37152983E-01  8.19701941E-01  1.00000000E+00
  1.00000000E+00  1.00000000E+00  0.00000000E+00  0.00000000E+00  0.00000000E+00
  0.00000000E+00  0.00000000E+00  0.00000000E+00  0.00000000E+00  0.00000000E+00
  0.00000000E+00  0.00000000E+00  0.00000000E+00  0.00000000E+00  0.00000000E+00
  0.00000000E+00  1.00000000E+00  0.00000000E+00  0.00000000E+00  0.00000000E+00
  0.00000000E+00  0.00000000E+00  0.00000000E+00  0.00000000E+00  0.00000000E+00
  0.00000000E+00  0.00000000E+00  0.00000000E+00  0.00000000E+00  0.00000000E+00
  0.00000000E+00  0.00000000E+00  0.00000000E+00  0.00000000E+00  0.00000000E+00
  0.00000000E+00  0.00000000E+00  0.00000000E+00  0.00000000E+00
Coordinates of each shell                  R   N=          81
 -2.43020102E+00  1.88972612E-06 -7.55890450E-06 -2.43020102E+00  1.88972612E-06
 -7.55890450E-06 -2.43020102E+00  1.88972612E-06 -7.55890450E-06 -2.43020102E+00
  1.88972612E-06 -7.55890450E-06 -2.43020102E+00  1.88972612E-06 -7.55890450E-06
 -2.43020102E+00  1.88972612E-06 -7.55890450E-06  2.43020102E+00 -1.88972612E-06
  7.55890450E-06  2.43020102E+00 -1.88972612E-06  7.55890450E-06  2.43020102E+00
 -1.88972612E-06  7.55890450E-06  2.43020102E+00 -1.88972612E-06  7.55890450E-06
  2.43020102E+00 -1.88972612E-06  7.55890450E-06  2.43020102E+00 -1.88972612E-06
  7.55890450E-06  2.43020102E+00 -1.88972612E-06  7.55890450E-06  2.43020102E+00
 -1.88972612E-06  7.55890450E-06  2.43020102E+00 -1.88972612E-06  7.55890450E-06
  2.43020102E+00 -1.88972612E-06  7.55890450E-06  2.43020102E+00 -1.88972612E-06
  7.55890450E-06  2.43020102E+00 -1.88972612E-06  7.55890450E-06  2.43020102E+00
 -1.88972612E-06  7.55890450E-06 -2.49464512E+00 -9.48242871E-01  1.56564198E+00
 -2.49464512E+00 -9.48242871E-01  1.56564198E+00 -2.49464512E+00 -9.48242871E-01
  1.56564198E+00 -2.49464512E+00 -9.48242871E-01  1.56564198E+00  2.22221636E+00
 -1.25866607E+00 -2.19850270E+00  2.22221636E+00 -1.25866607E+00 -2.19850270E+00
  2.22221636E+00 -1.25866607E+00 -2.19850270E+00  2.22221636E+00 -1.25866607E+00
 -2.19850270E+00
Num ILSW                                   I              100
ILSW                                       I   N=         100
           1           0           0           1           2           0
           0           0           0           0        4336          -1
           7           0           0           0           2           0
           0           0           0           0           1           0
           1           1           0           0           0           0
           0           0      100000           0          -1           0
           0           0           0           0           0           0
           0           0           0           1           0           0
           0 -2000000000           1           0           0           0
           0           0           4          52           0           0
           0           0          55           0           0           0
           0           0           0           4           0           1
           0           0           0           0           0           0
           0           0           0           0           0           0
           0           0           0           0           0           0
           0           0           0           0           0           0
           0           0           0           0
Num RLSW                                   I               52
RLSW                                       R   N=          52
  1.00000000E+00  1.00000000E+00  1.00000000E+00  1.00000000E+00  5.40000000E-01
  0.00000000E+00  0.00000000E+00  1.00000000E+00  0.00000000E+00  0.00000000E+00
  0.00000000E+00  0.00000000E+00  1.00000000E+00  0.00000000E+00  0.00000000E+00
  0.00000000E+00  0.00000000E+00  1.00000000E+00  0.00000000E+00  0.00000000E+00
  0.00000000E+00  0.00000000E+00  1.00000000E+00  0.00000000E+00  0.00000000E+00
  0.00000000E+00  0.00000000E+00  1.00000000E+00  0.00000000E+00  0.00000000E+00
  0.00000000E+00  0.00000000E+00  1.00000000E+00  0.00000000E+00  0.00000000E+00
  0.00000000E+00  0.00000000E+00  0.00000000E+00  1.00000000E+00  1.00000000E+00
  0.00000000E+00  1.00000000E+00  0.00000000E+00  0.00000000E+00  0.00000000E+00
  0.00000000E+00  0.00000000E+00  0.00000000E+00  0.00000000E+00  0.00000000E+00
  0.00000000E+00  0.00000000E+00
MxBond                                     I                2
NBond                                      I   N=           4
           2           2           1           1
IBond                                      I   N=           8
           2           3           1           4           1           0
           2           0
RBond                                      R   N=           8
  1.00000000E-01  1.00000000E+00  1.00000000E-01  1.00000000E+00  1.00000000E+00
  0.00000000E+00  1.00000000E+00  0.00000000E+00
Virial Ratio                               R      2.002046041360183E+00
SCF Energy                                 R     -4.744543173545458E+02
Total Energy                               R     -4.744543173545458E+02
S**2                                       R      1.367794766338193E-13
S**2 after annihilation                    R     -1.953992523340383E-13
RMS Force                                  R      4.147555331083578E-06
RMS Density                                R      7.933556221765439E-09
Job Status                                 I                1
Nuclear derivative order                   I                1
External E-field                           R   N=          35
  0.00000000E+00  0.00000000E+00  0.00000000E+00  0.00000000E+00  0.00000000E+00
  0.00000000E+00  0.00000000E+00  0.00000000E+00  0.00000000E+00  0.00000000E+00
  0.00000000E+00  0.00000000E+00  0.00000000E+00  0.00000000E+00  0.00000000E+00
  0.00000000E+00  0.00000000E+00  0.00000000E+00  0.00000000E+00  0.00000000E+00
  0.00000000E+00  0.00000000E+00  0.00000000E+00  0.00000000E+00  0.00000000E+00
  0.00000000E+00  0.00000000E+00  0.00000000E+00  0.00000000E+00  0.00000000E+00
  0.00000000E+00  0.00000000E+00  0.00000000E+00  0.00000000E+00  0.00000000E+00
IOpCl                                      I                1
IROHF                                      I                0
Alpha Orbital Energies                     R   N=          64
 -8.99750035E+01 -1.96746107E+01 -8.33538021E+00 -6.25757220E+00 -6.25386237E+00
 -6.24835365E+00 -1.08855936E+00 -8.32293014E-01 -5.28166024E-01 -4.92084723E-01
 -3.99479658E-01 -3.89013348E-01 -3.49720967E-01 -1.65459567E-01  1.58764165E-02
  4.06879672E-02  4.74711506E-02  5.66073102E-02  7.44099120E-02  1.49230401E-01
  1.95058759E-01  2.00062087E-01  2.14701298E-01  2.66856206E-01  3.13127121E-01
  3.40386888E-01  3.54396417E-01  4.01682520E-01  5.43802468E-01  6.09334721E-01
  7.16508459E-01  7.24824570E-01  7.98030334E-01  8.04770356E-01  9.75080748E-01
  1.04500702E+00  1.08893098E+00  1.12145303E+00  1.35961335E+00  1.39571694E+00
  1.39885735E+00  1.46978578E+00  1.50148003E+00  1.64945477E+00  1.66717390E+00
  1.76262281E+00  2.06899539E+00  2.09855249E+00  2.49604098E+00  2.55267316E+00
  2.89217623E+00  2.90909997E+00  3.17370784E+00  3.18855405E+00  3.85225272E+00
  5.05178054E+00  5.06731369E+00  5.52572258E+00  7.84055863E+00  1.74109708E+01
  1.74466493E+01  1.74581195E+01  4.98828155E+01  1.89103792E+02
Beta Orbital Energies                      R   N=          64
 -8.99750035E+01 -1.96746107E+01 -8.33538021E+00 -6.25757221E+00 -6.25386237E+00
 -6.24835365E+00 -1.08855934E+00 -8.32293026E-01 -5.28166013E-01 -4.92084728E-01
 -3.99479644E-01 -3.89013317E-01 -3.49720974E-01 -1.65459557E-01  1.58764186E-02
  4.06879685E-02  4.74711514E-02  5.66073111E-02  7.44099116E-02  1.49230402E-01
  1.95058759E-01  2.00062089E-01  2.14701299E-01  2.66856211E-01  3.13127123E-01
  3.40386889E-01  3.54396418E-01  4.01682520E-01  5.43802471E-01  6.09334709E-01
  7.16508439E-01  7.24824561E-01  7.98030319E-01  8.04770341E-01  9.75080739E-01
  1.04500702E+00  1.08893099E+00  1.12145304E+00  1.35961336E+00  1.39571694E+00
  1.39885736E+00  1.46978578E+00  1.50148002E+00  1.64945476E+00  1.66717390E+00
  1.76262277E+00  2.06899539E+00  2.09855248E+00  2.49604098E+00  2.55267316E+00
  2.89217626E+00  2.90909998E+00  3.17370786E+00  3.18855406E+00  3.85225273E+00
  5.05178055E+00  5.06731372E+00  5.52572259E+00  7.84055863E+00  1.74109708E+01
  1.74466493E+01  1.74581195E+01  4.98828155E+01  1.89103792E+02
Alpha MO coefficients                      R   N=        4096
 -4.87146032E-07  2.16831985E-06 -6.03009339E-07 -2.87151110E-07  1.70804628E-08
 -1.43894632E-05 -4.16132873E-06  1.31186969E-06 -8.35321833E-07  1.37186735E-05
  2.64715718E-05 -7.12769914E-06  7.95444284E-06  1.65529695E-04  9.16863613E-05
 -2.36152880E-05  3.81726166E-05 -2.99887795E-06  1.56100872E-07 -3.10295391E-06
  8.54410138E-06 -1.50114979E-07  4.10787549E-01  6.54411236E-01  1.53504025E-02
 -4.35326034E-03  1.63805301E-03 -9.67404420E-04  1.00340485E-04 -5.55603475E-05
 -1.25299840E-05 -2.11015975E-05 -4.82903397E-05 -3.92972657E-05 -6.32228133E-05
  1.25508234E-05  1.32338020E-05  2.14929008E-05 -2.38501918E-06  1.55588373E-06
  4.18037343E-06 -2.97149611E-05 -8.26567292E-05 -1.45830929E-04  1.59984337E-04
  9.55544231E-05  1.62938229E-04  5.49369459E-05  8.96948999E-06  6.27675969E-05
 -2.08647138E-05  4.49944750E-06 -4.23763128E-06 -1.12524054E-05 -9.18283924E-05
 -1.56346525E-06 -1.36305929E-06 -1.29908316E-06  2.09005157E-05 -1.89339681E-04
  2.65203913E-04 -1.64830122E-05 -8.37140251E-05 -1.46860256E-04  5.52855858E-01
  4.69687479E-01  4.86316694E-04 -6.53099520E-04  1.05868980E-03  8.07564749E-03
 -1.43478450E-04  7.02015707E-05 -1.14645696E-04 -3.24387945E-03 -1.13445574E-04
 -1.14414083E-04  1.98239822E-04  2.85463797E-03  4.77621251E-04 -1.57678588E-04
  2.49491855E-04  8.99934016E-05 -7.13733559E-06 -1.03804853E-04 -4.73824305E-05
  3.40925181E-06  6.36139968E-09  1.23524576E-06 -8.87886874E-06  1.88053664E-05
 -6.32857864E-05  6.55731637E-06 -7.24153510E-04  4.46161208E-04 -8.36248953E-06
  4.37744867E-05  6.09061865E-06 -5.28005457E-08 -2.03842516E-07 -8.15702861E-06
 -1.36437430E-06 -4.83802550E-07  3.77715454E-05  8.42630656E-06  8.35158397E-06
 -9.76117575E-06 -3.71127236E-05 -5.47156460E-05  7.79212473E-05  4.51020611E-05
  3.51017992E-05  1.35697808E-05  1.31152581E-05  1.95294595E-05  4.74331242E-06
  7.62996045E-06  8.17992662E-05 -9.38493221E-05 -9.03960418E-04 -1.05882332E-05
 -2.29801146E-04  3.76399765E-04  3.81858256E-05 -1.62465222E-04  1.89690228E-04
  4.77157545E-05 -1.77384612E-05 -3.70789054E-05 -1.26333373E-06  1.16847355E-05
 -1.41067839E-05 -4.11581148E-06  4.33262928E-06 -1.73444868E-04  1.11078943E-04
  3.00708180E-05 -3.38079372E-05  1.72202073E-04  2.59473369E-04 -2.70419258E-05
 -2.47844689E-06  2.04855145E-03  1.20662921E-03 -3.47437140E-04  5.58111909E-04
 -6.26773307E-05 -5.40221455E-06 -8.71294566E-06  1.18725852E-04  2.67580827E-06
 -1.19761747E-01 -3.20484160E-01  5.16044312E-01  5.98908807E-01  4.31942932E-02
 -1.56921191E-02  1.98613824E-03 -7.90180690E-04 -1.47027677E-04 -2.35989120E-04
 -1.24705284E-03 -9.79195463E-04 -1.55027019E-03 -2.87488310E-03 -2.20927180E-03
 -3.50122364E-03 -3.30801438E-04 -2.25749474E-04 -3.23082090E-04 -3.24770854E-04
 -8.83491264E-04 -1.55027780E-03  2.04023267E-03  1.20505165E-03  2.03392144E-03
  4.90405586E-04  1.39239414E-05  9.25676947E-04  2.48997124E-04 -4.77101787E-06
 -8.94486305E-05  1.10966793E-04 -1.37733399E-03  3.47801721E-05  1.99432945E-05
 -7.21875413E-05  1.00528638E-04 -1.72355550E-03  3.37183441E-03 -1.69025689E-04
 -7.85070985E-04 -1.37856969E-03 -2.23087134E-06 -1.70818566E-05 -7.61245222E-05
 -6.79990148E-06  1.35908366E-05  1.98921316E-04  2.97958154E-04  4.05201049E-05
 -7.72594634E-05 -6.05515656E-04 -6.81733632E-04  2.88524743E-04 -4.09331974E-04
  9.01778207E-04  8.21930064E-04 -1.96861060E-04  2.42635247E-04 -3.53096347E-05
 -2.68844192E-05  8.66561581E-05 -3.14833094E-05  1.83863537E-05 -3.11473667E-04
 -8.54570292E-04  1.60451827E-03  1.22505190E-03  1.10741251E-04  5.05079242E-06
 -3.42995432E-04 -2.46986622E-03  2.57436437E-04  4.40144190E-04  3.69129373E-01
 -4.48086113E-02 -7.23988087E-02  6.90844151E-01 -8.38391098E-02 -1.35433226E-01
  5.36371249E-02 -6.47473282E-03 -1.04863642E-02 -7.64123764E-03  7.99851815E-04
  1.32654758E-03  4.94262289E-03 -4.92898902E-04 -8.54415693E-04  2.13491630E-04
 -3.57952271E-04  1.53116207E-04 -2.14202705E-04 -2.32357365E-04 -7.39720291E-05
  1.00144788E-03 -8.03836417E-04  1.89120216E-04  1.22799546E-04 -1.94167596E-04
  9.95174877E-05 -1.43031502E-04 -6.90292468E-05  9.70084874E-05 -8.83282956E-05
 -1.59546360E-04 -2.62009043E-07 -2.75147345E-06 -2.12646239E-05 -1.63932508E-06
  4.76346671E-06  3.12457270E-05  7.36352624E-05  1.62978176E-05 -1.37083609E-05
 -4.99777628E-05 -1.45807088E-04 -2.56950103E-06 -1.15634006E-04 -8.92220456E-05
  1.13878971E-04  7.20613997E-05 -7.02257682E-05 -1.49399782E-06 -9.49025869E-06
  1.64554837E-05 -8.58279594E-06 -1.60617097E-06 -8.08382843E-04 -2.18868978E-03
  3.88296324E-03  3.89513545E-03 -6.91252538E-04 -2.90413884E-04 -5.46847371E-04
 -4.21474981E-04 -9.47521660E-04 -1.68303514E-03  8.51759957E-02  1.81687445E-01
  3.22125107E-01  1.59172942E-01  3.39381911E-01  6.01714745E-01  1.20875489E-02
  2.57361300E-02  4.56230494E-02 -1.65114584E-03 -3.33818697E-03 -5.91671733E-03
  1.01924792E-03  2.10872356E-03  3.74032113E-03 -3.80741752E-04 -3.36580392E-04
 -5.33792849E-04  8.27133309E-05 -1.95879588E-04  1.56731633E-07  9.73898702E-05
  2.29862210E-04  2.30406694E-05  1.08720978E-05 -5.21184147E-05 -5.47033802E-04
 -1.30088231E-04  1.15458692E-03  2.03065564E-05  3.10168710E-04  5.51209864E-04
 -2.82796784E-07 -1.33122775E-06 -8.66008132E-07  5.75000743E-07 -5.92179315E-07
  1.70692207E-05  3.81803016E-06  9.38673212E-06 -4.42128810E-06 -1.04596638E-04
 -2.59062696E-05 -1.69224998E-05 -4.69634510E-05  1.50058361E-04 -9.93885475E-06
 -3.12808511E-05  7.48811391E-05 -7.60280608E-06 -4.50263661E-06  1.22586990E-05
  3.39051355E-06 -2.28922730E-06 -3.89611670E-05 -1.05752224E-04  1.88969004E-04
  1.85068649E-04 -4.74486253E-05  3.42253511E-05  1.28689887E-05 -3.85015316E-05
 -1.84784737E-03  1.05393709E-03  3.39175222E-03  3.30848576E-01 -1.87505644E-01
  6.31303387E-03  6.16965138E-01 -3.49657893E-01  4.76227637E-04  4.51376977E-02
 -2.55787389E-02 -8.29372743E-05 -6.08498981E-03  3.43890148E-03  4.20208616E-05
  3.51278960E-03 -2.00859284E-03  3.15350109E-04  1.18775105E-04 -1.87528006E-04
  1.93934041E-04 -2.14141228E-04 -2.97450012E-05  2.17920357E-04 -2.54834132E-04
  5.32407247E-05  3.47963447E-06 -1.68235844E-05 -1.39093973E-06 -2.06869702E-05
 -5.57252526E-06  1.66535062E-06  8.08113985E-05 -5.22775732E-05 -1.17949015E-01
 -1.94171994E-01  1.96941089E-03 -2.44827309E-02  3.96961464E-02  5.67086679E-01
  1.20527583E-03 -3.97364798E-02  6.44450540E-02  4.29635834E-01  1.42103330E-02
 -1.71950351E-02  2.65506127E-02 -3.10780552E-02 -1.11687026E-02  4.00339999E-03
 -6.79195152E-03  4.90508849E-03 -1.53509995E-05 -1.01398575E-02  2.17686813E-03
  1.07281082E-04  1.78356443E-03  5.04757130E-03 -1.04085717E-02 -1.95468771E-02
  3.26158550E-02  2.66223447E-02  9.61346990E-03 -6.08678802E-03  1.44058072E-04
  7.40378506E-05  2.91494893E-03  2.41244041E-04  1.71517411E-04  5.65117281E-03
  4.79995747E-04  3.57575031E-04 -6.58944682E-03 -5.53356540E-04 -4.38288967E-04
 -1.81019789E-02 -9.33848340E-04 -1.64453798E-04 -4.35430764E-03 -1.56811360E-03
 -1.34061475E-03 -1.98643796E-03 -1.45625585E-04  7.08778418E-04  4.34796641E-03
  4.00593197E-04  1.09600420E-01  8.23936281E-02  2.06526754E-02  3.07662930E-04
  1.23775343E-02 -2.03075229E-02  3.39498311E-03  3.65514372E-03 -3.22606949E-03
 -6.08157505E-04  4.50865197E-04  8.34379882E-04  8.62418735E-03  1.43494038E-02
  1.51519892E-02  3.46522123E-03 -6.98980169E-03 -4.45065635E-02  2.25149421E-02
  5.16015785E-03 -1.01805178E-02 -2.70030575E-02  1.96283304E-02  5.05380494E-04
 -2.80355775E-03 -1.59886938E-02 -7.32840084E-03  2.48289013E-03 -3.79315753E-03
 -1.28421842E-03  6.28234429E-04  7.38851795E-04  1.41483124E-03 -5.55016498E-04
  3.32479031E-02  9.45054020E-02 -1.98598486E-01 -3.66120616E-01  6.62331823E-01
  4.12023752E-01 -7.95644838E-03  4.00707524E-03  5.43284406E-04 -2.07671244E-03
  2.88433258E-04  8.71926719E-03  1.44801575E-02  6.18565841E-04  1.73807709E-02
  2.89060721E-02 -1.04451534E-03 -2.39590878E-02 -4.02661906E-02  3.96675069E-03
 -3.36894432E-02 -5.40096734E-02 -8.58454834E-03 -7.45093032E-03 -6.20225787E-03
  1.18015159E-02  2.46879833E-04  2.09703324E-02  4.34882331E-03  6.43210723E-04
 -1.16155711E-02 -1.74114292E-02  1.03821017E-02  1.10359383E-03 -2.09395580E-03
  3.46962016E-03  1.01132747E-01  1.30948464E-01  2.94430632E-03  3.33794198E-03
  1.12965301E-02  1.98589971E-02  3.83116145E-02  6.40596344E-02 -1.22186561E-02
 -1.27455547E-01  2.14728485E-01 -1.93682486E-01 -1.63812496E-02 -1.82611073E-01
  3.07662304E-01 -2.86728556E-01 -2.18838119E-02 -1.21925705E-01  2.08077237E-01
 -5.83281989E-02  3.13088375E-03 -1.27582505E-02  2.37828710E-02  1.16472746E-02
  1.01133428E-03 -1.37216669E-02 -6.11621361E-03 -5.15475961E-04  1.88460328E-03
  5.38179693E-03 -1.15420263E-02 -2.11049257E-02  4.11590641E-02  3.00661701E-02
  5.60832465E-03 -4.00145377E-03  1.14850287E-03 -4.38010890E-03 -6.20439007E-03
  1.42355422E-03 -7.01592771E-03 -1.19616719E-02  2.68988531E-03 -1.34816832E-02
  1.58025064E-02 -3.59395676E-03  1.85360177E-02  3.78511533E-02 -9.26097850E-03
  3.88215938E-02  1.28385916E-02 -8.07924418E-03  1.41588770E-02  2.93179611E-04
 -5.95797273E-03 -1.80824686E-03 -3.25659769E-03  1.94793500E-03  1.64872270E-01
  2.59828970E-01  7.84169455E-02  3.25287946E-03  1.58220927E-02 -2.61029232E-02
 -7.33544933E-03 -1.03654920E-02 -1.21374349E-02  2.00854287E-03 -9.69005979E-04
 -2.81577218E-04 -8.01390818E-04 -1.26858321E-03  2.28368082E-02  3.35823210E-02
 -4.25546448E-03  2.02604186E-03  3.29845867E-02  4.84260167E-02 -6.21600650E-03
  1.77317639E-02  3.41038634E-02  3.85292619E-02  6.11662652E-03  1.41560278E-03
  7.81946109E-03  7.61264023E-03 -4.44218780E-03 -4.49761381E-04  2.10814592E-03
  1.52245640E-03  2.00954975E-03  2.10427732E-04  1.17140353E-02  3.34724001E-02
 -7.20021455E-02 -1.31305337E-01  2.40175985E-01  2.92915431E-01  1.89102888E-02
  5.53483023E-04 -1.04901515E-02 -2.08302957E-02 -5.26428535E-03 -4.05975037E-02
 -7.10419471E-02 -1.02795146E-02 -7.90512983E-02 -1.38342513E-01  1.60629715E-02
  1.15336274E-01  2.01713570E-01  2.44000561E-02  2.00437820E-01  3.50968856E-01
  8.67677691E-03  5.19741695E-02  9.66765590E-02 -3.31083051E-02 -6.86195982E-03
 -3.66452920E-02  1.68712600E-02 -4.24798105E-03 -1.56817843E-02 -3.11961374E-02
  5.00492763E-03  2.96384060E-03  1.73095890E-04  5.40032014E-03 -1.56903767E-01
 -2.83340396E-01 -1.30883572E-01 -4.81976272E-03 -1.26900102E-02 -2.30592746E-02
 -2.47145696E-03 -4.23109276E-03 -4.90254202E-02  2.51293032E-01  1.50164627E-01
  1.52015947E-02 -7.21166721E-02  3.66889026E-01  2.19103903E-01  8.46551199E-03
 -7.25839868E-02  3.37201488E-01  1.95225509E-01 -1.31031464E-02 -1.68185559E-02
  7.71448530E-02  4.44155697E-02  1.12191138E-02 -1.30800045E-03  6.50263241E-03
  5.19073654E-03  3.44939517E-03 -3.12180155E-04 -9.00416284E-04  2.01012374E-03
  3.21947666E-03 -2.35628975E-03 -2.55019139E-02 -4.99746226E-03 -7.27290040E-03
 -7.01747695E-03  6.02370653E-03 -1.16021748E-02 -7.74168133E-03  1.44067882E-02
 -2.24221187E-02 -1.47434003E-02  2.80090723E-02  3.07146896E-02  2.07242744E-02
 -4.19486397E-02  6.95733940E-02  4.88737760E-02 -7.50295711E-02  3.20321866E-02
  3.70844172E-02 -2.66462393E-02  8.27688442E-03 -4.97532554E-03  4.22256529E-03
 -4.68287864E-03 -7.63248542E-03  1.53517277E-03  8.92872208E-03  4.81030984E-03
 -5.67969450E-03  3.03310934E-02  1.57315844E-02  1.96487439E-02  3.75761899E-02
  2.84764491E-02  5.63324094E-03  4.32206881E-03  2.02177891E-03 -1.05538520E-02
 -1.80918813E-02 -2.05033303E-01 -4.72487115E-02 -5.17551277E-02  6.45746353E-02
 -3.02707931E-01 -6.87203108E-02 -7.58777905E-02  3.65173846E-02 -3.08568539E-01
 -5.55467998E-02 -8.44750410E-02  1.13989030E-03 -5.67087326E-02 -1.50753653E-02
 -5.87831000E-03 -7.40356128E-04 -9.93776824E-03  4.03424333E-04 -6.37622945E-03
  5.72921437E-03  3.68182296E-03  1.05120321E-02 -2.25551116E-02 -4.24775948E-02
  9.02250987E-02  4.94808038E-02  1.90979164E-02 -4.41725552E-02 -8.30433838E-03
  1.58331174E-03 -6.08527794E-02 -5.58318317E-03 -1.12019703E-03 -1.17393886E-01
 -1.07400085E-02 -2.05381131E-03  1.60983236E-01  1.61794428E-02  2.99073900E-03
  3.67142619E-01  3.05752850E-02  8.31635819E-03  1.71016746E-01  2.30113313E-02
 -1.01227823E-02  9.10077476E-03 -7.42467854E-03 -1.41899578E-03 -1.60309106E-02
 -5.48371027E-03 -2.54162634E-03  2.18093369E-02 -2.27159213E-02 -2.29146975E-02
 -3.26076432E-03 -9.94947626E-03 -6.09047694E-03 -6.09311546E-03 -9.19887921E-03
  1.02676159E-02  5.18992104E-04 -5.56601475E-04  2.79317953E-03  4.72706022E-03
  1.92024844E-02 -4.84803732E-02 -3.46288477E-03 -1.53646824E-02  2.81530887E-02
 -7.09257427E-02 -4.88522037E-03 -1.85470572E-02  3.11109002E-02 -6.27738823E-02
 -8.85348819E-03 -1.01169104E-02  4.97772237E-03 -1.62763322E-02 -7.35314530E-03