Title Card Required                                                     
FOpt      UM062X                                                      6-311+G(d,p)        
Number of atoms                            I                4
Info1-9                                    I   N=           9
          14          14           0           0           0         110
           2          18        -502
Full Title                                 C   N=           2
Title Card Required     
Route                                      C   N=           8
#p opt UM062X/6-311+G** nosymm int=superfine SCF=(MaxCycle=2
00,NoVarAcc,noincfock) guess=read   
Charge                                     I                0
Multiplicity                               I                1
Number of electrons                        I               26
Number of alpha electrons                  I               13
Number of beta electrons                   I               13
Number of basis functions                  I               64
Number of independent functions            I               64
Number of point charges in /Mol/           I                0
Number of translation vectors              I                0
Atomic numbers                             I   N=           4
           8          16           1           1
Nuclear charges                            R   N=           4
  8.00000000E+00  1.60000000E+01  1.00000000E+00  1.00000000E+00
Current cartesian coordinates              R   N=          12
 -3.56403584E+00 -2.32806688E-06 -1.52895779E-06  3.56403571E+00  4.46719591E-05
  4.65563742E-05 -3.48541871E+00 -4.85460367E-02 -1.83145189E+00  3.08854230E+00
 -1.88107888E+00  1.64875728E+00
Number of symbols in /Mol/                 I                0
Force Field                                I                0
Atom Types                                 C   N=           4
                                                
Int Atom Types                             I   N=           4
           0           0           0           0
MM charges                                 R   N=           4
  0.00000000E+00  0.00000000E+00  0.00000000E+00  0.00000000E+00
Integer atomic weights                     I   N=           4
          16          32           1           1
Real atomic weights                        R   N=           4
  1.59949146E+01  3.19720718E+01  1.00782504E+00  1.00782504E+00
Atom fragment info                         I   N=           4
           0           0           0           0
Atom residue num                           I   N=           4
           0           0           0           0
Nuclear spins                              I   N=           4
           0           0           1           1
Nuclear ZEff                               R   N=           4
 -5.60000000E+00 -1.36000000E+01 -1.00000000E+00 -1.00000000E+00
Nuclear ZNuc                               R   N=           4
  8.00000000E+00  1.60000000E+01  1.00000000E+00  1.00000000E+00
Nuclear QMom                               R   N=           4
  0.00000000E+00  0.00000000E+00  0.00000000E+00  0.00000000E+00
Nuclear GFac                               R   N=           4
  0.00000000E+00  0.00000000E+00  2.79284600E+00  2.79284600E+00
MicOpt                                     I   N=           4
          -2          -2          -1          -1
Number of residues                         I                0
Number of secondary structures             I                0
Redundant internal dimensions              I   N=           4
          12           8           4           0
Redundant internal coordinate indices      I   N=          48
           1          -1           0           0           1          -2
           0           0           1          -3           0           0
           2          -1           0           0           2          -2
           0           0           2          -3           0           0
           1           3           0           0           2           4
           0           0           2           1           3          -5
           1           2           4          -5           2           1
           3          -7           1           2           4          -7
Redundant internal coordinates             R   N=          12
 -3.56403584E+00 -2.32806688E-06 -1.52895779E-06  3.56403571E+00  4.46719591E-05
  4.65563742E-05  1.83377959E+00  2.54616709E+00  5.53172665E-01  4.95998050E+00
  4.75528205E+00  4.99316608E+00
ZRed-IntVec                                I   N=          12
          -1          -1          -1          -1          -1          -1
           0           0           0           0           0           0
ZRed-FPVec                                 R   N=          12
  0.00000000E+00  0.00000000E+00  0.00000000E+00  0.00000000E+00  0.00000000E+00
  0.00000000E+00  0.00000000E+00  0.00000000E+00  0.00000000E+00  0.00000000E+00
  0.00000000E+00  0.00000000E+00
ZRed-Constraint1                           R   N=          12
 -3.56403575E+00  0.00000000E+00  0.00000000E+00  3.56403575E+00  0.00000000E+00
  0.00000000E+00  1.83597177E+00  2.59721753E+00  3.14071774E+00  3.14233270E+00
  3.14159265E+00  3.14158686E+00
ZRed-Constraint2                           R   N=          12
 -3.56403575E+00  0.00000000E+00  0.00000000E+00  3.56403575E+00  0.00000000E+00
  0.00000000E+00  0.00000000E+00  0.00000000E+00  0.00000000E+00  0.00000000E+00
  0.00000000E+00  0.00000000E+00
Number of contracted shells                I               27
Number of primitive shells                 I               49
Pure/Cartesian d shells                    I                0
Pure/Cartesian f shells                    I                0
Highest angular momentum                   I                2
Largest degree of contraction              I                6
Shell types                                I   N=          27
           0          -1          -1          -1          -1          -2
           0           0           0           0           0           0
          -1           1           1           1           1           1
          -2           0           0           0           1           0
           0           0           1
Number of primitives per shell             I   N=          27
           6           3           1           1           1           1
           6           3           1           1           1           1
           1           4           2           1           1           1
           1           3           1           1           1           3
           1           1           1
Shell to atom map                          I   N=          27
           1           1           1           1           1           1
           2           2           2           2           2           2
           2           2           2           2           2           2
           2           3           3           3           3           4
           4           4           4
Primitive exponents                        R   N=          49
  8.58850000E+03  1.29723000E+03  2.99296000E+02  8.73771000E+01  2.56789000E+01
  3.74004000E+00  4.21175000E+01  9.62837000E+00  2.85332000E+00  9.05661000E-01
  2.55611000E-01  8.45000000E-02  1.29200000E+00  9.34134000E+04  1.39617000E+04
  3.16991000E+03  9.02456000E+02  2.97158000E+02  1.08702000E+02  1.08702000E+02
  4.31553000E+01  1.81079000E+01  5.56009000E+00  2.13183000E+00  4.20403000E-01
  1.36045000E-01  4.05000000E-02  4.95040000E+02  1.17221000E+02  3.77749000E+01
  1.40584000E+01  5.56574000E+00  2.26297000E+00  8.07994000E-01  2.77460000E-01
  7.71410000E-02  6.50000000E-01  3.38650000E+01  5.09479000E+00  1.15879000E+00
  3.25840000E-01  1.02741000E-01  7.50000000E-01  3.38650000E+01  5.09479000E+00
  1.15879000E+00  3.25840000E-01  1.02741000E-01  7.50000000E-01
Contraction coefficients                   R   N=          49
  1.89515008E-03  1.43859006E-02  7.07320031E-02  2.40001011E-01  5.94797026E-01
  2.80802012E-01  1.13889012E-01  9.20811101E-01 -3.27447036E-03  1.00000000E+00
  1.00000000E+00  1.00000000E+00  1.00000000E+00  7.42999957E-04  5.79299966E-03
  2.99539983E-02  1.19027993E-01  3.68431979E-01  5.77298966E-01  1.43186060E-01
  6.24465262E-01  2.83366119E-01  1.00000000E+00  1.00000000E+00  1.00000000E+00
  1.00000000E+00  1.00000000E+00  8.30900251E-03  6.40240194E-02  2.77614084E-01
  7.45076225E-01  6.13711672E-01  4.43817763E-01  1.00000000E+00  1.00000000E+00
  1.00000000E+00  1.00000000E+00  2.54938145E-02  1.90373109E-01  8.52161486E-01
  1.00000000E+00  1.00000000E+00  1.00000000E+00  2.54938145E-02  1.90373109E-01
  8.52161486E-01  1.00000000E+00  1.00000000E+00  1.00000000E+00
P(S=P) Contraction coefficients            R   N=          49
  0.00000000E+00  0.00000000E+00  0.00000000E+00  0.00000000E+00  0.00000000E+00
  0.00000000E+00  3.65113974E-02  2.37152983E-01  8.19701941E-01  1.00000000E+00
  1.00000000E+00  1.00000000E+00  0.00000000E+00  0.00000000E+00  0.00000000E+00
  0.00000000E+00  0.00000000E+00  0.00000000E+00  0.00000000E+00  0.00000000E+00
  0.00000000E+00  0.00000000E+00  0.00000000E+00  0.00000000E+00  0.00000000E+00
  0.00000000E+00  1.00000000E+00  0.00000000E+00  0.00000000E+00  0.00000000E+00
  0.00000000E+00  0.00000000E+00  0.00000000E+00  0.00000000E+00  0.00000000E+00
  0.00000000E+00  0.00000000E+00  0.00000000E+00  0.00000000E+00  0.00000000E+00
  0.00000000E+00  0.00000000E+00  0.00000000E+00  0.00000000E+00  0.00000000E+00
  0.00000000E+00  0.00000000E+00  0.00000000E+00  0.00000000E+00
Coordinates of each shell                  R   N=          81
 -3.56403584E+00 -2.32806688E-06 -1.52895779E-06 -3.56403584E+00 -2.32806688E-06
 -1.52895779E-06 -3.56403584E+00 -2.32806688E-06 -1.52895779E-06 -3.56403584E+00
 -2.32806688E-06 -1.52895779E-06 -3.56403584E+00 -2.32806688E-06 -1.52895779E-06
 -3.56403584E+00 -2.32806688E-06 -1.52895779E-06  3.56403571E+00  4.46719591E-05
  4.65563742E-05  3.56403571E+00  4.46719591E-05  4.65563742E-05  3.56403571E+00
  4.46719591E-05  4.65563742E-05  3.56403571E+00  4.46719591E-05  4.65563742E-05
  3.56403571E+00  4.46719591E-05  4.65563742E-05  3.56403571E+00  4.46719591E-05
  4.65563742E-05  3.56403571E+00  4.46719591E-05  4.65563742E-05  3.56403571E+00
  4.46719591E-05  4.65563742E-05  3.56403571E+00  4.46719591E-05  4.65563742E-05
  3.56403571E+00  4.46719591E-05  4.65563742E-05  3.56403571E+00  4.46719591E-05
  4.65563742E-05  3.56403571E+00  4.46719591E-05  4.65563742E-05  3.56403571E+00
  4.46719591E-05  4.65563742E-05 -3.48541871E+00 -4.85460367E-02 -1.83145189E+00
 -3.48541871E+00 -4.85460367E-02 -1.83145189E+00 -3.48541871E+00 -4.85460367E-02
 -1.83145189E+00 -3.48541871E+00 -4.85460367E-02 -1.83145189E+00  3.08854230E+00
 -1.88107888E+00  1.64875728E+00  3.08854230E+00 -1.88107888E+00  1.64875728E+00
  3.08854230E+00 -1.88107888E+00  1.64875728E+00  3.08854230E+00 -1.88107888E+00
  1.64875728E+00
Num ILSW                                   I              100
ILSW                                       I   N=         100
           1           0           0           0           2           0
           0           0           0           0        4336          -1
           7           0           0           0           2           0
           0           0           0           0           1           0
           1           1           0           0           0           0
           0           0      100000           0          -1           0
           0           0           0           0           0           0
           0           0           0           1           0           0
           0 -2000000000           1           0           0           0
           0           0           4          52           0           0
           0           0          55           0           0           0
           0           0           0           4           0           1
           0           0           0           0           0           0
           0           0           0           0           0           0
           0           0           0           0           0           0
           0           0           0           0           0           0
           0           0           0           0
Num RLSW                                   I               52
RLSW                                       R   N=          52
  1.00000000E+00  1.00000000E+00  1.00000000E+00  1.00000000E+00  5.40000000E-01
  0.00000000E+00  0.00000000E+00  1.00000000E+00  0.00000000E+00  0.00000000E+00
  0.00000000E+00  0.00000000E+00  1.00000000E+00  0.00000000E+00  0.00000000E+00
  0.00000000E+00  0.00000000E+00  1.00000000E+00  0.00000000E+00  0.00000000E+00
  0.00000000E+00  0.00000000E+00  1.00000000E+00  0.00000000E+00  0.00000000E+00
  0.00000000E+00  0.00000000E+00  1.00000000E+00  0.00000000E+00  0.00000000E+00
  0.00000000E+00  0.00000000E+00  1.00000000E+00  0.00000000E+00  0.00000000E+00
  0.00000000E+00  0.00000000E+00  0.00000000E+00  1.00000000E+00  1.00000000E+00
  0.00000000E+00  1.00000000E+00  0.00000000E+00  0.00000000E+00  0.00000000E+00
  0.00000000E+00  0.00000000E+00  0.00000000E+00  0.00000000E+00  0.00000000E+00
  0.00000000E+00  0.00000000E+00
MxBond                                     I                2
NBond                                      I   N=           4
           2           2           1           1
IBond                                      I   N=           8
           2           3           1           4           1           0
           2           0
RBond                                      R   N=           8
  1.00000000E-01  1.00000000E+00  1.00000000E-01  1.00000000E+00  1.00000000E+00
  0.00000000E+00  1.00000000E+00  0.00000000E+00
Virial Ratio                               R      2.001618124358827E+00
SCF Energy                                 R     -4.743621168825383E+02
Total Energy                               R     -4.743621168825383E+02
S**2                                       R     -7.460698725481052E-14
S**2 after annihilation                    R      7.105427357600749E-14
RMS Force                                  R      8.170760530272866E-05
RMS Density                                R      9.407735680964940E-09
Job Status                                 I                1
Nuclear derivative order                   I                1
External E-field                           R   N=          35
  0.00000000E+00  0.00000000E+00  0.00000000E+00  0.00000000E+00  0.00000000E+00
  0.00000000E+00  0.00000000E+00  0.00000000E+00  0.00000000E+00  0.00000000E+00
  0.00000000E+00  0.00000000E+00  0.00000000E+00  0.00000000E+00  0.00000000E+00
  0.00000000E+00  0.00000000E+00  0.00000000E+00  0.00000000E+00  0.00000000E+00
  0.00000000E+00  0.00000000E+00  0.00000000E+00  0.00000000E+00  0.00000000E+00
  0.00000000E+00  0.00000000E+00  0.00000000E+00  0.00000000E+00  0.00000000E+00
  0.00000000E+00  0.00000000E+00  0.00000000E+00  0.00000000E+00  0.00000000E+00
IOpCl                                      I                1
IROHF                                      I                0
Alpha Orbital Energies                     R   N=          64
 -8.99782456E+01 -1.96714508E+01 -8.34008998E+00 -6.26212598E+00 -6.25856908E+00
 -6.25286853E+00 -1.08393129E+00 -8.39678071E-01 -5.24580676E-01 -4.98197913E-01
 -3.97074554E-01 -3.58881297E-01 -3.32462452E-01 -2.33657144E-01  1.48581727E-02
  4.04266680E-02  4.52414635E-02  5.37391010E-02  6.60446430E-02  1.30635214E-01
  1.92449571E-01  1.96647793E-01  2.14087937E-01  2.40630507E-01  3.08264316E-01
  3.38960344E-01  3.45811671E-01  3.92237242E-01  5.36305838E-01  5.81700255E-01
  6.96136488E-01  7.13339345E-01  7.83431081E-01  7.85464790E-01  9.68916579E-01
  1.03816699E+00  1.07823053E+00  1.09482168E+00  1.36062138E+00  1.39213989E+00
  1.39846394E+00  1.45254692E+00  1.45573443E+00  1.64035490E+00  1.66050291E+00
  1.67343315E+00  2.05676484E+00  2.08620250E+00  2.47910555E+00  2.52432733E+00
  2.87791670E+00  2.88668578E+00  3.16480810E+00  3.18782081E+00  3.84226735E+00
  5.03020082E+00  5.04242148E+00  5.50966151E+00  7.80880530E+00  1.74056485E+01
  1.74162737E+01  1.74521775E+01  4.98664570E+01  1.89068302E+02
Beta Orbital Energies                      R   N=          64
 -8.99782456E+01 -1.96714508E+01 -8.34008998E+00 -6.26212598E+00 -6.25856908E+00
 -6.25286853E+00 -1.08393129E+00 -8.39678071E-01 -5.24580676E-01 -4.98197913E-01
 -3.97074554E-01 -3.58881298E-01 -3.32462451E-01 -2.33657144E-01  1.48581727E-02
  4.04266680E-02  4.52414635E-02  5.37391009E-02  6.60446430E-02  1.30635214E-01
  1.92449571E-01  1.96647793E-01  2.14087937E-01  2.40630507E-01  3.08264316E-01
  3.38960344E-01  3.45811671E-01  3.92237242E-01  5.36305838E-01  5.81700255E-01
  6.96136488E-01  7.13339345E-01  7.83431080E-01  7.85464790E-01  9.68916579E-01
  1.03816699E+00  1.07823053E+00  1.09482168E+00  1.36062138E+00  1.39213989E+00
  1.39846394E+00  1.45254692E+00  1.45573443E+00  1.64035490E+00  1.66050291E+00
  1.67343315E+00  2.05676484E+00  2.08620250E+00  2.47910555E+00  2.52432733E+00
  2.87791670E+00  2.88668578E+00  3.16480810E+00  3.18782081E+00  3.84226735E+00
  5.03020082E+00  5.04242148E+00  5.50966151E+00  7.80880530E+00  1.74056485E+01
  1.74162737E+01  1.74521775E+01  4.98664570E+01  1.89068302E+02
Alpha MO coefficients                      R   N=        4096
  1.85135040E-07 -9.00877200E-07 -1.40380619E-06 -2.78276781E-07  7.49630120E-08
  6.50520893E-06  4.73258974E-06  8.97261619E-07 -1.37417540E-07 -2.55646519E-05
 -1.72914743E-05 -1.77715525E-06  1.04787627E-05  1.02926509E-04  2.59980018E-05
  4.77767603E-07 -6.08796467E-05 -9.40639467E-07 -5.25480545E-07 -1.82501569E-08
  3.25688236E-07 -8.72623361E-08  4.10785923E-01  6.54412421E-01  1.53463205E-02
 -4.33909241E-03  1.59431645E-03 -8.82032907E-04  1.51710025E-04 -2.25259567E-05
 -1.60824864E-05  1.36040270E-05 -2.75285990E-05 -5.73138696E-05  4.91910098E-05
  7.57116617E-06  1.89167824E-05 -1.63227899E-05  1.82084316E-06  5.13281563E-06
 -4.57316060E-06 -4.00742880E-05 -1.32506793E-04  1.15942378E-04  5.97083352E-05
  1.28105975E-04 -1.10995119E-04  9.26658627E-06 -1.82822266E-05 -7.67247492E-05
 -3.64011468E-05  2.01391444E-05 -1.22423101E-06  2.16199592E-05 -1.26933909E-04
 -2.42329033E-06 -1.32730506E-07  1.57919643E-06  2.64054499E-05 -2.15975571E-04
  2.52734537E-04 -3.29643346E-05 -1.28983761E-04  1.13150674E-04  5.52842935E-01
  4.69704668E-01  1.78402693E-04 -3.78841321E-05 -1.24418427E-03  8.00654644E-03
 -1.56228653E-05  5.54842249E-06  1.18935254E-04 -2.95448536E-03 -9.28705501E-05
 -7.50828578E-06 -1.73436349E-04  2.21038927E-03  2.60891305E-04 -6.82377086E-06
 -3.38724221E-04  1.43025173E-04 -1.22970828E-05  6.00139064E-06 -1.87435791E-05
 -1.71383632E-06  4.13337339E-08 -6.35934991E-07  5.33387128E-06 -1.22629240E-05
  2.84331429E-05  1.24328232E-06 -3.52657681E-04  2.42127558E-04 -5.78944206E-06
 -1.88730314E-05  3.58255742E-07 -2.57830529E-07  1.65373207E-07  7.99684478E-06
 -4.77982072E-07  1.67809952E-07 -2.13540527E-05 -9.56294366E-10  7.01532560E-07
  5.45606853E-06  5.61491817E-06 -6.26221401E-06  3.42442358E-05  9.11469297E-05
 -6.30066150E-05  8.33525279E-06  3.00104326E-06  1.17968598E-05 -1.08549231E-05
 -3.73752649E-06  5.41135472E-05  1.07376880E-05 -1.00177115E-03  2.15410259E-05
 -1.20353222E-05 -4.48082864E-04 -1.43264422E-06  1.01229918E-05  1.91725846E-04
 -2.33148431E-07  3.96580596E-06 -2.53299749E-06 -1.34407630E-06 -6.30475817E-06
  4.11029526E-06 -1.99279629E-06  2.31198276E-06  6.15275174E-05  4.98692827E-05
  9.98380052E-06 -6.81642772E-06 -2.50635311E-04 -1.61167578E-04 -2.12538536E-05
  1.10508263E-04  1.30963349E-03  3.04780476E-04  3.74279107E-06 -8.24242202E-04
 -6.49652221E-06 -7.99519368E-06  3.04673052E-08  7.04255454E-06 -5.14221468E-07
 -1.19757319E-01 -3.20466683E-01  5.15923707E-01  5.99087339E-01  4.27533999E-02
 -1.46857879E-02  2.62801789E-03 -3.43753070E-04 -1.86842469E-04  1.56187473E-04
 -7.14295878E-04 -1.42861809E-03  1.22004342E-03 -1.64041860E-03 -3.23087187E-03
  2.75927280E-03 -1.55512636E-04 -2.92751154E-04  2.44171237E-04 -4.26783234E-04
 -1.43216707E-03  1.25241039E-03  7.77839857E-04  1.61816738E-03 -1.39982564E-03
 -1.59912916E-04 -1.56050254E-04 -1.13402666E-03 -3.46100867E-05  1.21367819E-04
 -1.39148160E-05  2.34674550E-04 -1.71410768E-03 -3.46016177E-05 -1.55704252E-06
  4.42993607E-06  1.55808387E-04 -2.04440589E-03  3.21763894E-03 -3.17156212E-04
 -1.23158015E-03  1.08032667E-03  1.45361691E-06  6.10675277E-06  1.59094764E-05
  1.35658301E-06  1.06377279E-06 -5.41750735E-05 -7.91026189E-05 -6.04477141E-06
 -8.17022905E-06  1.06335828E-04  1.28996860E-04  1.17132400E-05 -1.07766730E-04
  4.48782219E-04  2.46605283E-04 -2.97437232E-05 -2.67701184E-04  1.67548976E-05
 -7.45814425E-06  9.14837076E-07  1.70308377E-05  1.01319921E-08 -1.13281088E-04
 -3.11147823E-04  5.86948743E-04  4.37004404E-04  6.99286436E-05 -1.37364605E-05
 -1.04887618E-04 -2.38944727E-03  4.16813249E-04 -2.74751915E-04  3.69709887E-01
 -6.91039596E-02  4.51255247E-02  6.91962255E-01 -1.29326315E-01  8.44456031E-02
  5.36307322E-02 -1.00140821E-02  6.54156394E-03 -7.45576678E-03  1.35417121E-03
 -8.84115861E-04  4.57661370E-03 -7.66551831E-04  5.03546048E-04  9.32314966E-05
  3.11716091E-04 -1.13232523E-04 -2.27405579E-04 -3.63542837E-04 -2.68844126E-06
 -1.39181669E-04 -5.83076673E-04 -2.32585183E-05 -2.58209282E-06 -4.29993376E-05
  1.05625100E-05  4.45805175E-06  3.13155667E-05  6.46811056E-05 -3.84743022E-05
  3.08551938E-05  3.13597625E-07  1.00822980E-06  4.31413750E-06 -3.97514515E-06
  3.89345375E-06 -7.94290295E-06 -2.48058104E-05  1.65752782E-05 -1.86499119E-05
  1.37228201E-05  4.72093137E-05 -4.27397005E-05  4.00136220E-06  6.63343795E-05
  6.58580043E-05  6.47046565E-05 -4.76116129E-05  3.76466920E-06 -1.62650173E-06
  1.27265769E-06  3.67717985E-06 -1.18822700E-06 -7.79630566E-04 -2.10927376E-03
  3.73086663E-03  3.78898809E-03 -7.02440304E-04 -3.12046101E-04 -4.91754739E-04
 -3.79894570E-04 -1.48295028E-03  1.30594136E-03  8.18496058E-02  2.78107912E-01
 -2.44826929E-01  1.52931947E-01  5.19572740E-01 -4.57396528E-01  1.16325437E-02
  3.95055919E-02 -3.47786489E-02 -1.53355375E-03 -5.13314567E-03  4.51973896E-03
  9.60851520E-04  3.24905051E-03 -2.85914438E-03 -6.00500863E-05  2.04937790E-04
  6.20419256E-04  2.82279342E-04 -2.33251985E-04  1.00444592E-05 -6.51640310E-05
  2.85664385E-05 -9.54854897E-06  3.45789373E-06 -1.35138155E-05 -5.55222427E-04
 -9.99046030E-05  1.14236253E-03  1.07883669E-04  4.82708782E-04 -4.24583238E-04
  7.02061312E-08  4.14477743E-07  4.13276993E-07 -2.70709835E-06 -3.58212144E-06
 -3.90401469E-06 -2.23962323E-06  1.14510462E-05  1.58189179E-05  6.19807219E-06
  5.73536325E-07 -2.76148505E-05 -4.17907541E-05  4.38542607E-05  1.01239349E-05
  4.74984925E-05  3.21695685E-05  1.76733387E-06  5.55032099E-08  9.66499376E-07
  3.93951867E-07 -8.52450639E-07 -1.47458910E-05 -4.02000344E-05  7.32099850E-05
  6.58651368E-05 -7.72201386E-06  1.97005512E-06 -7.54084762E-06 -7.07220947E-05
 -1.40554782E-03 -1.61860162E-03  1.15583550E-02  2.49224719E-01  2.86967869E-01
  2.15540958E-02  4.64807162E-01  5.35197881E-01  1.58231818E-03  3.40512920E-02
  3.92086570E-02 -2.18294618E-04 -4.57921739E-03 -5.26978680E-03  1.37306804E-04
  2.65205006E-03  3.05069820E-03  3.68416812E-04 -1.01477008E-04 -6.54429790E-05
  2.08508594E-04 -1.05160795E-04 -4.18415823E-06 -1.24559026E-05 -4.72959199E-05
  5.26769323E-06  3.98489535E-06  2.26189319E-06 -1.07427164E-06 -2.60156409E-06
  4.65731285E-06  2.27640621E-06  6.05267939E-05  7.19296470E-05 -1.18711772E-01
 -1.95677661E-01  2.16303981E-03 -1.40916187E-03 -4.74038710E-02  5.75375204E-01
  3.79665468E-03 -2.24129232E-03 -7.58487132E-02  4.17328953E-01  2.62390747E-03
 -1.15172641E-03 -2.82443806E-02 -1.57166581E-02 -3.55370706E-03  7.49999751E-05
  5.08184997E-03  9.63225806E-03 -6.17347116E-04  5.92484573E-04  5.10774254E-03
  2.48989526E-04  1.93561293E-04  5.53348765E-04 -1.18738636E-03 -1.96198816E-03
  2.66778881E-03  3.70220565E-03  6.72378800E-03 -3.59532413E-03  9.59311708E-05
 -9.03361728E-05  5.57297921E-04 -3.18070473E-05  1.64367570E-05  1.04092528E-03
 -6.22315876E-05  3.44620443E-05 -1.22778426E-03  1.43304107E-04 -1.07796246E-04
 -3.43433726E-03  6.30013816E-05  9.00468242E-05 -3.05648431E-03 -1.89687051E-03
  1.46654611E-03 -3.54440607E-04 -7.76955127E-05 -2.75133153E-04  5.47062630E-04
  9.14428232E-05  1.10638527E-01  9.01503849E-02  1.49568454E-02 -1.20143050E-03
  6.85053327E-04  2.63184352E-02  4.95795936E-04 -1.84172406E-04 -4.12401363E-03
 -7.01782219E-06 -5.51827646E-05  5.39456694E-05  1.02166059E-03  1.71415362E-03
  3.41663666E-03  7.02335275E-05  9.31368311E-04 -5.62518385E-03  4.98175453E-03
  5.73687747E-05  1.40966078E-03 -1.73691547E-03  5.97535248E-03  2.36349439E-04
 -1.62349554E-05 -5.32890416E-03 -5.26325801E-04 -7.02303349E-05  3.65294746E-03
 -2.16761992E-04 -1.63099752E-04 -6.93779934E-06  2.35143936E-04  3.95947339E-06
  3.33996483E-02  9.48995977E-02 -1.99084306E-01 -3.68877251E-01  6.69153819E-01
  4.06611248E-01 -1.14476244E-02 -1.02187428E-04 -4.59404665E-04  9.02955724E-04
  2.59839754E-03  1.27938902E-02 -1.10242096E-02  5.28098608E-03  2.55587418E-02
 -2.20354973E-02 -7.79203915E-03 -3.55278054E-02  3.07413377E-02 -7.00206526E-03
 -4.80723549E-02  4.09131605E-02 -4.33779661E-04 -7.67649505E-03  5.19432219E-03
 -2.44375258E-03 -3.17295576E-03 -2.35626371E-02 -2.26701308E-03  2.88207324E-03
 -1.27561084E-03 -2.63819110E-03  7.77648839E-03  5.89543051E-04 -9.10051230E-06
 -4.31011619E-04  1.01290193E-01  1.34139268E-01  3.43519614E-03  5.10921587E-03
  1.74456243E-02 -1.53775164E-02 -3.94930851E-02 -6.61438864E-02 -1.06027115E-02
  6.16205233E-03  2.51519532E-01  2.01953633E-01 -1.51705946E-02  8.86747583E-03
  3.62454181E-01  2.87259052E-01 -9.61746099E-03  5.59749931E-03  2.42501526E-01
  6.11680775E-02 -1.36277769E-03  3.12301985E-04  2.44432847E-02 -1.91401729E-02
  1.96937923E-03 -8.93894002E-04  1.60794732E-03  1.30108096E-04 -3.40775636E-04
 -9.70658074E-04  2.06071364E-03  3.89766147E-03 -7.65248410E-03 -6.49616167E-03
  2.04442493E-04  8.68648351E-04  3.49311162E-04  7.58266396E-04  9.41551802E-04
  8.17485129E-04 -1.30441461E-03  1.82586410E-03  1.58930550E-03 -2.53478058E-03
 -2.57152105E-03 -2.25718867E-03  3.65225173E-03 -5.01414127E-03 -4.07282917E-03
  6.59032306E-03 -4.00169770E-03 -7.62009716E-04  2.80931935E-03  5.70862990E-05
 -6.83543014E-04 -7.89300164E-04 -2.35093652E-04  3.30664893E-04 -1.66267068E-01
 -2.60153988E-01 -8.31672989E-02  1.01836397E-03 -7.07126465E-04 -2.98108465E-02
  3.00165883E-03  3.92188490E-03  3.21938693E-03 -1.18180345E-04  3.38045529E-04
 -1.98717544E-04 -7.48146636E-04 -1.24755841E-03  2.42242282E-03  2.39727122E-03
  6.00249052E-03  3.66999159E-03  3.70688081E-03  3.65775907E-03  8.55120648E-03
  6.14036765E-03  3.52843326E-03  2.61480492E-03  6.13820513E-03  3.87079306E-03
  2.17062412E-03  1.61135284E-03 -2.18360678E-03 -5.13108915E-04 -1.68132977E-04
 -1.20034473E-04  1.39317578E-04  1.00013628E-04  1.23062560E-02  3.51554395E-02
 -7.55338387E-02 -1.38247398E-01  2.54404131E-01  3.00324457E-01  2.62196900E-02
 -6.12133342E-03 -1.77487803E-02  1.57935373E-02 -1.58156083E-02 -6.09337917E-02
  5.37017949E-02 -3.07910923E-02 -1.18650047E-01  1.04559955E-01  4.48191360E-02
  1.72699121E-01 -1.52111870E-01  7.90739608E-02  3.02221826E-01 -2.66734117E-01
  2.21711979E-02  7.89248127E-02 -7.05269960E-02 -9.09043739E-03  1.12604964E-02
  4.09551928E-02  2.71611788E-02 -1.32845625E-02 -3.95592573E-03 -6.26125942E-03
 -5.26088738E-03  5.15642039E-04  2.92837394E-04 -7.60627343E-04 -1.57561924E-01
 -2.85617463E-01 -1.36029469E-01 -6.20150148E-03 -1.94347179E-02  1.72855965E-02
 -2.22557006E-04 -3.74524284E-04 -9.86467680E-03  3.04713398E-01 -8.13538871E-03
  1.25045934E-03 -1.45269924E-02  4.46925741E-01 -1.19423626E-02  1.46542649E-03
 -1.30915499E-02  4.02953983E-01 -1.05683501E-02 -3.74086595E-03 -3.57065047E-03
  8.78215630E-02 -1.46955601E-03  7.38009022E-04  4.48946049E-04 -1.44938042E-02
  4.52600462E-04  1.19459211E-03 -8.91667355E-05 -2.55793712E-04  5.59344203E-04
  9.84248834E-04 -1.65592143E-03 -3.13538867E-03 -1.21555929E-03  3.30666486E-04
  2.62189451E-03 -1.35043687E-03 -9.56673358E-05 -8.36794118E-04 -2.55621134E-03
 -1.79667637E-04 -1.58987613E-03 -4.94055627E-03  2.07525648E-04  2.24905667E-03
  7.26482531E-03  7.30679503E-04  5.34301361E-03  1.43059616E-02  5.32271306E-04
  3.76610364E-03  6.43472022E-03  5.03589499E-04 -1.39814096E-04 -6.81432938E-04
 -2.80370667E-04 -5.36465689E-04 -1.26241336E-04  9.48420723E-05  2.19299683E-03
 -1.15642581E-03  3.61112851E-02 -9.18146897E-04  1.99910196E-03  3.88871343E-03
  2.54523557E-03  4.35065640E-04  6.16373877E-04  1.61924702E-04  9.70586424E-05
  1.63653827E-04 -5.26712654E-03 -9.28480735E-03 -2.54549050E-03 -5.06299166E-04
 -7.99573408E-03 -1.34598509E-02 -3.55242495E-03 -8.38008889E-04 -7.21740918E-03
 -1.29162136E-02 -3.55550469E-03 -1.22572449E-03 -1.73212544E-03 -1.35638302E-03
  2.08452748E-03  2.66370907E-04  4.11925308E-04  4.56841579E-04 -9.13044903E-05
  1.07635470E-04  1.49971786E-04  4.25487912E-04 -8.88659865E-04 -1.84165411E-03
  4.55448873E-03  6.67288168E-04 -6.68641586E-03 -1.69897082E-03 -3.96916791E-02
 -4.52705156E-02 -5.21999527E-03 -6.74361083E-02 -7.80720399E-02 -1.00779761E-02
 -1.29893514E-01 -1.50391107E-01  1.45591435E-02  1.91253853E-01  2.21394806E-01
  3.04666649E-02  3.94370653E-01  4.56415299E-01  1.88022514E-02  2.19598900E-01
  2.50583759E-01  1.44255703E-02 -1.24298614E-03 -2.86993987E-03  8.24624153E-03
 -2.22706879E-03  1.54096491E-03  1.63382790E-03  1.93361160E-03 -1.06194094E-03
 -9.81964279E-04  3.42125453E-04 -7.09464429E-05 -5.73670610E-05  4.27143808E-03
  1.03151916E-03  1.43003634E-02  1.63887064E-02 -2.48577779E-03 -4.16532606E-03
 -2.12863160E-01 -7.70093632E-03 -8.31600683E-03  1.28943222E-02 -3.22446921E-01