Title Card Required                                                     
FOpt      UM062X                                                      6-311+G(d,p)        
Number of atoms                            I                6
Info1-9                                    I   N=           9
          15          15           0           0           0         110
           2          18        -502
Full Title                                 C   N=           2
Title Card Required     
Route                                      C   N=           4
#p opt UM062X/6-311+G** nosymm int=superfine    
Charge                                     I                0
Multiplicity                               I                1
Number of electrons                        I               16
Number of alpha electrons                  I                8
Number of beta electrons                   I                8
Number of basis functions                  I               68
Number of independent functions            I               68
Number of point charges in /Mol/           I                0
Number of translation vectors              I                0
Atomic numbers                             I   N=           6
           6           6           1           1           1           1
Nuclear charges                            R   N=           6
  6.00000000E+00  6.00000000E+00  1.00000000E+00  1.00000000E+00  1.00000000E+00
  1.00000000E+00
Current cartesian coordinates              R   N=          18
 -1.55328170E+00  0.00000000E+00  0.00000000E+00  1.55328170E+00  0.00000000E+00
  0.00000000E+00 -2.52799940E+00 -1.79283151E+00  2.26951131E-07 -2.52803243E+00
  1.79274784E+00  3.97424204E-07  2.52799926E+00  1.79283139E+00 -4.24702247E-08
  2.52803229E+00 -1.79274772E+00  1.28010468E-07
Number of symbols in /Mol/                 I                0
Force Field                                I                0
Atom Types                                 C   N=           6
                                                            
            
Int Atom Types                             I   N=           6
           0           0           0           0           0           0
MM charges                                 R   N=           6
  0.00000000E+00  0.00000000E+00  0.00000000E+00  0.00000000E+00  0.00000000E+00
  0.00000000E+00
Integer atomic weights                     I   N=           6
          12          12           1           1           1           1
Real atomic weights                        R   N=           6
  1.20000000E+01  1.20000000E+01  1.00782504E+00  1.00782504E+00  1.00782504E+00
  1.00782504E+00
Atom fragment info                         I   N=           6
           0           0           0           0           0           0
Atom residue num                           I   N=           6
           0           0           0           0           0           0
Nuclear spins                              I   N=           6
           0           0           1           1           1           1
Nuclear ZEff                               R   N=           6
 -3.60000000E+00 -3.60000000E+00 -1.00000000E+00 -1.00000000E+00 -1.00000000E+00
 -1.00000000E+00
Nuclear ZNuc                               R   N=           6
  6.00000000E+00  6.00000000E+00  1.00000000E+00  1.00000000E+00  1.00000000E+00
  1.00000000E+00
Nuclear QMom                               R   N=           6
  0.00000000E+00  0.00000000E+00  0.00000000E+00  0.00000000E+00  0.00000000E+00
  0.00000000E+00
Nuclear GFac                               R   N=           6
  0.00000000E+00  0.00000000E+00  2.79284600E+00  2.79284600E+00  2.79284600E+00
  2.79284600E+00
MicOpt                                     I   N=           6
          -2          -2          -1          -1          -1          -1
Number of residues                         I                0
Number of secondary structures             I                0
Redundant internal dimensions              I   N=           4
          20          10           6           4
Redundant internal coordinate indices      I   N=          80
           1          -1           0           0           1          -2
           0           0           1          -3           0           0
           2          -1           0           0           2          -2
           0           0           2          -3           0           0
           1           3           0           0           1           4
           0           0           2           5           0           0
           2           6           0           0           2           1
           3           0           2           1           4           0
           3           1           4           0           1           2
           5           0           1           2           6           0
           5           2           6           0           3           1
           2           5           3           1           2           6
           4           1           2           5           4           1
           2           6
Redundant internal coordinates             R   N=          20
 -1.55328170E+00  0.00000000E+00  0.00000000E+00  1.55328170E+00  0.00000000E+00
  0.00000000E+00  2.04066641E+00  2.04060868E+00  2.04066624E+00  2.04060851E+00
  2.06877054E+00  2.06880434E+00  2.14561043E+00  2.06877050E+00  2.06880431E+00
  2.14561050E+00 -3.14159255E+00  5.37269007E-08 -2.45304072E-07  3.14159236E+00
ZRed-IntVec                                I   N=          20
          -1          -1          -1          -1          -1          -1
           0           0           0           0           0           0
           0           0           0           0           0           0
           0           0
ZRed-FPVec                                 R   N=          20
  0.00000000E+00  0.00000000E+00  0.00000000E+00  0.00000000E+00  0.00000000E+00
  0.00000000E+00  0.00000000E+00  0.00000000E+00  0.00000000E+00  0.00000000E+00
  0.00000000E+00  0.00000000E+00  0.00000000E+00  0.00000000E+00  0.00000000E+00
  0.00000000E+00  0.00000000E+00  0.00000000E+00  0.00000000E+00  0.00000000E+00
ZRed-Constraint1                           R   N=          20
 -1.55328170E+00  0.00000000E+00  0.00000000E+00  1.55328170E+00  0.00000000E+00
  0.00000000E+00  2.19384331E+00  2.19574830E+00  2.19384331E+00  2.19574830E+00
  2.22479542E+00  2.21979676E+00  1.83859313E+00  2.22479542E+00  2.21979676E+00
  1.83859313E+00  3.14159265E+00  0.00000000E+00  0.00000000E+00  3.14159265E+00
ZRed-Constraint2                           R   N=          20
 -1.55328170E+00  0.00000000E+00  0.00000000E+00  1.55328170E+00  0.00000000E+00
  0.00000000E+00  0.00000000E+00  0.00000000E+00  0.00000000E+00  0.00000000E+00
  0.00000000E+00  0.00000000E+00  0.00000000E+00  0.00000000E+00  0.00000000E+00
  0.00000000E+00  0.00000000E+00  0.00000000E+00  0.00000000E+00  0.00000000E+00
Number of contracted shells                I               28
Number of primitive shells                 I               50
Pure/Cartesian d shells                    I                0
Pure/Cartesian f shells                    I                0
Highest angular momentum                   I                2
Largest degree of contraction              I                6
Shell types                                I   N=          28
           0          -1          -1          -1          -1          -2
           0          -1          -1          -1          -1          -2
           0           0           0           1           0           0
           0           1           0           0           0           1
           0           0           0           1
Number of primitives per shell             I   N=          28
           6           3           1           1           1           1
           6           3           1           1           1           1
           3           1           1           1           3           1
           1           1           3           1           1           1
           3           1           1           1
Shell to atom map                          I   N=          28
           1           1           1           1           1           1
           2           2           2           2           2           2
           3           3           3           3           4           4
           4           4           5           5           5           5
           6           6           6           6
Primitive exponents                        R   N=          50
  4.56324000E+03  6.82024000E+02  1.54973000E+02  4.44553000E+01  1.30290000E+01
  1.82773000E+00  2.09642000E+01  4.80331000E+00  1.45933000E+00  4.83456000E-01
  1.45585000E-01  4.38000000E-02  6.26000000E-01  4.56324000E+03  6.82024000E+02
  1.54973000E+02  4.44553000E+01  1.30290000E+01  1.82773000E+00  2.09642000E+01
  4.80331000E+00  1.45933000E+00  4.83456000E-01  1.45585000E-01  4.38000000E-02
  6.26000000E-01  3.38650000E+01  5.09479000E+00  1.15879000E+00  3.25840000E-01
  1.02741000E-01  7.50000000E-01  3.38650000E+01  5.09479000E+00  1.15879000E+00
  3.25840000E-01  1.02741000E-01  7.50000000E-01  3.38650000E+01  5.09479000E+00
  1.15879000E+00  3.25840000E-01  1.02741000E-01  7.50000000E-01  3.38650000E+01
  5.09479000E+00  1.15879000E+00  3.25840000E-01  1.02741000E-01  7.50000000E-01
Contraction coefficients                   R   N=          50
  1.96665025E-03  1.52306019E-02  7.61269097E-02  2.60801033E-01  6.16462078E-01
  2.21006028E-01  1.14660081E-01  9.19999648E-01 -3.03068213E-03  1.00000000E+00
  1.00000000E+00  1.00000000E+00  1.00000000E+00  1.96665025E-03  1.52306019E-02
  7.61269097E-02  2.60801033E-01  6.16462078E-01  2.21006028E-01  1.14660081E-01
  9.19999648E-01 -3.03068213E-03  1.00000000E+00  1.00000000E+00  1.00000000E+00
  1.00000000E+00  2.54938145E-02  1.90373109E-01  8.52161486E-01  1.00000000E+00
  1.00000000E+00  1.00000000E+00  2.54938145E-02  1.90373109E-01  8.52161486E-01
  1.00000000E+00  1.00000000E+00  1.00000000E+00  2.54938145E-02  1.90373109E-01
  8.52161486E-01  1.00000000E+00  1.00000000E+00  1.00000000E+00  2.54938145E-02
  1.90373109E-01  8.52161486E-01  1.00000000E+00  1.00000000E+00  1.00000000E+00
P(S=P) Contraction coefficients            R   N=          50
  0.00000000E+00  0.00000000E+00  0.00000000E+00  0.00000000E+00  0.00000000E+00
  0.00000000E+00  4.02486927E-02  2.37593957E-01  8.15853851E-01  1.00000000E+00
  1.00000000E+00  1.00000000E+00  0.00000000E+00  0.00000000E+00  0.00000000E+00
  0.00000000E+00  0.00000000E+00  0.00000000E+00  0.00000000E+00  4.02486927E-02
  2.37593957E-01  8.15853851E-01  1.00000000E+00  1.00000000E+00  1.00000000E+00
  0.00000000E+00  0.00000000E+00  0.00000000E+00  0.00000000E+00  0.00000000E+00
  0.00000000E+00  0.00000000E+00  0.00000000E+00  0.00000000E+00  0.00000000E+00
  0.00000000E+00  0.00000000E+00  0.00000000E+00  0.00000000E+00  0.00000000E+00
  0.00000000E+00  0.00000000E+00  0.00000000E+00  0.00000000E+00  0.00000000E+00
  0.00000000E+00  0.00000000E+00  0.00000000E+00  0.00000000E+00  0.00000000E+00
Coordinates of each shell                  R   N=          84
 -1.55328170E+00  0.00000000E+00  0.00000000E+00 -1.55328170E+00  0.00000000E+00
  0.00000000E+00 -1.55328170E+00  0.00000000E+00  0.00000000E+00 -1.55328170E+00
  0.00000000E+00  0.00000000E+00 -1.55328170E+00  0.00000000E+00  0.00000000E+00
 -1.55328170E+00  0.00000000E+00  0.00000000E+00  1.55328170E+00  0.00000000E+00
  0.00000000E+00  1.55328170E+00  0.00000000E+00  0.00000000E+00  1.55328170E+00
  0.00000000E+00  0.00000000E+00  1.55328170E+00  0.00000000E+00  0.00000000E+00
  1.55328170E+00  0.00000000E+00  0.00000000E+00  1.55328170E+00  0.00000000E+00
  0.00000000E+00 -2.52799940E+00 -1.79283151E+00  2.26951131E-07 -2.52799940E+00
 -1.79283151E+00  2.26951131E-07 -2.52799940E+00 -1.79283151E+00  2.26951131E-07
 -2.52799940E+00 -1.79283151E+00  2.26951131E-07 -2.52803243E+00  1.79274784E+00
  3.97424204E-07 -2.52803243E+00  1.79274784E+00  3.97424204E-07 -2.52803243E+00
  1.79274784E+00  3.97424204E-07 -2.52803243E+00  1.79274784E+00  3.97424204E-07
  2.52799926E+00  1.79283139E+00 -4.24702247E-08  2.52799926E+00  1.79283139E+00
 -4.24702247E-08  2.52799926E+00  1.79283139E+00 -4.24702247E-08  2.52799926E+00
  1.79283139E+00 -4.24702247E-08  2.52803229E+00 -1.79274772E+00  1.28010468E-07
  2.52803229E+00 -1.79274772E+00  1.28010468E-07  2.52803229E+00 -1.79274772E+00
  1.28010468E-07  2.52803229E+00 -1.79274772E+00  1.28010468E-07
Num ILSW                                   I              100
ILSW                                       I   N=         100
           1           0           0           1           2           0
           0           0           0           0        4336          -1
           7           0           0           0           2           0
           0           0           0           0           1           0
           1           1           0           0           0           0
           0           0      100000           0          -1           0
           0           0           0           0           0           0
           0           0           0           1           0           0
           0 -2000000000           1           0           0           0
           0           0           4          52           0           0
           0           0          55           0           0           0
           0           0           0           6           0           1
           0           0           0           0           0           0
           0           0           0           0           0           0
           0           0           0           0           0           0
           0           0           0           0           0           0
           0           0           0           0
Num RLSW                                   I               52
RLSW                                       R   N=          52
  1.00000000E+00  1.00000000E+00  1.00000000E+00  1.00000000E+00  5.40000000E-01
  0.00000000E+00  0.00000000E+00  1.00000000E+00  0.00000000E+00  0.00000000E+00
  0.00000000E+00  0.00000000E+00  1.00000000E+00  0.00000000E+00  0.00000000E+00
  0.00000000E+00  0.00000000E+00  1.00000000E+00  0.00000000E+00  0.00000000E+00
  0.00000000E+00  0.00000000E+00  1.00000000E+00  0.00000000E+00  0.00000000E+00
  0.00000000E+00  0.00000000E+00  1.00000000E+00  0.00000000E+00  0.00000000E+00
  0.00000000E+00  0.00000000E+00  1.00000000E+00  0.00000000E+00  0.00000000E+00
  0.00000000E+00  0.00000000E+00  0.00000000E+00  1.00000000E+00  1.00000000E+00
  0.00000000E+00  1.00000000E+00  0.00000000E+00  0.00000000E+00  0.00000000E+00
  0.00000000E+00  0.00000000E+00  0.00000000E+00  0.00000000E+00  0.00000000E+00
  0.00000000E+00  0.00000000E+00
MxBond                                     I                3
NBond                                      I   N=           6
           3           3           1           1           1           1
IBond                                      I   N=          18
           2           3           4           1           5           6
           1           0           0           1           0           0
           2           0           0           2           0           0
RBond                                      R   N=          18
  1.00000000E+00  1.00000000E+00  1.00000000E+00  1.00000000E+00  1.00000000E+00
  1.00000000E+00  1.00000000E+00  0.00000000E+00  0.00000000E+00  1.00000000E+00
  0.00000000E+00  0.00000000E+00  1.00000000E+00  0.00000000E+00  0.00000000E+00
  1.00000000E+00  0.00000000E+00  0.00000000E+00
Virial Ratio                               R      2.011140146888550E+00
SCF Energy                                 R     -7.849543857677884E+01
Total Energy                               R     -7.849543857677884E+01
S**2                                       R     -4.796163466380676E-14
S**2 after annihilation                    R     -1.421085471520170E-14
RMS Force                                  R      5.158744964807673E-06
RMS Density                                R      3.144416650605874E-09
Job Status                                 I                1
Nuclear derivative order                   I                1
External E-field                           R   N=          35
  0.00000000E+00  0.00000000E+00  0.00000000E+00  0.00000000E+00  0.00000000E+00
  0.00000000E+00  0.00000000E+00  0.00000000E+00  0.00000000E+00  0.00000000E+00
  0.00000000E+00  0.00000000E+00  0.00000000E+00  0.00000000E+00  0.00000000E+00
  0.00000000E+00  0.00000000E+00  0.00000000E+00  0.00000000E+00  0.00000000E+00
  0.00000000E+00  0.00000000E+00  0.00000000E+00  0.00000000E+00  0.00000000E+00
  0.00000000E+00  0.00000000E+00  0.00000000E+00  0.00000000E+00  0.00000000E+00
  0.00000000E+00  0.00000000E+00  0.00000000E+00  0.00000000E+00  0.00000000E+00
IOpCl                                      I                1
IROHF                                      I                0
Alpha Orbital Energies                     R   N=          68
 -1.05814450E+01 -1.05811332E+01 -8.05579056E-01 -6.90507753E-01 -5.31225102E-01
 -4.64100620E-01 -4.35637416E-01 -2.91418211E-01 -2.24281774E-02  3.37609911E-02
  3.63478137E-02  5.35349668E-02  7.72432659E-02  8.48067680E-02  9.73505063E-02
  1.19330081E-01  1.57904418E-01  1.68201944E-01  2.01248798E-01  2.08145331E-01
  2.49493905E-01  2.94712525E-01  4.14548995E-01  4.44464040E-01  4.87305041E-01
  5.91221774E-01  5.97820952E-01  6.23235294E-01  6.74670071E-01  6.88494234E-01
  7.20078152E-01  7.36896727E-01  7.80533447E-01  8.44293271E-01  1.07221857E+00
  1.09779194E+00  1.12898574E+00  1.43553001E+00  1.43561918E+00  1.44220436E+00
  1.49562299E+00  1.55911143E+00  1.58641449E+00  1.58895161E+00  1.75049492E+00
  1.91334594E+00  1.93455144E+00  1.94126621E+00  1.97620074E+00  2.06254033E+00
  2.10412548E+00  2.13583995E+00  2.39581111E+00  2.51120138E+00  2.53149640E+00
  2.58079801E+00  2.63631321E+00  2.64785385E+00  2.75701244E+00  2.77453403E+00
  2.86395351E+00  2.87535209E+00  2.97200583E+00  3.73538094E+00  3.80743269E+00
  4.01174180E+00  2.38093695E+01  2.38898737E+01
Beta Orbital Energies                      R   N=          68
 -1.05814450E+01 -1.05811332E+01 -8.05579056E-01 -6.90507753E-01 -5.31225102E-01
 -4.64100620E-01 -4.35637416E-01 -2.91418211E-01 -2.24281774E-02  3.37609911E-02
  3.63478137E-02  5.35349668E-02  7.72432659E-02  8.48067680E-02  9.73505063E-02
  1.19330081E-01  1.57904418E-01  1.68201944E-01  2.01248798E-01  2.08145331E-01
  2.49493905E-01  2.94712525E-01  4.14548995E-01  4.44464040E-01  4.87305041E-01
  5.91221774E-01  5.97820952E-01  6.23235294E-01  6.74670071E-01  6.88494234E-01
  7.20078152E-01  7.36896727E-01  7.80533447E-01  8.44293271E-01  1.07221857E+00
  1.09779194E+00  1.12898574E+00  1.43553001E+00  1.43561918E+00  1.44220436E+00
  1.49562299E+00  1.55911143E+00  1.58641449E+00  1.58895161E+00  1.75049492E+00
  1.91334594E+00  1.93455144E+00  1.94126621E+00  1.97620074E+00  2.06254033E+00
  2.10412548E+00  2.13583995E+00  2.39581111E+00  2.51120138E+00  2.53149640E+00
  2.58079801E+00  2.63631321E+00  2.64785385E+00  2.75701244E+00  2.77453403E+00
  2.86395351E+00  2.87535209E+00  2.97200583E+00  3.73538094E+00  3.80743269E+00
  4.01174180E+00  2.38093695E+01  2.38898737E+01
Alpha MO coefficients                      R   N=        4624
  3.98964054E-01  3.28022937E-01  3.32007452E-04 -2.21547115E-08 -7.67621076E-11
  8.47162185E-03 -1.51433425E-03  3.19356128E-07  5.55125408E-10 -2.07315289E-03
 -1.24313966E-04  5.74155215E-08 -3.28707830E-12 -5.98954742E-04  5.67590591E-04
 -1.51581724E-07 -1.57364211E-10 -7.93872713E-04 -2.21480331E-10  1.24784506E-10
 -9.58020684E-04 -1.74111781E-07  3.98944010E-01  3.28006453E-01 -3.32007017E-04
  2.21538871E-08 -1.01921028E-10  8.47121922E-03  1.51427130E-03 -3.19345625E-07
  1.17806143E-10 -2.07295824E-03  1.24270284E-04 -5.74162420E-08 -4.04878377E-11
 -5.99073803E-04 -5.67524054E-04  1.51580431E-07  5.16058588E-11 -7.93830008E-04
  4.81236580E-11 -1.24744723E-10 -9.57990242E-04 -1.74106063E-07  1.36975370E-04
 -2.43766336E-03  1.56015919E-03 -7.43805325E-04 -1.30670606E-03  1.70498624E-10
  1.36903692E-04 -2.43829556E-03  1.56055762E-03 -7.43985608E-04  1.30692302E-03
  2.87857548E-10  1.36967123E-04 -2.43756391E-03  1.56008366E-03  7.43776416E-04
  1.30664702E-03 -3.03797719E-11  1.36895447E-04 -2.43819609E-03  1.56048208E-03
  7.43956693E-04 -1.30686397E-03  8.69337520E-11 -3.98964808E-01 -3.28111464E-01
 -1.19593347E-05  2.18591836E-08  6.39956090E-11 -8.04223974E-03  1.27354197E-03
 -2.76981705E-07 -4.89186775E-10  3.85214211E-03  8.55601139E-04  2.01135420E-08
  6.79489331E-11 -2.26586511E-03 -1.29725616E-03  3.64003521E-08  1.53979172E-10
  8.57590173E-04  1.96807444E-10 -9.23519531E-11  6.18510971E-04  1.38499484E-07
  3.98984851E-01  3.28127943E-01 -1.19760962E-05  2.18605696E-08 -1.07563110E-10
  8.04266666E-03  1.27361864E-03 -2.77000932E-07  1.04127910E-10 -3.85224618E-03
  8.55607307E-04  2.01102934E-08 -2.84330729E-11  2.26583467E-03 -1.29728462E-03
  3.64090836E-08 -7.01823747E-11 -8.57630364E-04  4.00858242E-11 -9.23292358E-11
 -6.18559429E-04 -1.38509382E-07 -1.60282475E-04  2.00586078E-03 -1.52203912E-03
  5.81576771E-04  1.18546300E-03 -1.57490323E-10 -1.60209652E-04  2.00632272E-03
 -1.52233782E-03  5.81724758E-04 -1.18565121E-03 -2.70032634E-10  1.60289213E-04
 -2.00598415E-03  1.52211797E-03  5.81614349E-04  1.18552904E-03 -3.10955826E-11
  1.60216385E-04 -2.00644612E-03  1.52241669E-03  5.81762346E-04 -1.18571727E-03
  8.14200694E-11 -8.03121925E-02 -1.29309675E-01  1.26215285E-02  2.11951683E-06
  7.19305553E-09  3.43028925E-01  2.52662568E-02  1.88609430E-06  9.40732338E-09
  2.19823025E-01  6.94920306E-03  6.65821785E-07  3.78298040E-09  1.80365877E-03
 -5.73534446E-03  5.13455113E-07  8.74794341E-10 -9.76783563E-03 -1.05231283E-09
  6.29008633E-10  3.41351187E-03 -4.26684007E-07 -8.03122078E-02 -1.29309699E-01
 -1.26215144E-02 -2.11954770E-06  1.51156727E-09  3.43028985E-01 -2.52662399E-02
 -1.88612452E-06  1.46908179E-09  2.19823057E-01 -6.94919509E-03 -6.65834475E-07
  1.23725764E-09  1.80367106E-03  5.73534120E-03 -5.13456374E-07 -3.54280121E-10
 -9.76783702E-03  3.82186149E-10 -6.28979490E-10  3.41350908E-03 -4.26683787E-07
  6.46726176E-02  7.29932927E-02  2.13021027E-03  5.28636734E-03  9.70565741E-03
 -8.76852373E-10  6.46771240E-02  7.29976827E-02  2.12937324E-03  5.28707687E-03
 -9.70595664E-03 -1.76990084E-09  6.46726419E-02  7.29933169E-02  2.13020989E-03
 -5.28636813E-03 -9.70566073E-03  3.06079277E-10  6.46771484E-02  7.29977070E-02
  2.12937286E-03 -5.28707766E-03  9.70595997E-03 -5.86912371E-10 -7.08568732E-02
 -1.14569580E-01 -6.20607671E-02  5.30860264E-06  1.24107002E-08  3.08682970E-01
 -9.06265194E-02  6.06302745E-06  1.67452569E-08  2.24467488E-01 -4.29455986E-02
  2.57646637E-06  7.64347477E-09 -4.01375629E-02 -1.56700097E-02  6.41241477E-08
  8.98806673E-10 -5.82793597E-03 -2.44952236E-09  9.58988265E-10 -9.63197472E-03
 -5.77414335E-07  7.08568572E-02  1.14569554E-01 -6.20607798E-02  5.30864725E-06
 -3.20768697E-10 -3.08682895E-01 -9.06265360E-02  6.06307461E-06  5.07544733E-10
 -2.24467425E-01 -4.29456045E-02  2.57648851E-06 -5.31469646E-10  4.01375640E-02
 -1.56700073E-02  6.41273949E-08 -5.11852352E-10  5.82793418E-03 -1.06521064E-09
  9.58834380E-10  9.63197743E-03  5.77419900E-07  8.82134774E-02  1.07672431E-01
  1.45056930E-02  3.60327311E-03  1.25392819E-02 -1.09642933E-09  8.82235765E-02
  1.07683036E-01  1.45065554E-02  3.60436790E-03 -1.25402815E-02 -2.32006320E-09
 -8.82134731E-02 -1.07672420E-01 -1.45056917E-02  3.60327104E-03  1.25392809E-02
 -2.60882239E-10 -8.82235722E-02 -1.07683025E-01 -1.45065541E-02  3.60436583E-03
 -1.25402805E-02  9.62491313E-10  1.99244722E-06  3.33573092E-06  3.32240603E-07
  1.46878700E-01  5.00078284E-09 -9.58825903E-06  1.86917199E-06  2.08518264E-01
  6.67577612E-09 -1.18241699E-05  1.15393872E-06  1.24880115E-01  4.00683051E-09
  6.43203927E-07  6.65370316E-07  5.02966851E-03  3.60884094E-10  1.79433688E-07
 -8.01029620E-10  5.09188607E-09  7.97483331E-07 -4.56450394E-03 -1.99245972E-06
 -3.33575221E-06  3.32188962E-07  1.46878774E-01 -5.00097988E-09  9.58832326E-06
  1.86910293E-06  2.08518356E-01 -6.67643059E-09  1.18242519E-05  1.15390449E-06
  1.24880169E-01 -4.00723709E-09 -6.43198012E-07  6.65373626E-07  5.02967233E-03
 -3.60942265E-10 -1.79434579E-07 -8.01052696E-10  5.64225451E-10 -7.97476288E-07
  4.56451350E-03 -1.02514486E-01 -1.39558089E-01 -3.79264674E-02 -7.90731339E-03
 -9.16158801E-03  2.38774048E-09  1.02509338E-01  1.39549008E-01  3.79238492E-02
  7.90773628E-03 -9.16059147E-03 -3.51906130E-09  1.02514544E-01  1.39558161E-01
  3.79264863E-02 -7.90731761E-03 -9.16159325E-03  2.41135544E-10 -1.02509396E-01
 -1.39549080E-01 -3.79238681E-02  7.90774050E-03 -9.16059671E-03  8.90287260E-10
  2.11234414E-06  3.58174925E-06 -3.41725163E-05  1.48238845E-01  1.02535507E-08
 -1.10114005E-05 -5.03127844E-05  2.07435399E-01  1.52244700E-08 -1.22612748E-05
 -3.07505944E-05  1.40687200E-01  9.85189764E-09 -2.73012714E-07 -6.40774733E-07
  1.46992497E-02  4.52580596E-10  2.36589161E-07 -1.77692740E-10  5.95496355E-09
 -2.26161149E-06 -2.48483352E-02  2.11235487E-06  3.58176760E-06  3.41725054E-05
 -1.48238787E-01  1.02509390E-08 -1.10114552E-05  5.03127607E-05 -2.07435306E-01
  1.52210833E-08 -1.22613604E-05  3.07505704E-05 -1.40687136E-01  9.84938191E-09
 -2.73066804E-07  6.40783284E-07 -1.46992445E-02  4.52249384E-10  2.36589442E-07
  1.76948527E-10 -1.25286128E-10 -2.26161174E-06 -2.48483318E-02 -1.14494540E-01
 -1.64851916E-01 -6.23921161E-02 -7.89154855E-03 -7.68475141E-03  2.53024570E-09
  1.14517510E-01  1.64882843E-01  6.24038671E-02  7.89037240E-03 -7.68744559E-03
 -2.81311073E-09 -1.14494499E-01 -1.64851850E-01 -6.23920910E-02  7.89154589E-03
  7.68474898E-03  1.47888943E-10  1.14517469E-01  1.64882776E-01  6.24038420E-02
 -7.89036974E-03  7.68744316E-03 -4.30324321E-10 -1.05595257E-02 -1.76300603E-02
  1.81748436E-01  2.67493529E-05 -2.19060565E-08  5.40334572E-02  2.73719152E-01
  3.89025365E-05 -3.17644051E-08  4.65997810E-02  1.78456388E-01  2.75482856E-05
 -2.27117420E-08 -2.83654065E-03  6.91603746E-03  3.08575622E-06 -2.21928117E-09
 -7.26681252E-04  2.40445970E-09 -6.45926968E-10  1.50462914E-02 -4.34194502E-06
 -1.05595257E-02 -1.76300606E-02 -1.81748433E-01 -2.67493655E-05 -7.22725696E-09
  5.40334589E-02 -2.73719148E-01 -3.89025631E-05 -1.23885018E-08  4.65997907E-02
 -1.78456380E-01 -2.75483080E-05 -6.62219135E-09 -2.83653839E-03 -6.91603542E-03
 -3.08575885E-06  2.90972864E-10 -7.26681384E-04  1.35708148E-09  6.47002195E-10
  1.50462916E-02 -4.34194401E-06 -6.67786266E-02 -9.94440925E-02 -4.30186605E-02
  4.97246350E-03 -9.59516647E-03  2.78755994E-11 -6.67400997E-02 -9.93857211E-02
 -4.29928061E-02  4.97490662E-03  9.59324872E-03  9.91926812E-10 -6.67786227E-02
 -9.94440815E-02 -4.30186584E-02 -4.97246550E-03  9.59516604E-03 -7.36389431E-10
 -6.67400959E-02 -9.93857100E-02 -4.29928039E-02 -4.97490863E-03 -9.59324828E-03
  2.28429726E-10  7.02939219E-09  1.17342520E-08  2.17402868E-08 -1.11257021E-08
  1.71416412E-01 -3.43907911E-08  3.47385268E-08 -1.66691916E-08  2.73040895E-01
 -4.62532781E-08  3.19645451E-08 -1.36407286E-08  2.76678291E-01  2.82410823E-08
  1.72946723E-08 -3.36863902E-09  4.38078399E-02  1.24033165E-09  1.50983521E-02
  9.39162681E-08  4.00596317E-10  1.49323214E-09 -1.46466368E-09 -2.47125769E-09
 -1.56994462E-08  1.11260146E-08  1.71416413E-01  7.76838865E-09 -2.33794900E-08
  1.66692430E-08  2.73040899E-01  2.57077381E-09 -1.78065470E-08  1.36408922E-08
  2.76678294E-01 -3.11846068E-08  4.38660526E-09  3.36888850E-09  4.38078396E-02
 -3.69929393E-10 -1.50983520E-02 -9.39185524E-08  3.05969615E-10  1.49309266E-09
  8.58339303E-09  1.24105191E-08  3.59862255E-09  2.47977130E-09  6.40754018E-10
  1.34875431E-02  1.26854192E-09 -2.26980115E-09 -8.75416765E-09  2.30004802E-09
 -1.52345677E-09  1.34880535E-02  1.27620891E-09  3.11429744E-09  2.55657401E-09
 -1.12402659E-09  8.97355374E-10  1.34875447E-02 -6.03867224E-09 -1.15671299E-08
 -9.79466673E-09 -9.44117192E-10 -1.48309588E-11  1.34880550E-02  9.08352086E-09
  1.52149599E-08  1.46053306E-08 -6.79400216E-09  1.75953514E-01 -4.30409882E-08
  2.39261788E-08 -1.06253273E-08  2.72156230E-01 -9.70561502E-08  4.16029587E-08
 -1.81961220E-08  3.95204086E-01  1.15534600E-07  6.95990161E-08 -1.27198873E-08
  4.55256785E-01  3.63050122E-10 -2.27024824E-02  7.83844522E-08 -1.58449110E-09
 -1.28598556E-09 -4.04237819E-09 -6.78991465E-09 -6.06330997E-09 -6.79457196E-09
 -1.75953512E-01  2.08736803E-08 -1.05740487E-08 -1.06265469E-08 -2.72156227E-01
  2.46305753E-08 -1.79125310E-09 -1.81966812E-08 -3.95204084E-01 -1.62258082E-07
  2.53010449E-08 -1.27132609E-08 -4.55256779E-01  6.10273677E-10 -2.27024825E-02
  7.83859754E-08 -1.83889285E-10  1.28576970E-09  1.22965993E-08  2.44464316E-08
  1.17666455E-08  1.75172234E-09  6.86436086E-10  1.96883573E-02  1.84620734E-08
  3.64758666E-08  3.17160904E-08  1.16616785E-09 -2.52595606E-09  1.96890986E-02
 -5.21230797E-10 -1.94998393E-09  1.20540939E-08 -5.45326603E-10 -7.33613959E-10
 -1.96883580E-02 -6.68638985E-09 -1.39815301E-08 -7.88837952E-09 -1.13098101E-09
 -1.10604078E-09 -1.96890993E-02  1.97935654E-02  3.35843690E-02  3.71245318E-02
  1.40130740E-06 -3.55272619E-09 -9.14817958E-02  5.55387039E-02 -2.59614145E-06
 -1.17023260E-08 -3.45537844E-01  1.29195885E-01  1.99004125E-05 -6.26842565E-09
  1.18793674E+00 -5.75292220E-01  5.98576361E-05  1.49102726E-07  1.37130330E-02
  2.72790456E-09 -1.46868583E-09  8.04058066E-03  1.33037158E-06  1.97935571E-02
  3.35843558E-02 -3.71245305E-02 -1.40130491E-06 -4.60003110E-09 -9.14817641E-02
 -5.55387127E-02  2.59618777E-06 -6.70416365E-09 -3.45537753E-01 -1.29195827E-01