 Entering Gaussian System, Link 0=g16
 Initial command:
 /home/szhao/Apps/g16/l1.exe "/home/szhao/tmp/Gau-9920.inp" -scrdir="/home/szhao/tmp/"
 Default is to use a total of  16 processors:
                               16 via shared-memory
                                1 via Linda
 Entering Link 1 = /home/szhao/Apps/g16/l1.exe PID=      9922.
  
 Copyright (c) 1988,1990,1992,1993,1995,1998,2003,2009,2016,
            Gaussian, Inc.  All Rights Reserved.
  
 This is part of the Gaussian(R) 16 program.  It is based on
 the Gaussian(R) 09 system (copyright 2009, Gaussian, Inc.),
 the Gaussian(R) 03 system (copyright 2003, Gaussian, Inc.),
 the Gaussian(R) 98 system (copyright 1998, Gaussian, Inc.),
 the Gaussian(R) 94 system (copyright 1995, Gaussian, Inc.),
 the Gaussian 92(TM) system (copyright 1992, Gaussian, Inc.),
 the Gaussian 90(TM) system (copyright 1990, Gaussian, Inc.),
 the Gaussian 88(TM) system (copyright 1988, Gaussian, Inc.),
 the Gaussian 86(TM) system (copyright 1986, Carnegie Mellon
 University), and the Gaussian 82(TM) system (copyright 1983,
 Carnegie Mellon University). Gaussian is a federally registered
 trademark of Gaussian, Inc.
  
 This software contains proprietary and confidential information,
 including trade secrets, belonging to Gaussian, Inc.
  
 This software is provided under written license and may be
 used, copied, transmitted, or stored only in accord with that
 written license.
  
 The following legend is applicable only to US Government
 contracts under FAR:
  
                    RESTRICTED RIGHTS LEGEND
  
 Use, reproduction and disclosure by the US Government is
 subject to restrictions as set forth in subparagraphs (a)
 and (c) of the Commercial Computer Software - Restricted
 Rights clause in FAR 52.227-19.
  
 Gaussian, Inc.
 340 Quinnipiac St., Bldg. 40, Wallingford CT 06492
  
  
 ---------------------------------------------------------------
 Warning -- This program may not be used in any manner that
 competes with the business of Gaussian, Inc. or will provide
 assistance to any competitor of Gaussian, Inc.  The licensee
 of this program is prohibited from giving any competitor of
 Gaussian, Inc. access to this program.  By using this program,
 the user acknowledges that Gaussian, Inc. is engaged in the
 business of creating and licensing software in the field of
 computational chemistry and represents and warrants to the
 licensee that it is not a competitor of Gaussian, Inc. and that
 it will not use this program in any manner prohibited above.
 ---------------------------------------------------------------
  

 Cite this work as:
 Gaussian 16, Revision A.03,
 M. J. Frisch, G. W. Trucks, H. B. Schlegel, G. E. Scuseria, 
 M. A. Robb, J. R. Cheeseman, G. Scalmani, V. Barone, 
 G. A. Petersson, H. Nakatsuji, X. Li, M. Caricato, A. V. Marenich, 
 J. Bloino, B. G. Janesko, R. Gomperts, B. Mennucci, H. P. Hratchian, 
 J. V. Ortiz, A. F. Izmaylov, J. L. Sonnenberg, D. Williams-Young, 
 F. Ding, F. Lipparini, F. Egidi, J. Goings, B. Peng, A. Petrone, 
 T. Henderson, D. Ranasinghe, V. G. Zakrzewski, J. Gao, N. Rega, 
 G. Zheng, W. Liang, M. Hada, M. Ehara, K. Toyota, R. Fukuda, 
 J. Hasegawa, M. Ishida, T. Nakajima, Y. Honda, O. Kitao, H. Nakai, 
 T. Vreven, K. Throssell, J. A. Montgomery, Jr., J. E. Peralta, 
 F. Ogliaro, M. J. Bearpark, J. J. Heyd, E. N. Brothers, K. N. Kudin, 
 V. N. Staroverov, T. A. Keith, R. Kobayashi, J. Normand, 
 K. Raghavachari, A. P. Rendell, J. C. Burant, S. S. Iyengar, 
 J. Tomasi, M. Cossi, J. M. Millam, M. Klene, C. Adamo, R. Cammi, 
 J. W. Ochterski, R. L. Martin, K. Morokuma, O. Farkas, 
 J. B. Foresman, and D. J. Fox, Gaussian, Inc., Wallingford CT, 2016.
 
 ******************************************
 Gaussian 16:  ES64L-G16RevA.03 25-Dec-2016
                19-Nov-2024 
 ******************************************
 %chk=opt.chk
 %mem=4GB
 %nprocshared=8
 Will use up to    8 processors via shared memory.
 --------------------------------------------
 #p opt UM062X/6-311+G** nosymm int=superfine
 --------------------------------------------
 1/18=20,19=15,26=5,38=1/1,3;
 2/9=110,12=2,15=1,17=6,18=5,40=1/2;
 3/5=4,6=6,7=111,11=2,25=1,30=1,71=1,74=-55,75=-7,116=2/1,2,3;
 4//1;
 5/5=2,38=5/2;
 6/7=2,8=2,9=2,10=2,28=1/1;
 7/30=1/1,2,3,16;
 1/18=20,19=15,26=5/3(2);
 2/9=110,15=1/2;
 99//99;
 2/9=110,15=1/2;
 3/5=4,6=6,7=111,11=2,25=1,30=1,71=1,74=-55,75=-7,116=2/1,2,3;
 4/5=5,16=3,69=1/1;
 5/5=2,38=5/2;
 7/30=1/1,2,3,16;
 1/18=20,19=15,26=5/3(-5);
 2/9=110,15=1/2;
 6/7=2,8=2,9=2,10=2,19=2,28=1/1;
 99/9=1/99;
 Leave Link    1 at Tue Nov 19 10:59:18 2024, MaxMem=   536870912 cpu:               0.2 elap:               0.0
 (Enter /home/szhao/Apps/g16/l101.exe)
 -------------------
 Title Card Required
 -------------------
 Symbolic Z-matrix:
 Charge =  0 Multiplicity = 1
 C                    -1   -0.96779   0.        0. 
 C                    -1    0.96779   0.        0. 
 H                    0    -1.79937  -0.92138   0. 
 H                    0    -1.79465   0.9257    0. 
 H                    0     1.79937   0.92138   0. 
 H                    0     1.79465  -0.9257    0. 
 
 Add virtual bond connecting atoms C2         and C1         Dist= 3.66D+00.
 ITRead=  2  2  0  0  0  0
 MicOpt= -2 -2 -1 -1 -1 -1
 NAtoms=      6 NQM=        4 NQMF=       2 NMMI=      0 NMMIF=      0
                NMic=       0 NMicF=      0.
                    Isotopes and Nuclear Properties:
 (Nuclear quadrupole moments (NQMom) in fm**2, nuclear magnetic moments (NMagM)
  in nuclear magnetons)

  Atom         1           2           3           4           5           6
 IAtWgt=          12          12           1           1           1           1
 AtmWgt=  12.0000000  12.0000000   1.0078250   1.0078250   1.0078250   1.0078250
 NucSpn=           0           0           1           1           1           1
 AtZEff=  -0.0000000  -0.0000000  -0.0000000  -0.0000000  -0.0000000  -0.0000000
 NQMom=    0.0000000   0.0000000   0.0000000   0.0000000   0.0000000   0.0000000
 NMagM=    0.0000000   0.0000000   2.7928460   2.7928460   2.7928460   2.7928460
 AtZNuc=   6.0000000   6.0000000   1.0000000   1.0000000   1.0000000   1.0000000
 Leave Link  101 at Tue Nov 19 10:59:19 2024, MaxMem=   536870912 cpu:               2.7 elap:               0.3
 (Enter /home/szhao/Apps/g16/l103.exe)

 GradGradGradGradGradGradGradGradGradGradGradGradGradGradGradGradGradGrad
 Berny optimization.
 Initialization pass.
                           ----------------------------
                           !    Initial Parameters    !
                           ! (Angstroms and Degrees)  !
 --------------------------                            --------------------------
 ! Name  Definition              Value          Derivative Info.                !
 --------------------------------------------------------------------------------
 ! X1    R(1,-1)                -0.9678         Frozen                          !
 ! Y1    R(1,-2)                 0.0            Frozen                          !
 ! Z1    R(1,-3)                 0.0            Frozen                          !
 ! X2    R(2,-1)                 0.9678         Frozen                          !
 ! Y2    R(2,-2)                 0.0            Frozen                          !
 ! Z2    R(2,-3)                 0.0            Frozen                          !
 ! R1    R(1,3)                  1.2412         estimate D2E/DX2                !
 ! R2    R(1,4)                  1.2412         estimate D2E/DX2                !
 ! R3    R(2,5)                  1.2412         estimate D2E/DX2                !
 ! R4    R(2,6)                  1.2412         estimate D2E/DX2                !
 ! A1    A(2,1,3)              132.0673         estimate D2E/DX2                !
 ! A2    A(2,1,4)              131.772          estimate D2E/DX2                !
 ! A3    A(3,1,4)               96.1608         estimate D2E/DX2                !
 ! A4    A(1,2,5)              132.0673         estimate D2E/DX2                !
 ! A5    A(1,2,6)              131.772          estimate D2E/DX2                !
 ! A6    A(5,2,6)               96.1608         estimate D2E/DX2                !
 ! D1    D(3,1,2,5)            180.0            estimate D2E/DX2                !
 ! D2    D(3,1,2,6)              0.0            estimate D2E/DX2                !
 ! D3    D(4,1,2,5)              0.0            estimate D2E/DX2                !
 ! D4    D(4,1,2,6)            180.0            estimate D2E/DX2                !
 --------------------------------------------------------------------------------
 Trust Radius=3.00D-01 FncErr=1.00D-07 GrdErr=1.00D-07 EigMax=2.50D+02 EigMin=1.00D-04
 Number of steps in this run=     30 maximum allowed number of steps=    100.
 GradGradGradGradGradGradGradGradGradGradGradGradGradGradGradGradGradGrad

 Leave Link  103 at Tue Nov 19 10:59:19 2024, MaxMem=   536870912 cpu:               0.1 elap:               0.0
 (Enter /home/szhao/Apps/g16/l202.exe)
                          Input orientation:                          
 ---------------------------------------------------------------------
 Center     Atomic      Atomic             Coordinates (Angstroms)
 Number     Number       Type             X           Y           Z
 ---------------------------------------------------------------------
      1          6           0       -0.967793    0.000000    0.000000
      2          6           0        0.967793    0.000000    0.000000
      3          1           0       -1.799370   -0.921382    0.000000
      4          1           0       -1.794654    0.925704    0.000000
      5          1           0        1.799370    0.921382    0.000000
      6          1           0        1.794654   -0.925704    0.000000
 ---------------------------------------------------------------------
                    Distance matrix (angstroms):
                    1          2          3          4          5
     1  C    0.000000
     2  C    1.935586   0.000000
     3  H    1.241154   2.916528   0.000000
     4  H    1.241220   2.913424   1.847092   0.000000
     5  H    2.916528   1.241154   4.043106   3.594026   0.000000
     6  H    2.913424   1.241220   3.594026   4.038668   1.847092
                    6
     6  H    0.000000
 Symmetry turned off by external request.
 Stoichiometry    C2H4
 Framework group  C2H[SGH(C2H4)]
 Deg. of freedom     5
 Full point group                 C2H     NOp   4
 Rotational constants (GHZ):         146.9791163          14.2372034          12.9798992
 Leave Link  202 at Tue Nov 19 10:59:19 2024, MaxMem=   536870912 cpu:               0.0 elap:               0.0
 (Enter /home/szhao/Apps/g16/l301.exe)
 Standard basis: 6-311+G(d,p) (5D, 7F)
 Ernie: Thresh=  0.10000D-02 Tol=  0.10000D-05 Strict=F.
    68 basis functions,   104 primitive gaussians,    70 cartesian basis functions
     8 alpha electrons        8 beta electrons
       nuclear repulsion energy        25.5607896366 Hartrees.
 IExCor= 4336 DFT=T Ex+Corr=M062X ExCW=0 ScaHFX=  0.540000
 ScaDFX=  1.000000  1.000000  1.000000  1.000000 ScalE2=  1.000000  1.000000
 IRadAn=      7 IRanWt=     -1 IRanGd=            0 ICorTp=0 IEmpDi=  4
 NAtoms=    6 NActive=    6 NUniq=    6 SFac= 1.00D+00 NAtFMM=   60 NAOKFM=F Big=F
 Integral buffers will be    131072 words long.
 Raffenetti 2 integral format.
 Two-electron integral symmetry is turned off.
 Leave Link  301 at Tue Nov 19 10:59:19 2024, MaxMem=   536870912 cpu:               0.3 elap:               0.0
 (Enter /home/szhao/Apps/g16/l302.exe)
 NPDir=0 NMtPBC=     1 NCelOv=     1 NCel=       1 NClECP=     1 NCelD=      1
         NCelK=      1 NCelE2=     1 NClLst=     1 CellRange=     0.0.
 One-electron integrals computed using PRISM.
 NBasis=    68 RedAO= T EigKep=  1.61D-03  NBF=    68
 NBsUse=    68 1.00D-06 EigRej= -1.00D+00 NBFU=    68
 Precomputing XC quadrature grid using
 IXCGrd= 4 IRadAn=           7 IRanWt=          -1 IRanGd=           0 AccXCQ= 0.00D+00.
 Generated NRdTot=       0 NPtTot=           0 NUsed=           0 NTot=          32
 NSgBfM=    70    70    70    70    70 MxSgAt=     6 MxSgA2=     6.
 Leave Link  302 at Tue Nov 19 10:59:19 2024, MaxMem=   536870912 cpu:               1.0 elap:               0.1
 (Enter /home/szhao/Apps/g16/l303.exe)
 DipDrv:  MaxL=1.
 Leave Link  303 at Tue Nov 19 10:59:19 2024, MaxMem=   536870912 cpu:               0.3 elap:               0.0
 (Enter /home/szhao/Apps/g16/l401.exe)
 ExpMin= 4.38D-02 ExpMax= 4.56D+03 ExpMxC= 6.82D+02 IAcc=3 IRadAn=         7 AccDes= 0.00D+00
 Harris functional with IExCor= 1009 and IRadAn=       7 diagonalized for initial guess.
 HarFok:  IExCor= 1009 AccDes= 0.00D+00 IRadAn=         7 IDoV= 1 UseB2=F ITyADJ=14
 ICtDFT=  3500011 ScaDFX=  1.000000  1.000000  1.000000  1.000000
 FoFCou: FMM=F IPFlag=           0 FMFlag=      100000 FMFlg1=           0
         NFxFlg=           0 DoJE=T BraDBF=F KetDBF=T FulRan=T
         wScrn=  0.000000 ICntrl=       500 IOpCl=  0 I1Cent=   200000004 NGrid=           0
         NMat0=    1 NMatS0=      1 NMatT0=    0 NMatD0=    1 NMtDS0=    0 NMtDT0=    0
 Symmetry not used in FoFCou.
 Harris En= -78.2790278793512    
 JPrj=0 DoOrth=F DoCkMO=F.
 Initial guess <Sx>= 0.0000 <Sy>= 0.0000 <Sz>= 0.0000 <S**2>=-0.0000 S=-0.0000
 Leave Link  401 at Tue Nov 19 10:59:19 2024, MaxMem=   536870912 cpu:               2.5 elap:               0.3
 (Enter /home/szhao/Apps/g16/l502.exe)
 Keep R1 and R2 ints in memory in canonical form, NReq=12681614.
 FoFCou: FMM=F IPFlag=           0 FMFlag=           0 FMFlg1=           0
         NFxFlg=           0 DoJE=F BraDBF=F KetDBF=F FulRan=T
         wScrn=  0.000000 ICntrl=       600 IOpCl=  0 I1Cent=           0 NGrid=           0
         NMat0=    1 NMatS0=   2346 NMatT0=    0 NMatD0=    1 NMtDS0=    0 NMtDT0=    0
 Symmetry not used in FoFCou.
 Two-electron integral symmetry not used.
 UHF open shell SCF:
 Using DIIS extrapolation, IDIIS=  1040.
 NGot=   536870912 LenX=   531353794 LenY=   531348453
 Requested convergence on RMS density matrix=1.00D-08 within 128 cycles.
 Requested convergence on MAX density matrix=1.00D-06.
 Requested convergence on             energy=1.00D-06.
 No special actions if energy rises.

 Cycle   1  Pass 1  IDiag  1:
 E= -78.2905482311464    
 DIIS: error= 2.54D-02 at cycle   1 NSaved=   1.
 NSaved= 1 IEnMin= 1 EnMin= -78.2905482311464     IErMin= 1 ErrMin= 2.54D-02
 ErrMax= 2.54D-02  0.00D+00 EMaxC= 1.00D-01 BMatC= 8.99D-02 BMatP= 8.99D-02
 IDIUse=3 WtCom= 7.46D-01 WtEn= 2.54D-01
 Coeff-Com:  0.100D+01
 Coeff-En:   0.100D+01
 Coeff:      0.100D+01
 Gap=     0.214 Goal=   None    Shift=    0.000
 Gap=     0.214 Goal=   None    Shift=    0.000
 GapD=    0.214 DampG=1.000 DampE=0.500 DampFc=0.5000 IDamp=-1.
 Damping current iteration by 5.00D-01
 RMSDP=2.26D-03 MaxDP=3.78D-02              OVMax= 9.27D-02

 Cycle   2  Pass 1  IDiag  1:
 E= -78.3006262632703     Delta-E=       -0.010078032124 Rises=F Damp=T
 DIIS: error= 9.29D-03 at cycle   2 NSaved=   2.
 NSaved= 2 IEnMin= 2 EnMin= -78.3006262632703     IErMin= 2 ErrMin= 9.29D-03
 ErrMax= 9.29D-03  0.00D+00 EMaxC= 1.00D-01 BMatC= 1.10D-02 BMatP= 8.99D-02
 IDIUse=3 WtCom= 9.07D-01 WtEn= 9.29D-02
 Coeff-Com: -0.212D+00 0.121D+01
 Coeff-En:   0.000D+00 0.100D+01
 Coeff:     -0.193D+00 0.119D+01
 Gap=     0.212 Goal=   None    Shift=    0.000
 Gap=     0.212 Goal=   None    Shift=    0.000
 RMSDP=5.31D-04 MaxDP=6.57D-03 DE=-1.01D-02 OVMax= 3.90D-02

 Cycle   3  Pass 1  IDiag  1:
 E= -78.3098182483311     Delta-E=       -0.009191985061 Rises=F Damp=F
 DIIS: error= 3.37D-03 at cycle   3 NSaved=   3.
 NSaved= 3 IEnMin= 3 EnMin= -78.3098182483311     IErMin= 3 ErrMin= 3.37D-03
 ErrMax= 3.37D-03  0.00D+00 EMaxC= 1.00D-01 BMatC= 1.19D-03 BMatP= 1.10D-02
 IDIUse=3 WtCom= 9.66D-01 WtEn= 3.37D-02
 Coeff-Com: -0.127D+00 0.305D+00 0.822D+00
 Coeff-En:   0.000D+00 0.000D+00 0.100D+01
 Coeff:     -0.123D+00 0.295D+00 0.828D+00
 Gap=     0.207 Goal=   None    Shift=    0.000
 Gap=     0.207 Goal=   None    Shift=    0.000
 RMSDP=1.89D-04 MaxDP=2.62D-03 DE=-9.19D-03 OVMax= 6.92D-03

 Cycle   4  Pass 1  IDiag  1:
 E= -78.3101717191811     Delta-E=       -0.000353470850 Rises=F Damp=F
 DIIS: error= 4.86D-04 at cycle   4 NSaved=   4.
 NSaved= 4 IEnMin= 4 EnMin= -78.3101717191811     IErMin= 4 ErrMin= 4.86D-04
 ErrMax= 4.86D-04  0.00D+00 EMaxC= 1.00D-01 BMatC= 2.20D-05 BMatP= 1.19D-03
 IDIUse=3 WtCom= 9.95D-01 WtEn= 4.86D-03
 Coeff-Com: -0.161D-01 0.307D-01 0.180D+00 0.806D+00
 Coeff-En:   0.000D+00 0.000D+00 0.000D+00 0.100D+01
 Coeff:     -0.160D-01 0.305D-01 0.179D+00 0.807D+00
 Gap=     0.208 Goal=   None    Shift=    0.000
 Gap=     0.208 Goal=   None    Shift=    0.000
 RMSDP=2.05D-05 MaxDP=3.13D-04 DE=-3.53D-04 OVMax= 7.25D-04

 Cycle   5  Pass 1  IDiag  1:
 E= -78.3101778027794     Delta-E=       -0.000006083598 Rises=F Damp=F
 DIIS: error= 2.69D-05 at cycle   5 NSaved=   5.
 NSaved= 5 IEnMin= 5 EnMin= -78.3101778027794     IErMin= 5 ErrMin= 2.69D-05
 ErrMax= 2.69D-05  0.00D+00 EMaxC= 1.00D-01 BMatC= 8.97D-08 BMatP= 2.20D-05
 IDIUse=1 WtCom= 1.00D+00 WtEn= 0.00D+00
 Coeff-Com:  0.337D-02-0.720D-02-0.209D-01-0.502D-01 0.107D+01
 Coeff:      0.337D-02-0.720D-02-0.209D-01-0.502D-01 0.107D+01
 Gap=     0.208 Goal=   None    Shift=    0.000
 Gap=     0.208 Goal=   None    Shift=    0.000
 RMSDP=3.19D-06 MaxDP=6.01D-05 DE=-6.08D-06 OVMax= 1.52D-04

 Cycle   6  Pass 1  IDiag  1:
 E= -78.3101778550923     Delta-E=       -0.000000052313 Rises=F Damp=F
 DIIS: error= 4.07D-06 at cycle   6 NSaved=   6.
 NSaved= 6 IEnMin= 6 EnMin= -78.3101778550923     IErMin= 6 ErrMin= 4.07D-06
 ErrMax= 4.07D-06  0.00D+00 EMaxC= 1.00D-01 BMatC= 2.06D-09 BMatP= 8.97D-08
 IDIUse=1 WtCom= 1.00D+00 WtEn= 0.00D+00
 Coeff-Com:  0.233D-04 0.194D-04-0.380D-03-0.767D-02-0.112D+00 0.112D+01
 Coeff:      0.233D-04 0.194D-04-0.380D-03-0.767D-02-0.112D+00 0.112D+01
 Gap=     0.208 Goal=   None    Shift=    0.000
 Gap=     0.208 Goal=   None    Shift=    0.000
 RMSDP=5.43D-07 MaxDP=9.15D-06 DE=-5.23D-08 OVMax= 2.80D-05

 Cycle   7  Pass 1  IDiag  1:
 E= -78.3101778565221     Delta-E=       -0.000000001430 Rises=F Damp=F
 DIIS: error= 5.55D-07 at cycle   7 NSaved=   7.
 NSaved= 7 IEnMin= 7 EnMin= -78.3101778565221     IErMin= 7 ErrMin= 5.55D-07
 ErrMax= 5.55D-07  0.00D+00 EMaxC= 1.00D-01 BMatC= 1.31D-11 BMatP= 2.06D-09
 IDIUse=1 WtCom= 1.00D+00 WtEn= 0.00D+00
 Coeff-Com: -0.378D-04 0.722D-04 0.193D-03 0.135D-02 0.713D-02-0.164D+00
 Coeff-Com:  0.116D+01
 Coeff:     -0.378D-04 0.722D-04 0.193D-03 0.135D-02 0.713D-02-0.164D+00
 Coeff:      0.116D+01
 Gap=     0.208 Goal=   None    Shift=    0.000
 Gap=     0.208 Goal=   None    Shift=    0.000
 RMSDP=6.92D-08 MaxDP=7.36D-07 DE=-1.43D-09 OVMax= 3.61D-06

 Cycle   8  Pass 1  IDiag  1:
 E= -78.3101778565349     Delta-E=       -0.000000000013 Rises=F Damp=F
 DIIS: error= 3.72D-08 at cycle   8 NSaved=   8.
 NSaved= 8 IEnMin= 8 EnMin= -78.3101778565349     IErMin= 8 ErrMin= 3.72D-08
 ErrMax= 3.72D-08  0.00D+00 EMaxC= 1.00D-01 BMatC= 2.17D-13 BMatP= 1.31D-11
 IDIUse=1 WtCom= 1.00D+00 WtEn= 0.00D+00
 Coeff-Com:  0.414D-05-0.808D-05-0.994D-05-0.333D-04 0.144D-03 0.251D-02
 Coeff-Com: -0.668D-01 0.106D+01
 Coeff:      0.414D-05-0.808D-05-0.994D-05-0.333D-04 0.144D-03 0.251D-02
 Coeff:     -0.668D-01 0.106D+01
 Gap=     0.208 Goal=   None    Shift=    0.000
 Gap=     0.208 Goal=   None    Shift=    0.000
 RMSDP=4.58D-09 MaxDP=9.62D-08 DE=-1.28D-11 OVMax= 1.49D-07

 SCF Done:  E(UM062X) =  -78.3101778565     A.U. after    8 cycles
            NFock=  8  Conv=0.46D-08     -V/T= 2.0209
 <Sx>= 0.0000 <Sy>= 0.0000 <Sz>= 0.0000 <S**2>=-0.0000 S=-0.0000
 <L.S>=  0.00000000000    
 KE= 7.670961735552D+01 PE=-2.311928402994D+02 EE= 5.061225545074D+01
 Annihilation of the first spin contaminant:
 S**2 before annihilation    -0.0000,   after     0.0000
 Leave Link  502 at Tue Nov 19 10:59:24 2024, MaxMem=   536870912 cpu:              36.7 elap:               4.7
 (Enter /home/szhao/Apps/g16/l601.exe)
 Copying SCF densities to generalized density rwf, IOpCl= 1 IROHF=0.

 **********************************************************************

            Population analysis using the SCF density.

 **********************************************************************

 Alpha  occ. eigenvalues --  -10.64541 -10.64527  -0.74990  -0.68375  -0.44817
 Alpha  occ. eigenvalues --   -0.43684  -0.41389  -0.26992
 Alpha virt. eigenvalues --   -0.06226  -0.01949   0.02467   0.06947   0.06970
 Alpha virt. eigenvalues --    0.08017   0.08957   0.10271   0.11100   0.11394
 Alpha virt. eigenvalues --    0.15635   0.16392   0.21681   0.22710   0.40043
 Alpha virt. eigenvalues --    0.47822   0.51242   0.52948   0.58535   0.58701
 Alpha virt. eigenvalues --    0.59127   0.60026   0.60916   0.69188   0.74889
 Alpha virt. eigenvalues --    0.81846   1.06088   1.11084   1.12542   1.13576
 Alpha virt. eigenvalues --    1.37403   1.42198   1.44465   1.46528   1.52512
 Alpha virt. eigenvalues --    1.58581   1.64811   1.69807   1.73580   1.73782
 Alpha virt. eigenvalues --    1.79638   1.84723   1.89934   2.12813   2.15445
 Alpha virt. eigenvalues --    2.21392   2.30728   2.48167   2.53405   2.58655
 Alpha virt. eigenvalues --    2.63075   2.70345   2.72583   2.76806   2.98132
 Alpha virt. eigenvalues --    3.35301   3.36075   3.48481  23.51375  23.53101
  Beta  occ. eigenvalues --  -10.64541 -10.64527  -0.74990  -0.68375  -0.44817
  Beta  occ. eigenvalues --   -0.43684  -0.41389  -0.26992
  Beta virt. eigenvalues --   -0.06226  -0.01949   0.02467   0.06947   0.06970
  Beta virt. eigenvalues --    0.08017   0.08957   0.10271   0.11100   0.11394
  Beta virt. eigenvalues --    0.15635   0.16392   0.21681   0.22710   0.40043
  Beta virt. eigenvalues --    0.47822   0.51242   0.52948   0.58535   0.58701
  Beta virt. eigenvalues --    0.59127   0.60026   0.60916   0.69188   0.74889
  Beta virt. eigenvalues --    0.81846   1.06088   1.11084   1.12542   1.13576
  Beta virt. eigenvalues --    1.37403   1.42198   1.44465   1.46528   1.52512
  Beta virt. eigenvalues --    1.58581   1.64811   1.69807   1.73580   1.73782
  Beta virt. eigenvalues --    1.79638   1.84723   1.89934   2.12813   2.15445
  Beta virt. eigenvalues --    2.21392   2.30728   2.48167   2.53405   2.58655
  Beta virt. eigenvalues --    2.63075   2.70345   2.72583   2.76806   2.98132
  Beta virt. eigenvalues --    3.35301   3.36075   3.48481  23.51375  23.53101
          Condensed to atoms (all electrons):
               1          2          3          4          5          6
     1  C    5.171392   0.505044   0.352017   0.352113  -0.011429  -0.011559
     2  C    0.505044   5.171392  -0.011429  -0.011559   0.352017   0.352113
     3  H    0.352017  -0.011429   0.525975  -0.046228   0.000563   0.000062
     4  H    0.352113  -0.011559  -0.046228   0.526501   0.000062   0.000574
     5  H   -0.011429   0.352017   0.000563   0.000062   0.525975  -0.046228
     6  H   -0.011559   0.352113   0.000062   0.000574  -0.046228   0.526501
          Atomic-Atomic Spin Densities.
               1          2          3          4          5          6
     1  C   -0.000000   0.000000  -0.000000   0.000000   0.000000  -0.000000
     2  C    0.000000   0.000000   0.000000   0.000000  -0.000000   0.000000
     3  H   -0.000000   0.000000   0.000000   0.000000  -0.000000   0.000000
     4  H    0.000000   0.000000   0.000000   0.000000  -0.000000  -0.000000
     5  H    0.000000  -0.000000  -0.000000  -0.000000   0.000000  -0.000000
     6  H   -0.000000   0.000000   0.000000  -0.000000  -0.000000   0.000000
 Mulliken charges and spin densities:
               1          2
     1  C   -0.357578  -0.000000
     2  C   -0.357578   0.000000
     3  H    0.179041   0.000000
     4  H    0.178537   0.000000
     5  H    0.179041   0.000000
     6  H    0.178537   0.000000
 Sum of Mulliken charges =  -0.00000   0.00000
 Mulliken charges and spin densities with hydrogens summed into heavy atoms:
               1          2
     1  C    0.000000  -0.000000
     2  C   -0.000000   0.000000
 Electronic spatial extent (au):  <R**2>=            129.0062
 Charge=             -0.0000 electrons
 Dipole moment (field-independent basis, Debye):
    X=             -0.0000    Y=             -0.0000    Z=              0.0000  Tot=              0.0000
 Quadrupole moment (field-independent basis, Debye-Ang):
   XX=             -8.0981   YY=            -14.4139   ZZ=            -18.5899
   XY=              0.0026   XZ=             -0.0000   YZ=              0.0000
 Traceless Quadrupole moment (field-independent basis, Debye-Ang):
   XX=              5.6025   YY=             -0.7133   ZZ=             -4.8893
   XY=              0.0026   XZ=             -0.0000   YZ=              0.0000
 Octapole moment (field-independent basis, Debye-Ang**2):
  XXX=             -0.0000  YYY=             -0.0000  ZZZ=             -0.0000  XYY=              0.0000
  XXY=             -0.0000  XXZ=             -0.0000  XZZ=             -0.0000  YZZ=              0.0000
  YYZ=             -0.0000  XYZ=             -0.0000
 Hexadecapole moment (field-independent basis, Debye-Ang**3):
 XXXX=           -109.9682 YYYY=            -34.3448 ZZZZ=            -28.9655 XXXY=              0.0904
 XXXZ=             -0.0000 YYYX=             -0.0114 YYYZ=              0.0000 ZZZX=             -0.0000
 ZZZY=              0.0000 XXYY=            -20.7669 XXZZ=            -31.1400 YYZZ=            -11.2370
 XXYZ=              0.0000 YYXZ=             -0.0000 ZZXY=              0.0076
 N-N= 2.556078963661D+01 E-N=-2.311928418188D+02  KE= 7.670961735552D+01
                          Isotropic Fermi Contact Couplings
        Atom                 a.u.       MegaHertz       Gauss      10(-4) cm-1
     1  C(13)              0.00000       0.00000       0.00000       0.00000
     2  C(13)             -0.00000      -0.00000      -0.00000      -0.00000
     3  H(1)               0.00000       0.00000       0.00000       0.00000
     4  H(1)               0.00000       0.00000       0.00000       0.00000
     5  H(1)               0.00000       0.00000       0.00000       0.00000
     6  H(1)               0.00000       0.00000       0.00000       0.00000
 --------------------------------------------------------
       Center         ----  Spin Dipole Couplings  ----
                      3XX-RR        3YY-RR        3ZZ-RR
 --------------------------------------------------------
     1   Atom        0.000000      0.000000      0.000000
     2   Atom        0.000000      0.000000      0.000000
     3   Atom        0.000000      0.000000      0.000000
     4   Atom        0.000000      0.000000      0.000000
     5   Atom        0.000000      0.000000      0.000000
     6   Atom        0.000000      0.000000      0.000000
 --------------------------------------------------------
                        XY            XZ            YZ
 --------------------------------------------------------
     1   Atom        0.000000      0.000000      0.000000
     2   Atom        0.000000      0.000000      0.000000
     3   Atom        0.000000      0.000000      0.000000
     4   Atom        0.000000      0.000000      0.000000
     5   Atom        0.000000      0.000000      0.000000
     6   Atom        0.000000      0.000000      0.000000
 --------------------------------------------------------


 ---------------------------------------------------------------------------------
              Anisotropic Spin Dipole Couplings in Principal Axis System
 ---------------------------------------------------------------------------------

       Atom             a.u.   MegaHertz   Gauss  10(-4) cm-1        Axes

              Baa     0.0000     0.000     0.000     0.000  1.0000  0.0000  0.0000
     1 C(13)  Bbb     0.0000     0.000     0.000     0.000 -0.0000  1.0000  0.0000
              Bcc     0.0000     0.000     0.000     0.000  0.0000  0.0000  1.0000
 
              Baa     0.0000     0.000     0.000     0.000  1.0000  0.0000  0.0000
     2 C(13)  Bbb     0.0000     0.000     0.000     0.000 -0.0000  1.0000  0.0000
              Bcc     0.0000     0.000     0.000     0.000  0.0000  0.0000  1.0000
 
              Baa     0.0000     0.000     0.000     0.000  1.0000  0.0000  0.0000
     3 H(1)   Bbb     0.0000     0.000     0.000     0.000 -0.0000  1.0000  0.0000
              Bcc     0.0000     0.000     0.000     0.000  0.0000  0.0000  1.0000
 
              Baa     0.0000     0.000     0.000     0.000  1.0000  0.0000  0.0000
     4 H(1)   Bbb     0.0000     0.000     0.000     0.000 -0.0000  1.0000  0.0000
              Bcc     0.0000     0.000     0.000     0.000  0.0000  0.0000  1.0000
 
              Baa     0.0000     0.000     0.000     0.000  1.0000  0.0000  0.0000
     5 H(1)   Bbb     0.0000     0.000     0.000     0.000 -0.0000  1.0000  0.0000
              Bcc     0.0000     0.000     0.000     0.000  0.0000  0.0000  1.0000
 
              Baa     0.0000     0.000     0.000     0.000  1.0000  0.0000  0.0000
     6 H(1)   Bbb     0.0000     0.000     0.000     0.000 -0.0000  1.0000  0.0000
              Bcc     0.0000     0.000     0.000     0.000  0.0000  0.0000  1.0000
 

 ---------------------------------------------------------------------------------

 No NMR shielding tensors so no spin-rotation constants.
 Leave Link  601 at Tue Nov 19 10:59:24 2024, MaxMem=   536870912 cpu:               0.9 elap:               0.1
 (Enter /home/szhao/Apps/g16/l701.exe)
 ... and contract with generalized density number  0.
 Compute integral first derivatives.
 Leave Link  701 at Tue Nov 19 10:59:24 2024, MaxMem=   536870912 cpu:               0.8 elap:               0.1
 (Enter /home/szhao/Apps/g16/l702.exe)
 L702 exits ... SP integral derivatives will be done elsewhere.
 Leave Link  702 at Tue Nov 19 10:59:24 2024, MaxMem=   536870912 cpu:               0.2 elap:               0.0
 (Enter /home/szhao/Apps/g16/l703.exe)
 Integral derivatives from FoFJK, PRISM(SPDF).
 Compute integral first derivatives, UseDBF=F ICtDFT=           0.
 Calling FoFJK, ICntrl=      2127 FMM=F ISym2X=0 I1Cent= 0 IOpClX= 1 NMat=1 NMatS=1 NMatT=0.
 FoFJK:  IHMeth= 1 ICntrl=    2127 DoSepK=F KAlg= 0 I1Cent=           0 FoldK=F
 IRaf=         0 NMat=       1 IRICut=       1 DoRegI=T DoRafI=F ISym2E= 0 IDoP0=0 IntGTp=1.
 FoFCou: FMM=F IPFlag=           0 FMFlag=      100000 FMFlg1=         800
         NFxFlg=           0 DoJE=F BraDBF=F KetDBF=F FulRan=T
         wScrn=  0.000000 ICntrl=      2127 IOpCl=  1 I1Cent=           0 NGrid=           0
         NMat0=    1 NMatS0=      1 NMatT0=    0 NMatD0=    1 NMtDS0=    0 NMtDT0=    0
 Symmetry not used in FoFCou.
 Leave Link  703 at Tue Nov 19 10:59:25 2024, MaxMem=   536870912 cpu:               7.7 elap:               1.0
 (Enter /home/szhao/Apps/g16/l716.exe)
 Dipole        =-1.49014134D-11-4.39648318D-14 6.81363575D-16
 -------------------------------------------------------------------
 Center     Atomic                   Forces (Hartrees/Bohr)
 Number     Number              X              Y              Z
 -------------------------------------------------------------------
      1        6          -0.000000000   -0.000000000   -0.000000000
      2        6          -0.000000000   -0.000000000   -0.000000000
      3        1           0.068999831    0.029389454    0.000000000
      4        1           0.068735078   -0.029851286   -0.000000000
      5        1          -0.068999831   -0.029389454   -0.000000000
      6        1          -0.068735078    0.029851286   -0.000000000
 -------------------------------------------------------------------
 Cartesian Forces:  Max     0.068999831 RMS     0.035340136
 Leave Link  716 at Tue Nov 19 10:59:25 2024, MaxMem=   536870912 cpu:               0.3 elap:               0.0
 (Enter /home/szhao/Apps/g16/l103.exe)

 GradGradGradGradGradGradGradGradGradGradGradGradGradGradGradGradGradGrad
 Berny optimization.
 FormGI is forming the generalized inverse of G from B-inverse, IUseBI=4.
 Internal  Forces:  Max     0.137734909 RMS     0.056446061
 Search for a local minimum.
 Step number   1 out of a maximum of   30
 All quantities printed in internal units (Hartrees-Bohrs-Radians)
 RMS Force = .42912D-01 SwitMx=.10000D-02 MixMth= 1
 Mixed Optimization -- RFO/linear search
 Second derivative matrix not updated -- first step.
 The second derivative matrix:
                          X1        Y1        Z1        X2        Y2
           X1           0.50000
           Y1           0.00000   0.50000
           Z1           0.00000   0.00000   0.50000
           X2           0.00000   0.00000   0.00000   0.50000
           Y2           0.00000   0.00000   0.00000   0.00000   0.50000
           Z2           0.00000   0.00000   0.00000   0.00000   0.00000
           R1           0.00000   0.00000   0.00000   0.00000   0.00000
           R2           0.00000   0.00000   0.00000   0.00000   0.00000
           R3           0.00000   0.00000   0.00000   0.00000   0.00000
           R4           0.00000   0.00000   0.00000   0.00000   0.00000
           A1           0.00000   0.00000   0.00000   0.00000   0.00000
           A2           0.00000   0.00000   0.00000   0.00000   0.00000
           A3           0.00000   0.00000   0.00000   0.00000   0.00000
           A4           0.00000   0.00000   0.00000   0.00000   0.00000
           A5           0.00000   0.00000   0.00000   0.00000   0.00000
           A6           0.00000   0.00000   0.00000   0.00000   0.00000
           D1           0.00000   0.00000   0.00000   0.00000   0.00000
           D2           0.00000   0.00000   0.00000   0.00000   0.00000
           D3           0.00000   0.00000   0.00000   0.00000   0.00000
           D4           0.00000   0.00000   0.00000   0.00000   0.00000
                          Z2        R1        R2        R3        R4
           Z2           0.50000
           R1           0.00000   0.21890
           R2           0.00000   0.00000   0.21886
           R3           0.00000   0.00000   0.00000   0.21890
           R4           0.00000   0.00000   0.00000   0.00000   0.21886
           A1           0.00000   0.00000   0.00000   0.00000   0.00000
           A2           0.00000   0.00000   0.00000   0.00000   0.00000
           A3           0.00000   0.00000   0.00000   0.00000   0.00000
           A4           0.00000   0.00000   0.00000   0.00000   0.00000
           A5           0.00000   0.00000   0.00000   0.00000   0.00000
           A6           0.00000   0.00000   0.00000   0.00000   0.00000
           D1           0.00000   0.00000   0.00000   0.00000   0.00000
           D2           0.00000   0.00000   0.00000   0.00000   0.00000
           D3           0.00000   0.00000   0.00000   0.00000   0.00000
           D4           0.00000   0.00000   0.00000   0.00000   0.00000
                          A1        A2        A3        A4        A5
           A1           0.16000
           A2           0.00000   0.16000
           A3           0.00000   0.00000   0.16000
           A4           0.00000   0.00000   0.00000   0.16000
           A5           0.00000   0.00000   0.00000   0.00000   0.16000
           A6           0.00000   0.00000   0.00000   0.00000   0.00000
           D1           0.00000   0.00000   0.00000   0.00000   0.00000
           D2           0.00000   0.00000   0.00000   0.00000   0.00000
           D3           0.00000   0.00000   0.00000   0.00000   0.00000
           D4           0.00000   0.00000   0.00000   0.00000   0.00000
                          A6        D1        D2        D3        D4
           A6           0.16000
           D1           0.00000   0.00230
           D2           0.00000   0.00000   0.00230
           D3           0.00000   0.00000   0.00000   0.00230
           D4           0.00000   0.00000   0.00000   0.00000   0.00230
 ITU=  0
     Eigenvalues ---    0.00230   0.00230   0.00230   0.16000   0.16000
     Eigenvalues ---    0.16000   0.16000   0.21886   0.21886   0.21890
     Eigenvalues ---    0.218901000.000001000.000001000.000001000.00000
     Eigenvalues --- 1000.000001000.000001000.000001000.000001000.00000
 RFO step:  Lambda=-8.92364216D-02 EMin= 2.30000000D-03
 Linear search not attempted -- first point.
 Maximum step size (   0.300) exceeded in Quadratic search.
    -- Step size scaled by   0.537
 Iteration  1 RMS(Cart)=  0.07663055 RMS(Int)=  0.00263010
 Iteration  2 RMS(Cart)=  0.00309643 RMS(Int)=  0.00000478
 Iteration  3 RMS(Cart)=  0.00000539 RMS(Int)=  0.00000000
 Iteration  4 RMS(Cart)=  0.00000000 RMS(Int)=  0.00000000
 ITry= 1 IFail=0 DXMaxC= 1.70D-01 DCOld= 1.00D+10 DXMaxT= 3.00D-01 DXLimC= 3.00D+00 Rises=F
 Variable       Old X    -DE/DX   Delta X   Delta X   Delta X     New X
                                 (Linear)    (Quad)   (Total)
    X1       -1.82886   0.13773   0.00000   0.00000   0.00000  -1.82886
    Y1        0.00000  -0.00066   0.00000   0.00000   0.00000   0.00000
    Z1        0.00000   0.00000   0.00000   0.00000   0.00000   0.00000
    X2        1.82886  -0.13773   0.00000   0.00000   0.00000   1.82886
    Y2        0.00000   0.00066   0.00000   0.00000   0.00000   0.00000
    Z2        0.00000  -0.00000   0.00000   0.00000   0.00000   0.00000
    R1        2.34544  -0.06805   0.00000  -0.11862  -0.11862   2.22682
    R2        2.34557  -0.06805   0.00000  -0.11864  -0.11864   2.22692
    R3        2.34544  -0.06805   0.00000  -0.11862  -0.11862   2.22682
    R4        2.34557  -0.06805   0.00000  -0.11864  -0.11864   2.22692
    A1        2.30501  -0.02477   0.00000  -0.05339  -0.05339   2.25162
    A2        2.29985  -0.02441   0.00000  -0.05261  -0.05261   2.24724
    A3        1.67832   0.04918   0.00000   0.10600   0.10600   1.78432
    A4        2.30501  -0.02477   0.00000  -0.05339  -0.05339   2.25162
    A5        2.29985  -0.02441   0.00000  -0.05261  -0.05261   2.24724
    A6        1.67832   0.04918   0.00000   0.10600   0.10600   1.78432
    D1        3.14159  -0.00000   0.00000  -0.00000   0.00000   3.14159
    D2        0.00000  -0.00000   0.00000   0.00000   0.00000   0.00000
    D3        0.00000  -0.00000   0.00000  -0.00000  -0.00000   0.00000
    D4        3.14159  -0.00000   0.00000  -0.00000   0.00000   3.14159
         Item               Value     Threshold  Converged?
 Maximum Force            0.068052     0.000450     NO 
 RMS     Force            0.042912     0.000300     NO 
 Maximum Displacement     0.169811     0.001800     NO 
 RMS     Displacement     0.075818     0.001200     NO 
 Predicted change in Energy=-3.907451D-02
 Lowest energy point so far.  Saving SCF results.
 GradGradGradGradGradGradGradGradGradGradGradGradGradGradGradGradGradGrad

 Leave Link  103 at Tue Nov 19 10:59:25 2024, MaxMem=   536870912 cpu:               0.0 elap:               0.0
 (Enter /home/szhao/Apps/g16/l202.exe)
                          Input orientation:                          
 ---------------------------------------------------------------------
 Center     Atomic      Atomic             Coordinates (Angstroms)
 Number     Number       Type             X           Y           Z
 ---------------------------------------------------------------------
      1          6           0       -0.967793    0.000000    0.000000
      2          6           0        0.967793    0.000000    0.000000
      3          1           0       -1.709510   -0.915666    0.000000
      4          1           0       -1.705526    0.918947    0.000000
      5          1           0        1.709510    0.915666   -0.000000
      6          1           0        1.705526   -0.918947   -0.000000
 ---------------------------------------------------------------------
                    Distance matrix (angstroms):
                    1          2          3          4          5
     1  C    0.000000
     2  C    1.935586   0.000000
     3  H    1.178384   2.829557   0.000000
     4  H    1.178437   2.826853   1.834617   0.000000
     5  H    2.829557   1.178384   3.878592   3.415037   0.000000
     6  H    2.826853   1.178437   3.415037   3.874678   1.834617
                    6
     6  H    0.000000
 Symmetry turned off by external request.
 Stoichiometry    C2H4
 Framework group  C2H[SGH(C2H4)]
 Deg. of freedom     5
 Full point group                 C2H     NOp   4
 Rotational constants (GHZ):         148.9847327          14.7630446          13.4320495
 Leave Link  202 at Tue Nov 19 10:59:25 2024, MaxMem=   536870912 cpu:               0.0 elap:               0.0
 (Enter /home/szhao/Apps/g16/l301.exe)
 Standard basis: 6-311+G(d,p) (5D, 7F)
 Ernie: Thresh=  0.10000D-02 Tol=  0.10000D-05 Strict=F.
    68 basis functions,   104 primitive gaussians,    70 cartesian basis functions
     8 alpha electrons        8 beta electrons
       nuclear repulsion energy        26.2699919350 Hartrees.
 IExCor= 4336 DFT=T Ex+Corr=M062X ExCW=0 ScaHFX=  0.540000
 ScaDFX=  1.000000  1.000000  1.000000  1.000000 ScalE2=  1.000000  1.000000
 IRadAn=      7 IRanWt=     -1 IRanGd=            0 ICorTp=0 IEmpDi=  4
 NAtoms=    6 NActive=    6 NUniq=    6 SFac= 1.00D+00 NAtFMM=   60 NAOKFM=F Big=F
 Integral buffers will be    131072 words long.
 Raffenetti 2 integral format.
 Two-electron integral symmetry is turned off.
 Leave Link  301 at Tue Nov 19 10:59:25 2024, MaxMem=   536870912 cpu:               0.3 elap:               0.0
 (Enter /home/szhao/Apps/g16/l302.exe)
 NPDir=0 NMtPBC=     1 NCelOv=     1 NCel=       1 NClECP=     1 NCelD=      1
         NCelK=      1 NCelE2=     1 NClLst=     1 CellRange=     0.0.
 One-electron integrals computed using PRISM.
 NBasis=    68 RedAO= T EigKep=  1.49D-03  NBF=    68
 NBsUse=    68 1.00D-06 EigRej= -1.00D+00 NBFU=    68
 Precomputing XC quadrature grid using
 IXCGrd= 4 IRadAn=           7 IRanWt=          -1 IRanGd=           0 AccXCQ= 0.00D+00.
 Generated NRdTot=       0 NPtTot=           0 NUsed=           0 NTot=          32
 NSgBfM=    70    70    70    70    70 MxSgAt=     6 MxSgA2=     6.
 Leave Link  302 at Tue Nov 19 10:59:26 2024, MaxMem=   536870912 cpu:               1.1 elap:               0.1
 (Enter /home/szhao/Apps/g16/l303.exe)
 DipDrv:  MaxL=1.
 Leave Link  303 at Tue Nov 19 10:59:26 2024, MaxMem=   536870912 cpu:               0.3 elap:               0.0
 (Enter /home/szhao/Apps/g16/l401.exe)
 Initial guess from the checkpoint file:  "opt.chk"
 B after Tr=     0.000000   -0.000000    0.000000
         Rot=    1.000000   -0.000000   -0.000000   -0.000079 Ang=  -0.01 deg.
 Guess basis will be translated and rotated to current coordinates.
 JPrj=2 DoOrth=T DoCkMO=T.
 Initial guess <Sx>= 0.0000 <Sy>= 0.0000 <Sz>= 0.0000 <S**2>=-0.0000 S=-0.0000
 Generating alternative initial guess.
 ExpMin= 4.38D-02 ExpMax= 4.56D+03 ExpMxC= 6.82D+02 IAcc=3 IRadAn=         5 AccDes= 0.00D+00
 Harris functional with IExCor= 1009 and IRadAn=       5 diagonalized for initial guess.
 HarFok:  IExCor= 1009 AccDes= 0.00D+00 IRadAn=         5 IDoV= 1 UseB2=F ITyADJ=14
 ICtDFT=  3500011 ScaDFX=  1.000000  1.000000  1.000000  1.000000
 FoFCou: FMM=F IPFlag=           0 FMFlag=      100000 FMFlg1=           0
         NFxFlg=           0 DoJE=T BraDBF=F KetDBF=T FulRan=T
         wScrn=  0.000000 ICntrl=       500 IOpCl=  0 I1Cent=   200000004 NGrid=           0
         NMat0=    1 NMatS0=      1 NMatT0=    0 NMatD0=    1 NMtDS0=    0 NMtDT0=    0
 Symmetry not used in FoFCou.
 Harris En= -78.3240639263595    
 Leave Link  401 at Tue Nov 19 10:59:26 2024, MaxMem=   536870912 cpu:               1.9 elap:               0.2
 (Enter /home/szhao/Apps/g16/l502.exe)
 Keep R1 and R2 ints in memory in canonical form, NReq=12681614.
 FoFCou: FMM=F IPFlag=           0 FMFlag=           0 FMFlg1=           0
         NFxFlg=           0 DoJE=F BraDBF=F KetDBF=F FulRan=T
         wScrn=  0.000000 ICntrl=       600 IOpCl=  0 I1Cent=           0 NGrid=           0
         NMat0=    1 NMatS0=   2346 NMatT0=    0 NMatD0=    1 NMtDS0=    0 NMtDT0=    0
 Symmetry not used in FoFCou.
 Two-electron integral symmetry not used.
 UHF open shell SCF:
 Using DIIS extrapolation, IDIIS=  1040.
 NGot=   536870912 LenX=   531353794 LenY=   531348453
 Requested convergence on RMS density matrix=1.00D-08 within 128 cycles.
 Requested convergence on MAX density matrix=1.00D-06.
 Requested convergence on             energy=1.00D-06.
 No special actions if energy rises.

 Cycle   1  Pass 1  IDiag  1:
 E= -78.3501526247372    
 DIIS: error= 7.71D-03 at cycle   1 NSaved=   1.
 NSaved= 1 IEnMin= 1 EnMin= -78.3501526247372     IErMin= 1 ErrMin= 7.71D-03
 ErrMax= 7.71D-03  0.00D+00 EMaxC= 1.00D-01 BMatC= 7.98D-03 BMatP= 7.98D-03
 IDIUse=3 WtCom= 9.23D-01 WtEn= 7.71D-02
 Coeff-Com:  0.100D+01
 Coeff-En:   0.100D+01
 Coeff:      0.100D+01
 Gap=     0.468 Goal=   None    Shift=    0.000
 Gap=     0.468 Goal=   None    Shift=    0.000
 GapD=    0.468 DampG=2.000 DampE=1.000 DampFc=2.0000 IDamp=-1.
 RMSDP=5.82D-04 MaxDP=6.18D-03              OVMax= 2.04D-02

 Cycle   2  Pass 1  IDiag  1:
 E= -78.3521958536047     Delta-E=       -0.002043228868 Rises=F Damp=F
 DIIS: error= 2.78D-03 at cycle   2 NSaved=   2.
 NSaved= 2 IEnMin= 2 EnMin= -78.3521958536047     IErMin= 2 ErrMin= 2.78D-03
 ErrMax= 2.78D-03  0.00D+00 EMaxC= 1.00D-01 BMatC= 8.44D-04 BMatP= 7.98D-03
 IDIUse=3 WtCom= 9.72D-01 WtEn= 2.78D-02
 Coeff-Com:  0.143D+00 0.857D+00
 Coeff-En:   0.000D+00 0.100D+01
 Coeff:      0.139D+00 0.861D+00
 Gap=     0.207 Goal=   None    Shift=    0.000
 Gap=     0.207 Goal=   None    Shift=    0.000
 RMSDP=2.16D-04 MaxDP=5.45D-03 DE=-2.04D-03 OVMax= 9.58D-03

 Cycle   3  Pass 1  IDiag  1:
 E= -78.3523675561976     Delta-E=       -0.000171702593 Rises=F Damp=F
 DIIS: error= 1.68D-03 at cycle   3 NSaved=   3.
 NSaved= 3 IEnMin= 3 EnMin= -78.3523675561976     IErMin= 3 ErrMin= 1.68D-03
 ErrMax= 1.68D-03  0.00D+00 EMaxC= 1.00D-01 BMatC= 2.55D-04 BMatP= 8.44D-04
 IDIUse=3 WtCom= 9.83D-01 WtEn= 1.68D-02
 Coeff-Com: -0.129D-01 0.343D+00 0.670D+00
 Coeff-En:   0.000D+00 0.123D+00 0.877D+00
 Coeff:     -0.127D-01 0.340D+00 0.673D+00
 Gap=     0.208 Goal=   None    Shift=    0.000
 Gap=     0.208 Goal=   None    Shift=    0.000
 RMSDP=7.96D-05 MaxDP=1.62D-03 DE=-1.72D-04 OVMax= 2.89D-03

 Cycle   4  Pass 1  IDiag  1:
 E= -78.3524394516780     Delta-E=       -0.000071895480 Rises=F Damp=F
 DIIS: error= 1.90D-04 at cycle   4 NSaved=   4.
 NSaved= 4 IEnMin= 4 EnMin= -78.3524394516780     IErMin= 4 ErrMin= 1.90D-04
 ErrMax= 1.90D-04  0.00D+00 EMaxC= 1.00D-01 BMatC= 3.06D-06 BMatP= 2.55D-04
 IDIUse=3 WtCom= 9.98D-01 WtEn= 1.90D-03
 Coeff-Com: -0.748D-02 0.296D-01 0.124D+00 0.854D+00
 Coeff-En:   0.000D+00 0.000D+00 0.000D+00 0.100D+01
 Coeff:     -0.746D-02 0.295D-01 0.123D+00 0.855D+00
 Gap=     0.207 Goal=   None    Shift=    0.000
 Gap=     0.207 Goal=   None    Shift=    0.000
 RMSDP=1.20D-05 MaxDP=1.57D-04 DE=-7.19D-05 OVMax= 5.60D-04

 Cycle   5  Pass 1  IDiag  1:
 E= -78.3524405940088     Delta-E=       -0.000001142331 Rises=F Damp=F
 DIIS: error= 3.11D-05 at cycle   5 NSaved=   5.
 NSaved= 5 IEnMin= 5 EnMin= -78.3524405940088     IErMin= 5 ErrMin= 3.11D-05
 ErrMax= 3.11D-05  0.00D+00 EMaxC= 1.00D-01 BMatC= 9.55D-08 BMatP= 3.06D-06
 IDIUse=1 WtCom= 1.00D+00 WtEn= 0.00D+00
 Coeff-Com:  0.196D-03-0.159D-01-0.342D-01 0.369D-01 0.101D+01
 Coeff:      0.196D-03-0.159D-01-0.342D-01 0.369D-01 0.101D+01
 Gap=     0.207 Goal=   None    Shift=    0.000
 Gap=     0.207 Goal=   None    Shift=    0.000
 RMSDP=2.87D-06 MaxDP=2.59D-05 DE=-1.14D-06 OVMax= 1.19D-04

 Cycle   6  Pass 1  IDiag  1:
 E= -78.3524406411557     Delta-E=       -0.000000047147 Rises=F Damp=F
 DIIS: error= 2.54D-06 at cycle   6 NSaved=   6.
 NSaved= 6 IEnMin= 6 EnMin= -78.3524406411557     IErMin= 6 ErrMin= 2.54D-06
 ErrMax= 2.54D-06  0.00D+00 EMaxC= 1.00D-01 BMatC= 3.50D-10 BMatP= 9.55D-08
 IDIUse=1 WtCom= 1.00D+00 WtEn= 0.00D+00
 Coeff-Com:  0.415D-04 0.118D-02 0.200D-02-0.973D-02-0.116D+00 0.112D+01
 Coeff:      0.415D-04 0.118D-02 0.200D-02-0.973D-02-0.116D+00 0.112D+01
 Gap=     0.207 Goal=   None    Shift=    0.000
 Gap=     0.207 Goal=   None    Shift=    0.000
 RMSDP=3.83D-07 MaxDP=3.19D-06 DE=-4.71D-08 OVMax= 1.89D-05

 Cycle   7  Pass 1  IDiag  1:
 E= -78.3524406415683     Delta-E=       -0.000000000413 Rises=F Damp=F
 DIIS: error= 1.33D-07 at cycle   7 NSaved=   7.
 NSaved= 7 IEnMin= 7 EnMin= -78.3524406415683     IErMin= 7 ErrMin= 1.33D-07
 ErrMax= 1.33D-07  0.00D+00 EMaxC= 1.00D-01 BMatC= 3.49D-12 BMatP= 3.50D-10
 IDIUse=1 WtCom= 1.00D+00 WtEn= 0.00D+00
 Coeff-Com: -0.703D-05 0.502D-04 0.557D-04 0.270D-03 0.282D-02-0.105D+00
 Coeff-Com:  0.110D+01
 Coeff:     -0.703D-05 0.502D-04 0.557D-04 0.270D-03 0.282D-02-0.105D+00
 Coeff:      0.110D+01
 Gap=     0.207 Goal=   None    Shift=    0.000
 Gap=     0.207 Goal=   None    Shift=    0.000
 RMSDP=3.43D-08 MaxDP=3.92D-07 DE=-4.13D-10 OVMax= 1.59D-06

 Cycle   8  Pass 1  IDiag  1:
 E= -78.3524406415712     Delta-E=       -0.000000000003 Rises=F Damp=F
 DIIS: error= 1.43D-08 at cycle   8 NSaved=   8.
 NSaved= 8 IEnMin= 8 EnMin= -78.3524406415712     IErMin= 8 ErrMin= 1.43D-08
 ErrMax= 1.43D-08  0.00D+00 EMaxC= 1.00D-01 BMatC= 4.20D-14 BMatP= 3.49D-12
 IDIUse=1 WtCom= 1.00D+00 WtEn= 0.00D+00
 Coeff-Com:  0.537D-06-0.813D-05-0.169D-04 0.202D-04-0.268D-04 0.998D-02
 Coeff-Com: -0.166D+00 0.116D+01
 Coeff:      0.537D-06-0.813D-05-0.169D-04 0.202D-04-0.268D-04 0.998D-02
 Coeff:     -0.166D+00 0.116D+01
 Gap=     0.207 Goal=   None    Shift=    0.000
 Gap=     0.207 Goal=   None    Shift=    0.000
 RMSDP=3.47D-09 MaxDP=5.70D-08 DE=-2.93D-12 OVMax= 9.74D-08

 SCF Done:  E(UM062X) =  -78.3524406416     A.U. after    8 cycles
            NFock=  8  Conv=0.35D-08     -V/T= 2.0183
 <Sx>= 0.0000 <Sy>= 0.0000 <Sz>= 0.0000 <S**2>=-0.0000 S=-0.0000
 <L.S>=  0.00000000000    
 KE= 7.694802529188D+01 PE=-2.328337034810D+02 EE= 5.126324561252D+01
 Annihilation of the first spin contaminant:
 S**2 before annihilation    -0.0000,   after    -0.0000
 Leave Link  502 at Tue Nov 19 10:59:31 2024, MaxMem=   536870912 cpu:              36.8 elap:               4.7
 (Enter /home/szhao/Apps/g16/l701.exe)
 ... and contract with generalized density number  0.
 Compute integral first derivatives.
 Leave Link  701 at Tue Nov 19 10:59:31 2024, MaxMem=   536870912 cpu:               0.8 elap:               0.1
 (Enter /home/szhao/Apps/g16/l702.exe)
 L702 exits ... SP integral derivatives will be done elsewhere.
 Leave Link  702 at Tue Nov 19 10:59:31 2024, MaxMem=   536870912 cpu:               0.3 elap:               0.0
 (Enter /home/szhao/Apps/g16/l703.exe)
 Integral derivatives from FoFJK, PRISM(SPDF).
 Compute integral first derivatives, UseDBF=F ICtDFT=           0.
 Calling FoFJK, ICntrl=      2127 FMM=F ISym2X=0 I1Cent= 0 IOpClX= 1 NMat=1 NMatS=1 NMatT=0.
 FoFJK:  IHMeth= 1 ICntrl=    2127 DoSepK=F KAlg= 0 I1Cent=           0 FoldK=F
 IRaf=         0 NMat=       1 IRICut=       1 DoRegI=T DoRafI=F ISym2E= 0 IDoP0=0 IntGTp=1.
 FoFCou: FMM=F IPFlag=           0 FMFlag=      100000 FMFlg1=         800
         NFxFlg=           0 DoJE=F BraDBF=F KetDBF=F FulRan=T
         wScrn=  0.000000 ICntrl=      2127 IOpCl=  1 I1Cent=           0 NGrid=           0
         NMat0=    1 NMatS0=      1 NMatT0=    0 NMatD0=    1 NMtDS0=    0 NMtDT0=    0
 Symmetry not used in FoFCou.
 Leave Link  703 at Tue Nov 19 10:59:32 2024, MaxMem=   536870912 cpu:               8.7 elap:               1.1
 (Enter /home/szhao/Apps/g16/l716.exe)
 Dipole        =-2.88973712D-08-1.45827794D-11-1.53887091D-13
 -------------------------------------------------------------------
 Center     Atomic                   Forces (Hartrees/Bohr)
 Number     Number              X              Y              Z
 -------------------------------------------------------------------
      1        6          -0.000000000   -0.000000000   -0.000000000
      2        6          -0.000000000   -0.000000000   -0.000000000
      3        1           0.051816672    0.020827729    0.000000000
      4        1           0.051612964   -0.021159298    0.000000000
      5        1          -0.051816671   -0.020827729   -0.000000000
      6        1          -0.051612963    0.021159297   -0.000000000
 -------------------------------------------------------------------
 Cartesian Forces:  Max     0.051816672 RMS     0.026310909
 Leave Link  716 at Tue Nov 19 10:59:32 2024, MaxMem=   536870912 cpu:               0.3 elap:               0.0
 (Enter /home/szhao/Apps/g16/l103.exe)

 GradGradGradGradGradGradGradGradGradGradGradGradGradGradGradGradGradGrad
 Berny optimization.
 Using GEDIIS/GDIIS optimizer.
 FormGI is forming the generalized inverse of G from B-inverse, IUseBI=4.
 Internal  Forces:  Max     0.103429636 RMS     0.042291780
 Search for a local minimum.
 Step number   2 out of a maximum of   30
 All quantities printed in internal units (Hartrees-Bohrs-Radians)
 RMS Force = .32045D-01 SwitMx=.10000D-02 MixMth= 1
 Mixed Optimization -- RFO/linear search
 Update second derivatives using D2CorX and points    1    2
 DE= -4.23D-02 DEPred=-3.91D-02 R= 1.08D+00
 TightC=F SS=  1.41D+00  RLast= 3.00D-01 DXNew= 5.0454D-01 9.0000D-01
 Trust test= 1.08D+00 RLast= 3.00D-01 DXMaxT set to 5.05D-01
 The second derivative matrix:
                          X1        Y1        Z1        X2        Y2
           X1           0.59816
           Y1          -0.00041   0.50000
           Z1          -0.00000   0.00000   0.50000
           X2          -0.09816   0.00041   0.00000   0.59816
           Y2           0.00041  -0.00000  -0.00000  -0.00041   0.50000
           Z2           0.00000  -0.00000  -0.00000  -0.00000   0.00000
           R1          -0.05508   0.00023   0.00000   0.05508  -0.00023
           R2          -0.05506   0.00023   0.00000   0.05506  -0.00023
           R3          -0.05508   0.00023   0.00000   0.05508  -0.00023
           R4          -0.05506   0.00023   0.00000   0.05506  -0.00023
           A1          -0.01288   0.00005   0.00000   0.01288  -0.00005
           A2          -0.01282   0.00005   0.00000   0.01282  -0.00005
           A3           0.02571  -0.00011  -0.00000  -0.02571   0.00011
           A4          -0.01288   0.00005   0.00000   0.01288  -0.00005
           A5          -0.01282   0.00005   0.00000   0.01282  -0.00005
           A6           0.02571  -0.00011  -0.00000  -0.02571   0.00011
           D1           0.00000  -0.00000  -0.00000  -0.00000   0.00000
           D2          -0.00000   0.00000   0.00000   0.00000  -0.00000
           D3           0.00000  -0.00000  -0.00000  -0.00000   0.00000
           D4           0.00000  -0.00000  -0.00000  -0.00000   0.00000
                          Z2        R1        R2        R3        R4
           Z2           0.50000
           R1          -0.00000   0.21174
           R2          -0.00000  -0.00717   0.21167
           R3          -0.00000  -0.00716  -0.00717   0.21174
           R4          -0.00000  -0.00717  -0.00718  -0.00717   0.21167
           A1          -0.00000  -0.00529  -0.00529  -0.00529  -0.00529
           A2          -0.00000  -0.00514  -0.00515  -0.00514  -0.00515
           A3           0.00000   0.01043   0.01044   0.01043   0.01044
           A4          -0.00000  -0.00529  -0.00529  -0.00529  -0.00529
           A5          -0.00000  -0.00514  -0.00515  -0.00514  -0.00515
           A6           0.00000   0.01043   0.01044   0.01043   0.01044
           D1           0.00000  -0.00000  -0.00000  -0.00000  -0.00000
           D2          -0.00000   0.00000   0.00000   0.00000   0.00000
           D3           0.00000  -0.00000  -0.00000  -0.00000  -0.00000
           D4           0.00000  -0.00000  -0.00000  -0.00000  -0.00000
                          A1        A2        A3        A4        A5
           A1           0.15757
           A2          -0.00238   0.15768
           A3           0.00480   0.00470   0.15050
           A4          -0.00243  -0.00238   0.00480   0.15757
           A5          -0.00238  -0.00232   0.00470  -0.00238   0.15768
           A6           0.00480   0.00470  -0.00950   0.00480   0.00470
           D1          -0.00000  -0.00000   0.00000  -0.00000  -0.00000
           D2           0.00000   0.00000  -0.00000   0.00000   0.00000
           D3          -0.00000  -0.00000   0.00000  -0.00000  -0.00000
           D4          -0.00000  -0.00000   0.00000  -0.00000  -0.00000
                          A6        D1        D2        D3        D4
           A6           0.15050
           D1           0.00000   0.00230
           D2          -0.00000  -0.00000   0.00230
           D3           0.00000   0.00000  -0.00000   0.00230
           D4           0.00000   0.00000  -0.00000   0.00000   0.00230
 ITU=  1  0
 Use linear search instead of GDIIS.
 Linear search step of   0.583 exceeds DXMaxT=   0.505 but not scaled.
 Quartic linear search produced a step of  1.94262.
 Iteration  1 RMS(Cart)=  0.13305347 RMS(Int)=  0.02063334
 Iteration  2 RMS(Cart)=  0.02083915 RMS(Int)=  0.00010845
 Iteration  3 RMS(Cart)=  0.00012415 RMS(Int)=  0.00000001
 Iteration  4 RMS(Cart)=  0.00000001 RMS(Int)=  0.00000000
 ITry= 1 IFail=0 DXMaxC= 3.12D-01 DCOld= 1.00D+10 DXMaxT= 5.05D-01 DXLimC= 3.00D+00 Rises=F
 Variable       Old X    -DE/DX   Delta X   Delta X   Delta X     New X
                                 (Linear)    (Quad)   (Total)
    X1       -1.82886   0.10343   0.00000   0.00000   0.00000  -1.82886
    Y1        0.00000  -0.00052   0.00000   0.00000   0.00000   0.00000
    Z1        0.00000   0.00000   0.00000   0.00000   0.00000   0.00000
    X2        1.82886  -0.10343   0.00000   0.00000   0.00000   1.82886
    Y2        0.00000   0.00052   0.00000   0.00000   0.00000   0.00000
    Z2        0.00000  -0.00000   0.00000   0.00000   0.00000   0.00000
    R1        2.22682  -0.04880  -0.23043   0.00000  -0.23043   1.99639
    R2        2.22692  -0.04881  -0.23048   0.00000  -0.23048   1.99644
    R3        2.22682  -0.04880  -0.23043   0.00000  -0.23043   1.99639
    R4        2.22692  -0.04881  -0.23048   0.00000  -0.23048   1.99644
    A1        2.25162  -0.02027  -0.10371   0.00000  -0.10371   2.14791
    A2        2.24724  -0.01993  -0.10220   0.00000  -0.10220   2.14504
    A3        1.78432   0.04020   0.20591   0.00000   0.20591   1.99023
    A4        2.25162  -0.02027  -0.10371   0.00000  -0.10371   2.14791
    A5        2.24724  -0.01993  -0.10220   0.00000  -0.10220   2.14504
    A6        1.78432   0.04020   0.20591   0.00000   0.20591   1.99023
    D1        3.14159  -0.00000   0.00000   0.00000   0.00000   3.14159
    D2        0.00000   0.00000   0.00000   0.00000  -0.00000   0.00000
    D3       -0.00000  -0.00000   0.00000   0.00000   0.00000   0.00000
    D4        3.14159  -0.00000   0.00000   0.00000   0.00000   3.14159
         Item               Value     Threshold  Converged?
 Maximum Force            0.048811     0.000450     NO 
 RMS     Force            0.032045     0.000300     NO 
 Maximum Displacement     0.312388     0.001800     NO 
 RMS     Displacement     0.141559     0.001200     NO 
 Predicted change in Energy=-4.720116D-02
 Lowest energy point so far.  Saving SCF results.
 GradGradGradGradGradGradGradGradGradGradGradGradGradGradGradGradGradGrad

 Leave Link  103 at Tue Nov 19 10:59:32 2024, MaxMem=   536870912 cpu:               0.1 elap:               0.0
 (Enter /home/szhao/Apps/g16/l202.exe)
                          Input orientation:                          
 ---------------------------------------------------------------------
 Center     Atomic      Atomic             Coordinates (Angstroms)
 Number     Number       Type             X           Y           Z
 ---------------------------------------------------------------------
      1          6           0       -0.967793    0.000000    0.000000
      2          6           0        0.967793    0.000000    0.000000
      3          1           0       -1.544201   -0.885341   -0.000000
      4          1           0       -1.541669    0.887018   -0.000000
      5          1           0        1.544201    0.885341    0.000000
      6          1           0        1.541669   -0.887018    0.000000
 ---------------------------------------------------------------------
                    Distance matrix (angstroms):
                    1          2          3          4          5
     1  C    0.000000
     2  C    1.935586   0.000000
     3  H    1.056444   2.663446   0.000000
     4  H    1.056472   2.661616   1.772360   0.000000
     5  H    2.663446   1.056444   3.559992   3.085871   0.000000
     6  H    2.661616   1.056472   3.085871   3.557271   1.772360
                    6
     6  H    0.000000
 Symmetry turned off by external request.
 Stoichiometry    C2H4
 Framework group  C2H[SGH(C2H4)]
 Deg. of freedom     5
 Full point group                 C2H     NOp   4
 Rotational constants (GHZ):         159.6351731          15.7556347          14.3402811
 Leave Link  202 at Tue Nov 19 10:59:32 2024, MaxMem=   536870912 cpu:               0.0 elap:               0.0
 (Enter /home/szhao/Apps/g16/l301.exe)
 Standard basis: 6-311+G(d,p) (5D, 7F)
 Ernie: Thresh=  0.10000D-02 Tol=  0.10000D-05 Strict=F.
    68 basis functions,   104 primitive gaussians,    70 cartesian basis functions
     8 alpha electrons        8 beta electrons
       nuclear repulsion energy        27.8712230572 Hartrees.
 IExCor= 4336 DFT=T Ex+Corr=M062X ExCW=0 ScaHFX=  0.540000
 ScaDFX=  1.000000  1.000000  1.000000  1.000000 ScalE2=  1.000000  1.000000
 IRadAn=      7 IRanWt=     -1 IRanGd=            0 ICorTp=0 IEmpDi=  4
 NAtoms=    6 NActive=    6 NUniq=    6 SFac= 1.00D+00 NAtFMM=   60 NAOKFM=F Big=F
 Integral buffers will be    131072 words long.
 Raffenetti 2 integral format.
 Two-electron integral symmetry is turned off.
 Leave Link  301 at Tue Nov 19 10:59:32 2024, MaxMem=   536870912 cpu:               0.3 elap:               0.0
 (Enter /home/szhao/Apps/g16/l302.exe)
 NPDir=0 NMtPBC=     1 NCelOv=     1 NCel=       1 NClECP=     1 NCelD=      1
         NCelK=      1 NCelE2=     1 NClLst=     1 CellRange=     0.0.
 One-electron integrals computed using PRISM.
 NBasis=    68 RedAO= T EigKep=  1.25D-03  NBF=    68
 NBsUse=    68 1.00D-06 EigRej= -1.00D+00 NBFU=    68
 Precomputing XC quadrature grid using
 IXCGrd= 4 IRadAn=           7 IRanWt=          -1 IRanGd=           0 AccXCQ= 0.00D+00.
 Generated NRdTot=       0 NPtTot=           0 NUsed=           0 NTot=          32
 NSgBfM=    70    70    70    70    70 MxSgAt=     6 MxSgA2=     6.
 Leave Link  302 at Tue Nov 19 10:59:32 2024, MaxMem=   536870912 cpu:               1.1 elap:               0.1
 (Enter /home/szhao/Apps/g16/l303.exe)
 DipDrv:  MaxL=1.
 Leave Link  303 at Tue Nov 19 10:59:32 2024, MaxMem=   536870912 cpu:               0.3 elap:               0.0
 (Enter /home/szhao/Apps/g16/l401.exe)
 Initial guess from the checkpoint file:  "opt.chk"
 B after Tr=     0.000000   -0.000000    0.000000
         Rot=    1.000000   -0.000000    0.000000   -0.000136 Ang=  -0.02 deg.
 Guess basis will be translated and rotated to current coordinates.
 JPrj=2 DoOrth=T DoCkMO=T.
 Initial guess <Sx>= 0.0000 <Sy>= 0.0000 <Sz>= 0.0000 <S**2>=-0.0000 S=-0.0000
 Generating alternative initial guess.
 ExpMin= 4.38D-02 ExpMax= 4.56D+03 ExpMxC= 6.82D+02 IAcc=3 IRadAn=         5 AccDes= 0.00D+00
 Harris functional with IExCor= 1009 and IRadAn=       5 diagonalized for initial guess.
 HarFok:  IExCor= 1009 AccDes= 0.00D+00 IRadAn=         5 IDoV= 1 UseB2=F ITyADJ=14
 ICtDFT=  3500011 ScaDFX=  1.000000  1.000000  1.000000  1.000000
 FoFCou: FMM=F IPFlag=           0 FMFlag=      100000 FMFlg1=           0
         NFxFlg=           0 DoJE=T BraDBF=F KetDBF=T FulRan=T
         wScrn=  0.000000 ICntrl=       500 IOpCl=  0 I1Cent=   200000004 NGrid=           0
         NMat0=    1 NMatS0=      1 NMatT0=    0 NMatD0=    1 NMtDS0=    0 NMtDT0=    0
 Symmetry not used in FoFCou.
 Harris En= -78.3752445855740    
 Leave Link  401 at Tue Nov 19 10:59:32 2024, MaxMem=   536870912 cpu:               1.9 elap:               0.2
 (Enter /home/szhao/Apps/g16/l502.exe)
 Keep R1 and R2 ints in memory in canonical form, NReq=12681614.
 FoFCou: FMM=F IPFlag=           0 FMFlag=           0 FMFlg1=           0
         NFxFlg=           0 DoJE=F BraDBF=F KetDBF=F FulRan=T
         wScrn=  0.000000 ICntrl=       600 IOpCl=  0 I1Cent=           0 NGrid=           0
         NMat0=    1 NMatS0=   2346 NMatT0=    0 NMatD0=    1 NMtDS0=    0 NMtDT0=    0
 Symmetry not used in FoFCou.
 Two-electron integral symmetry not used.
 UHF open shell SCF:
 Using DIIS extrapolation, IDIIS=  1040.
 NGot=   536870912 LenX=   531353794 LenY=   531348453
 Requested convergence on RMS density matrix=1.00D-08 within 128 cycles.
 Requested convergence on MAX density matrix=1.00D-06.
 Requested convergence on             energy=1.00D-06.
 No special actions if energy rises.

 Cycle   1  Pass 1  IDiag  1:
 E= -78.3788180657427    
 DIIS: error= 1.59D-02 at cycle   1 NSaved=   1.
 NSaved= 1 IEnMin= 1 EnMin= -78.3788180657427     IErMin= 1 ErrMin= 1.59D-02
 ErrMax= 1.59D-02  0.00D+00 EMaxC= 1.00D-01 BMatC= 4.00D-02 BMatP= 4.00D-02
 IDIUse=3 WtCom= 8.41D-01 WtEn= 1.59D-01
 Coeff-Com:  0.100D+01
 Coeff-En:   0.100D+01
 Coeff:      0.100D+01
 Recover alternate guess density for next cycle.
 RMSDP=2.61D-03 MaxDP=2.84D-02              OVMax= 0.00D+00

 Cycle   2  Pass 1  IDiag  1:
 E= -78.3473739187707     Delta-E=        0.031444146972 Rises=F Damp=F
 Switch densities from cycles 1 and 2 for lowest energy.
 DIIS: error= 3.42D-02 at cycle   2 NSaved=   2.
 NSaved= 2 IEnMin= 1 EnMin= -78.3788180657427     IErMin= 1 ErrMin= 1.59D-02
 ErrMax= 3.42D-02  0.00D+00 EMaxC= 1.00D+00 BMatC= 1.73D-01 BMatP= 4.00D-02
 IDIUse=1 WtCom= 1.00D+00 WtEn= 0.00D+00
 Coeff-Com:  0.729D+00 0.271D+00
 Coeff:      0.729D+00 0.271D+00
 Gap=     0.211 Goal=   None    Shift=    0.000
 Gap=     0.211 Goal=   None    Shift=    0.000
 RMSDP=1.06D-03 MaxDP=1.04D-02 DE= 3.14D-02 OVMax= 9.29D-02

 Cycle   3  Pass 1  IDiag  1:
 E= -78.3889379706220     Delta-E=       -0.041564051851 Rises=F Damp=F
 DIIS: error= 3.64D-03 at cycle   3 NSaved=   3.
 NSaved= 3 IEnMin= 3 EnMin= -78.3889379706220     IErMin= 3 ErrMin= 3.64D-03
 ErrMax= 3.64D-03  0.00D+00 EMaxC= 1.00D+00 BMatC= 9.96D-04 BMatP= 4.00D-02
 IDIUse=1 WtCom= 1.00D+00 WtEn= 0.00D+00
 Coeff-Com:  0.755D-03 0.496D-01 0.950D+00
 Coeff:      0.755D-03 0.496D-01 0.950D+00
 Gap=     0.208 Goal=   None    Shift=    0.000
 Gap=     0.208 Goal=   None    Shift=    0.000
 RMSDP=1.80D-04 MaxDP=3.37D-03 DE=-4.16D-02 OVMax= 7.14D-03

 Cycle   4  Pass 1  IDiag  1:
 E= -78.3892100612492     Delta-E=       -0.000272090627 Rises=F Damp=F
 DIIS: error= 8.93D-04 at cycle   4 NSaved=   4.
 NSaved= 4 IEnMin= 4 EnMin= -78.3892100612492     IErMin= 4 ErrMin= 8.93D-04
 ErrMax= 8.93D-04  0.00D+00 EMaxC= 1.00D+00 BMatC= 7.04D-05 BMatP= 9.96D-04
 IDIUse=1 WtCom= 1.00D+00 WtEn= 0.00D+00
 Coeff-Com: -0.128D-01-0.204D-02 0.196D+00 0.819D+00
 Coeff:     -0.128D-01-0.204D-02 0.196D+00 0.819D+00
 Gap=     0.207 Goal=   None    Shift=    0.000
 Gap=     0.207 Goal=   None    Shift=    0.000
 RMSDP=5.15D-05 MaxDP=7.55D-04 DE=-2.72D-04 OVMax= 2.57D-03

 Cycle   5  Pass 1  IDiag  1:
 E= -78.3892324562947     Delta-E=       -0.000022395046 Rises=F Damp=F
 DIIS: error= 1.49D-04 at cycle   5 NSaved=   5.
 NSaved= 5 IEnMin= 5 EnMin= -78.3892324562947     IErMin= 5 ErrMin= 1.49D-04
 ErrMax= 1.49D-04  0.00D+00 EMaxC= 1.00D+00 BMatC= 1.81D-06 BMatP= 7.04D-05
 IDIUse=1 WtCom= 1.00D+00 WtEn= 0.00D+00
 Coeff-Com: -0.686D-03-0.127D-02-0.325D-01 0.532D-01 0.981D+00
 Coeff:     -0.686D-03-0.127D-02-0.325D-01 0.532D-01 0.981D+00
 Gap=     0.207 Goal=   None    Shift=    0.000
 Gap=     0.207 Goal=   None    Shift=    0.000
 RMSDP=9.73D-06 MaxDP=9.49D-05 DE=-2.24D-05 OVMax= 3.85D-04

 Cycle   6  Pass 1  IDiag  1:
 E= -78.3892331739669     Delta-E=       -0.000000717672 Rises=F Damp=F
 DIIS: error= 1.62D-05 at cycle   6 NSaved=   6.
 NSaved= 6 IEnMin= 6 EnMin= -78.3892331739669     IErMin= 6 ErrMin= 1.62D-05
 ErrMax= 1.62D-05  0.00D+00 EMaxC= 1.00D+00 BMatC= 2.38D-08 BMatP= 1.81D-06
 IDIUse=1 WtCom= 1.00D+00 WtEn= 0.00D+00
 Coeff-Com:  0.211D-03 0.151D-03-0.610D-02-0.170D-01-0.114D-02 0.102D+01
 Coeff:      0.211D-03 0.151D-03-0.610D-02-0.170D-01-0.114D-02 0.102D+01
 Gap=     0.207 Goal=   None    Shift=    0.000
 Gap=     0.207 Goal=   None    Shift=    0.000
 RMSDP=2.02D-06 MaxDP=1.63D-05 DE=-7.18D-07 OVMax= 8.45D-05

 Cycle   7  Pass 1  IDiag  1:
 E= -78.3892331892494     Delta-E=       -0.000000015283 Rises=F Damp=F
 DIIS: error= 1.75D-06 at cycle   7 NSaved=   7.
 NSaved= 7 IEnMin= 7 EnMin= -78.3892331892494     IErMin= 7 ErrMin= 1.75D-06
 ErrMax= 1.75D-06  0.00D+00 EMaxC= 1.00D+00 BMatC= 1.73D-10 BMatP= 2.38D-08
 IDIUse=1 WtCom= 1.00D+00 WtEn= 0.00D+00
 Coeff-Com:  0.313D-05-0.212D-06 0.814D-03 0.720D-03-0.142D-01-0.799D-01
 Coeff-Com:  0.109D+01
 Coeff:      0.313D-05-0.212D-06 0.814D-03 0.720D-03-0.142D-01-0.799D-01
 Coeff:      0.109D+01
 Gap=     0.207 Goal=   None    Shift=    0.000
 Gap=     0.207 Goal=   None    Shift=    0.000
 RMSDP=2.70D-07 MaxDP=2.24D-06 DE=-1.53D-08 OVMax= 1.30D-05

 Cycle   8  Pass 1  IDiag  1:
 E= -78.3892331894240     Delta-E=       -0.000000000175 Rises=F Damp=F
 DIIS: error= 2.56D-07 at cycle   8 NSaved=   8.
 NSaved= 8 IEnMin= 8 EnMin= -78.3892331894240     IErMin= 8 ErrMin= 2.56D-07
 ErrMax= 2.56D-07  0.00D+00 EMaxC= 1.00D+00 BMatC= 6.25D-12 BMatP= 1.73D-10
 IDIUse=1 WtCom= 1.00D+00 WtEn= 0.00D+00
 Coeff-Com: -0.113D-05-0.111D-06 0.777D-04 0.157D-03-0.583D-03-0.125D-01
 Coeff-Com:  0.621D-01 0.951D+00
 Coeff:     -0.113D-05-0.111D-06 0.777D-04 0.157D-03-0.583D-03-0.125D-01
 Coeff:      0.621D-01 0.951D+00
 Gap=     0.207 Goal=   None    Shift=    0.000
 Gap=     0.207 Goal=   None    Shift=    0.000
 RMSDP=3.67D-08 MaxDP=6.16D-07 DE=-1.75D-10 OVMax= 2.60D-06

 Cycle   9  Pass 1  IDiag  1:
 E= -78.3892331894175     Delta-E=        0.000000000006 Rises=F Damp=F
 DIIS: error= 6.49D-07 at cycle   9 NSaved=   9.
 NSaved= 9 IEnMin= 8 EnMin= -78.3892331894240     IErMin= 8 ErrMin= 2.56D-07
 ErrMax= 6.49D-07  0.00D+00 EMaxC= 1.00D+00 BMatC= 3.04D-11 BMatP= 6.25D-12
 IDIUse=1 WtCom= 1.00D+00 WtEn= 0.00D+00
 Coeff-Com: -0.130D-05-0.173D-08-0.440D-04 0.336D-04 0.139D-02 0.264D-03
 Coeff-Com: -0.921D-01 0.770D+00 0.320D+00
 Coeff:     -0.130D-05-0.173D-08-0.440D-04 0.336D-04 0.139D-02 0.264D-03
 Coeff:     -0.921D-01 0.770D+00 0.320D+00
 Gap=     0.207 Goal=   None    Shift=    0.000
 Gap=     0.207 Goal=   None    Shift=    0.000
 RMSDP=2.23D-08 MaxDP=3.64D-07 DE= 6.42D-12 OVMax= 1.82D-06

 Cycle  10  Pass 1  IDiag  1:
 E= -78.3892331894265     Delta-E=       -0.000000000009 Rises=F Damp=F
 DIIS: error= 6.52D-09 at cycle  10 NSaved=  10.
 NSaved=10 IEnMin=10 EnMin= -78.3892331894265     IErMin=10 ErrMin= 6.52D-09
 ErrMax= 6.52D-09  0.00D+00 EMaxC= 1.00D+00 BMatC= 8.77D-15 BMatP= 6.25D-12
 IDIUse=1 WtCom= 1.00D+00 WtEn= 0.00D+00
 Coeff-Com:  0.231D-06 0.333D-07 0.138D-05-0.701D-05-0.122D-03 0.331D-03
 Coeff-Com:  0.780D-02-0.111D+00-0.335D-01 0.114D+01
 Coeff:      0.231D-06 0.333D-07 0.138D-05-0.701D-05-0.122D-03 0.331D-03
 Coeff:      0.780D-02-0.111D+00-0.335D-01 0.114D+01
 Gap=     0.207 Goal=   None    Shift=    0.000
 Gap=     0.207 Goal=   None    Shift=    0.000
 RMSDP=1.78D-09 MaxDP=2.32D-08 DE=-9.00D-12 OVMax= 3.81D-08

 SCF Done:  E(UM062X) =  -78.3892331894     A.U. after   10 cycles
            NFock= 10  Conv=0.18D-08     -V/T= 2.0107
 <Sx>= 0.0000 <Sy>= 0.0000 <Sz>= 0.0000 <S**2>=-0.0000 S=-0.0000
 <L.S>=  0.00000000000    
 KE= 7.756257111433D+01 PE=-2.364969735393D+02 EE= 5.267394617844D+01
 Annihilation of the first spin contaminant:
 S**2 before annihilation    -0.0000,   after    -0.0000
 Leave Link  502 at Tue Nov 19 10:59:38 2024, MaxMem=   536870912 cpu:              46.1 elap:               5.9
 (Enter /home/szhao/Apps/g16/l701.exe)
 ... and contract with generalized density number  0.
 Compute integral first derivatives.
 Leave Link  701 at Tue Nov 19 10:59:38 2024, MaxMem=   536870912 cpu:               0.7 elap:               0.1
 (Enter /home/szhao/Apps/g16/l702.exe)
 L702 exits ... SP integral derivatives will be done elsewhere.
 Leave Link  702 at Tue Nov 19 10:59:38 2024, MaxMem=   536870912 cpu:               0.3 elap:               0.0
 (Enter /home/szhao/Apps/g16/l703.exe)
 Integral derivatives from FoFJK, PRISM(SPDF).
 Compute integral first derivatives, UseDBF=F ICtDFT=           0.
 Calling FoFJK, ICntrl=      2127 FMM=F ISym2X=0 I1Cent= 0 IOpClX= 1 NMat=1 NMatS=1 NMatT=0.
 FoFJK:  IHMeth= 1 ICntrl=    2127 DoSepK=F KAlg= 0 I1Cent=           0 FoldK=F
 IRaf=         0 NMat=       1 IRICut=       1 DoRegI=T DoRafI=F ISym2E= 0 IDoP0=0 IntGTp=1.
 FoFCou: FMM=F IPFlag=           0 FMFlag=      100000 FMFlg1=         800
         NFxFlg=           0 DoJE=F BraDBF=F KetDBF=F FulRan=T
         wScrn=  0.000000 ICntrl=      2127 IOpCl=  1 I1Cent=           0 NGrid=           0
         NMat0=    1 NMatS0=      1 NMatT0=    0 NMatD0=    1 NMtDS0=    0 NMtDT0=    0
 Symmetry not used in FoFCou.
 Leave Link  703 at Tue Nov 19 10:59:40 2024, MaxMem=   536870912 cpu:               8.4 elap:               1.1
 (Enter /home/szhao/Apps/g16/l716.exe)
 Dipole        = 3.22231131D-10 9.59232693D-14 2.33656199D-15
 -------------------------------------------------------------------
 Center     Atomic                   Forces (Hartrees/Bohr)
 Number     Number              X              Y              Z
 -------------------------------------------------------------------
      1        6          -0.000000000   -0.000000000   -0.000000000
      2        6          -0.000000000   -0.000000000   -0.000000000
      3        1           0.003923418   -0.026131342   -0.000000000
      4        1           0.003899339    0.026032308   -0.000000000
      5        1          -0.003923418    0.026131342    0.000000000
      6        1          -0.003899339   -0.026032308    0.000000000
 -------------------------------------------------------------------
 Cartesian Forces:  Max     0.026131342 RMS     0.012432601
 Leave Link  716 at Tue Nov 19 10:59:40 2024, MaxMem=   536870912 cpu:               0.3 elap:               0.0
 (Enter /home/szhao/Apps/g16/l103.exe)

 GradGradGradGradGradGradGradGradGradGradGradGradGradGradGradGradGradGrad
 Berny optimization.
 Using GEDIIS/GDIIS optimizer.
 FormGI is forming the generalized inverse of G from B-inverse, IUseBI=4.
 Internal  Forces:  Max     0.023265032 RMS     0.012857646
 Search for a local minimum.
 Step number   3 out of a maximum of   30
 All quantities printed in internal units (Hartrees-Bohrs-Radians)
 RMS Force = .15080D-01 SwitMx=.10000D-02 MixMth= 1
 Mixed Optimization -- RFO/linear search
 Update second derivatives using D2CorX and points    2    3
 The second derivative matrix:
                          X1        Y1        Z1        X2        Y2
           X1           0.62410
           Y1          -0.00036   0.50000
           Z1           0.00000  -0.00000   0.50000
           X2          -0.12410   0.00036  -0.00000   0.62410
           Y2           0.00036  -0.00000   0.00000  -0.00036   0.50000
           Z2          -0.00000   0.00000  -0.00000   0.00000  -0.00000
           R1          -0.08899   0.00026  -0.00000   0.08899  -0.00026
           R2          -0.08898   0.00026  -0.00000   0.08898  -0.00026
           R3          -0.08899   0.00026  -0.00000   0.08899  -0.00026
           R4          -0.08898   0.00026  -0.00000   0.08898  -0.00026
           A1          -0.01104   0.00003  -0.00000   0.01104  -0.00003
           A2          -0.01094   0.00003  -0.00000   0.01094  -0.00003
           A3           0.02198  -0.00006   0.00000  -0.02198   0.00006
           A4          -0.01104   0.00003  -0.00000   0.01104  -0.00003
           A5          -0.01094   0.00003  -0.00000   0.01094  -0.00003
           A6           0.02198  -0.00006   0.00000  -0.02198   0.00006
           D1          -0.00000   0.00000  -0.00000   0.00000  -0.00000
           D2           0.00000  -0.00000   0.00000  -0.00000   0.00000
           D3          -0.00000   0.00000  -0.00000   0.00000  -0.00000
           D4          -0.00000   0.00000  -0.00000   0.00000  -0.00000
                          Z2        R1        R2        R3        R4
           Z2           0.50000
           R1           0.00000   0.24465
           R2           0.00000   0.02575   0.24459
           R3           0.00000   0.02575   0.02575   0.24465
           R4           0.00000   0.02575   0.02574   0.02575   0.24459
           A1           0.00000  -0.00460  -0.00460  -0.00460  -0.00460
           A2           0.00000  -0.00449  -0.00449  -0.00449  -0.00449
           A3          -0.00000   0.00910   0.00910   0.00910   0.00910
           A4           0.00000  -0.00460  -0.00460  -0.00460  -0.00460
           A5           0.00000  -0.00449  -0.00449  -0.00449  -0.00449
           A6          -0.00000   0.00910   0.00910   0.00910   0.00910
           D1           0.00000   0.00000   0.00000   0.00000   0.00000
           D2          -0.00000  -0.00000  -0.00000  -0.00000  -0.00000
           D3           0.00000   0.00000   0.00000   0.00000   0.00000
           D4           0.00000   0.00000   0.00000   0.00000   0.00000
                          A1        A2        A3        A4        A5
           A1           0.15686
           A2          -0.00309   0.15696
           A3           0.00622   0.00612   0.14766
           A4          -0.00314  -0.00309   0.00622   0.15686
           A5          -0.00309  -0.00304   0.00612  -0.00309   0.15696
           A6           0.00622   0.00612  -0.01234   0.00622   0.00612
           D1           0.00000   0.00000  -0.00000   0.00000   0.00000
           D2          -0.00000  -0.00000   0.00000  -0.00000  -0.00000
           D3           0.00000   0.00000  -0.00000   0.00000   0.00000
           D4           0.00000   0.00000  -0.00000   0.00000   0.00000
                          A6        D1        D2        D3        D4
           A6           0.14766
           D1          -0.00000   0.00230
           D2           0.00000  -0.00000   0.00230
           D3          -0.00000   0.00000  -0.00000   0.00230
           D4          -0.00000   0.00000  -0.00000   0.00000   0.00230
 ITU=  0  1  0
 Use linear search instead of GDIIS.
     Eigenvalues ---    0.00230   0.00230   0.00230   0.11809   0.16000
     Eigenvalues ---    0.16000   0.16000   0.21886   0.21888   0.21890
     Eigenvalues ---    0.326731000.000001000.000001000.000001000.00000
     Eigenvalues --- 1000.000001000.000001000.000001000.000001000.00000
 RFO step:  Lambda=-1.46912866D-02 EMin= 2.30000000D-03
 Quartic linear search produced a step of -0.03968.
 Iteration  1 RMS(Cart)=  0.07430988 RMS(Int)=  0.00316951
 Iteration  2 RMS(Cart)=  0.00330159 RMS(Int)=  0.00000478
 Iteration  3 RMS(Cart)=  0.00000546 RMS(Int)=  0.00000000
 Iteration  4 RMS(Cart)=  0.00000000 RMS(Int)=  0.00000000
 ITry= 1 IFail=0 DXMaxC= 1.22D-01 DCOld= 1.00D+10 DXMaxT= 5.05D-01 DXLimC= 3.00D+00 Rises=F
 Variable       Old X    -DE/DX   Delta X   Delta X   Delta X     New X
                                 (Linear)    (Quad)   (Total)
    X1       -1.82886   0.00782   0.00000   0.00000   0.00000  -1.82886
    Y1        0.00000  -0.00024   0.00000   0.00000   0.00000   0.00000
    Z1        0.00000  -0.00000   0.00000   0.00000   0.00000   0.00000
    X2        1.82886  -0.00782   0.00000   0.00000   0.00000   1.82886
    Y2        0.00000   0.00024   0.00000   0.00000   0.00000   0.00000
    Z2        0.00000   0.00000   0.00000   0.00000   0.00000   0.00000
    R1        1.99639   0.01976   0.00914   0.03513   0.04427   2.04066
    R2        1.99644   0.01974   0.00915   0.03505   0.04419   2.04064
    R3        1.99639   0.01976   0.00914   0.03513   0.04427   2.04066
    R4        1.99644   0.01974   0.00915   0.03505   0.04419   2.04064
    A1        2.14791  -0.01176   0.00412  -0.08518  -0.08106   2.06685
[...]
           A6           0.02978  -0.00005  -0.00000  -0.02978   0.00005
           D1          -0.00000  -0.00000   0.00000   0.00000   0.00000
           D2           0.00000   0.00000  -0.00000  -0.00000  -0.00000
           D3           0.00000   0.00000  -0.00000  -0.00000  -0.00000
           D4           0.00000   0.00000  -0.00000  -0.00000  -0.00000
                          Z2        R1        R2        R3        R4
           Z2           0.50000
           R1           0.00000   0.26029
           R2           0.00000   0.04083   0.25914
           R3           0.00000   0.04140   0.04083   0.26029
           R4           0.00000   0.04083   0.04028   0.04084   0.25914
           A1           0.00000  -0.00187  -0.00193  -0.00187  -0.00193
           A2           0.00000  -0.00203  -0.00209  -0.00203  -0.00209
           A3          -0.00000   0.00389   0.00402   0.00389   0.00402
           A4           0.00000  -0.00187  -0.00193  -0.00187  -0.00193
           A5           0.00000  -0.00203  -0.00209  -0.00203  -0.00209
           A6          -0.00000   0.00389   0.00402   0.00389   0.00402
           D1           0.00000   0.00000   0.00000   0.00000   0.00000
           D2          -0.00000  -0.00000  -0.00000  -0.00000  -0.00000
           D3          -0.00000  -0.00000  -0.00000  -0.00000  -0.00000
           D4          -0.00000  -0.00000  -0.00000  -0.00000  -0.00000
                          A1        A2        A3        A4        A5
           A1           0.15376
           A2          -0.00610   0.15404
           A3           0.01234   0.01206   0.13560
           A4          -0.00624  -0.00610   0.01234   0.15376
           A5          -0.00610  -0.00596   0.01206  -0.00610   0.15404
           A6           0.01234   0.01206  -0.02440   0.01234   0.01206
           D1           0.00000   0.00000  -0.00000   0.00000   0.00000
           D2          -0.00000  -0.00000   0.00000  -0.00000  -0.00000
           D3          -0.00000  -0.00000   0.00000  -0.00000  -0.00000
           D4          -0.00000  -0.00000   0.00000  -0.00000  -0.00000
                          A6        D1        D2        D3        D4
           A6           0.13560
           D1          -0.00000   0.00230
           D2           0.00000  -0.00000   0.00230
           D3           0.00000  -0.00000   0.00000   0.00230
           D4           0.00000  -0.00000   0.00000   0.00000   0.00230
 ITU=  1  1  1  0  1  0
     Eigenvalues ---    0.00230   0.00230   0.00230   0.08616   0.16000
     Eigenvalues ---    0.16000   0.16000   0.21886   0.21888   0.21890
     Eigenvalues ---    0.382871000.000001000.000001000.000001000.00000
     Eigenvalues --- 1000.000001000.000001000.000001000.000001000.00000
 En-DIIS/RFO-DIIS/Sim-DIIS IScMMF=       -3 using points:     6    5
 RFO step:  Lambda=-5.86778905D-08.
 NNeg= 0 NGDIIS= 2 SimSw=  2.50D-01 Rises=F DC= -9.17D-06 SmlDif=  1.00D-05
 NRisDI= 0 DoIntr=F SqrtH=F CThrHd= 10.0 CDAdj=  3.0
 RMS Error=  0.9301329862D-04 NUsed= 2 OKEnD=F EnDIS=F
 InvSVX:  RCond= 1.14D-04 Info=           0 Equed=N FErr=  9.13D-16 BErr=  1.12D-17
 DidBck=F Rises=F RFO-DIIS coefs:    0.97323    0.02677
 Iteration  1 RMS(Cart)=  0.00009311 RMS(Int)=  0.00000000
 Iteration  2 RMS(Cart)=  0.00000000 RMS(Int)=  0.00000000
 ITry= 1 IFail=0 DXMaxC= 1.98D-04 DCOld= 1.00D+10 DXMaxT= 8.49D-01 DXLimC= 3.00D+00 Rises=F
 Variable       Old X    -DE/DX   Delta X   Delta X   Delta X     New X
                                 (Linear)    (Quad)   (Total)
    X1       -1.82886   0.00007   0.00000   0.00000   0.00000  -1.82886
    Y1        0.00000   0.00001   0.00000   0.00000   0.00000   0.00000
    Z1        0.00000  -0.00000   0.00000   0.00000   0.00000   0.00000
    X2        1.82886  -0.00007   0.00000   0.00000   0.00000   1.82886
    Y2        0.00000  -0.00001   0.00000   0.00000   0.00000   0.00000
    Z2        0.00000  -0.00000   0.00000   0.00000   0.00000   0.00000
    R1        2.03793  -0.00008  -0.00009  -0.00013  -0.00022   2.03771
    R2        2.03791  -0.00008  -0.00009  -0.00010  -0.00019   2.03772
    R3        2.03793  -0.00008  -0.00009  -0.00014  -0.00022   2.03771
    R4        2.03791  -0.00008  -0.00009  -0.00010  -0.00019   2.03772
    A1        2.02672   0.00000  -0.00006   0.00006  -0.00000   2.02672
    A2        2.02671   0.00000  -0.00006   0.00006   0.00001   2.02671
    A3        2.22975  -0.00000   0.00012  -0.00012  -0.00000   2.22975
    A4        2.02672   0.00000  -0.00006   0.00006  -0.00000   2.02672
    A5        2.02671   0.00000  -0.00006   0.00006   0.00001   2.02671
    A6        2.22975  -0.00000   0.00012  -0.00012  -0.00000   2.22975
    D1        3.14159  -0.00000   0.00000  -0.00000  -0.00000   3.14159
    D2       -0.00000   0.00000   0.00000   0.00000   0.00000   0.00000
    D3        0.00000   0.00000   0.00000   0.00000  -0.00000   0.00000
    D4        3.14159   0.00000   0.00000   0.00000   0.00000  -3.14159
         Item               Value     Threshold  Converged?
 Maximum Force            0.000083     0.000450     YES
 RMS     Force            0.000042     0.000300     YES
 Maximum Displacement     0.000198     0.001800     YES
 RMS     Displacement     0.000093     0.001200     YES
 Predicted change in Energy=-3.300115D-08
 Optimization completed.
    -- Stationary point found.
                           ----------------------------
                           !   Optimized Parameters   !
                           ! (Angstroms and Degrees)  !
 --------------------------                            --------------------------
 ! Name  Definition              Value          Derivative Info.                !
 --------------------------------------------------------------------------------
 ! X1    R(1,-1)                -0.9678         -DE/DX =    0.0001              !
 ! Y1    R(1,-2)                 0.0            -DE/DX =    0.0                 !
 ! Z1    R(1,-3)                 0.0            -DE/DX =    0.0                 !
 ! X2    R(2,-1)                 0.9678         -DE/DX =   -0.0001              !
 ! Y2    R(2,-2)                 0.0            -DE/DX =    0.0                 !
 ! Z2    R(2,-3)                 0.0            -DE/DX =    0.0                 !
 ! R1    R(1,3)                  1.0784         -DE/DX =   -0.0001              !
 ! R2    R(1,4)                  1.0784         -DE/DX =   -0.0001              !
 ! R3    R(2,5)                  1.0784         -DE/DX =   -0.0001              !
 ! R4    R(2,6)                  1.0784         -DE/DX =   -0.0001              !
 ! A1    A(2,1,3)              116.1228         -DE/DX =    0.0                 !
 ! A2    A(2,1,4)              116.1218         -DE/DX =    0.0                 !
 ! A3    A(3,1,4)              127.7554         -DE/DX =    0.0                 !
 ! A4    A(1,2,5)              116.1228         -DE/DX =    0.0                 !
 ! A5    A(1,2,6)              116.1218         -DE/DX =    0.0                 !
 ! A6    A(5,2,6)              127.7554         -DE/DX =    0.0                 !
 ! D1    D(3,1,2,5)            180.0            -DE/DX =    0.0                 !
 ! D2    D(3,1,2,6)              0.0            -DE/DX =    0.0                 !
 ! D3    D(4,1,2,5)              0.0            -DE/DX =    0.0                 !
 ! D4    D(4,1,2,6)           -180.0            -DE/DX =    0.0                 !
 --------------------------------------------------------------------------------
 Lowest energy point so far.  Saving SCF results.
 Largest change from initial coordinates is atom    5       0.355 Angstoms.
 GradGradGradGradGradGradGradGradGradGradGradGradGradGradGradGradGradGrad

 Leave Link  103 at Tue Nov 19 11:00:00 2024, MaxMem=   536870912 cpu:               0.1 elap:               0.0
 (Enter /home/szhao/Apps/g16/l202.exe)
                          Input orientation:                          
 ---------------------------------------------------------------------
 Center     Atomic      Atomic             Coordinates (Angstroms)
 Number     Number       Type             X           Y           Z
 ---------------------------------------------------------------------
      1          6           0       -0.967793    0.000000    0.000000
      2          6           0        0.967793    0.000000    0.000000
      3          1           0       -1.442620   -0.968268    0.000000
      4          1           0       -1.442599    0.968266    0.000000
      5          1           0        1.442620    0.968268    0.000000
      6          1           0        1.442599   -0.968266    0.000000
 ---------------------------------------------------------------------
                    Distance matrix (angstroms):
                    1          2          3          4          5
     1  C    0.000000
     2  C    1.935586   0.000000
     3  H    1.078427   2.597621   0.000000
     4  H    1.078416   2.597601   1.936535   0.000000
     5  H    2.597621   1.078427   3.474879   2.885219   0.000000
     6  H    2.597601   1.078416   2.885219   3.474842   1.936535
                    6
     6  H    0.000000
 Symmetry turned off by external request.
 Stoichiometry    C2H4
 Framework group  CS[SG(C2H4)]
 Deg. of freedom     9
 Full point group                 CS      NOp   2
 Rotational constants (GHZ):         133.7154183          16.3719490          14.5860511
 Leave Link  202 at Tue Nov 19 11:00:00 2024, MaxMem=   536870912 cpu:               0.0 elap:               0.0
 (Enter /home/szhao/Apps/g16/l601.exe)
 Copying SCF densities to generalized density rwf, IOpCl= 1 IROHF=0.

 **********************************************************************

            Population analysis using the SCF density.

 **********************************************************************

 Alpha  occ. eigenvalues --  -10.60596 -10.60580  -0.77934  -0.71030  -0.52952
 Alpha  occ. eigenvalues --   -0.49233  -0.39008  -0.26634
 Alpha virt. eigenvalues --   -0.05797   0.02433   0.03363   0.05394   0.07401
 Alpha virt. eigenvalues --    0.08997   0.09839   0.11267   0.11467   0.15466
 Alpha virt. eigenvalues --    0.16508   0.21082   0.21196   0.28360   0.39955
 Alpha virt. eigenvalues --    0.43845   0.45534   0.59114   0.61863   0.62616
 Alpha virt. eigenvalues --    0.65324   0.68750   0.70146   0.75107   0.76869
 Alpha virt. eigenvalues --    0.82738   1.07875   1.10284   1.13425   1.24959
 Alpha virt. eigenvalues --    1.40849   1.43700   1.49769   1.50895   1.53139
 Alpha virt. eigenvalues --    1.63845   1.73785   1.81754   1.87092   1.89938
 Alpha virt. eigenvalues --    1.96023   1.98177   2.05601   2.06560   2.36489
 Alpha virt. eigenvalues --    2.52775   2.58199   2.59783   2.61838   2.62807
 Alpha virt. eigenvalues --    2.68817   2.72235   2.75808   2.78024   2.80451
 Alpha virt. eigenvalues --    3.54021   3.72356   3.76671  23.81064  23.84831
  Beta  occ. eigenvalues --  -10.60596 -10.60580  -0.77934  -0.71030  -0.52952
  Beta  occ. eigenvalues --   -0.49233  -0.39008  -0.26634
  Beta virt. eigenvalues --   -0.05797   0.02433   0.03363   0.05394   0.07401
  Beta virt. eigenvalues --    0.08997   0.09839   0.11267   0.11467   0.15466
  Beta virt. eigenvalues --    0.16508   0.21082   0.21196   0.28360   0.39955
  Beta virt. eigenvalues --    0.43845   0.45534   0.59114   0.61863   0.62616
  Beta virt. eigenvalues --    0.65324   0.68750   0.70146   0.75107   0.76869
  Beta virt. eigenvalues --    0.82738   1.07875   1.10284   1.13425   1.24959
  Beta virt. eigenvalues --    1.40849   1.43700   1.49769   1.50895   1.53139
  Beta virt. eigenvalues --    1.63845   1.73785   1.81754   1.87092   1.89938
  Beta virt. eigenvalues --    1.96023   1.98177   2.05601   2.06560   2.36489
  Beta virt. eigenvalues --    2.52775   2.58199   2.59783   2.61838   2.62807
  Beta virt. eigenvalues --    2.68817   2.72235   2.75808   2.78024   2.80451
  Beta virt. eigenvalues --    3.54021   3.72356   3.76671  23.81064  23.84831
          Condensed to atoms (all electrons):
               1          2          3          4          5          6
     1  C    5.120073   0.502891   0.388539   0.388540  -0.022336  -0.022337
     2  C    0.502891   5.120073  -0.022336  -0.022337   0.388539   0.388540
     3  H    0.388539  -0.022336   0.476177  -0.021744   0.001339   0.000340
     4  H    0.388540  -0.022337  -0.021744   0.476178   0.000340   0.001339
     5  H   -0.022336   0.388539   0.001339   0.000340   0.476177  -0.021744
     6  H   -0.022337   0.388540   0.000340   0.001339  -0.021744   0.476178
          Atomic-Atomic Spin Densities.
               1          2          3          4          5          6
     1  C    0.000000  -0.000000   0.000000  -0.000000   0.000000  -0.000000
     2  C   -0.000000  -0.000000  -0.000000   0.000000   0.000000   0.000000
     3  H    0.000000  -0.000000  -0.000000   0.000000   0.000000  -0.000000
     4  H   -0.000000   0.000000   0.000000  -0.000000  -0.000000   0.000000
     5  H    0.000000   0.000000   0.000000  -0.000000   0.000000  -0.000000
     6  H   -0.000000   0.000000  -0.000000   0.000000  -0.000000   0.000000
 Mulliken charges and spin densities:
               1          2
     1  C   -0.355370   0.000000
     2  C   -0.355370  -0.000000
     3  H    0.177685  -0.000000
     4  H    0.177684  -0.000000
     5  H    0.177685   0.000000
     6  H    0.177684   0.000000
 Sum of Mulliken charges =  -0.00000   0.00000
 Mulliken charges and spin densities with hydrogens summed into heavy atoms:
               1          2
     1  C   -0.000000   0.000000
     2  C    0.000000  -0.000000
 Electronic spatial extent (au):  <R**2>=            114.1021
 Charge=             -0.0000 electrons
 Dipole moment (field-independent basis, Debye):
    X=              0.0000    Y=              0.0000    Z=              0.0000  Tot=              0.0000
 Quadrupole moment (field-independent basis, Debye-Ang):
   XX=            -11.3803   YY=            -12.1205   ZZ=            -17.9879
   XY=              0.0001   XZ=              0.0000   YZ=              0.0000
 Traceless Quadrupole moment (field-independent basis, Debye-Ang):
   XX=              2.4493   YY=              1.7090   ZZ=             -4.1583
   XY=              0.0001   XZ=              0.0000   YZ=              0.0000
 Octapole moment (field-independent basis, Debye-Ang**2):
  XXX=             -0.0000  YYY=              0.0000  ZZZ=             -0.0000  XYY=              0.0000
  XXY=             -0.0000  XXZ=              0.0000  XZZ=             -0.0000  YZZ=             -0.0000
  YYZ=              0.0000  XYZ=             -0.0000
 Hexadecapole moment (field-independent basis, Debye-Ang**3):
 XXXX=           -110.9114 YYYY=            -27.2357 ZZZZ=            -28.5860 XXXY=              0.0002
 XXXZ=             -0.0000 YYYX=             -0.0001 YYYZ=              0.0000 ZZZX=             -0.0000
 ZZZY=              0.0000 XXYY=            -17.3535 XXZZ=            -26.1150 YYZZ=            -10.3438
 XXYZ=              0.0000 YYXZ=              0.0000 ZZXY=             -0.0001
 N-N= 2.772600475697D+01 E-N=-2.361905490987D+02  KE= 7.745039512941D+01
                          Isotropic Fermi Contact Couplings
        Atom                 a.u.       MegaHertz       Gauss      10(-4) cm-1
     1  C(13)              0.00000       0.00000       0.00000       0.00000
     2  C(13)             -0.00000      -0.00000      -0.00000      -0.00000
     3  H(1)              -0.00000      -0.00000      -0.00000      -0.00000
     4  H(1)              -0.00000      -0.00000      -0.00000      -0.00000
     5  H(1)               0.00000       0.00000       0.00000       0.00000
     6  H(1)               0.00000       0.00000       0.00000       0.00000
 --------------------------------------------------------
       Center         ----  Spin Dipole Couplings  ----
                      3XX-RR        3YY-RR        3ZZ-RR
 --------------------------------------------------------
     1   Atom        0.000000      0.000000      0.000000
     2   Atom        0.000000      0.000000      0.000000
     3   Atom        0.000000      0.000000      0.000000
     4   Atom        0.000000      0.000000      0.000000
     5   Atom        0.000000      0.000000      0.000000
     6   Atom        0.000000      0.000000      0.000000
 --------------------------------------------------------
                        XY            XZ            YZ
 --------------------------------------------------------
     1   Atom        0.000000      0.000000      0.000000
     2   Atom        0.000000      0.000000      0.000000
     3   Atom        0.000000      0.000000      0.000000
     4   Atom        0.000000      0.000000      0.000000
     5   Atom        0.000000      0.000000      0.000000
     6   Atom        0.000000      0.000000      0.000000
 --------------------------------------------------------


 ---------------------------------------------------------------------------------
              Anisotropic Spin Dipole Couplings in Principal Axis System
 ---------------------------------------------------------------------------------

       Atom             a.u.   MegaHertz   Gauss  10(-4) cm-1        Axes

              Baa     0.0000     0.000     0.000     0.000  1.0000  0.0000  0.0000
     1 C(13)  Bbb     0.0000     0.000     0.000     0.000 -0.0000  1.0000  0.0000
              Bcc     0.0000     0.000     0.000     0.000  0.0000  0.0000  1.0000
 
              Baa     0.0000     0.000     0.000     0.000  1.0000  0.0000  0.0000
     2 C(13)  Bbb     0.0000     0.000     0.000     0.000 -0.0000  1.0000  0.0000
              Bcc     0.0000     0.000     0.000     0.000  0.0000  0.0000  1.0000
 
              Baa     0.0000     0.000     0.000     0.000  1.0000  0.0000  0.0000
     3 H(1)   Bbb     0.0000     0.000     0.000     0.000 -0.0000  1.0000  0.0000
              Bcc     0.0000     0.000     0.000     0.000  0.0000  0.0000  1.0000
 
              Baa     0.0000     0.000     0.000     0.000  1.0000  0.0000  0.0000
     4 H(1)   Bbb     0.0000     0.000     0.000     0.000 -0.0000  1.0000  0.0000
              Bcc     0.0000     0.000     0.000     0.000  0.0000  0.0000  1.0000
 
              Baa     0.0000     0.000     0.000     0.000  1.0000  0.0000  0.0000
     5 H(1)   Bbb     0.0000     0.000     0.000     0.000 -0.0000  1.0000  0.0000
              Bcc     0.0000     0.000     0.000     0.000  0.0000  0.0000  1.0000
 
              Baa     0.0000     0.000     0.000     0.000  1.0000  0.0000  0.0000
     6 H(1)   Bbb     0.0000     0.000     0.000     0.000 -0.0000  1.0000  0.0000
              Bcc     0.0000     0.000     0.000     0.000  0.0000  0.0000  1.0000
 

 ---------------------------------------------------------------------------------

 No NMR shielding tensors so no spin-rotation constants.
 Leave Link  601 at Tue Nov 19 11:00:00 2024, MaxMem=   536870912 cpu:               0.9 elap:               0.1
 (Enter /home/szhao/Apps/g16/l9999.exe)
 1\1\GINC-NODE01\FOpt\UM062X\6-311+G(d,p)\C2H4\SZHAO\19-Nov-2024\0\\#p 
 opt UM062X/6-311+G** nosymm int=superfine\\Title Card Required\\0,1\C,
 -0.96779312,0.,0.\C,0.96779312,0.,0.\H,-1.4426199301,-0.9682682564,0.0
 000000002\H,-1.4425989117,0.9682664162,0.0000000004\H,1.442619926,0.96
 82682893,0.0000000007\H,1.4425989076,-0.968266449,0.000000001\\Version
 =ES64L-G16RevA.03\HF=-78.3989066\S2=0.\S2-1=0.\S2A=0.\RMSD=1.213e-09\R
 MSF=3.743e-05\Dipole=0.,0.,0.\Quadrupole=1.8209893,1.2706132,-3.091602
 5,0.0000388,0.,0.\PG=CS [SG(C2H4)]\\@


 The impersonal hand of government can
 never replace the helping hand of a neighbor.
                        -- Hubert H. Humphrey
 Job cpu time:       0 days  0 hours  5 minutes 19.5 seconds.
 Elapsed time:       0 days  0 hours  0 minutes 40.6 seconds.
 File lengths (MBytes):  RWF=     10 Int=      0 D2E=      0 Chk=      2 Scr=      1
 Normal termination of Gaussian 16 at Tue Nov 19 11:00:00 2024.
