 Entering Gaussian System, Link 0=g16
 Initial command:
 /home/szhao/Apps/g16/l1.exe "/home/szhao/tmp/Gau-45204.inp" -scrdir="/home/szhao/tmp/"
 Default is to use a total of  16 processors:
                               16 via shared-memory
                                1 via Linda
 Entering Link 1 = /home/szhao/Apps/g16/l1.exe PID=     45205.
  
 Copyright (c) 1988,1990,1992,1993,1995,1998,2003,2009,2016,
            Gaussian, Inc.  All Rights Reserved.
  
 This is part of the Gaussian(R) 16 program.  It is based on
 the Gaussian(R) 09 system (copyright 2009, Gaussian, Inc.),
 the Gaussian(R) 03 system (copyright 2003, Gaussian, Inc.),
 the Gaussian(R) 98 system (copyright 1998, Gaussian, Inc.),
 the Gaussian(R) 94 system (copyright 1995, Gaussian, Inc.),
 the Gaussian 92(TM) system (copyright 1992, Gaussian, Inc.),
 the Gaussian 90(TM) system (copyright 1990, Gaussian, Inc.),
 the Gaussian 88(TM) system (copyright 1988, Gaussian, Inc.),
 the Gaussian 86(TM) system (copyright 1986, Carnegie Mellon
 University), and the Gaussian 82(TM) system (copyright 1983,
 Carnegie Mellon University). Gaussian is a federally registered
 trademark of Gaussian, Inc.
  
 This software contains proprietary and confidential information,
 including trade secrets, belonging to Gaussian, Inc.
  
 This software is provided under written license and may be
 used, copied, transmitted, or stored only in accord with that
 written license.
  
 The following legend is applicable only to US Government
 contracts under FAR:
  
                    RESTRICTED RIGHTS LEGEND
  
 Use, reproduction and disclosure by the US Government is
 subject to restrictions as set forth in subparagraphs (a)
 and (c) of the Commercial Computer Software - Restricted
 Rights clause in FAR 52.227-19.
  
 Gaussian, Inc.
 340 Quinnipiac St., Bldg. 40, Wallingford CT 06492
  
  
 ---------------------------------------------------------------
 Warning -- This program may not be used in any manner that
 competes with the business of Gaussian, Inc. or will provide
 assistance to any competitor of Gaussian, Inc.  The licensee
 of this program is prohibited from giving any competitor of
 Gaussian, Inc. access to this program.  By using this program,
 the user acknowledges that Gaussian, Inc. is engaged in the
 business of creating and licensing software in the field of
 computational chemistry and represents and warrants to the
 licensee that it is not a competitor of Gaussian, Inc. and that
 it will not use this program in any manner prohibited above.
 ---------------------------------------------------------------
  

 Cite this work as:
 Gaussian 16, Revision A.03,
 M. J. Frisch, G. W. Trucks, H. B. Schlegel, G. E. Scuseria, 
 M. A. Robb, J. R. Cheeseman, G. Scalmani, V. Barone, 
 G. A. Petersson, H. Nakatsuji, X. Li, M. Caricato, A. V. Marenich, 
 J. Bloino, B. G. Janesko, R. Gomperts, B. Mennucci, H. P. Hratchian, 
 J. V. Ortiz, A. F. Izmaylov, J. L. Sonnenberg, D. Williams-Young, 
 F. Ding, F. Lipparini, F. Egidi, J. Goings, B. Peng, A. Petrone, 
 T. Henderson, D. Ranasinghe, V. G. Zakrzewski, J. Gao, N. Rega, 
 G. Zheng, W. Liang, M. Hada, M. Ehara, K. Toyota, R. Fukuda, 
 J. Hasegawa, M. Ishida, T. Nakajima, Y. Honda, O. Kitao, H. Nakai, 
 T. Vreven, K. Throssell, J. A. Montgomery, Jr., J. E. Peralta, 
 F. Ogliaro, M. J. Bearpark, J. J. Heyd, E. N. Brothers, K. N. Kudin, 
 V. N. Staroverov, T. A. Keith, R. Kobayashi, J. Normand, 
 K. Raghavachari, A. P. Rendell, J. C. Burant, S. S. Iyengar, 
 J. Tomasi, M. Cossi, J. M. Millam, M. Klene, C. Adamo, R. Cammi, 
 J. W. Ochterski, R. L. Martin, K. Morokuma, O. Farkas, 
 J. B. Foresman, and D. J. Fox, Gaussian, Inc., Wallingford CT, 2016.
 
 ******************************************
 Gaussian 16:  ES64L-G16RevA.03 25-Dec-2016
                21-Apr-2025 
 ******************************************
 %chk=opt.chk
 %mem=4GB
 %nprocshared=8
 Will use up to    8 processors via shared memory.
 --------------------------------------------
 #p opt UM062X/6-311+G** nosymm int=superfine
 --------------------------------------------
 1/18=20,19=15,26=5,38=1/1,3;
 2/9=110,12=2,15=1,17=6,18=5,40=1/2;
 3/5=4,6=6,7=111,11=2,25=1,30=1,71=1,74=-55,75=-7,116=2/1,2,3;
 4//1;
 5/5=2,38=5/2;
 6/7=2,8=2,9=2,10=2,28=1/1;
 7/30=1/1,2,3,16;
 1/18=20,19=15,26=5/3(2);
 2/9=110,15=1/2;
 99//99;
 2/9=110,15=1/2;
 3/5=4,6=6,7=111,11=2,25=1,30=1,71=1,74=-55,75=-7,116=2/1,2,3;
 4/5=5,16=3,69=1/1;
 5/5=2,38=5/2;
 7/30=1/1,2,3,16;
 1/18=20,19=15,26=5/3(-5);
 2/9=110,15=1/2;
 6/7=2,8=2,9=2,10=2,19=2,28=1/1;
 99/9=1/99;
 Leave Link    1 at Mon Apr 21 19:07:21 2025, MaxMem=   536870912 cpu:               1.4 elap:               0.2
 (Enter /home/szhao/Apps/g16/l101.exe)
 -------------------
 Title Card Required
 -------------------
 Symbolic Z-matrix:
 Charge =  0 Multiplicity = 1
 C                    -1   -1.18045   0.        0. 
 P                    -1    1.18045   0.        0. 
 H                    0    -1.8013   -0.88884   0. 
 H                    0     1.36087  -1.41088   0.00126 
 H                    0    -1.71344   0.94545   0.00009 
 
 Add virtual bond connecting atoms P2         and C1         Dist= 4.46D+00.
 ITRead=  2  2  0  0  0
 MicOpt= -2 -2 -1 -1 -1
 NAtoms=      5 NQM=        3 NQMF=       2 NMMI=      0 NMMIF=      0
                NMic=       0 NMicF=      0.
                    Isotopes and Nuclear Properties:
 (Nuclear quadrupole moments (NQMom) in fm**2, nuclear magnetic moments (NMagM)
  in nuclear magnetons)

  Atom         1           2           3           4           5
 IAtWgt=          12          31           1           1           1
 AtmWgt=  12.0000000  30.9737634   1.0078250   1.0078250   1.0078250
 NucSpn=           0           1           1           1           1
 AtZEff=  -0.0000000  -0.0000000  -0.0000000  -0.0000000  -0.0000000
 NQMom=    0.0000000   0.0000000   0.0000000   0.0000000   0.0000000
 NMagM=    0.0000000   1.1316000   2.7928460   2.7928460   2.7928460
 AtZNuc=   6.0000000  15.0000000   1.0000000   1.0000000   1.0000000
 Leave Link  101 at Mon Apr 21 19:07:22 2025, MaxMem=   536870912 cpu:               4.5 elap:               0.6
 (Enter /home/szhao/Apps/g16/l103.exe)

 GradGradGradGradGradGradGradGradGradGradGradGradGradGradGradGradGradGrad
 Berny optimization.
 Initialization pass.
                           ----------------------------
                           !    Initial Parameters    !
                           ! (Angstroms and Degrees)  !
 --------------------------                            --------------------------
 ! Name  Definition              Value          Derivative Info.                !
 --------------------------------------------------------------------------------
 ! X1    R(1,-1)                -1.1805         Frozen                          !
 ! Y1    R(1,-2)                 0.0            Frozen                          !
 ! Z1    R(1,-3)                 0.0            Frozen                          !
 ! X2    R(2,-1)                 1.1805         Frozen                          !
 ! Y2    R(2,-2)                 0.0            Frozen                          !
 ! Z2    R(2,-3)                 0.0            Frozen                          !
 ! R1    R(1,3)                  1.0842         estimate D2E/DX2                !
 ! R2    R(1,5)                  1.0853         estimate D2E/DX2                !
 ! R3    R(2,4)                  1.4224         estimate D2E/DX2                !
 ! A1    A(2,1,3)              124.9341         estimate D2E/DX2                !
 ! A2    A(2,1,5)              119.4114         estimate D2E/DX2                !
 ! A3    A(3,1,5)              115.6545         estimate D2E/DX2                !
 ! A4    A(1,2,4)               97.2872         estimate D2E/DX2                !
 ! D1    D(3,1,2,4)             -0.0512         estimate D2E/DX2                !
 ! D2    D(5,1,2,4)            179.9435         estimate D2E/DX2                !
 --------------------------------------------------------------------------------
 Trust Radius=3.00D-01 FncErr=1.00D-07 GrdErr=1.00D-07 EigMax=2.50D+02 EigMin=1.00D-04
 Number of steps in this run=     25 maximum allowed number of steps=    100.
 GradGradGradGradGradGradGradGradGradGradGradGradGradGradGradGradGradGrad

 Leave Link  103 at Mon Apr 21 19:07:22 2025, MaxMem=   536870912 cpu:               0.2 elap:               0.1
 (Enter /home/szhao/Apps/g16/l202.exe)
                          Input orientation:                          
 ---------------------------------------------------------------------
 Center     Atomic      Atomic             Coordinates (Angstroms)
 Number     Number       Type             X           Y           Z
 ---------------------------------------------------------------------
      1          6           0       -1.180452    0.000000    0.000000
      2         15           0        1.180452    0.000000    0.000000
      3          1           0       -1.801304   -0.888844    0.000000
      4          1           0        1.360870   -1.410879    0.001261
      5          1           0       -1.713438    0.945455    0.000087
 ---------------------------------------------------------------------
                    Distance matrix (angstroms):
                    1          2          3          4          5
     1  C    0.000000
     2  P    2.360905   0.000000
     3  H    1.084205   3.111417   0.000000
     4  H    2.906700   1.422369   3.204976   0.000000
     5  H    1.085338   3.044419   1.836402   3.873459   0.000000
 Symmetry turned off by external request.
 Stoichiometry    CH3P
 Framework group  C1[X(CH3P)]
 Deg. of freedom     9
 Full point group                 C1      NOp   1
 Rotational constants (GHZ):         139.2340936           8.5488797           8.0543483
 Leave Link  202 at Mon Apr 21 19:07:23 2025, MaxMem=   536870912 cpu:               0.1 elap:               0.1
 (Enter /home/szhao/Apps/g16/l301.exe)
 Standard basis: 6-311+G(d,p) (5D, 7F)
 Ernie: Thresh=  0.10000D-02 Tol=  0.10000D-05 Strict=F.
    70 basis functions,   110 primitive gaussians,    72 cartesian basis functions
    12 alpha electrons       12 beta electrons
       nuclear repulsion energy        38.4478644460 Hartrees.
 IExCor= 4336 DFT=T Ex+Corr=M062X ExCW=0 ScaHFX=  0.540000
 ScaDFX=  1.000000  1.000000  1.000000  1.000000 ScalE2=  1.000000  1.000000
 IRadAn=      7 IRanWt=     -1 IRanGd=            0 ICorTp=0 IEmpDi=  4
 NAtoms=    5 NActive=    5 NUniq=    5 SFac= 1.00D+00 NAtFMM=   60 NAOKFM=F Big=F
 Integral buffers will be    131072 words long.
 Raffenetti 2 integral format.
 Two-electron integral symmetry is turned off.
 Leave Link  301 at Mon Apr 21 19:07:23 2025, MaxMem=   536870912 cpu:               0.9 elap:               0.1
 (Enter /home/szhao/Apps/g16/l302.exe)
 NPDir=0 NMtPBC=     1 NCelOv=     1 NCel=       1 NClECP=     1 NCelD=      1
         NCelK=      1 NCelE2=     1 NClLst=     1 CellRange=     0.0.
 One-electron integrals computed using PRISM.
 NBasis=    70 RedAO= T EigKep=  3.76D-03  NBF=    70
 NBsUse=    70 1.00D-06 EigRej= -1.00D+00 NBFU=    70
 Precomputing XC quadrature grid using
 IXCGrd= 4 IRadAn=           7 IRanWt=          -1 IRanGd=           0 AccXCQ= 0.00D+00.
 Generated NRdTot=       0 NPtTot=           0 NUsed=           0 NTot=          32
 NSgBfM=    72    72    72    72    72 MxSgAt=     5 MxSgA2=     5.
 Leave Link  302 at Mon Apr 21 19:07:23 2025, MaxMem=   536870912 cpu:               1.9 elap:               0.3
 (Enter /home/szhao/Apps/g16/l303.exe)
 DipDrv:  MaxL=1.
 Leave Link  303 at Mon Apr 21 19:07:24 2025, MaxMem=   536870912 cpu:               0.6 elap:               0.1
 (Enter /home/szhao/Apps/g16/l401.exe)
 ExpMin= 3.48D-02 ExpMax= 7.75D+04 ExpMxC= 2.65D+03 IAcc=3 IRadAn=         7 AccDes= 0.00D+00
 Harris functional with IExCor= 1009 and IRadAn=       7 diagonalized for initial guess.
 HarFok:  IExCor= 1009 AccDes= 0.00D+00 IRadAn=         7 IDoV= 1 UseB2=F ITyADJ=14
 ICtDFT=  3500011 ScaDFX=  1.000000  1.000000  1.000000  1.000000
 FoFCou: FMM=F IPFlag=           0 FMFlag=      100000 FMFlg1=           0
         NFxFlg=           0 DoJE=T BraDBF=F KetDBF=T FulRan=T
         wScrn=  0.000000 ICntrl=       500 IOpCl=  0 I1Cent=   200000004 NGrid=           0
         NMat0=    1 NMatS0=      1 NMatT0=    0 NMatD0=    1 NMtDS0=    0 NMtDT0=    0
 Symmetry not used in FoFCou.
 Harris En= -380.936493460995    
 JPrj=0 DoOrth=F DoCkMO=F.
 Initial guess <Sx>= 0.0000 <Sy>= 0.0000 <Sz>= 0.0000 <S**2>= 0.0000 S= 0.0000
 Leave Link  401 at Mon Apr 21 19:07:24 2025, MaxMem=   536870912 cpu:               4.6 elap:               0.6
 (Enter /home/szhao/Apps/g16/l502.exe)
 Keep R1 and R2 ints in memory in canonical form, NReq=13385587.
 FoFCou: FMM=F IPFlag=           0 FMFlag=           0 FMFlg1=           0
         NFxFlg=           0 DoJE=F BraDBF=F KetDBF=F FulRan=T
         wScrn=  0.000000 ICntrl=       600 IOpCl=  0 I1Cent=           0 NGrid=           0
         NMat0=    1 NMatS0=   2485 NMatT0=    0 NMatD0=    1 NMtDS0=    0 NMtDT0=    0
 Symmetry not used in FoFCou.
 Two-electron integral symmetry not used.
 UHF open shell SCF:
 Using DIIS extrapolation, IDIIS=  1040.
 NGot=   536870912 LenX=   530681581 LenY=   530675956
 Requested convergence on RMS density matrix=1.00D-08 within 128 cycles.
 Requested convergence on MAX density matrix=1.00D-06.
 Requested convergence on             energy=1.00D-06.
 No special actions if energy rises.

 Cycle   1  Pass 1  IDiag  1:
 E= -380.738229325433    
 DIIS: error= 7.80D-02 at cycle   1 NSaved=   1.
 NSaved= 1 IEnMin= 1 EnMin= -380.738229325433     IErMin= 1 ErrMin= 7.80D-02
 ErrMax= 7.80D-02  0.00D+00 EMaxC= 1.00D-01 BMatC= 1.03D+00 BMatP= 1.03D+00
 IDIUse=3 WtCom= 2.20D-01 WtEn= 7.80D-01
 Coeff-Com:  0.100D+01
 Coeff-En:   0.100D+01
 Coeff:      0.100D+01
 Gap=    -0.150 Goal=   None    Shift=    0.000
 Gap=    -0.150 Goal=   None    Shift=    0.000
 GapD=   -0.150 DampG=0.250 DampE=0.500 DampFc=0.2500 IDamp=-1.
 Damping current iteration by 2.50D-01
 RMSDP=1.42D-02 MaxDP=3.44D-01              OVMax= 8.24D-01

 Cycle   2  Pass 1  IDiag  1:
 E= -380.888800910536     Delta-E=       -0.150571585103 Rises=F Damp=T
 DIIS: error= 2.18D-02 at cycle   2 NSaved=   2.
 NSaved= 2 IEnMin= 2 EnMin= -380.888800910536     IErMin= 2 ErrMin= 2.18D-02
 ErrMax= 2.18D-02  0.00D+00 EMaxC= 1.00D-01 BMatC= 1.33D-01 BMatP= 1.03D+00
 IDIUse=3 WtCom= 7.82D-01 WtEn= 2.18D-01
 Coeff-Com: -0.394D+00 0.139D+01
 Coeff-En:   0.000D+00 0.100D+01
 Coeff:     -0.308D+00 0.131D+01
 Gap=     0.481 Goal=   None    Shift=    0.000
 Gap=     0.481 Goal=   None    Shift=    0.000
 RMSDP=3.84D-03 MaxDP=6.42D-02 DE=-1.51D-01 OVMax= 4.93D-01

 Cycle   3  Pass 1  IDiag  1:
 E= -381.040749888844     Delta-E=       -0.151948978308 Rises=F Damp=F
 DIIS: error= 1.66D-02 at cycle   3 NSaved=   3.
 NSaved= 3 IEnMin= 3 EnMin= -381.040749888844     IErMin= 3 ErrMin= 1.66D-02
 ErrMax= 1.66D-02  0.00D+00 EMaxC= 1.00D-01 BMatC= 5.79D-02 BMatP= 1.33D-01
 IDIUse=3 WtCom= 8.34D-01 WtEn= 1.66D-01
 Coeff-Com:  0.235D+00-0.126D+00 0.891D+00
 Coeff-En:   0.602D-01 0.000D+00 0.940D+00
 Coeff:      0.206D+00-0.105D+00 0.899D+00
 Gap=     0.160 Goal=   None    Shift=    0.000
 Gap=     0.160 Goal=   None    Shift=    0.000
 RMSDP=1.51D-03 MaxDP=3.29D-02 DE=-1.52D-01 OVMax= 6.47D-02

 Cycle   4  Pass 1  IDiag  1:
 E= -381.057523588255     Delta-E=       -0.016773699411 Rises=F Damp=F
 DIIS: error= 6.40D-03 at cycle   4 NSaved=   4.
 NSaved= 4 IEnMin= 4 EnMin= -381.057523588255     IErMin= 4 ErrMin= 6.40D-03
 ErrMax= 6.40D-03  0.00D+00 EMaxC= 1.00D-01 BMatC= 4.59D-03 BMatP= 5.79D-02
 IDIUse=3 WtCom= 9.36D-01 WtEn= 6.40D-02
 Coeff-Com:  0.293D-01-0.249D-01 0.270D+00 0.725D+00
 Coeff-En:   0.000D+00 0.000D+00 0.404D-01 0.960D+00
 Coeff:      0.274D-01-0.233D-01 0.256D+00 0.740D+00
 Gap=     0.166 Goal=   None    Shift=    0.000
 Gap=     0.166 Goal=   None    Shift=    0.000
 RMSDP=5.41D-04 MaxDP=1.41D-02 DE=-1.68D-02 OVMax= 4.33D-02

 Cycle   5  Pass 1  IDiag  1:
 E= -381.058970052506     Delta-E=       -0.001446464251 Rises=F Damp=F
 DIIS: error= 1.98D-03 at cycle   5 NSaved=   5.
 NSaved= 5 IEnMin= 5 EnMin= -381.058970052506     IErMin= 5 ErrMin= 1.98D-03
 ErrMax= 1.98D-03  0.00D+00 EMaxC= 1.00D-01 BMatC= 1.05D-03 BMatP= 4.59D-03
 IDIUse=3 WtCom= 9.80D-01 WtEn= 1.98D-02
 Coeff-Com:  0.325D-01-0.626D-01-0.622D-01 0.415D-01 0.105D+01
 Coeff-En:   0.000D+00 0.000D+00 0.000D+00 0.109D+00 0.891D+00
 Coeff:      0.319D-01-0.613D-01-0.610D-01 0.429D-01 0.105D+01
 Gap=     0.167 Goal=   None    Shift=    0.000
 Gap=     0.167 Goal=   None    Shift=    0.000
 RMSDP=3.06D-04 MaxDP=6.90D-03 DE=-1.45D-03 OVMax= 1.47D-02

 Cycle   6  Pass 1  IDiag  1:
 E= -381.059464167901     Delta-E=       -0.000494115396 Rises=F Damp=F
 DIIS: error= 4.71D-04 at cycle   6 NSaved=   6.
 NSaved= 6 IEnMin= 6 EnMin= -381.059464167901     IErMin= 6 ErrMin= 4.71D-04
 ErrMax= 4.71D-04  0.00D+00 EMaxC= 1.00D-01 BMatC= 2.37D-05 BMatP= 1.05D-03
 IDIUse=3 WtCom= 9.95D-01 WtEn= 4.71D-03
 Coeff-Com: -0.112D-02 0.256D-02-0.161D-01-0.854D-01-0.343D-01 0.113D+01
 Coeff-En:   0.000D+00 0.000D+00 0.000D+00 0.000D+00 0.000D+00 0.100D+01
 Coeff:     -0.111D-02 0.255D-02-0.160D-01-0.849D-01-0.341D-01 0.113D+01
 Gap=     0.166 Goal=   None    Shift=    0.000
 Gap=     0.166 Goal=   None    Shift=    0.000
 RMSDP=1.45D-04 MaxDP=3.03D-03 DE=-4.94D-04 OVMax= 9.23D-03

 Cycle   7  Pass 1  IDiag  1:
 E= -381.059514645472     Delta-E=       -0.000050477570 Rises=F Damp=F
 DIIS: error= 2.49D-04 at cycle   7 NSaved=   7.
 NSaved= 7 IEnMin= 7 EnMin= -381.059514645472     IErMin= 7 ErrMin= 2.49D-04
 ErrMax= 2.49D-04  0.00D+00 EMaxC= 1.00D-01 BMatC= 1.78D-05 BMatP= 2.37D-05
 IDIUse=3 WtCom= 9.98D-01 WtEn= 2.49D-03
 Coeff-Com:  0.115D-02 0.268D-03 0.420D-02-0.644D-03-0.166D+00-0.206D+00
 Coeff-Com:  0.137D+01
 Coeff-En:   0.000D+00 0.000D+00 0.000D+00 0.000D+00 0.000D+00 0.000D+00
 Coeff-En:   0.100D+01
 Coeff:      0.114D-02 0.267D-03 0.419D-02-0.642D-03-0.166D+00-0.205D+00
 Coeff:      0.137D+01
 Gap=     0.166 Goal=   None    Shift=    0.000
 Gap=     0.166 Goal=   None    Shift=    0.000
 RMSDP=9.95D-05 MaxDP=1.97D-03 DE=-5.05D-05 OVMax= 4.59D-03

 Cycle   8  Pass 1  IDiag  1:
 E= -381.059529989706     Delta-E=       -0.000015344235 Rises=F Damp=F
 DIIS: error= 2.13D-05 at cycle   8 NSaved=   8.
 NSaved= 8 IEnMin= 8 EnMin= -381.059529989706     IErMin= 8 ErrMin= 2.13D-05
 ErrMax= 2.13D-05  0.00D+00 EMaxC= 1.00D-01 BMatC= 1.54D-07 BMatP= 1.78D-05
 IDIUse=1 WtCom= 1.00D+00 WtEn= 0.00D+00
 Coeff-Com:  0.686D-03-0.924D-03 0.512D-03 0.549D-02-0.397D-02-0.109D+00
 Coeff-Com:  0.160D+00 0.948D+00
 Coeff:      0.686D-03-0.924D-03 0.512D-03 0.549D-02-0.397D-02-0.109D+00
 Coeff:      0.160D+00 0.948D+00
 Gap=     0.166 Goal=   None    Shift=    0.000
 Gap=     0.166 Goal=   None    Shift=    0.000
 RMSDP=1.04D-05 MaxDP=1.71D-04 DE=-1.53D-05 OVMax= 4.44D-04

 Cycle   9  Pass 1  IDiag  1:
 E= -381.059530111776     Delta-E=       -0.000000122069 Rises=F Damp=F
 DIIS: error= 1.35D-05 at cycle   9 NSaved=   9.
 NSaved= 9 IEnMin= 9 EnMin= -381.059530111776     IErMin= 9 ErrMin= 1.35D-05
 ErrMax= 1.35D-05  0.00D+00 EMaxC= 1.00D-01 BMatC= 3.02D-08 BMatP= 1.54D-07
 IDIUse=1 WtCom= 1.00D+00 WtEn= 0.00D+00
 Coeff-Com: -0.693D-04 0.154D-04 0.190D-03 0.146D-02 0.841D-02-0.671D-02
 Coeff-Com: -0.404D-01 0.111D+00 0.926D+00
 Coeff:     -0.693D-04 0.154D-04 0.190D-03 0.146D-02 0.841D-02-0.671D-02
 Coeff:     -0.404D-01 0.111D+00 0.926D+00
 Gap=     0.166 Goal=   None    Shift=    0.000
 Gap=     0.166 Goal=   None    Shift=    0.000
 RMSDP=1.82D-06 MaxDP=2.72D-05 DE=-1.22D-07 OVMax= 8.16D-05

 Cycle  10  Pass 1  IDiag  1:
 E= -381.059530124935     Delta-E=       -0.000000013159 Rises=F Damp=F
 DIIS: error= 1.42D-06 at cycle  10 NSaved=  10.
 NSaved=10 IEnMin=10 EnMin= -381.059530124935     IErMin=10 ErrMin= 1.42D-06
 ErrMax= 1.42D-06  0.00D+00 EMaxC= 1.00D-01 BMatC= 6.12D-10 BMatP= 3.02D-08
 IDIUse=1 WtCom= 1.00D+00 WtEn= 0.00D+00
 Coeff-Com: -0.130D-04 0.665D-05-0.969D-04-0.342D-03 0.744D-03 0.410D-02
 Coeff-Com: -0.830D-02-0.629D-01 0.172D-02 0.107D+01
 Coeff:     -0.130D-04 0.665D-05-0.969D-04-0.342D-03 0.744D-03 0.410D-02
 Coeff:     -0.830D-02-0.629D-01 0.172D-02 0.107D+01
 Gap=     0.166 Goal=   None    Shift=    0.000
 Gap=     0.166 Goal=   None    Shift=    0.000
 RMSDP=6.29D-07 MaxDP=9.09D-06 DE=-1.32D-08 OVMax= 2.66D-05

 Cycle  11  Pass 1  IDiag  1:
 E= -381.059530125426     Delta-E=       -0.000000000491 Rises=F Damp=F
 DIIS: error= 5.16D-07 at cycle  11 NSaved=  11.
 NSaved=11 IEnMin=11 EnMin= -381.059530125426     IErMin=11 ErrMin= 5.16D-07
 ErrMax= 5.16D-07  0.00D+00 EMaxC= 1.00D-01 BMatC= 6.39D-11 BMatP= 6.12D-10
 IDIUse=1 WtCom= 1.00D+00 WtEn= 0.00D+00
 Coeff-Com: -0.544D-05 0.124D-04-0.305D-04-0.146D-03-0.540D-03 0.121D-02
 Coeff-Com:  0.249D-02-0.218D-01-0.505D-01 0.253D+00 0.816D+00
 Coeff:     -0.544D-05 0.124D-04-0.305D-04-0.146D-03-0.540D-03 0.121D-02
 Coeff:      0.249D-02-0.218D-01-0.505D-01 0.253D+00 0.816D+00
 Gap=     0.166 Goal=   None    Shift=    0.000
 Gap=     0.166 Goal=   None    Shift=    0.000
 RMSDP=8.72D-08 MaxDP=1.46D-06 DE=-4.91D-10 OVMax= 4.30D-06

 Cycle  12  Pass 1  IDiag  1:
 E= -381.059530125452     Delta-E=       -0.000000000026 Rises=F Damp=F
 DIIS: error= 1.43D-07 at cycle  12 NSaved=  12.
 NSaved=12 IEnMin=12 EnMin= -381.059530125452     IErMin=12 ErrMin= 1.43D-07
 ErrMax= 1.43D-07  0.00D+00 EMaxC= 1.00D-01 BMatC= 5.06D-12 BMatP= 6.39D-11
 IDIUse=1 WtCom= 1.00D+00 WtEn= 0.00D+00
 Coeff-Com:  0.631D-06-0.106D-05-0.275D-05 0.178D-04 0.171D-04-0.136D-03
 Coeff-Com: -0.572D-04 0.198D-02 0.349D-02-0.516D-01-0.421D-01 0.109D+01
 Coeff:      0.631D-06-0.106D-05-0.275D-05 0.178D-04 0.171D-04-0.136D-03
 Coeff:     -0.572D-04 0.198D-02 0.349D-02-0.516D-01-0.421D-01 0.109D+01
 Gap=     0.166 Goal=   None    Shift=    0.000
 Gap=     0.166 Goal=   None    Shift=    0.000
 RMSDP=2.91D-08 MaxDP=4.59D-07 DE=-2.63D-11 OVMax= 1.42D-06

 Cycle  13  Pass 1  IDiag  1:
 E= -381.059530125454     Delta-E=       -0.000000000002 Rises=F Damp=F
 DIIS: error= 7.39D-09 at cycle  13 NSaved=  13.
 NSaved=13 IEnMin=13 EnMin= -381.059530125454     IErMin=13 ErrMin= 7.39D-09
 ErrMax= 7.39D-09  0.00D+00 EMaxC= 1.00D-01 BMatC= 1.61D-14 BMatP= 5.06D-12
 IDIUse=1 WtCom= 1.00D+00 WtEn= 0.00D+00
 Coeff-Com:  0.848D-07-0.172D-06 0.556D-06 0.615D-06 0.215D-05-0.193D-05
 Coeff-Com: -0.238D-04 0.113D-03 0.636D-03-0.241D-02-0.104D-01-0.227D-01
 Coeff-Com:  0.103D+01
 Coeff:      0.848D-07-0.172D-06 0.556D-06 0.615D-06 0.215D-05-0.193D-05
 Coeff:     -0.238D-04 0.113D-03 0.636D-03-0.241D-02-0.104D-01-0.227D-01
 Coeff:      0.103D+01
 Gap=     0.166 Goal=   None    Shift=    0.000
 Gap=     0.166 Goal=   None    Shift=    0.000
 RMSDP=2.91D-09 MaxDP=2.22D-08 DE=-2.22D-12 OVMax= 1.01D-07

 SCF Done:  E(UM062X) =  -381.059530125     A.U. after   13 cycles
            NFock= 13  Conv=0.29D-08     -V/T= 2.0029
 <Sx>= 0.0000 <Sy>= 0.0000 <Sz>= 0.0000 <S**2>=-0.0000 S=-0.0000
 <L.S>=  0.00000000000    
 KE= 3.799583956797D+02 PE=-9.805504476119D+02 EE= 1.810846573608D+02
 Annihilation of the first spin contaminant:
 S**2 before annihilation    -0.0000,   after    -0.0000
 Leave Link  502 at Mon Apr 21 19:07:39 2025, MaxMem=   536870912 cpu:             112.0 elap:              14.5
 (Enter /home/szhao/Apps/g16/l601.exe)
 Copying SCF densities to generalized density rwf, IOpCl= 1 IROHF=0.

 **********************************************************************

            Population analysis using the SCF density.

 **********************************************************************

 Alpha  occ. eigenvalues --  -78.06337 -10.62534  -6.88226  -4.99739  -4.99576
 Alpha  occ. eigenvalues --   -4.99489  -0.76828  -0.66604  -0.50956  -0.40621
 Alpha  occ. eigenvalues --   -0.34278  -0.26534
 Alpha virt. eigenvalues --   -0.09946  -0.02834   0.02086   0.04366   0.05050
 Alpha virt. eigenvalues --    0.05569   0.06590   0.07424   0.10263   0.10443
 Alpha virt. eigenvalues --    0.14762   0.19355   0.20286   0.29976   0.31825
 Alpha virt. eigenvalues --    0.33298   0.40581   0.44461   0.45669   0.56378
 Alpha virt. eigenvalues --    0.56862   0.63681   0.66268   0.68286   0.71469
 Alpha virt. eigenvalues --    0.75128   0.77798   0.88853   0.92871   1.08906
 Alpha virt. eigenvalues --    1.24279   1.30676   1.46470   1.47239   1.48450
 Alpha virt. eigenvalues --    1.52557   1.54876   1.58855   1.71800   1.76435
 Alpha virt. eigenvalues --    1.82471   1.94232   2.03620   2.09677   2.41443
 Alpha virt. eigenvalues --    2.50551   2.51542   2.61000   2.64057   2.77007
 Alpha virt. eigenvalues --    3.03388   3.72120   6.89465  13.97464  14.02391
 Alpha virt. eigenvalues --   14.04893  23.79600 163.15165
  Beta  occ. eigenvalues --  -78.06337 -10.62534  -6.88226  -4.99739  -4.99576
  Beta  occ. eigenvalues --   -4.99489  -0.76828  -0.66604  -0.50956  -0.40621
  Beta  occ. eigenvalues --   -0.34278  -0.26534
  Beta virt. eigenvalues --   -0.09946  -0.02834   0.02086   0.04366   0.05050
  Beta virt. eigenvalues --    0.05569   0.06590   0.07424   0.10263   0.10443
  Beta virt. eigenvalues --    0.14762   0.19355   0.20286   0.29976   0.31825
  Beta virt. eigenvalues --    0.33298   0.40581   0.44461   0.45669   0.56378
  Beta virt. eigenvalues --    0.56862   0.63681   0.66268   0.68286   0.71469
  Beta virt. eigenvalues --    0.75128   0.77798   0.88853   0.92871   1.08906
  Beta virt. eigenvalues --    1.24279   1.30676   1.46470   1.47239   1.48450
  Beta virt. eigenvalues --    1.52557   1.54876   1.58855   1.71800   1.76435
  Beta virt. eigenvalues --    1.82471   1.94232   2.03620   2.09677   2.41443
  Beta virt. eigenvalues --    2.50551   2.51542   2.61000   2.64057   2.77007
  Beta virt. eigenvalues --    3.03388   3.72120   6.89465  13.97464  14.02391
  Beta virt. eigenvalues --   14.04893  23.79600 163.15165
          Condensed to atoms (all electrons):
               1          2          3          4          5
     1  C    5.378423   0.324966   0.365498  -0.004124   0.379991
     2  P    0.324966  14.383582  -0.009842   0.219023  -0.013587
     3  H    0.365498  -0.009842   0.489967  -0.002205  -0.027214
     4  H   -0.004124   0.219023  -0.002205   0.805072   0.001264
     5  H    0.379991  -0.013587  -0.027214   0.001264   0.475419
          Atomic-Atomic Spin Densities.
               1          2          3          4          5
     1  C    0.000000  -0.000000  -0.000000   0.000000  -0.000000
     2  P   -0.000000  -0.000000   0.000000  -0.000000  -0.000000
     3  H   -0.000000   0.000000  -0.000000  -0.000000   0.000000
     4  H    0.000000  -0.000000  -0.000000   0.000000  -0.000000
     5  H   -0.000000  -0.000000   0.000000  -0.000000  -0.000000
 Mulliken charges and spin densities:
               1          2
     1  C   -0.444753   0.000000
     2  P    0.095858  -0.000000
     3  H    0.183796  -0.000000
     4  H   -0.019029  -0.000000
     5  H    0.184128  -0.000000
 Sum of Mulliken charges =  -0.00000  -0.00000
 Mulliken charges and spin densities with hydrogens summed into heavy atoms:
               1          2
     1  C   -0.076829   0.000000
     2  P    0.076829  -0.000000
 Electronic spatial extent (au):  <R**2>=            192.9415
 Charge=             -0.0000 electrons
 Dipole moment (field-independent basis, Debye):
    X=             -0.8783    Y=             -0.6131    Z=              0.0004  Tot=              1.0711
 Quadrupole moment (field-independent basis, Debye-Ang):
   XX=            -17.8040   YY=            -20.5812   ZZ=            -24.3410
   XY=             -1.4608   XZ=              0.0009   YZ=             -0.0015
 Traceless Quadrupole moment (field-independent basis, Debye-Ang):
   XX=              3.1048   YY=              0.3275   ZZ=             -3.4323
   XY=             -1.4608   XZ=              0.0009   YZ=             -0.0015
 Octapole moment (field-independent basis, Debye-Ang**2):
  XXX=            -24.2385  YYY=              3.0123  ZZZ=             -0.0029  XYY=             -9.5397
  XXY=             -1.6513  XXZ=              0.0010  XZZ=             -7.5961  YZZ=              0.8116
  YYZ=             -0.0009  XYZ=             -0.0020
 Hexadecapole moment (field-independent basis, Debye-Ang**3):
 XXXX=           -208.0743 YYYY=            -46.0296 ZZZZ=            -42.1284 XXXY=             -0.2039
 XXXZ=             -0.0006 YYYX=              2.7658 YYYZ=              0.0004 ZZZX=             -0.0026
 ZZZY=              0.0015 XXYY=            -40.4390 XXZZ=            -46.2922 YYZZ=            -15.3161
 XXYZ=             -0.0007 YYXZ=             -0.0010 ZZXY=              0.9106
 N-N= 3.844786444599D+01 E-N=-9.805504474708D+02  KE= 3.799583956797D+02
                          Isotropic Fermi Contact Couplings
        Atom                 a.u.       MegaHertz       Gauss      10(-4) cm-1
     1  C(13)             -0.00000      -0.00000      -0.00000      -0.00000
     2  P(31)              0.00000       0.00000       0.00000       0.00000
     3  H(1)              -0.00000      -0.00000      -0.00000      -0.00000
     4  H(1)               0.00000       0.00000       0.00000       0.00000
     5  H(1)              -0.00000      -0.00000      -0.00000      -0.00000
 --------------------------------------------------------
       Center         ----  Spin Dipole Couplings  ----
                      3XX-RR        3YY-RR        3ZZ-RR
 --------------------------------------------------------
     1   Atom        0.000000      0.000000      0.000000
     2   Atom        0.000000      0.000000      0.000000
     3   Atom        0.000000      0.000000      0.000000
     4   Atom        0.000000      0.000000      0.000000
     5   Atom        0.000000      0.000000      0.000000
 --------------------------------------------------------
                        XY            XZ            YZ
 --------------------------------------------------------
     1   Atom        0.000000      0.000000      0.000000
     2   Atom        0.000000      0.000000      0.000000
     3   Atom        0.000000      0.000000      0.000000
     4   Atom        0.000000      0.000000      0.000000
     5   Atom        0.000000      0.000000      0.000000
 --------------------------------------------------------


 ---------------------------------------------------------------------------------
              Anisotropic Spin Dipole Couplings in Principal Axis System
 ---------------------------------------------------------------------------------

       Atom             a.u.   MegaHertz   Gauss  10(-4) cm-1        Axes

              Baa     0.0000     0.000     0.000     0.000  1.0000  0.0000  0.0000
     1 C(13)  Bbb     0.0000     0.000     0.000     0.000 -0.0000  1.0000  0.0000
              Bcc     0.0000     0.000     0.000     0.000  0.0000  0.0000  1.0000
 
              Baa     0.0000     0.000     0.000     0.000  1.0000  0.0000  0.0000
     2 P(31)  Bbb     0.0000     0.000     0.000     0.000 -0.0000  1.0000  0.0000
              Bcc     0.0000     0.000     0.000     0.000  0.0000  0.0000  1.0000
 
              Baa     0.0000     0.000     0.000     0.000  1.0000  0.0000  0.0000
     3 H(1)   Bbb     0.0000     0.000     0.000     0.000 -0.0000  1.0000  0.0000
              Bcc     0.0000     0.000     0.000     0.000  0.0000  0.0000  1.0000
 
              Baa     0.0000     0.000     0.000     0.000  1.0000  0.0000  0.0000
     4 H(1)   Bbb     0.0000     0.000     0.000     0.000 -0.0000  1.0000  0.0000
              Bcc     0.0000     0.000     0.000     0.000  0.0000  0.0000  1.0000
 
              Baa     0.0000     0.000     0.000     0.000  1.0000  0.0000  0.0000
     5 H(1)   Bbb     0.0000     0.000     0.000     0.000 -0.0000  1.0000  0.0000
              Bcc     0.0000     0.000     0.000     0.000  0.0000  0.0000  1.0000
 

 ---------------------------------------------------------------------------------

 No NMR shielding tensors so no spin-rotation constants.
 Leave Link  601 at Mon Apr 21 19:07:39 2025, MaxMem=   536870912 cpu:               1.8 elap:               0.3
 (Enter /home/szhao/Apps/g16/l701.exe)
 ... and contract with generalized density number  0.
 Compute integral first derivatives.
 Leave Link  701 at Mon Apr 21 19:07:40 2025, MaxMem=   536870912 cpu:               2.0 elap:               0.3
 (Enter /home/szhao/Apps/g16/l702.exe)
 L702 exits ... SP integral derivatives will be done elsewhere.
 Leave Link  702 at Mon Apr 21 19:07:40 2025, MaxMem=   536870912 cpu:               0.7 elap:               0.1
 (Enter /home/szhao/Apps/g16/l703.exe)
 Integral derivatives from FoFJK, PRISM(SPDF).
 Compute integral first derivatives, UseDBF=F ICtDFT=           0.
 Calling FoFJK, ICntrl=      2127 FMM=F ISym2X=0 I1Cent= 0 IOpClX= 1 NMat=1 NMatS=1 NMatT=0.
 FoFJK:  IHMeth= 1 ICntrl=    2127 DoSepK=F KAlg= 0 I1Cent=           0 FoldK=F
 IRaf=         0 NMat=       1 IRICut=       1 DoRegI=T DoRafI=F ISym2E= 0 IDoP0=0 IntGTp=1.
 FoFCou: FMM=F IPFlag=           0 FMFlag=      100000 FMFlg1=         800
         NFxFlg=           0 DoJE=F BraDBF=F KetDBF=F FulRan=T
         wScrn=  0.000000 ICntrl=      2127 IOpCl=  1 I1Cent=           0 NGrid=           0
         NMat0=    1 NMatS0=      1 NMatT0=    0 NMatD0=    1 NMtDS0=    0 NMtDT0=    0
 Symmetry not used in FoFCou.
 Leave Link  703 at Mon Apr 21 19:07:42 2025, MaxMem=   536870912 cpu:              15.9 elap:               2.1
 (Enter /home/szhao/Apps/g16/l716.exe)
 Dipole        =-3.45551366D-01-2.41193936D-01 1.76303620D-04
 -------------------------------------------------------------------
 Center     Atomic                   Forces (Hartrees/Bohr)
 Number     Number              X              Y              Z
 -------------------------------------------------------------------
      1        6          -0.000000000   -0.000000000   -0.000000000
      2       15          -0.000000000   -0.000000000   -0.000000000
      3        1           0.004924928   -0.005882218    0.000009245
      4        1          -0.007946586   -0.000904461   -0.000014223
      5        1           0.006278451    0.004378426   -0.000014997
 -------------------------------------------------------------------
 Cartesian Forces:  Max     0.007946586 RMS     0.003477660
 Leave Link  716 at Mon Apr 21 19:07:43 2025, MaxMem=   536870912 cpu:               0.5 elap:               0.1
 (Enter /home/szhao/Apps/g16/l103.exe)

 GradGradGradGradGradGradGradGradGradGradGradGradGradGradGradGradGradGrad
 Berny optimization.
 FormGI is forming the generalized inverse of G from B-inverse, IUseBI=4.
 Internal  Forces:  Max     0.021495361 RMS     0.007567821
 Search for a local minimum.
 Step number   1 out of a maximum of   25
 All quantities printed in internal units (Hartrees-Bohrs-Radians)
 RMS Force = .83322D-02 SwitMx=.10000D-02 MixMth= 1
 Mixed Optimization -- RFO/linear search
 Second derivative matrix not updated -- first step.
 The second derivative matrix:
                          X1        Y1        Z1        X2        Y2
           X1           0.50000
           Y1           0.00000   0.50000
           Z1           0.00000   0.00000   0.50000
           X2           0.00000   0.00000   0.00000   0.50000
           Y2           0.00000   0.00000   0.00000   0.00000   0.50000
           Z2           0.00000   0.00000   0.00000   0.00000   0.00000
           R1           0.00000   0.00000   0.00000   0.00000   0.00000
           R2           0.00000   0.00000   0.00000   0.00000   0.00000
           R3           0.00000   0.00000   0.00000   0.00000   0.00000
           A1           0.00000   0.00000   0.00000   0.00000   0.00000
           A2           0.00000   0.00000   0.00000   0.00000   0.00000
           A3           0.00000   0.00000   0.00000   0.00000   0.00000
           A4           0.00000   0.00000   0.00000   0.00000   0.00000
           D1           0.00000   0.00000   0.00000   0.00000   0.00000
           D2           0.00000   0.00000   0.00000   0.00000   0.00000
                          Z2        R1        R2        R3        A1
           Z2           0.50000
           R1           0.00000   0.35491
           R2           0.00000   0.00000   0.35357
           R3           0.00000   0.00000   0.00000   0.20793
           A1           0.00000   0.00000   0.00000   0.00000   0.16000
           A2           0.00000   0.00000   0.00000   0.00000   0.00000
           A3           0.00000   0.00000   0.00000   0.00000   0.00000
           A4           0.00000   0.00000   0.00000   0.00000   0.00000
           D1           0.00000   0.00000   0.00000   0.00000   0.00000
           D2           0.00000   0.00000   0.00000   0.00000   0.00000
                          A2        A3        A4        D1        D2
           A2           0.16000
           A3           0.00000   0.16000
           A4           0.00000   0.00000   0.16000
           D1           0.00000   0.00000   0.00000   0.00230
           D2           0.00000   0.00000   0.00000   0.00000   0.00230
 ITU=  0
     Eigenvalues ---    0.00230   0.00230   0.16000   0.16000   0.16000
     Eigenvalues ---    0.20793   0.35357   0.354911000.000001000.00000
     Eigenvalues --- 1000.000001000.000001000.000001000.000001000.00000
 RFO step:  Lambda=-3.79963142D-03 EMin= 2.30000000D-03
 Linear search not attempted -- first point.
 Iteration  1 RMS(Cart)=  0.09239158 RMS(Int)=  0.00582047
 Iteration  2 RMS(Cart)=  0.00615215 RMS(Int)=  0.00000727
 Iteration  3 RMS(Cart)=  0.00001775 RMS(Int)=  0.00000018
 Iteration  4 RMS(Cart)=  0.00000000 RMS(Int)=  0.00000018
 ITry= 1 IFail=0 DXMaxC= 3.52D-01 DCOld= 1.00D+10 DXMaxT= 3.00D-01 DXLimC= 3.00D+00 Rises=F
 Variable       Old X    -DE/DX   Delta X   Delta X   Delta X     New X
                                 (Linear)    (Quad)   (Total)
    X1       -2.23073   0.01120   0.00000   0.00000   0.00000  -2.23073
    Y1        0.00000   0.00342   0.00000   0.00000   0.00000   0.00000
    Z1        0.00000  -0.00001   0.00000   0.00000   0.00000   0.00000
    X2        2.23073  -0.00795   0.00000   0.00000   0.00000   2.23073
    Y2        0.00000  -0.00582   0.00000   0.00000   0.00000   0.00000
    Z2        0.00000  -0.00001   0.00000   0.00000   0.00000   0.00000
    R1        2.04885   0.00200   0.00000   0.00558   0.00558   2.05443
    R2        2.05099   0.00073   0.00000   0.00205   0.00205   2.05304
    R3        2.68789  -0.00011   0.00000  -0.00052  -0.00052   2.68736
    A1        2.18051  -0.00491   0.00000  -0.02995  -0.02996   2.15056
    A2        2.08412  -0.00536   0.00000  -0.03273  -0.03273   2.05140
    A3        2.01855   0.01027   0.00000   0.06268   0.06268   2.08123
    A4        1.69798  -0.02150   0.00000  -0.13123  -0.13123   1.56675
    D1       -0.00089   0.00002   0.00000   0.00256   0.00256   0.00167
    D2        3.14061   0.00003   0.00000   0.00427   0.00427  -3.13831
         Item               Value     Threshold  Converged?
 Maximum Force            0.021495     0.000450     NO 
 RMS     Force            0.008332     0.000300     NO 
 Maximum Displacement     0.351807     0.001800     NO 
 RMS     Displacement     0.094015     0.001200     NO 
 Predicted change in Energy=-1.943851D-03
 Lowest energy point so far.  Saving SCF results.
 GradGradGradGradGradGradGradGradGradGradGradGradGradGradGradGradGradGrad

 Leave Link  103 at Mon Apr 21 19:07:43 2025, MaxMem=   536870912 cpu:               1.9 elap:               0.3
 (Enter /home/szhao/Apps/g16/l202.exe)
                          Input orientation:                          
 ---------------------------------------------------------------------
 Center     Atomic      Atomic             Coordinates (Angstroms)
 Number     Number       Type             X           Y           Z
 ---------------------------------------------------------------------
      1          6           0       -1.180452    0.000000    0.000000
      2         15           0        1.180452    0.000000    0.000000
      3          1           0       -1.776022   -0.909510    0.000798
      4          1           0        1.174702   -1.422079   -0.001128
      5          1           0       -1.682718    0.963344   -0.002400
 ---------------------------------------------------------------------
                    Distance matrix (angstroms):
                    1          2          3          4          5
     1  C    0.000000
     2  P    2.360905   0.000000
     3  H    1.087158   3.093211   0.000000
     4  H    2.751193   1.422092   2.994913   0.000000
     5  H    1.086420   3.020891   1.875180   3.722243   0.000000
 Symmetry turned off by external request.
 Stoichiometry    CH3P
 Framework group  C1[X(CH3P)]
 Deg. of freedom     9
 Full point group                 C1      NOp   1
 Rotational constants (GHZ):         134.9760013           8.6318917           8.1130533
 Leave Link  202 at Mon Apr 21 19:07:43 2025, MaxMem=   536870912 cpu:               0.1 elap:               0.1
 (Enter /home/szhao/Apps/g16/l301.exe)
 Standard basis: 6-311+G(d,p) (5D, 7F)
 Ernie: Thresh=  0.10000D-02 Tol=  0.10000D-05 Strict=F.
    70 basis functions,   110 primitive gaussians,    72 cartesian basis functions
    12 alpha electrons       12 beta electrons
       nuclear repulsion energy        38.5463168900 Hartrees.
 IExCor= 4336 DFT=T Ex+Corr=M062X ExCW=0 ScaHFX=  0.540000
 ScaDFX=  1.000000  1.000000  1.000000  1.000000 ScalE2=  1.000000  1.000000
 IRadAn=      7 IRanWt=     -1 IRanGd=            0 ICorTp=0 IEmpDi=  4
 NAtoms=    5 NActive=    5 NUniq=    5 SFac= 1.00D+00 NAtFMM=   60 NAOKFM=F Big=F
 Integral buffers will be    131072 words long.
 Raffenetti 2 integral format.
 Two-electron integral symmetry is turned off.
 Leave Link  301 at Mon Apr 21 19:07:44 2025, MaxMem=   536870912 cpu:               0.8 elap:               0.2
 (Enter /home/szhao/Apps/g16/l302.exe)
 NPDir=0 NMtPBC=     1 NCelOv=     1 NCel=       1 NClECP=     1 NCelD=      1
         NCelK=      1 NCelE2=     1 NClLst=     1 CellRange=     0.0.
 One-electron integrals computed using PRISM.
 NBasis=    70 RedAO= T EigKep=  3.69D-03  NBF=    70
 NBsUse=    70 1.00D-06 EigRej= -1.00D+00 NBFU=    70
 Precomputing XC quadrature grid using
 IXCGrd= 4 IRadAn=           7 IRanWt=          -1 IRanGd=           0 AccXCQ= 0.00D+00.
 Generated NRdTot=       0 NPtTot=           0 NUsed=           0 NTot=          32
 NSgBfM=    72    72    72    72    72 MxSgAt=     5 MxSgA2=     5.
 Leave Link  302 at Mon Apr 21 19:07:45 2025, MaxMem=   536870912 cpu:               1.9 elap:               0.4
 (Enter /home/szhao/Apps/g16/l303.exe)
 DipDrv:  MaxL=1.
 Leave Link  303 at Mon Apr 21 19:07:45 2025, MaxMem=   536870912 cpu:               0.7 elap:               0.2
 (Enter /home/szhao/Apps/g16/l401.exe)
 Initial guess from the checkpoint file:  "opt.chk"
 B after Tr=    -0.009480    0.003602   -0.000342
         Rot=    0.999994   -0.000018    0.000019    0.003528 Ang=  -0.40 deg.
 Guess basis will be translated and rotated to current coordinates.
 JPrj=2 DoOrth=T DoCkMO=T.
 Initial guess <Sx>= 0.0000 <Sy>= 0.0000 <Sz>= 0.0000 <S**2>=-0.0000 S=-0.0000
 Generating alternative initial guess.
 ExpMin= 3.48D-02 ExpMax= 7.75D+04 ExpMxC= 2.65D+03 IAcc=3 IRadAn=         5 AccDes= 0.00D+00
 Harris functional with IExCor= 1009 and IRadAn=       5 diagonalized for initial guess.
 HarFok:  IExCor= 1009 AccDes= 0.00D+00 IRadAn=         5 IDoV= 1 UseB2=F ITyADJ=14
 ICtDFT=  3500011 ScaDFX=  1.000000  1.000000  1.000000  1.000000
 FoFCou: FMM=F IPFlag=           0 FMFlag=      100000 FMFlg1=           0
         NFxFlg=           0 DoJE=T BraDBF=F KetDBF=T FulRan=T
         wScrn=  0.000000 ICntrl=       500 IOpCl=  0 I1Cent=   200000004 NGrid=           0
         NMat0=    1 NMatS0=      1 NMatT0=    0 NMatD0=    1 NMtDS0=    0 NMtDT0=    0
 Symmetry not used in FoFCou.
 Harris En= -380.938938285467    
 Leave Link  401 at Mon Apr 21 19:07:46 2025, MaxMem=   536870912 cpu:               4.2 elap:               0.6
 (Enter /home/szhao/Apps/g16/l502.exe)
 Keep R1 and R2 ints in memory in canonical form, NReq=13385587.
 FoFCou: FMM=F IPFlag=           0 FMFlag=           0 FMFlg1=           0
         NFxFlg=           0 DoJE=F BraDBF=F KetDBF=F FulRan=T
         wScrn=  0.000000 ICntrl=       600 IOpCl=  0 I1Cent=           0 NGrid=           0
         NMat0=    1 NMatS0=   2485 NMatT0=    0 NMatD0=    1 NMtDS0=    0 NMtDT0=    0
 Symmetry not used in FoFCou.
 Two-electron integral symmetry not used.
 UHF open shell SCF:
 Using DIIS extrapolation, IDIIS=  1040.
 NGot=   536870912 LenX=   530681581 LenY=   530675956
 Requested convergence on RMS density matrix=1.00D-08 within 128 cycles.
 Requested convergence on MAX density matrix=1.00D-06.
 Requested convergence on             energy=1.00D-06.
 No special actions if energy rises.

 Cycle   1  Pass 1  IDiag  1:
 E= -381.060589915472    
 DIIS: error= 3.28D-03 at cycle   1 NSaved=   1.
 NSaved= 1 IEnMin= 1 EnMin= -381.060589915472     IErMin= 1 ErrMin= 3.28D-03
 ErrMax= 3.28D-03  0.00D+00 EMaxC= 1.00D-01 BMatC= 2.33D-03 BMatP= 2.33D-03
 IDIUse=3 WtCom= 9.67D-01 WtEn= 3.28D-02
 Coeff-Com:  0.100D+01
 Coeff-En:   0.100D+01
 Coeff:      0.100D+01
 Gap=     0.418 Goal=   None    Shift=    0.000
 Gap=     0.418 Goal=   None    Shift=    0.000
 GapD=    0.418 DampG=2.000 DampE=1.000 DampFc=2.0000 IDamp=-1.
 RMSDP=5.16D-04 MaxDP=6.88D-03              OVMax= 2.01D-02

 Cycle   2  Pass 1  IDiag  1:
 E= -381.061655187224     Delta-E=       -0.001065271752 Rises=F Damp=F
 DIIS: error= 1.79D-03 at cycle   2 NSaved=   2.
 NSaved= 2 IEnMin= 2 EnMin= -381.061655187224     IErMin= 2 ErrMin= 1.79D-03
 ErrMax= 1.79D-03  0.00D+00 EMaxC= 1.00D-01 BMatC= 4.13D-04 BMatP= 2.33D-03
 IDIUse=3 WtCom= 9.82D-01 WtEn= 1.79D-02
 Coeff-Com:  0.805D-01 0.920D+00
 Coeff-En:   0.000D+00 0.100D+01
 Coeff:      0.790D-01 0.921D+00
 Gap=     0.164 Goal=   None    Shift=    0.000
 Gap=     0.164 Goal=   None    Shift=    0.000
 RMSDP=3.92D-04 MaxDP=9.92D-03 DE=-1.07D-03 OVMax= 2.69D-02

 Cycle   3  Pass 1  IDiag  1:
 E= -381.061008673932     Delta-E=        0.000646513292 Rises=F Damp=F
 DIIS: error= 4.55D-03 at cycle   3 NSaved=   3.
 NSaved= 3 IEnMin= 2 EnMin= -381.061655187224     IErMin= 2 ErrMin= 1.79D-03
 ErrMax= 4.55D-03  0.00D+00 EMaxC= 1.00D-01 BMatC= 2.44D-03 BMatP= 4.13D-04
 IDIUse=3 WtCom= 1.29D-01 WtEn= 8.71D-01
 Coeff-Com: -0.113D+00 0.798D+00 0.315D+00
 Coeff-En:   0.000D+00 0.777D+00 0.223D+00
 Coeff:     -0.146D-01 0.780D+00 0.235D+00
 Gap=     0.166 Goal=   None    Shift=    0.000
 Gap=     0.166 Goal=   None    Shift=    0.000
 RMSDP=2.22D-04 MaxDP=5.50D-03 DE= 6.47D-04 OVMax= 1.51D-02

 Cycle   4  Pass 1  IDiag  1:
 E= -381.061821815782     Delta-E=       -0.000813141850 Rises=F Damp=F
 DIIS: error= 7.65D-04 at cycle   4 NSaved=   4.
 NSaved= 4 IEnMin= 4 EnMin= -381.061821815782     IErMin= 4 ErrMin= 7.65D-04
 ErrMax= 7.65D-04  0.00D+00 EMaxC= 1.00D-01 BMatC= 8.01D-05 BMatP= 4.13D-04
 IDIUse=3 WtCom= 9.92D-01 WtEn= 7.65D-03
 Coeff-Com:  0.552D-02-0.220D+00-0.360D+00 0.157D+01
 Coeff-En:   0.000D+00 0.923D-02 0.000D+00 0.991D+00
 Coeff:      0.548D-02-0.218D+00-0.358D+00 0.157D+01
 Gap=     0.166 Goal=   None    Shift=    0.000
 Gap=     0.166 Goal=   None    Shift=    0.000
 RMSDP=7.59D-05 MaxDP=1.22D-03 DE=-8.13D-04 OVMax= 3.69D-03

 Cycle   5  Pass 1  IDiag  1:
 E= -381.061853983531     Delta-E=       -0.000032167749 Rises=F Damp=F
 DIIS: error= 4.74D-05 at cycle   5 NSaved=   5.
 NSaved= 5 IEnMin= 5 EnMin= -381.061853983531     IErMin= 5 ErrMin= 4.74D-05
 ErrMax= 4.74D-05  0.00D+00 EMaxC= 1.00D-01 BMatC= 2.98D-07 BMatP= 8.01D-05
 IDIUse=1 WtCom= 1.00D+00 WtEn= 0.00D+00
 Coeff-Com:  0.623D-02-0.757D-01-0.677D-01 0.231D+00 0.906D+00
 Coeff:      0.623D-02-0.757D-01-0.677D-01 0.231D+00 0.906D+00
 Gap=     0.166 Goal=   None    Shift=    0.000
 Gap=     0.166 Goal=   None    Shift=    0.000
 RMSDP=1.14D-05 MaxDP=2.28D-04 DE=-3.22D-05 OVMax= 6.48D-04

 Cycle   6  Pass 1  IDiag  1:
 E= -381.061854294702     Delta-E=       -0.000000311171 Rises=F Damp=F
 DIIS: error= 2.43D-05 at cycle   6 NSaved=   6.
 NSaved= 6 IEnMin= 6 EnMin= -381.061854294702     IErMin= 6 ErrMin= 2.43D-05
 ErrMax= 2.43D-05  0.00D+00 EMaxC= 1.00D-01 BMatC= 1.94D-07 BMatP= 2.98D-07
 IDIUse=1 WtCom= 1.00D+00 WtEn= 0.00D+00
 Coeff-Com: -0.840D-03 0.302D-01 0.400D-01-0.206D+00 0.939D-01 0.104D+01
 Coeff:     -0.840D-03 0.302D-01 0.400D-01-0.206D+00 0.939D-01 0.104D+01
 Gap=     0.166 Goal=   None    Shift=    0.000
 Gap=     0.166 Goal=   None    Shift=    0.000
 RMSDP=6.18D-06 MaxDP=1.15D-04 DE=-3.11D-07 OVMax= 2.86D-04

 Cycle   7  Pass 1  IDiag  1:
 E= -381.061854411259     Delta-E=       -0.000000116557 Rises=F Damp=F
 DIIS: error= 1.39D-05 at cycle   7 NSaved=   7.
 NSaved= 7 IEnMin= 7 EnMin= -381.061854411259     IErMin= 7 ErrMin= 1.39D-05
 ErrMax= 1.39D-05  0.00D+00 EMaxC= 1.00D-01 BMatC= 4.49D-08 BMatP= 1.94D-07
 IDIUse=1 WtCom= 1.00D+00 WtEn= 0.00D+00
 Coeff-Com: -0.153D-02 0.207D-01 0.150D-01-0.677D-01-0.118D+00 0.171D-01
 Coeff-Com:  0.113D+01
 Coeff:     -0.153D-02 0.207D-01 0.150D-01-0.677D-01-0.118D+00 0.171D-01
 Coeff:      0.113D+01
 Gap=     0.166 Goal=   None    Shift=    0.000
 Gap=     0.166 Goal=   None    Shift=    0.000
 RMSDP=3.25D-06 MaxDP=6.52D-05 DE=-1.17D-07 OVMax= 1.54D-04

 Cycle   8  Pass 1  IDiag  1:
 E= -381.061854441396     Delta-E=       -0.000000030137 Rises=F Damp=F
 DIIS: error= 3.54D-06 at cycle   8 NSaved=   8.
 NSaved= 8 IEnMin= 8 EnMin= -381.061854441396     IErMin= 8 ErrMin= 3.54D-06
 ErrMax= 3.54D-06  0.00D+00 EMaxC= 1.00D-01 BMatC= 2.57D-09 BMatP= 4.49D-08
 IDIUse=1 WtCom= 1.00D+00 WtEn= 0.00D+00
 Coeff-Com:  0.907D-04-0.331D-02-0.440D-02 0.206D-01-0.125D-01-0.132D+00
 Coeff-Com: -0.146D+00 0.128D+01
 Coeff:      0.907D-04-0.331D-02-0.440D-02 0.206D-01-0.125D-01-0.132D+00
 Coeff:     -0.146D+00 0.128D+01
 Gap=     0.166 Goal=   None    Shift=    0.000
 Gap=     0.166 Goal=   None    Shift=    0.000
 RMSDP=1.43D-06 MaxDP=2.75D-05 DE=-3.01D-08 OVMax= 6.84D-05

 Cycle   9  Pass 1  IDiag  1:
 E= -381.061854444475     Delta-E=       -0.000000003080 Rises=F Damp=F
 DIIS: error= 6.65D-07 at cycle   9 NSaved=   9.
 NSaved= 9 IEnMin= 9 EnMin= -381.061854444475     IErMin= 9 ErrMin= 6.65D-07
 ErrMax= 6.65D-07  0.00D+00 EMaxC= 1.00D-01 BMatC= 7.65D-11 BMatP= 2.57D-09
 IDIUse=1 WtCom= 1.00D+00 WtEn= 0.00D+00
 Coeff-Com:  0.966D-04-0.170D-02-0.177D-02 0.794D-02 0.794D-02-0.169D-01
 Coeff-Com: -0.101D+00 0.176D+00 0.929D+00
 Coeff:      0.966D-04-0.170D-02-0.177D-02 0.794D-02 0.794D-02-0.169D-01
 Coeff:     -0.101D+00 0.176D+00 0.929D+00
 Gap=     0.166 Goal=   None    Shift=    0.000
 Gap=     0.166 Goal=   None    Shift=    0.000
 RMSDP=1.54D-07 MaxDP=2.32D-06 DE=-3.08D-09 OVMax= 6.21D-06

 Cycle  10  Pass 1  IDiag  1:
 E= -381.061854444522     Delta-E=       -0.000000000047 Rises=F Damp=F
 DIIS: error= 7.13D-08 at cycle  10 NSaved=  10.
 NSaved=10 IEnMin=10 EnMin= -381.061854444522     IErMin=10 ErrMin= 7.13D-08
 ErrMax= 7.13D-08  0.00D+00 EMaxC= 1.00D-01 BMatC= 1.64D-12 BMatP= 7.65D-11
 IDIUse=1 WtCom= 1.00D+00 WtEn= 0.00D+00
 Coeff-Com:  0.574D-05-0.289D-04 0.367D-04-0.192D-03 0.148D-02 0.240D-02
 Coeff-Com: -0.402D-03-0.361D-01 0.974D-01 0.935D+00
 Coeff:      0.574D-05-0.289D-04 0.367D-04-0.192D-03 0.148D-02 0.240D-02
 Coeff:     -0.402D-03-0.361D-01 0.974D-01 0.935D+00
 Gap=     0.166 Goal=   None    Shift=    0.000
 Gap=     0.166 Goal=   None    Shift=    0.000
 RMSDP=2.45D-08 MaxDP=2.65D-07 DE=-4.66D-11 OVMax= 6.62D-07

 Cycle  11  Pass 1  IDiag  1:
 E= -381.061854444523     Delta-E=       -0.000000000001 Rises=F Damp=F
 DIIS: error= 3.69D-08 at cycle  11 NSaved=  11.
 NSaved=11 IEnMin=11 EnMin= -381.061854444523     IErMin=11 ErrMin= 3.69D-08
 ErrMax= 3.69D-08  0.00D+00 EMaxC= 1.00D-01 BMatC= 2.20D-13 BMatP= 1.64D-12
 IDIUse=1 WtCom= 1.00D+00 WtEn= 0.00D+00
 Coeff-Com: -0.240D-05 0.429D-04 0.499D-04-0.201D-03-0.221D-03 0.764D-03
 Coeff-Com:  0.327D-02-0.524D-02-0.342D-01 0.561D-02 0.103D+01
 Coeff:     -0.240D-05 0.429D-04 0.499D-04-0.201D-03-0.221D-03 0.764D-03
 Coeff:      0.327D-02-0.524D-02-0.342D-01 0.561D-02 0.103D+01
 Gap=     0.166 Goal=   None    Shift=    0.000
 Gap=     0.166 Goal=   None    Shift=    0.000
 RMSDP=8.85D-09 MaxDP=1.62D-07 DE=-1.14D-12 OVMax= 3.18D-07

 SCF Done:  E(UM062X) =  -381.061854445     A.U. after   11 cycles
            NFock= 11  Conv=0.88D-08     -V/T= 2.0029
 <Sx>= 0.0000 <Sy>= 0.0000 <Sz>= 0.0000 <S**2>=-0.0000 S=-0.0000
 <L.S>=  0.00000000000    
 KE= 3.799518633092D+02 PE=-9.807631588322D+02 EE= 1.812031241885D+02
 Annihilation of the first spin contaminant:
 S**2 before annihilation    -0.0000,   after    -0.0000
 Leave Link  502 at Mon Apr 21 19:07:58 2025, MaxMem=   536870912 cpu:              89.8 elap:              11.7
 (Enter /home/szhao/Apps/g16/l701.exe)
 ... and contract with generalized density number  0.
 Compute integral first derivatives.
 Leave Link  701 at Mon Apr 21 19:07:58 2025, MaxMem=   536870912 cpu:               1.5 elap:               0.2
 (Enter /home/szhao/Apps/g16/l702.exe)
 L702 exits ... SP integral derivatives will be done elsewhere.
 Leave Link  702 at Mon Apr 21 19:07:58 2025, MaxMem=   536870912 cpu:               0.5 elap:               0.1
 (Enter /home/szhao/Apps/g16/l703.exe)
 Integral derivatives from FoFJK, PRISM(SPDF).
 Compute integral first derivatives, UseDBF=F ICtDFT=           0.
 Calling FoFJK, ICntrl=      2127 FMM=F ISym2X=0 I1Cent= 0 IOpClX= 1 NMat=1 NMatS=1 NMatT=0.
 FoFJK:  IHMeth= 1 ICntrl=    2127 DoSepK=F KAlg= 0 I1Cent=           0 FoldK=F
 IRaf=         0 NMat=       1 IRICut=       1 DoRegI=T DoRafI=F ISym2E= 0 IDoP0=0 IntGTp=1.
 FoFCou: FMM=F IPFlag=           0 FMFlag=      100000 FMFlg1=         800
         NFxFlg=           0 DoJE=F BraDBF=F KetDBF=F FulRan=T
         wScrn=  0.000000 ICntrl=      2127 IOpCl=  1 I1Cent=           0 NGrid=           0
         NMat0=    1 NMatS0=      1 NMatT0=    0 NMatD0=    1 NMtDS0=    0 NMtDT0=    0
 Symmetry not used in FoFCou.
 Leave Link  703 at Mon Apr 21 19:08:01 2025, MaxMem=   536870912 cpu:              18.4 elap:               2.4
 (Enter /home/szhao/Apps/g16/l716.exe)
 Dipole        =-3.40820510D-01-2.21076654D-01-5.99460987D-04
 -------------------------------------------------------------------
 Center     Atomic                   Forces (Hartrees/Bohr)
 Number     Number              X              Y              Z
 -------------------------------------------------------------------
      1        6          -0.000000000   -0.000000000   -0.000000000
      2       15          -0.000000000   -0.000000000   -0.000000000
      3        1           0.004273376   -0.001404829   -0.000007144
      4        1          -0.001152927    0.000674718    0.000044042
      5        1           0.002580268    0.000232875    0.000056738
 -------------------------------------------------------------------
 Cartesian Forces:  Max     0.004273376 RMS     0.001384124
 Leave Link  716 at Mon Apr 21 19:08:01 2025, MaxMem=   536870912 cpu:               0.7 elap:               0.1
 (Enter /home/szhao/Apps/g16/l103.exe)

 GradGradGradGradGradGradGradGradGradGradGradGradGradGradGradGradGradGrad
 Berny optimization.
 Using GEDIIS/GDIIS optimizer.
 FormGI is forming the generalized inverse of G from B-inverse, IUseBI=4.
 Internal  Forces:  Max     0.006853644 RMS     0.002625176
 Search for a local minimum.
 Step number   2 out of a maximum of   25
 All quantities printed in internal units (Hartrees-Bohrs-Radians)
 RMS Force = .24132D-02 SwitMx=.10000D-02 MixMth= 1
 Mixed Optimization -- RFO/linear search
 Update second derivatives using D2CorX and points    1    2
 DE= -2.32D-03 DEPred=-1.94D-03 R= 1.20D+00
 TightC=F SS=  1.41D+00  RLast= 1.52D-01 DXNew= 5.0454D-01 4.5674D-01
 Trust test= 1.20D+00 RLast= 1.52D-01 DXMaxT set to 4.57D-01
 The second derivative matrix:
                          X1        Y1        Z1        X2        Y2
           X1           0.50637
           Y1           0.00701   0.50772
           Z1          -0.00010  -0.00011   0.50000
           X2          -0.00994  -0.01095   0.00016   0.51553
           Y2          -0.00981  -0.01080   0.00016   0.01532   0.51511
           Z2          -0.00007  -0.00007   0.00000   0.00010   0.00010
           R1           0.00464   0.00511  -0.00007  -0.00724  -0.00714
           R2           0.00251   0.00277  -0.00004  -0.00393  -0.00387
           R3           0.00082   0.00090  -0.00001  -0.00128  -0.00126
           A1          -0.00087  -0.00096   0.00001   0.00136   0.00134
           A2          -0.00740  -0.00815   0.00012   0.01156   0.01140
           A3           0.00827   0.00911  -0.00013  -0.01292  -0.01274
           A4          -0.02691  -0.02964   0.00043   0.04203   0.04146
           D1           0.00005   0.00006  -0.00000  -0.00008  -0.00008
           D2           0.00018   0.00020  -0.00000  -0.00028  -0.00028
                          Z2        R1        R2        R3        A1
           Z2           0.50000
           R1          -0.00005   0.35723
           R2          -0.00003   0.00144   0.35442
           R3          -0.00001   0.00065   0.00034   0.20803
           A1           0.00001   0.00192   0.00059  -0.00025   0.15393
           A2           0.00008  -0.00259  -0.00190  -0.00111  -0.00575
           A3          -0.00009   0.00067   0.00131   0.00136   0.01182
           A4           0.00028  -0.00839  -0.00653  -0.00408  -0.02343
           D1          -0.00000   0.00004   0.00002   0.00001   0.00000
           D2          -0.00000   0.00013   0.00007   0.00002  -0.00001
                          A2        A3        A4        D1        D2
           A2           0.16122
           A3           0.00453   0.14365
           A4           0.00166   0.02176   0.15499
           D1          -0.00005   0.00005  -0.00019   0.00230
           D2          -0.00020   0.00021  -0.00071   0.00000   0.00231
 ITU=  1  0
 Use linear search instead of GDIIS.
     Eigenvalues ---    0.00230   0.00230   0.11178   0.16000   0.18095
     Eigenvalues ---    0.20842   0.35385   0.358481000.000001000.00000
     Eigenvalues --- 1000.000001000.000001000.000001000.000001000.00000
 RFO step:  Lambda=-2.23978969D-04 EMin= 2.30014585D-03
 Quartic linear search produced a step of  0.27070.
 Iteration  1 RMS(Cart)=  0.03516488 RMS(Int)=  0.00061922
 Iteration  2 RMS(Cart)=  0.00061600 RMS(Int)=  0.00010650
 Iteration  3 RMS(Cart)=  0.00000007 RMS(Int)=  0.00010650
 ITry= 1 IFail=0 DXMaxC= 8.27D-02 DCOld= 1.00D+10 DXMaxT= 4.57D-01 DXLimC= 3.00D+00 Rises=F
 Variable       Old X    -DE/DX   Delta X   Delta X   Delta X     New X
                                 (Linear)    (Quad)   (Total)
    X1       -2.23073   0.00685   0.00000   0.00000   0.00000  -2.23073
    Y1        0.00000  -0.00137   0.00000   0.00000   0.00000   0.00000
    Z1        0.00000   0.00006   0.00000   0.00000   0.00000   0.00000
    X2        2.23073  -0.00115   0.00000   0.00000   0.00000   2.23073
    Y2        0.00000   0.00088   0.00000   0.00000   0.00000   0.00000
    Z2        0.00000   0.00003   0.00000   0.00000   0.00000   0.00000
    R1        2.05443  -0.00117   0.00151  -0.00538  -0.00387   2.05056
    R2        2.05304  -0.00099   0.00055  -0.00399  -0.00343   2.04960
    R3        2.68736  -0.00067  -0.00014  -0.00397  -0.00412   2.68325
    A1        2.15056  -0.00431  -0.00811  -0.02748  -0.03582   2.11473
    A2        2.05140  -0.00030  -0.00886   0.00492  -0.00417   2.04722
    A3        2.08123   0.00461   0.01697   0.02261   0.03934   2.12057
    A4        1.56675  -0.00311  -0.03552   0.00470  -0.03083   1.53592
    D1        0.00167  -0.00002   0.00069  -0.01276  -0.01208  -0.01041
    D2       -3.13831  -0.00010   0.00116  -0.05332  -0.05216   3.09272
         Item               Value     Threshold  Converged?
 Maximum Force            0.004615     0.000450     NO 
 RMS     Force            0.002413     0.000300     NO 
 Maximum Displacement     0.082686     0.001800     NO 
 RMS     Displacement     0.035216     0.001200     NO 
 Predicted change in Energy=-2.286272D-04
 Lowest energy point so far.  Saving SCF results.
 GradGradGradGradGradGradGradGradGradGradGradGradGradGradGradGradGradGrad

 Leave Link  103 at Mon Apr 21 19:08:02 2025, MaxMem=   536870912 cpu:               0.4 elap:               0.1
 (Enter /home/szhao/Apps/g16/l202.exe)
                          Input orientation:                          
 ---------------------------------------------------------------------
 Center     Atomic      Atomic             Coordinates (Angstroms)
 Number     Number       Type             X           Y           Z
 ---------------------------------------------------------------------
      1          6           0       -1.180452    0.000000    0.000000
      2         15           0        1.180452    0.000000    0.000000
      3          1           0       -1.742006   -0.928495    0.004515
      4          1           0        1.130947   -1.418884    0.021668
      5          1           0       -1.677860    0.963276    0.032385
 ---------------------------------------------------------------------
                    Distance matrix (angstroms):
                    1          2          3          4          5
     1  C    0.000000
     2  P    2.360905   0.000000
     3  H    1.085111   3.066412   0.000000
     4  H    2.712244   1.419913   2.914555   0.000000
     5  H    1.084604   3.016439   1.893063   3.682961   0.000000
 Symmetry turned off by external request.
 Stoichiometry    CH3P
 Framework group  C1[X(CH3P)]
 Deg. of freedom     9
 Full point group                 C1      NOp   1
 Rotational constants (GHZ):         133.9281380           8.6668184           8.1404232
 Leave Link  202 at Mon Apr 21 19:08:02 2025, MaxMem=   536870912 cpu:               0.2 elap:               0.1
 (Enter /home/szhao/Apps/g16/l301.exe)
 Standard basis: 6-311+G(d,p) (5D, 7F)
 Ernie: Thresh=  0.10000D-02 Tol=  0.10000D-05 Strict=F.
    70 basis functions,   110 primitive gaussians,    72 cartesian basis functions
    12 alpha electrons       12 beta electrons
       nuclear repulsion energy        38.6118860841 Hartrees.
 IExCor= 4336 DFT=T Ex+Corr=M062X ExCW=0 ScaHFX=  0.540000
 ScaDFX=  1.000000  1.000000  1.000000  1.000000 ScalE2=  1.000000  1.000000
 IRadAn=      7 IRanWt=     -1 IRanGd=            0 ICorTp=0 IEmpDi=  4
 NAtoms=    5 NActive=    5 NUniq=    5 SFac= 1.00D+00 NAtFMM=   60 NAOKFM=F Big=F
 Integral buffers will be    131072 words long.
 Raffenetti 2 integral format.
 Two-electron integral symmetry is turned off.
 Leave Link  301 at Mon Apr 21 19:08:02 2025, MaxMem=   536870912 cpu:               0.8 elap:               0.2
 (Enter /home/szhao/Apps/g16/l302.exe)
 NPDir=0 NMtPBC=     1 NCelOv=     1 NCel=       1 NClECP=     1 NCelD=      1
         NCelK=      1 NCelE2=     1 NClLst=     1 CellRange=     0.0.
 One-electron integrals computed using PRISM.
 NBasis=    70 RedAO= T EigKep=  3.66D-03  NBF=    70
 NBsUse=    70 1.00D-06 EigRej= -1.00D+00 NBFU=    70
 Precomputing XC quadrature grid using
 IXCGrd= 4 IRadAn=           7 IRanWt=          -1 IRanGd=           0 AccXCQ= 0.00D+00.
 Generated NRdTot=       0 NPtTot=           0 NUsed=           0 NTot=          32
 NSgBfM=    72    72    72    72    72 MxSgAt=     5 MxSgA2=     5.
 Leave Link  302 at Mon Apr 21 19:08:03 2025, MaxMem=   536870912 cpu:               1.9 elap:               0.3
 (Enter /home/szhao/Apps/g16/l303.exe)
 DipDrv:  MaxL=1.
 Leave Link  303 at Mon Apr 21 19:08:03 2025, MaxMem=   536870912 cpu:               0.6 elap:               0.1
 (Enter /home/szhao/Apps/g16/l401.exe)
 Initial guess from the checkpoint file:  "opt.chk"
 B after Tr=    -0.000404   -0.001379    0.005974
         Rot=    1.000000    0.000115   -0.000892   -0.000099 Ang=   0.10 deg.
 Guess basis will be translated and rotated to current coordinates.
 JPrj=2 DoOrth=T DoCkMO=T.
 Initial guess <Sx>= 0.0000 <Sy>= 0.0000 <Sz>= 0.0000 <S**2>= 0.0000 S= 0.0000
 Generating alternative initial guess.
 ExpMin= 3.48D-02 ExpMax= 7.75D+04 ExpMxC= 2.65D+03 IAcc=3 IRadAn=         5 AccDes= 0.00D+00
 Harris functional with IExCor= 1009 and IRadAn=       5 diagonalized for initial guess.
 HarFok:  IExCor= 1009 AccDes= 0.00D+00 IRadAn=         5 IDoV= 1 UseB2=F ITyADJ=14
 ICtDFT=  3500011 ScaDFX=  1.000000  1.000000  1.000000  1.000000
 FoFCou: FMM=F IPFlag=           0 FMFlag=      100000 FMFlg1=           0
         NFxFlg=           0 DoJE=T BraDBF=F KetDBF=T FulRan=T
         wScrn=  0.000000 ICntrl=       500 IOpCl=  0 I1Cent=   200000004 NGrid=           0
         NMat0=    1 NMatS0=      1 NMatT0=    0 NMatD0=    1 NMtDS0=    0 NMtDT0=    0
 Symmetry not used in FoFCou.
 Harris En= -380.939301756937    
 Leave Link  401 at Mon Apr 21 19:08:04 2025, MaxMem=   536870912 cpu:               4.0 elap:               0.6
 (Enter /home/szhao/Apps/g16/l502.exe)
 Keep R1 and R2 ints in memory in canonical form, NReq=13385587.
 FoFCou: FMM=F IPFlag=           0 FMFlag=           0 FMFlg1=           0
         NFxFlg=           0 DoJE=F BraDBF=F KetDBF=F FulRan=T
         wScrn=  0.000000 ICntrl=       600 IOpCl=  0 I1Cent=           0 NGrid=           0
         NMat0=    1 NMatS0=   2485 NMatT0=    0 NMatD0=    1 NMtDS0=    0 NMtDT0=    0
 Symmetry not used in FoFCou.
 Two-electron integral symmetry not used.
 UHF open shell SCF:
 Using DIIS extrapolation, IDIIS=  1040.
 NGot=   536870912 LenX=   530681581 LenY=   530675956
 Requested convergence on RMS density matrix=1.00D-08 within 128 cycles.
 Requested convergence on MAX density matrix=1.00D-06.
 Requested convergence on             energy=1.00D-06.
 No special actions if energy rises.

 Cycle   1  Pass 1  IDiag  1:
 E= -381.061816458455    
 DIIS: error= 9.78D-04 at cycle   1 NSaved=   1.
 NSaved= 1 IEnMin= 1 EnMin= -381.061816458455     IErMin= 1 ErrMin= 9.78D-04
 ErrMax= 9.78D-04  0.00D+00 EMaxC= 1.00D-01 BMatC= 5.44D-04 BMatP= 5.44D-04
 IDIUse=3 WtCom= 9.90D-01 WtEn= 9.78D-03
 Coeff-Com:  0.100D+01
 Coeff-En:   0.100D+01
 Coeff:      0.100D+01
 Gap=     0.419 Goal=   None    Shift=    0.000
 Gap=     0.419 Goal=   None    Shift=    0.000
 RMSDP=2.13D-04 MaxDP=2.05D-03              OVMax= 7.37D-03

 Cycle   2  Pass 1  IDiag  1:
 E= -381.062073002161     Delta-E=       -0.000256543707 Rises=F Damp=F
 DIIS: error= 2.55D-04 at cycle   2 NSaved=   2.
 NSaved= 2 IEnMin= 2 EnMin= -381.062073002161     IErMin= 2 ErrMin= 2.55D-04
 ErrMax= 2.55D-04  0.00D+00 EMaxC= 1.00D-01 BMatC= 2.12D-05 BMatP= 5.44D-04
 IDIUse=3 WtCom= 9.97D-01 WtEn= 2.55D-03
 Coeff-Com: -0.128D+00 0.113D+01
 Coeff-En:   0.000D+00 0.100D+01
 Coeff:     -0.128D+00 0.113D+01
 Gap=     0.166 Goal=   None    Shift=    0.000
 Gap=     0.166 Goal=   None    Shift=    0.000
 RMSDP=9.31D-05 MaxDP=1.70D-03 DE=-2.57D-04 OVMax= 5.08D-03

 Cycle   3  Pass 1  IDiag  1:
 E= -381.062082242424     Delta-E=       -0.000009240262 Rises=F Damp=F
 DIIS: error= 5.56D-04 at cycle   3 NSaved=   3.
 NSaved= 3 IEnMin= 3 EnMin= -381.062082242424     IErMin= 2 ErrMin= 2.55D-04
 ErrMax= 5.56D-04  0.00D+00 EMaxC= 1.00D-01 BMatC= 4.38D-05 BMatP= 2.12D-05
 IDIUse=3 WtCom= 2.98D-01 WtEn= 7.02D-01
 Coeff-Com: -0.103D+00 0.789D+00 0.314D+00
 Coeff-En:   0.000D+00 0.594D-01 0.941D+00
 Coeff:     -0.307D-01 0.277D+00 0.754D+00
 Gap=     0.167 Goal=   None    Shift=    0.000
 Gap=     0.167 Goal=   None    Shift=    0.000
 RMSDP=1.07D-04 MaxDP=2.53D-03 DE=-9.24D-06 OVMax= 6.80D-03

 Cycle   4  Pass 1  IDiag  1:
 E= -381.062042163411     Delta-E=        0.000040079013 Rises=F Damp=F
 DIIS: error= 1.21D-03 at cycle   4 NSaved=   4.
 NSaved= 4 IEnMin= 3 EnMin= -381.062082242424     IErMin= 2 ErrMin= 2.55D-04
 ErrMax= 1.21D-03  0.00D+00 EMaxC= 1.00D-01 BMatC= 1.62D-04 BMatP= 2.12D-05
 IDIUse=3 WtCom= 2.23D-01 WtEn= 7.77D-01
 Coeff-Com: -0.722D-02-0.896D-01 0.717D+00 0.380D+00
 Coeff-En:   0.000D+00 0.000D+00 0.712D+00 0.288D+00
 Coeff:     -0.161D-02-0.200D-01 0.713D+00 0.309D+00
 Gap=     0.166 Goal=   None    Shift=    0.000
 Gap=     0.166 Goal=   None    Shift=    0.000
 RMSDP=5.99D-05 MaxDP=1.58D-03 DE= 4.01D-05 OVMax= 4.38D-03

 Cycle   5  Pass 1  IDiag  1:
 E= -381.062097967165     Delta-E=       -0.000055803754 Rises=F Damp=F
 DIIS: error= 2.05D-04 at cycle   5 NSaved=   5.
 NSaved= 5 IEnMin= 5 EnMin= -381.062097967165     IErMin= 5 ErrMin= 2.05D-04
 ErrMax= 2.05D-04  0.00D+00 EMaxC= 1.00D-01 BMatC= 3.68D-06 BMatP= 2.12D-05
 IDIUse=3 WtCom= 9.98D-01 WtEn= 2.05D-03
 Coeff-Com:  0.109D-01-0.107D+00-0.708D-01-0.226D+00 0.139D+01
 Coeff-En:   0.000D+00 0.000D+00 0.352D-01 0.000D+00 0.965D+00
 Coeff:      0.108D-01-0.107D+00-0.705D-01-0.225D+00 0.139D+01
 Gap=     0.166 Goal=   None    Shift=    0.000
 Gap=     0.166 Goal=   None    Shift=    0.000
 RMSDP=2.27D-05 MaxDP=4.82D-04 DE=-5.58D-05 OVMax= 1.51D-03

 Cycle   6  Pass 1  IDiag  1:
 E= -381.062099932728     Delta-E=       -0.000001965563 Rises=F Damp=F
 DIIS: error= 1.87D-05 at cycle   6 NSaved=   6.
 NSaved= 6 IEnMin= 6 EnMin= -381.062099932728     IErMin= 6 ErrMin= 1.87D-05
 ErrMax= 1.87D-05  0.00D+00 EMaxC= 1.00D-01 BMatC= 1.15D-07 BMatP= 3.68D-06
 IDIUse=1 WtCom= 1.00D+00 WtEn= 0.00D+00
 Coeff-Com: -0.281D-02 0.482D-01-0.131D+00-0.173D-01-0.187D+00 0.129D+01
 Coeff:     -0.281D-02 0.482D-01-0.131D+00-0.173D-01-0.187D+00 0.129D+01
 Gap=     0.166 Goal=   None    Shift=    0.000
 Gap=     0.166 Goal=   None    Shift=    0.000
 RMSDP=7.26D-06 MaxDP=1.02D-04 DE=-1.97D-06 OVMax= 3.38D-04

 Cycle   7  Pass 1  IDiag  1:
 E= -381.062100034526     Delta-E=       -0.000000101799 Rises=F Damp=F
 DIIS: error= 6.35D-06 at cycle   7 NSaved=   7.
 NSaved= 7 IEnMin= 7 EnMin= -381.062100034526     IErMin= 7 ErrMin= 6.35D-06
 ErrMax= 6.35D-06  0.00D+00 EMaxC= 1.00D-01 BMatC= 7.71D-09 BMatP= 1.15D-07
 IDIUse=1 WtCom= 1.00D+00 WtEn= 0.00D+00
 Coeff-Com: -0.205D-02 0.245D-01-0.259D-01 0.206D-01-0.185D+00 0.220D+00
 Coeff-Com:  0.948D+00
 Coeff:     -0.205D-02 0.245D-01-0.259D-01 0.206D-01-0.185D+00 0.220D+00
 Coeff:      0.948D+00
 Gap=     0.166 Goal=   None    Shift=    0.000
 Gap=     0.166 Goal=   None    Shift=    0.000
 RMSDP=1.72D-06 MaxDP=2.49D-05 DE=-1.02D-07 OVMax= 8.34D-05

 Cycle   8  Pass 1  IDiag  1:
 E= -381.062100040744     Delta-E=       -0.000000006218 Rises=F Damp=F
 DIIS: error= 1.00D-06 at cycle   8 NSaved=   8.
 NSaved= 8 IEnMin= 8 EnMin= -381.062100040744     IErMin= 8 ErrMin= 1.00D-06
 ErrMax= 1.00D-06  0.00D+00 EMaxC= 1.00D-01 BMatC= 3.12D-10 BMatP= 7.71D-09
 IDIUse=1 WtCom= 1.00D+00 WtEn= 0.00D+00
 Coeff-Com:  0.214D-03-0.404D-02 0.106D-01 0.215D-02 0.156D-01-0.117D+00
 Coeff-Com:  0.944D-02 0.108D+01
 Coeff:      0.214D-03-0.404D-02 0.106D-01 0.215D-02 0.156D-01-0.117D+00
 Coeff:      0.944D-02 0.108D+01
 Gap=     0.166 Goal=   None    Shift=    0.000
 Gap=     0.166 Goal=   None    Shift=    0.000
 RMSDP=3.83D-07 MaxDP=6.25D-06 DE=-6.22D-09 OVMax= 1.55D-05

 Cycle   9  Pass 1  IDiag  1:
 E= -381.062100041045     Delta-E=       -0.000000000301 Rises=F Damp=F
 DIIS: error= 2.78D-07 at cycle   9 NSaved=   9.
 NSaved= 9 IEnMin= 9 EnMin= -381.062100041045     IErMin= 9 ErrMin= 2.78D-07
 ErrMax= 2.78D-07  0.00D+00 EMaxC= 1.00D-01 BMatC= 2.26D-11 BMatP= 3.12D-10
 IDIUse=1 WtCom= 1.00D+00 WtEn= 0.00D+00
 Coeff-Com:  0.145D-03-0.205D-02 0.343D-02-0.584D-03 0.135D-01-0.317D-01
 Coeff-Com: -0.501D-01 0.169D+00 0.898D+00
 Coeff:      0.145D-03-0.205D-02 0.343D-02-0.584D-03 0.135D-01-0.317D-01
 Coeff:     -0.501D-01 0.169D+00 0.898D+00
 Gap=     0.166 Goal=   None    Shift=    0.000
 Gap=     0.166 Goal=   None    Shift=    0.000
 RMSDP=8.03D-08 MaxDP=8.64D-07 DE=-3.01D-10 OVMax= 3.39D-06

 Cycle  10  Pass 1  IDiag  1:
 E= -381.062100041066     Delta-E=       -0.000000000020 Rises=F Damp=F
 DIIS: error= 1.34D-07 at cycle  10 NSaved=  10.
 NSaved=10 IEnMin=10 EnMin= -381.062100041066     IErMin=10 ErrMin= 1.34D-07
 ErrMax= 1.34D-07  0.00D+00 EMaxC= 1.00D-01 BMatC= 6.55D-12 BMatP= 2.26D-11
 IDIUse=1 WtCom= 1.00D+00 WtEn= 0.00D+00
 Coeff-Com: -0.622D-04 0.989D-03-0.209D-02 0.255D-03-0.609D-02 0.220D-01
 Coeff-Com:  0.162D-01-0.200D+00-0.126D+00 0.129D+01
 Coeff:     -0.622D-04 0.989D-03-0.209D-02 0.255D-03-0.609D-02 0.220D-01
 Coeff:      0.162D-01-0.200D+00-0.126D+00 0.129D+01
 Gap=     0.166 Goal=   None    Shift=    0.000
 Gap=     0.166 Goal=   None    Shift=    0.000
 RMSDP=5.80D-08 MaxDP=8.74D-07 DE=-2.03D-11 OVMax= 2.49D-06

 Cycle  11  Pass 1  IDiag  1:
 E= -381.062100041073     Delta-E=       -0.000000000008 Rises=F Damp=F
 DIIS: error= 4.49D-08 at cycle  11 NSaved=  11.
 NSaved=11 IEnMin=11 EnMin= -381.062100041073     IErMin=11 ErrMin= 4.49D-08
 ErrMax= 4.49D-08  0.00D+00 EMaxC= 1.00D-01 BMatC= 6.55D-13 BMatP= 6.55D-12
 IDIUse=1 WtCom= 1.00D+00 WtEn= 0.00D+00
 Coeff-Com: -0.440D-05 0.248D-04 0.130D-03 0.170D-03-0.648D-03-0.108D-02
 Coeff-Com:  0.245D-02 0.274D-01-0.640D-01-0.388D+00 0.142D+01
 Coeff:     -0.440D-05 0.248D-04 0.130D-03 0.170D-03-0.648D-03-0.108D-02
 Coeff:      0.245D-02 0.274D-01-0.640D-01-0.388D+00 0.142D+01
 Gap=     0.166 Goal=   None    Shift=    0.000
 Gap=     0.166 Goal=   None    Shift=    0.000
 RMSDP=2.48D-08 MaxDP=3.55D-07 DE=-7.50D-12 OVMax= 1.18D-06

 Cycle  12  Pass 1  IDiag  1:
 E= -381.062100041074     Delta-E=       -0.000000000001 Rises=F Damp=F
 DIIS: error= 7.00D-09 at cycle  12 NSaved=  12.
 NSaved=12 IEnMin=12 EnMin= -381.062100041074     IErMin=12 ErrMin= 7.00D-09
 ErrMax= 7.00D-09  0.00D+00 EMaxC= 1.00D-01 BMatC= 2.24D-14 BMatP= 6.55D-13
 IDIUse=1 WtCom= 1.00D+00 WtEn= 0.00D+00
 Coeff-Com:  0.274D-05-0.479D-04 0.115D-03 0.595D-05 0.257D-03-0.122D-02
 Coeff-Com: -0.434D-03 0.123D-01 0.503D-02-0.114D+00 0.101D+00 0.997D+00
 Coeff:      0.274D-05-0.479D-04 0.115D-03 0.595D-05 0.257D-03-0.122D-02
 Coeff:     -0.434D-03 0.123D-01 0.503D-02-0.114D+00 0.101D+00 0.997D+00
 Gap=     0.166 Goal=   None    Shift=    0.000
 Gap=     0.166 Goal=   None    Shift=    0.000
 RMSDP=3.52D-09 MaxDP=4.80D-08 DE=-1.19D-12 OVMax= 1.78D-07

 SCF Done:  E(UM062X) =  -381.062100041     A.U. after   12 cycles
            NFock= 12  Conv=0.35D-08     -V/T= 2.0029
 <Sx>= 0.0000 <Sy>= 0.0000 <Sz>= 0.0000 <S**2>=-0.0000 S=-0.0000
 <L.S>=  0.00000000000    
 KE= 3.799576025053D+02 PE=-9.809038472610D+02 EE= 1.812722586306D+02
 Annihilation of the first spin contaminant:
 S**2 before annihilation    -0.0000,   after     0.0000
 Leave Link  502 at Mon Apr 21 19:08:16 2025, MaxMem=   536870912 cpu:              96.3 elap:              12.5
 (Enter /home/szhao/Apps/g16/l701.exe)
 ... and contract with generalized density number  0.
 Compute integral first derivatives.
 Leave Link  701 at Mon Apr 21 19:08:17 2025, MaxMem=   536870912 cpu:               1.5 elap:               0.2
 (Enter /home/szhao/Apps/g16/l702.exe)
 L702 exits ... SP integral derivatives will be done elsewhere.
 Leave Link  702 at Mon Apr 21 19:08:17 2025, MaxMem=   536870912 cpu:               0.8 elap:               0.3
 (Enter /home/szhao/Apps/g16/l703.exe)
 Integral derivatives from FoFJK, PRISM(SPDF).
 Compute integral first derivatives, UseDBF=F ICtDFT=           0.
 Calling FoFJK, ICntrl=      2127 FMM=F ISym2X=0 I1Cent= 0 IOpClX= 1 NMat=1 NMatS=1 NMatT=0.
 FoFJK:  IHMeth= 1 ICntrl=    2127 DoSepK=F KAlg= 0 I1Cent=           0 FoldK=F
 IRaf=         0 NMat=       1 IRICut=       1 DoRegI=T DoRafI=F ISym2E= 0 IDoP0=0 IntGTp=1.
 FoFCou: FMM=F IPFlag=           0 FMFlag=      100000 FMFlg1=         800
         NFxFlg=           0 DoJE=F BraDBF=F KetDBF=F FulRan=T
         wScrn=  0.000000 ICntrl=      2127 IOpCl=  1 I1Cent=           0 NGrid=           0
         NMat0=    1 NMatS0=      1 NMatT0=    0 NMatD0=    1 NMtDS0=    0 NMtDT0=    0
 Symmetry not used in FoFCou.
 Leave Link  703 at Mon Apr 21 19:08:20 2025, MaxMem=   536870912 cpu:              16.0 elap:               2.0
 (Enter /home/szhao/Apps/g16/l716.exe)
 Dipole        =-3.38280211D-01-2.22270501D-01 1.56365965D-02
 -------------------------------------------------------------------
 Center     Atomic                   Forces (Hartrees/Bohr)
 Number     Number              X              Y              Z
 -------------------------------------------------------------------
      1        6          -0.000000000   -0.000000000   -0.000000000
      2       15          -0.000000000   -0.000000000   -0.000000000
      3        1           0.001956104   -0.000679021   -0.000081044
      4        1           0.000364163   -0.000159727   -0.000533522
      5        1           0.000506064   -0.000158940   -0.000893694
 -------------------------------------------------------------------
 Cartesian Forces:  Max     0.001956104 RMS     0.000622726
 Leave Link  716 at Mon Apr 21 19:08:20 2025, MaxMem=   536870912 cpu:               0.6 elap:               0.1
 (Enter /home/szhao/Apps/g16/l103.exe)

 GradGradGradGradGradGradGradGradGradGradGradGradGradGradGradGradGradGrad
 Berny optimization.
 Using GEDIIS/GDIIS optimizer.
 FormGI is forming the generalized inverse of G from B-inverse, IUseBI=4.
 Internal  Forces:  Max     0.002502220 RMS     0.001297528
 Search for a local minimum.
 Step number   3 out of a maximum of   25
 All quantities printed in internal units (Hartrees-Bohrs-Radians)
 RMS Force = .12282D-02 SwitMx=.10000D-02 MixMth= 1
 Mixed Optimization -- RFO/linear search
 Update second derivatives using D2CorX and points    1    2    3
 DE= -2.46D-04 DEPred=-2.29D-04 R= 1.07D+00
 TightC=F SS=  1.41D+00  RLast= 8.19D-02 DXNew= 7.6813D-01 2.4572D-01
 Trust test= 1.07D+00 RLast= 8.19D-02 DXMaxT set to 4.57D-01
 The second derivative matrix:
                          X1        Y1        Z1        X2        Y2
           X1           0.55437
           Y1           0.00950   0.50369
           Z1           0.01415   0.00186   0.50386
           X2          -0.02365  -0.00661  -0.00542   0.51330
           Y2          -0.00551  -0.00412  -0.00049   0.00624   0.50547
           Z2           0.00420   0.00054   0.00115  -0.00159  -0.00013
           R1           0.00363   0.00710  -0.00098  -0.00945  -0.01042
           R2           0.00140   0.00465  -0.00095  -0.00597  -0.00698
           R3          -0.00507   0.00163  -0.00207  -0.00086  -0.00340
           A1          -0.00259   0.00962  -0.00368  -0.01112  -0.01538
           A2          -0.02330  -0.00831  -0.00480   0.01529   0.00894
           A3           0.02574  -0.00107   0.00836  -0.00442   0.00604
           A4          -0.07290  -0.02402  -0.01560   0.04543   0.02492
           D1           0.00106   0.00023   0.00026  -0.00052  -0.00018
           D2          -0.01826  -0.00208  -0.00508   0.00660   0.00013
                          Z2        R1        R2        R3        A1
           Z2           0.50034
           R1          -0.00033   0.35624
           R2          -0.00031   0.00051   0.35354
           R3          -0.00063   0.00027  -0.00000   0.20850
           A1          -0.00115  -0.00331  -0.00435  -0.00270   0.12658
           A2          -0.00140  -0.00259  -0.00184   0.00068  -0.00689
           A3           0.00251   0.00578   0.00608   0.00198   0.03968
           A4          -0.00456  -0.01138  -0.00920  -0.00043  -0.04232
           D1           0.00008  -0.00005  -0.00006  -0.00015  -0.00036
           D2          -0.00151   0.00117   0.00112   0.00262   0.00406
                          A2        A3        A4        D1        D2
           A2           0.16638
           A3           0.00052   0.12041
           A4           0.01562   0.02638   0.18364
           D1          -0.00041   0.00075  -0.00140   0.00232
           D2           0.00612  -0.01005   0.01951  -0.00035   0.00896
 ITU=  1  1  0
 Use linear search instead of GDIIS.
     Eigenvalues ---    0.00235   0.00314   0.06786   0.16020   0.20824
     Eigenvalues ---    0.21361   0.35372   0.357571000.000001000.00000
     Eigenvalues --- 1000.000001000.000001000.000001000.000001000.00000
 RFO step:  Lambda=-1.00193548D-03 EMin= 2.34834091D-03
[...]
      2       15          -0.000000000   -0.000000000   -0.000000000
      3        1          -0.000003117   -0.000001634    0.000004885
      4        1          -0.000002231    0.000001438    0.000003439
      5        1          -0.000002560    0.000002157   -0.000001395
 -------------------------------------------------------------------
 Cartesian Forces:  Max     0.000004885 RMS     0.000002133
 Leave Link  716 at Mon Apr 21 19:10:04 2025, MaxMem=   536870912 cpu:               0.8 elap:               0.2
 (Enter /home/szhao/Apps/g16/l103.exe)

 GradGradGradGradGradGradGradGradGradGradGradGradGradGradGradGradGradGrad
 Berny optimization.
 Using GEDIIS/GDIIS optimizer.
 FormGI is forming the generalized inverse of G from B-inverse, IUseBI=4.
 Internal  Forces:  Max     0.000006108 RMS     0.000003147
 Search for a local minimum.
 Step number   9 out of a maximum of   25
 All quantities printed in internal units (Hartrees-Bohrs-Radians)
 RMS Force = .31030D-05 SwitMx=.10000D-02 MixMth= 2
 Mixed Optimization -- En-DIIS/RFO-DIIS
 Swapping is turned off.
 Update second derivatives using D2CorX and points    1    2    4    3    6
                                                      5    7    8    9
 DE= -5.41D-07 DEPred=-5.36D-07 R= 1.01D+00
 Trust test= 1.01D+00 RLast= 4.32D-03 DXMaxT set to 1.92D-01
 The second derivative matrix:
                          X1        Y1        Z1        X2        Y2
           X1           0.61312
           Y1           0.01164   0.53067
           Z1           0.00211   0.00573   0.52989
           X2          -0.00180  -0.01480  -0.00173   0.51750
           Y2           0.00368  -0.02002   0.00035   0.01210   0.51790
           Z2          -0.00141  -0.00076  -0.00536  -0.00038  -0.00162
           R1          -0.02850   0.01152  -0.00272  -0.01076  -0.02623
           R2          -0.01599   0.01031  -0.00079  -0.00586  -0.01682
           R3          -0.02211  -0.00135  -0.00424  -0.00262  -0.01475
           A1          -0.03971   0.02077   0.00483  -0.00514  -0.02074
           A2          -0.04024  -0.02992   0.00289   0.00533   0.01206
           A3           0.06474   0.00889   0.00316  -0.00286  -0.00790
           A4          -0.01054  -0.04161  -0.00486   0.04952   0.03167
           D1           0.00325   0.00403   0.02270  -0.00003   0.00278
           D2          -0.00054  -0.00289  -0.02518   0.00016   0.00016
                          Z2        R1        R2        R3        A1
           Z2           0.50687
           R1          -0.00019   0.35778
           R2          -0.00022   0.00176   0.35495
           R3          -0.00027   0.00274   0.00153   0.20997
           A1          -0.00017  -0.00103  -0.00402   0.00473   0.06967
           A2          -0.00133  -0.00134  -0.00219   0.00373   0.01306
           A3          -0.00119   0.01586   0.01398   0.00299   0.00731
           A4          -0.00124  -0.00072  -0.00032  -0.00260  -0.01373
           D1          -0.01216   0.00018   0.00050  -0.00044  -0.00006
           D2          -0.00365  -0.00094  -0.00131   0.00054  -0.00038
                          A2        A3        A4        D1        D2
           A2           0.07064
           A3           0.00549   0.07952
           A4           0.01670  -0.00646   0.14350
           D1           0.00032   0.00051   0.00027   0.02864
           D2           0.00010   0.00027   0.00001  -0.00831   0.03333
 ITU=  0  0  1 -1  0 -1  1  1  0
     Eigenvalues ---    0.02233   0.03961   0.05203   0.07030   0.14900
     Eigenvalues ---    0.21003   0.35423   0.359931000.000001000.00000
     Eigenvalues --- 1000.000001000.000001000.000001000.000001000.00000
 En-DIIS/RFO-DIIS/Sim-DIIS IScMMF=       -3 using points:     9    8    7
 RFO step:  Lambda=-6.97403406D-10.
 NNeg= 0 NGDIIS= 3 SimSw=  2.50D-01 Rises=F DC= -5.41D-07 SmlDif=  1.00D-05
 NRisDI= 0 DoIntr=F SqrtH=F CThrHd= 10.0 CDAdj=  3.0
 RMS Error=  0.3786196304D-04 NUsed= 3 OKEnD=F EnDIS=F
 InvSVX:  RCond= 7.09D-08 Info=           0 Equed=N FErr=  2.10D-14 BErr=  4.70D-17
 DIIS inversion failure, remove point   3.
 InvSVX:  RCond= 4.67D-06 Info=           0 Equed=N FErr=  9.11D-16 BErr=  7.56D-17
 RFO-DIIS uses    2 points instead of    3
 DidBck=F Rises=F RFO-DIIS coefs:    1.01056   -0.01056    0.00000
 Iteration  1 RMS(Cart)=  0.00006709 RMS(Int)=  0.00000000
 Iteration  2 RMS(Cart)=  0.00000000 RMS(Int)=  0.00000000
 ITry= 1 IFail=0 DXMaxC= 1.86D-04 DCOld= 1.00D+10 DXMaxT= 1.92D-01 DXLimC= 3.00D+00 Rises=F
 Variable       Old X    -DE/DX   Delta X   Delta X   Delta X     New X
                                 (Linear)    (Quad)   (Total)
    X1       -2.23073  -0.00001   0.00000   0.00000   0.00000  -2.23073
    Y1        0.00000   0.00000   0.00000   0.00000   0.00000   0.00000
    Z1        0.00000   0.00000   0.00000   0.00000   0.00000   0.00000
    X2        2.23073  -0.00000   0.00000   0.00000   0.00000   2.23073
    Y2        0.00000  -0.00000   0.00000   0.00000   0.00000   0.00000
    Z2        0.00000  -0.00000   0.00000   0.00000   0.00000   0.00000
    R1        2.04827   0.00000   0.00000   0.00001   0.00001   2.04828
    R2        2.04726   0.00000   0.00000   0.00001   0.00001   2.04727
    R3        2.68406  -0.00000  -0.00000  -0.00001  -0.00001   2.68406
    A1        2.07287   0.00000  -0.00002   0.00004   0.00002   2.07289
    A2        2.06529   0.00000   0.00004  -0.00002   0.00002   2.06531
    A3        2.14502  -0.00000  -0.00002  -0.00002  -0.00004   2.14499
    A4        1.53742  -0.00001  -0.00001  -0.00003  -0.00004   1.53738
    D1       -0.00047   0.00000   0.00000   0.00012   0.00013  -0.00035
    D2        3.14132  -0.00000   0.00000  -0.00004  -0.00004   3.14128
         Item               Value     Threshold  Converged?
 Maximum Force            0.000006     0.000450     YES
 RMS     Force            0.000003     0.000300     YES
 Maximum Displacement     0.000186     0.001800     YES
 RMS     Displacement     0.000067     0.001200     YES
 Predicted change in Energy=-5.229283D-10
 Optimization completed.
    -- Stationary point found.
                           ----------------------------
                           !   Optimized Parameters   !
                           ! (Angstroms and Degrees)  !
 --------------------------                            --------------------------
 ! Name  Definition              Value          Derivative Info.                !
 --------------------------------------------------------------------------------
 ! X1    R(1,-1)                -1.1805         -DE/DX =    0.0                 !
 ! Y1    R(1,-2)                 0.0            -DE/DX =    0.0                 !
 ! Z1    R(1,-3)                 0.0            -DE/DX =    0.0                 !
 ! X2    R(2,-1)                 1.1805         -DE/DX =    0.0                 !
 ! Y2    R(2,-2)                 0.0            -DE/DX =    0.0                 !
 ! Z2    R(2,-3)                 0.0            -DE/DX =    0.0                 !
 ! R1    R(1,3)                  1.0839         -DE/DX =    0.0                 !
 ! R2    R(1,5)                  1.0834         -DE/DX =    0.0                 !
 ! R3    R(2,4)                  1.4203         -DE/DX =    0.0                 !
 ! A1    A(2,1,3)              118.7666         -DE/DX =    0.0                 !
 ! A2    A(2,1,5)              118.3326         -DE/DX =    0.0                 !
 ! A3    A(3,1,5)              122.9008         -DE/DX =    0.0                 !
 ! A4    A(1,2,4)               88.0879         -DE/DX =    0.0                 !
 ! D1    D(3,1,2,4)             -0.0271         -DE/DX =    0.0                 !
 ! D2    D(5,1,2,4)            179.9843         -DE/DX =    0.0                 !
 --------------------------------------------------------------------------------
 Lowest energy point so far.  Saving SCF results.
 Largest change from initial coordinates is atom    4       0.024 Angstoms.
 GradGradGradGradGradGradGradGradGradGradGradGradGradGradGradGradGradGrad

 Leave Link  103 at Mon Apr 21 19:10:04 2025, MaxMem=   536870912 cpu:               0.6 elap:               0.1
 (Enter /home/szhao/Apps/g16/l202.exe)
                          Input orientation:                          
 ---------------------------------------------------------------------
 Center     Atomic      Atomic             Coordinates (Angstroms)
 Number     Number       Type             X           Y           Z
 ---------------------------------------------------------------------
      1          6           0       -1.180452    0.000000    0.000000
      2         15           0        1.180452    0.000000    0.000000
      3          1           0       -1.702069   -0.950039    0.013068
      4          1           0        1.133061   -1.419410    0.020195
      5          1           0       -1.694606    0.953494   -0.013305
 ---------------------------------------------------------------------
                    Distance matrix (angstroms):
                    1          2          3          4          5
     1  C    0.000000
     2  P    2.360905   0.000000
     3  H    1.083895   3.035074   0.000000
     4  H    2.714309   1.420345   2.873729   0.000000
     5  H    1.083366   3.029074   1.903731   3.691544   0.000000
 Symmetry turned off by external request.
 Stoichiometry    CH3P
 Framework group  C1[X(CH3P)]
 Deg. of freedom     9
 Full point group                 C1      NOp   1
 Rotational constants (GHZ):         133.1820015           8.6818582           8.1505414
 Leave Link  202 at Mon Apr 21 19:10:05 2025, MaxMem=   536870912 cpu:               0.7 elap:               0.2
 (Enter /home/szhao/Apps/g16/l601.exe)
 Copying SCF densities to generalized density rwf, IOpCl= 1 IROHF=0.

 **********************************************************************

            Population analysis using the SCF density.

 **********************************************************************

 Alpha  occ. eigenvalues --  -78.06170 -10.62465  -6.88069  -4.99572  -4.99438
 Alpha  occ. eigenvalues --   -4.99336  -0.76672  -0.66294  -0.51993  -0.39619
 Alpha  occ. eigenvalues --   -0.34491  -0.26520
 Alpha virt. eigenvalues --   -0.09900  -0.02667   0.02204   0.04332   0.05060
 Alpha virt. eigenvalues --    0.05562   0.06577   0.07275   0.10292   0.10929
 Alpha virt. eigenvalues --    0.14523   0.18771   0.20923   0.30294   0.31675
 Alpha virt. eigenvalues --    0.33315   0.41451   0.42792   0.45000   0.55771
 Alpha virt. eigenvalues --    0.56967   0.65292   0.65763   0.68261   0.71346
 Alpha virt. eigenvalues --    0.75233   0.78413   0.89548   0.93605   1.07974
 Alpha virt. eigenvalues --    1.25992   1.32750   1.41326   1.46877   1.49648
 Alpha virt. eigenvalues --    1.52278   1.55471   1.58978   1.75194   1.77973
 Alpha virt. eigenvalues --    1.78332   1.97827   2.02814   2.04595   2.41725
 Alpha virt. eigenvalues --    2.51011   2.57866   2.60999   2.63505   2.76902
 Alpha virt. eigenvalues --    3.00714   3.72293   6.89607  13.97596  14.02787
 Alpha virt. eigenvalues --   14.05055  23.79695 163.15348
  Beta  occ. eigenvalues --  -78.06170 -10.62465  -6.88069  -4.99572  -4.99438
  Beta  occ. eigenvalues --   -4.99336  -0.76672  -0.66294  -0.51993  -0.39619
  Beta  occ. eigenvalues --   -0.34491  -0.26520
  Beta virt. eigenvalues --   -0.09900  -0.02667   0.02204   0.04332   0.05060
  Beta virt. eigenvalues --    0.05562   0.06577   0.07275   0.10292   0.10929
  Beta virt. eigenvalues --    0.14523   0.18771   0.20923   0.30294   0.31675
  Beta virt. eigenvalues --    0.33315   0.41451   0.42792   0.45000   0.55771
  Beta virt. eigenvalues --    0.56967   0.65292   0.65763   0.68261   0.71346
  Beta virt. eigenvalues --    0.75233   0.78413   0.89548   0.93605   1.07974
  Beta virt. eigenvalues --    1.25992   1.32750   1.41326   1.46877   1.49648
  Beta virt. eigenvalues --    1.52278   1.55471   1.58978   1.75194   1.77973
  Beta virt. eigenvalues --    1.78332   1.97827   2.02814   2.04595   2.41725
  Beta virt. eigenvalues --    2.51011   2.57866   2.60999   2.63505   2.76902
  Beta virt. eigenvalues --    3.00714   3.72293   6.89607  13.97596  14.02787
  Beta virt. eigenvalues --   14.05055  23.79695 163.15348
          Condensed to atoms (all electrons):
               1          2          3          4          5
     1  C    5.387414   0.336578   0.366195  -0.016409   0.378192
     2  P    0.336578  14.363504  -0.012173   0.233407  -0.013754
     3  H    0.366195  -0.012173   0.483326  -0.003296  -0.022031
     4  H   -0.016409   0.233407  -0.003296   0.801353   0.001995
     5  H    0.378192  -0.013754  -0.022031   0.001995   0.466998
          Atomic-Atomic Spin Densities.
               1          2          3          4          5
     1  C    0.000001   0.000000  -0.000000  -0.000000  -0.000000
     2  P    0.000000  -0.000001   0.000000   0.000000   0.000000
     3  H   -0.000000   0.000000  -0.000000   0.000000   0.000000
     4  H   -0.000000   0.000000   0.000000   0.000000  -0.000000
     5  H   -0.000000   0.000000   0.000000  -0.000000  -0.000000
 Mulliken charges and spin densities:
               1          2
     1  C   -0.451970   0.000001
     2  P    0.092439  -0.000001
     3  H    0.187980  -0.000000
     4  H   -0.017048   0.000000
     5  H    0.188600  -0.000000
 Sum of Mulliken charges =   0.00000  -0.00000
 Mulliken charges and spin densities with hydrogens summed into heavy atoms:
               1          2
     1  C   -0.075390   0.000001
     2  P    0.075390  -0.000001
 Electronic spatial extent (au):  <R**2>=            190.1671
 Charge=              0.0000 electrons
 Dipole moment (field-independent basis, Debye):
    X=             -0.8612    Y=             -0.5847    Z=              0.0081  Tot=              1.0409
 Quadrupole moment (field-independent basis, Debye-Ang):
   XX=            -18.4298   YY=            -20.1953   ZZ=            -24.3430
   XY=             -1.1945   XZ=              0.0169   YZ=             -0.0582
 Traceless Quadrupole moment (field-independent basis, Debye-Ang):
   XX=              2.5596   YY=              0.7940   ZZ=             -3.3536
   XY=             -1.1945   XZ=              0.0169   YZ=             -0.0582
 Octapole moment (field-independent basis, Debye-Ang**2):
  XXX=            -23.5272  YYY=              3.0745  ZZZ=             -0.0378  XYY=             -9.6854
  XXY=             -1.0443  XXZ=              0.0138  XZZ=             -7.3444  YZZ=              0.8908
  YYZ=             -0.0184  XYZ=              0.0317
 Hexadecapole moment (field-independent basis, Debye-Ang**3):
 XXXX=           -208.9309 YYYY=            -45.4580 ZZZZ=            -42.1640 XXXY=             -0.7405
 XXXZ=              0.0087 YYYX=              2.6845 YYYZ=             -0.0070 ZZZX=             -0.0319
 ZZZY=              0.0534 XXYY=            -39.5956 XXZZ=            -45.6511 YYZZ=            -15.3230
 XXYZ=             -0.0843 YYXZ=             -0.0175 ZZXY=              0.7230
 N-N= 3.863235293654D+01 E-N=-9.809451205106D+02  KE= 3.799583358983D+02
                          Isotropic Fermi Contact Couplings
        Atom                 a.u.       MegaHertz       Gauss      10(-4) cm-1
     1  C(13)              0.00000       0.00007       0.00002       0.00002
     2  P(31)              0.00000       0.00004       0.00001       0.00001
     3  H(1)              -0.00000      -0.00002      -0.00001      -0.00001
     4  H(1)               0.00000       0.00001       0.00000       0.00000
     5  H(1)              -0.00000      -0.00002      -0.00001      -0.00001
 --------------------------------------------------------
       Center         ----  Spin Dipole Couplings  ----
                      3XX-RR        3YY-RR        3ZZ-RR
 --------------------------------------------------------
     1   Atom       -0.000001     -0.000001      0.000001
     2   Atom        0.000001      0.000002     -0.000003
     3   Atom       -0.000000      0.000000     -0.000000
     4   Atom        0.000000     -0.000000     -0.000000
     5   Atom       -0.000000      0.000000     -0.000000
 --------------------------------------------------------
                        XY            XZ            YZ
 --------------------------------------------------------
     1   Atom       -0.000000     -0.000000      0.000000
     2   Atom        0.000000     -0.000000     -0.000000
     3   Atom        0.000000     -0.000000     -0.000000
     4   Atom       -0.000000      0.000000      0.000000
     5   Atom       -0.000000      0.000000     -0.000000
 --------------------------------------------------------


 ---------------------------------------------------------------------------------
              Anisotropic Spin Dipole Couplings in Principal Axis System
 ---------------------------------------------------------------------------------

       Atom             a.u.   MegaHertz   Gauss  10(-4) cm-1        Axes

              Baa    -0.0000    -0.000    -0.000    -0.000  0.0023  0.9999 -0.0138
     1 C(13)  Bbb    -0.0000    -0.000    -0.000    -0.000  1.0000 -0.0023  0.0001
              Bcc     0.0000     0.000     0.000     0.000 -0.0001  0.0138  0.9999
 
              Baa    -0.0000    -0.001    -0.000    -0.000 -0.0000  0.0142  0.9999
     2 P(31)  Bbb     0.0000     0.000     0.000     0.000  0.9919 -0.1273  0.0018
              Bcc     0.0000     0.000     0.000     0.000  0.1273  0.9918 -0.0141
 
              Baa    -0.0000    -0.000    -0.000    -0.000  0.9020 -0.4318  0.0060
     3 H(1)   Bbb    -0.0000    -0.000    -0.000    -0.000 -0.0001  0.0138  0.9999
              Bcc     0.0000     0.000     0.000     0.000  0.4318  0.9019 -0.0124
 
              Baa    -0.0000    -0.000    -0.000    -0.000  0.1494  0.9887 -0.0141
     4 H(1)   Bbb    -0.0000    -0.000    -0.000    -0.000  0.0000  0.0142  0.9999
              Bcc     0.0000     0.000     0.000     0.000  0.9888 -0.1494  0.0021
 
              Baa    -0.0000    -0.000    -0.000    -0.000  0.9051  0.4252 -0.0058
     5 H(1)   Bbb    -0.0000    -0.000    -0.000    -0.000 -0.0001  0.0139  0.9999
              Bcc     0.0000     0.000     0.000     0.000 -0.4253  0.9050 -0.0126
 

 ---------------------------------------------------------------------------------

 No NMR shielding tensors so no spin-rotation constants.
 Leave Link  601 at Mon Apr 21 19:10:05 2025, MaxMem=   536870912 cpu:               2.6 elap:               0.4
 (Enter /home/szhao/Apps/g16/l9999.exe)
 1\1\GINC-NODE03\FOpt\UM062X\6-311+G(d,p)\C1H3P1\SZHAO\21-Apr-2025\0\\#
 p opt UM062X/6-311+G** nosymm int=superfine\\Title Card Required\\0,1\
 C,-1.18045248,0.,0.\P,1.18045248,0.,0.\H,-1.7020686322,-0.9500394413,0
 .0130677865\H,1.1330607243,-1.4194100237,0.0201946866\H,-1.6946062279,
 0.9534937657,-0.013305059\\Version=ES64L-G16RevA.03\HF=-381.0622202\S2
 =0.\S2-1=0.\S2A=0.\RMSD=5.245e-09\RMSF=2.133e-06\Dipole=-0.3388054,-0.
 2300224,0.0031722\Quadrupole=1.903003,0.590351,-2.493354,-0.8880928,0.
 0125796,-0.0432614\PG=C01 [X(C1H3P1)]\\@


 I (ERNEST RUTHERFORD) CAME INTO THE ROOM, WHICH WAS HALF DARK, AND PRESENTLY
 SPOTTED LORD KELVIN IN THE AUDIENCE AND REALIZED I WAS IN TROUBLE AT
 THE LAST PART OF MY SPEECH DEALING THE AGE OF THE EARTH, WHERE MY VIEWS
 CONFLICTED WITH HIS.  TO MY RELIEF KELVIN FELL FAST ASLEEP, BUT AS I CAME
 TO THE IMPORTANT POINT, I SAW THE OLD BIRD SIT UP AND COCK A BALEFUL GLANCE
 AT ME! THEN A SUDDEN INSPIRATION CAME AND I SAID LORD KELVIN HAD LIMITED
 THE AGE OF THE EARTH PROVIDED NO NEW SOURCE WAS DISCOVERED. THAT
 PROPHETIC UTTERANCE REFERS TO WHAT WE ARE NOW CONSIDERING TONIGHT, RADIUM!
 BEHOLD!  THE OLD BOY BEAMED UPON ME.
 Job cpu time:       0 days  0 hours 18 minutes 16.3 seconds.
 Elapsed time:       0 days  0 hours  2 minutes 26.7 seconds.
 File lengths (MBytes):  RWF=     22 Int=      0 D2E=      0 Chk=      2 Scr=      2
 Normal termination of Gaussian 16 at Mon Apr 21 19:10:06 2025.
