 Entering Gaussian System, Link 0=g16
 Initial command:
 /home/szhao/Apps/g16/l1.exe "/home/szhao/tmp/Gau-29932.inp" -scrdir="/home/szhao/tmp/"
 Default is to use a total of  16 processors:
                               16 via shared-memory
                                1 via Linda
 Entering Link 1 = /home/szhao/Apps/g16/l1.exe PID=     29934.
  
 Copyright (c) 1988,1990,1992,1993,1995,1998,2003,2009,2016,
            Gaussian, Inc.  All Rights Reserved.
  
 This is part of the Gaussian(R) 16 program.  It is based on
 the Gaussian(R) 09 system (copyright 2009, Gaussian, Inc.),
 the Gaussian(R) 03 system (copyright 2003, Gaussian, Inc.),
 the Gaussian(R) 98 system (copyright 1998, Gaussian, Inc.),
 the Gaussian(R) 94 system (copyright 1995, Gaussian, Inc.),
 the Gaussian 92(TM) system (copyright 1992, Gaussian, Inc.),
 the Gaussian 90(TM) system (copyright 1990, Gaussian, Inc.),
 the Gaussian 88(TM) system (copyright 1988, Gaussian, Inc.),
 the Gaussian 86(TM) system (copyright 1986, Carnegie Mellon
 University), and the Gaussian 82(TM) system (copyright 1983,
 Carnegie Mellon University). Gaussian is a federally registered
 trademark of Gaussian, Inc.
  
 This software contains proprietary and confidential information,
 including trade secrets, belonging to Gaussian, Inc.
  
 This software is provided under written license and may be
 used, copied, transmitted, or stored only in accord with that
 written license.
  
 The following legend is applicable only to US Government
 contracts under FAR:
  
                    RESTRICTED RIGHTS LEGEND
  
 Use, reproduction and disclosure by the US Government is
 subject to restrictions as set forth in subparagraphs (a)
 and (c) of the Commercial Computer Software - Restricted
 Rights clause in FAR 52.227-19.
  
 Gaussian, Inc.
 340 Quinnipiac St., Bldg. 40, Wallingford CT 06492
  
  
 ---------------------------------------------------------------
 Warning -- This program may not be used in any manner that
 competes with the business of Gaussian, Inc. or will provide
 assistance to any competitor of Gaussian, Inc.  The licensee
 of this program is prohibited from giving any competitor of
 Gaussian, Inc. access to this program.  By using this program,
 the user acknowledges that Gaussian, Inc. is engaged in the
 business of creating and licensing software in the field of
 computational chemistry and represents and warrants to the
 licensee that it is not a competitor of Gaussian, Inc. and that
 it will not use this program in any manner prohibited above.
 ---------------------------------------------------------------
  

 Cite this work as:
 Gaussian 16, Revision A.03,
 M. J. Frisch, G. W. Trucks, H. B. Schlegel, G. E. Scuseria, 
 M. A. Robb, J. R. Cheeseman, G. Scalmani, V. Barone, 
 G. A. Petersson, H. Nakatsuji, X. Li, M. Caricato, A. V. Marenich, 
 J. Bloino, B. G. Janesko, R. Gomperts, B. Mennucci, H. P. Hratchian, 
 J. V. Ortiz, A. F. Izmaylov, J. L. Sonnenberg, D. Williams-Young, 
 F. Ding, F. Lipparini, F. Egidi, J. Goings, B. Peng, A. Petrone, 
 T. Henderson, D. Ranasinghe, V. G. Zakrzewski, J. Gao, N. Rega, 
 G. Zheng, W. Liang, M. Hada, M. Ehara, K. Toyota, R. Fukuda, 
 J. Hasegawa, M. Ishida, T. Nakajima, Y. Honda, O. Kitao, H. Nakai, 
 T. Vreven, K. Throssell, J. A. Montgomery, Jr., J. E. Peralta, 
 F. Ogliaro, M. J. Bearpark, J. J. Heyd, E. N. Brothers, K. N. Kudin, 
 V. N. Staroverov, T. A. Keith, R. Kobayashi, J. Normand, 
 K. Raghavachari, A. P. Rendell, J. C. Burant, S. S. Iyengar, 
 J. Tomasi, M. Cossi, J. M. Millam, M. Klene, C. Adamo, R. Cammi, 
 J. W. Ochterski, R. L. Martin, K. Morokuma, O. Farkas, 
 J. B. Foresman, and D. J. Fox, Gaussian, Inc., Wallingford CT, 2016.
 
 ******************************************
 Gaussian 16:  ES64L-G16RevA.03 25-Dec-2016
                19-Nov-2024 
 ******************************************
 %chk=opt.chk
 %mem=4GB
 %nprocshared=8
 Will use up to    8 processors via shared memory.
 ---------------------------------------
 #p UM062X/6-311+G** force int=superfine
 ---------------------------------------
 1/10=7,30=1,38=1/1,3;
 2/12=2,17=6,18=5,40=1/2;
 3/5=4,6=6,7=111,11=2,25=1,30=1,71=1,74=-55,75=-7,116=2/1,2,3;
 4//1;
 5/5=2,38=5/2;
 6/7=2,8=2,9=2,10=2,28=1/1;
 7/29=1/1,2,3,16;
 1/10=7,30=1/3;
 99//99;
 Leave Link    1 at Tue Nov 19 11:41:29 2024, MaxMem=   536870912 cpu:               1.2 elap:               0.2
 (Enter /home/szhao/Apps/g16/l101.exe)
 -------------------
 Title Card Required
 -------------------
 Symbolic Z-matrix:
 Charge =  0 Multiplicity = 1
 C                    -0.50378   0.        0. 
 C                     0.50378   0.        0. 
 H                    -1.14243  -0.88949   0. 
 H                    -1.14238   0.8896    0. 
 H                     1.14243   0.88949   0. 
 H                     1.14238  -0.8896    0. 
 
 ITRead=  0  0  0  0  0  0
 MicOpt= -1 -1 -1 -1 -1 -1
 NAtoms=      6 NQM=        6 NQMF=       0 NMMI=      0 NMMIF=      0
                NMic=       0 NMicF=      0.
                    Isotopes and Nuclear Properties:
 (Nuclear quadrupole moments (NQMom) in fm**2, nuclear magnetic moments (NMagM)
  in nuclear magnetons)

  Atom         1           2           3           4           5           6
 IAtWgt=          12          12           1           1           1           1
 AtmWgt=  12.0000000  12.0000000   1.0078250   1.0078250   1.0078250   1.0078250
 NucSpn=           0           0           1           1           1           1
 AtZEff=  -0.0000000  -0.0000000  -0.0000000  -0.0000000  -0.0000000  -0.0000000
 NQMom=    0.0000000   0.0000000   0.0000000   0.0000000   0.0000000   0.0000000
 NMagM=    0.0000000   0.0000000   2.7928460   2.7928460   2.7928460   2.7928460
 AtZNuc=   6.0000000   6.0000000   1.0000000   1.0000000   1.0000000   1.0000000
 Leave Link  101 at Tue Nov 19 11:41:29 2024, MaxMem=   536870912 cpu:               2.4 elap:               0.3
 (Enter /home/szhao/Apps/g16/l103.exe)

 GradGradGradGradGradGradGradGradGradGradGradGradGradGradGradGradGradGrad
 Berny optimization.
 Initialization pass.
 Trust Radius=3.00D-01 FncErr=1.00D-07 GrdErr=1.00D-07 EigMax=2.50D+02 EigMin=1.00D-04
 Number of steps in this run=      2 maximum allowed number of steps=      2.
 GradGradGradGradGradGradGradGradGradGradGradGradGradGradGradGradGradGrad

 Leave Link  103 at Tue Nov 19 11:41:30 2024, MaxMem=   536870912 cpu:               0.5 elap:               0.1
 (Enter /home/szhao/Apps/g16/l202.exe)
                          Input orientation:                          
 ---------------------------------------------------------------------
 Center     Atomic      Atomic             Coordinates (Angstroms)
 Number     Number       Type             X           Y           Z
 ---------------------------------------------------------------------
      1          6           0       -0.503783    0.000000    0.000000
      2          6           0        0.503783    0.000000    0.000000
      3          1           0       -1.142428   -0.889489    0.000000
      4          1           0       -1.142377    0.889598    0.000000
      5          1           0        1.142428    0.889489    0.000000
      6          1           0        1.142377   -0.889598    0.000000
 ---------------------------------------------------------------------
                    Distance matrix (angstroms):
                    1          2          3          4          5
     1  C    0.000000
     2  C    1.007566   0.000000
     3  H    1.095015   1.871150   0.000000
     4  H    1.095074   1.871157   1.779087   0.000000
     5  H    1.871150   1.095015   2.895743   2.284805   0.000000
     6  H    1.871157   1.095074   2.284805   2.895797   1.779087
                    6
     6  H    0.000000
 Stoichiometry    C2H4
 Framework group  C2H[SGH(C2H4)]
 Deg. of freedom     5
 Full point group                 C2H     NOp   4
 Largest Abelian subgroup         C2H     NOp   4
 Largest concise Abelian subgroup C2      NOp   2
                         Standard orientation:                         
 ---------------------------------------------------------------------
 Center     Atomic      Atomic             Coordinates (Angstroms)
 Number     Number       Type             X           Y           Z
 ---------------------------------------------------------------------
      1          6           0        0.000000    0.503783    0.000000
      2          6           0       -0.000000   -0.503783    0.000000
      3          1           0       -0.889489    1.142428    0.000000
      4          1           0        0.889598    1.142377    0.000000
      5          1           0        0.889489   -1.142428    0.000000
      6          1           0       -0.889598   -1.142377    0.000000
 ---------------------------------------------------------------------
 Rotational constants (GHZ):         158.4300951          44.5176905          34.7524952
 Leave Link  202 at Tue Nov 19 11:41:30 2024, MaxMem=   536870912 cpu:               0.6 elap:               0.1
 (Enter /home/szhao/Apps/g16/l301.exe)
 Standard basis: 6-311+G(d,p) (5D, 7F)
 Ernie: Thresh=  0.10000D-02 Tol=  0.10000D-05 Strict=F.
 There are    27 symmetry adapted cartesian basis functions of AG  symmetry.
 There are     8 symmetry adapted cartesian basis functions of BG  symmetry.
 There are     8 symmetry adapted cartesian basis functions of AU  symmetry.
 There are    27 symmetry adapted cartesian basis functions of BU  symmetry.
 There are    26 symmetry adapted basis functions of AG  symmetry.
 There are     8 symmetry adapted basis functions of BG  symmetry.
 There are     8 symmetry adapted basis functions of AU  symmetry.
 There are    26 symmetry adapted basis functions of BU  symmetry.
    68 basis functions,   104 primitive gaussians,    70 cartesian basis functions
     8 alpha electrons        8 beta electrons
       nuclear repulsion energy        38.7162367575 Hartrees.
 IExCor= 4336 DFT=T Ex+Corr=M062X ExCW=0 ScaHFX=  0.540000
 ScaDFX=  1.000000  1.000000  1.000000  1.000000 ScalE2=  1.000000  1.000000
 IRadAn=      7 IRanWt=     -1 IRanGd=            0 ICorTp=0 IEmpDi=  4
 NAtoms=    6 NActive=    6 NUniq=    3 SFac= 4.00D+00 NAtFMM=   60 NAOKFM=F Big=F
 Integral buffers will be    131072 words long.
 Raffenetti 2 integral format.
 Two-electron integral symmetry is turned on.
 Leave Link  301 at Tue Nov 19 11:41:30 2024, MaxMem=   536870912 cpu:               0.8 elap:               0.1
 (Enter /home/szhao/Apps/g16/l302.exe)
 NPDir=0 NMtPBC=     1 NCelOv=     1 NCel=       1 NClECP=     1 NCelD=      1
         NCelK=      1 NCelE2=     1 NClLst=     1 CellRange=     0.0.
 One-electron integrals computed using PRISM.
 One-electron integral symmetry used in STVInt
 NBasis=    68 RedAO= T EigKep=  2.98D-05  NBF=    26     8     8    26
 NBsUse=    68 1.00D-06 EigRej= -1.00D+00 NBFU=    26     8     8    26
 Precomputing XC quadrature grid using
 IXCGrd= 4 IRadAn=           7 IRanWt=          -1 IRanGd=           0 AccXCQ= 0.00D+00.
 Generated NRdTot=       0 NPtTot=           0 NUsed=           0 NTot=          32
 NSgBfM=    70    70    70    70    70 MxSgAt=     6 MxSgA2=     6.
 Leave Link  302 at Tue Nov 19 11:41:30 2024, MaxMem=   536870912 cpu:               1.9 elap:               0.3
 (Enter /home/szhao/Apps/g16/l303.exe)
 DipDrv:  MaxL=1.
 Leave Link  303 at Tue Nov 19 11:41:30 2024, MaxMem=   536870912 cpu:               0.5 elap:               0.1
 (Enter /home/szhao/Apps/g16/l401.exe)
 ExpMin= 4.38D-02 ExpMax= 4.56D+03 ExpMxC= 6.82D+02 IAcc=3 IRadAn=         7 AccDes= 0.00D+00
 Harris functional with IExCor= 1009 and IRadAn=       7 diagonalized for initial guess.
 HarFok:  IExCor= 1009 AccDes= 0.00D+00 IRadAn=         7 IDoV= 1 UseB2=F ITyADJ=14
 ICtDFT=  3500011 ScaDFX=  1.000000  1.000000  1.000000  1.000000
 FoFCou: FMM=F IPFlag=           0 FMFlag=      100000 FMFlg1=           0
         NFxFlg=           0 DoJE=T BraDBF=F KetDBF=T FulRan=T
         wScrn=  0.000000 ICntrl=       500 IOpCl=  0 I1Cent=   200000004 NGrid=           0
         NMat0=    1 NMatS0=      1 NMatT0=    0 NMatD0=    1 NMtDS0=    0 NMtDT0=    0
 Petite list used in FoFCou.
 Harris En= -78.4792140626190    
 JPrj=0 DoOrth=F DoCkMO=F.
 Initial guess orbital symmetries:
 Alpha Orbitals:
       Occupied  (AG) (BU) (AG) (BU) (BU) (AG) (AU) (AG)
       Virtual   (BG) (BU) (AG) (BU) (AU) (AG) (AG) (AG) (BU) (BG)
                 (BU) (BU) (AG) (AG) (BU) (BU) (AG) (AU) (BU) (BU)
                 (BG) (AG) (AG) (BU) (AG) (BG) (BU) (AU) (AU) (AG)
                 (BU) (AG) (AG) (BG) (BU) (BU) (BG) (AU) (BU) (AG)
                 (AG) (AU) (AG) (BG) (BU) (BU) (BU) (AG) (AU) (AG)
                 (BU) (BG) (BU) (AG) (BU) (BU) (AG) (AG) (AG) (BU)
 Beta  Orbitals:
       Occupied  (AG) (BU) (AG) (BU) (BU) (AG) (AU) (AG)
       Virtual   (BG) (BU) (AG) (BU) (AU) (AG) (AG) (AG) (BU) (BG)
                 (BU) (BU) (AG) (AG) (BU) (BU) (AG) (AU) (BU) (BU)
                 (BG) (AG) (AG) (BU) (AG) (BG) (BU) (AU) (AU) (AG)
                 (BU) (AG) (AG) (BG) (BU) (BU) (BG) (AU) (BU) (AG)
                 (AG) (AU) (AG) (BG) (BU) (BU) (BU) (AG) (AU) (AG)
                 (BU) (BG) (BU) (AG) (BU) (BU) (AG) (AG) (AG) (BU)
 The electronic state of the initial guess is 1-AG.
 Initial guess <Sx>= 0.0000 <Sy>= 0.0000 <Sz>= 0.0000 <S**2>=-0.0000 S=-0.0000
 Leave Link  401 at Tue Nov 19 11:41:31 2024, MaxMem=   536870912 cpu:               3.1 elap:               0.5
 (Enter /home/szhao/Apps/g16/l502.exe)
 Keep R1 and R2 ints in memory in symmetry-blocked form, NReq=9935231.
 FoFCou: FMM=F IPFlag=           0 FMFlag=           0 FMFlg1=           0
         NFxFlg=           0 DoJE=F BraDBF=F KetDBF=F FulRan=T
         wScrn=  0.000000 ICntrl=       600 IOpCl=  0 I1Cent=           0 NGrid=           0
         NMat0=    1 NMatS0=   2346 NMatT0=    0 NMatD0=    1 NMtDS0=    0 NMtDT0=    0
 Petite list used in FoFCou.
 UHF open shell SCF:
 Using DIIS extrapolation, IDIIS=  1040.
 NGot=   536870912 LenX=   535358062 LenY=   535352721
 Requested convergence on RMS density matrix=1.00D-08 within 128 cycles.
 Requested convergence on MAX density matrix=1.00D-06.
 Requested convergence on             energy=1.00D-06.
 No special actions if energy rises.

 Cycle   1  Pass 1  IDiag  1:
 E= -78.0747004780589    
 DIIS: error= 9.47D-02 at cycle   1 NSaved=   1.
 NSaved= 1 IEnMin= 1 EnMin= -78.0747004780589     IErMin= 1 ErrMin= 9.47D-02
 ErrMax= 9.47D-02  0.00D+00 EMaxC= 1.00D-01 BMatC= 1.22D+00 BMatP= 1.22D+00
 IDIUse=3 WtCom= 5.34D-02 WtEn= 9.47D-01
 Coeff-Com:  0.100D+01
 Coeff-En:   0.100D+01
 Coeff:      0.100D+01
 Gap=     0.233 Goal=   None    Shift=    0.000
 Gap=     0.233 Goal=   None    Shift=    0.000
 GapD=    0.233 DampG=1.000 DampE=0.500 DampFc=0.5000 IDamp=-1.
 Damping current iteration by 5.00D-01
 RMSDP=8.50D-03 MaxDP=1.45D-01              OVMax= 2.75D-01

 Cycle   2  Pass 1  IDiag  1:
 E= -78.2099568559927     Delta-E=       -0.135256377934 Rises=F Damp=T
 DIIS: error= 1.11D-02 at cycle   2 NSaved=   2.
 NSaved= 2 IEnMin= 2 EnMin= -78.2099568559927     IErMin= 2 ErrMin= 1.11D-02
 ErrMax= 1.11D-02  0.00D+00 EMaxC= 1.00D-01 BMatC= 2.70D-02 BMatP= 1.22D+00
 IDIUse=3 WtCom= 8.89D-01 WtEn= 1.11D-01
 Coeff-Com: -0.763D-01 0.108D+01
 Coeff-En:   0.000D+00 0.100D+01
 Coeff:     -0.679D-01 0.107D+01
 Gap=     0.383 Goal=   None    Shift=    0.000
 Gap=     0.383 Goal=   None    Shift=    0.000
 RMSDP=2.27D-03 MaxDP=2.18D-02 DE=-1.35D-01 OVMax= 1.54D-01

 Cycle   3  Pass 1  IDiag  1:
 E= -78.3444871600372     Delta-E=       -0.134530304044 Rises=F Damp=F
 DIIS: error= 5.16D-03 at cycle   3 NSaved=   3.
 NSaved= 3 IEnMin= 3 EnMin= -78.3444871600372     IErMin= 3 ErrMin= 5.16D-03
 ErrMax= 5.16D-03  0.00D+00 EMaxC= 1.00D-01 BMatC= 2.01D-03 BMatP= 2.70D-02
 IDIUse=3 WtCom= 9.48D-01 WtEn= 5.16D-02
 Coeff-Com: -0.430D-01 0.918D-01 0.951D+00
 Coeff-En:   0.000D+00 0.000D+00 0.100D+01
 Coeff:     -0.408D-01 0.871D-01 0.954D+00
 Gap=     0.384 Goal=   None    Shift=    0.000
 Gap=     0.384 Goal=   None    Shift=    0.000
 RMSDP=2.53D-04 MaxDP=2.74D-03 DE=-1.35D-01 OVMax= 8.94D-03

 Cycle   4  Pass 1  IDiag  1:
 E= -78.3450365445209     Delta-E=       -0.000549384484 Rises=F Damp=F
 DIIS: error= 3.76D-04 at cycle   4 NSaved=   4.
 NSaved= 4 IEnMin= 4 EnMin= -78.3450365445209     IErMin= 4 ErrMin= 3.76D-04
 ErrMax= 3.76D-04  0.00D+00 EMaxC= 1.00D-01 BMatC= 8.99D-06 BMatP= 2.01D-03
 IDIUse=3 WtCom= 9.96D-01 WtEn= 3.76D-03
 Coeff-Com:  0.559D-02-0.131D-01-0.762D-01 0.108D+01
 Coeff-En:   0.000D+00 0.000D+00 0.000D+00 0.100D+01
 Coeff:      0.557D-02-0.130D-01-0.759D-01 0.108D+01
 Gap=     0.384 Goal=   None    Shift=    0.000
 Gap=     0.384 Goal=   None    Shift=    0.000
 RMSDP=8.80D-05 MaxDP=1.32D-03 DE=-5.49D-04 OVMax= 1.31D-03

 Cycle   5  Pass 1  IDiag  1:
 E= -78.3450409228906     Delta-E=       -0.000004378370 Rises=F Damp=F
 DIIS: error= 4.90D-05 at cycle   5 NSaved=   5.
 NSaved= 5 IEnMin= 5 EnMin= -78.3450409228906     IErMin= 5 ErrMin= 4.90D-05
 ErrMax= 4.90D-05  0.00D+00 EMaxC= 1.00D-01 BMatC= 1.36D-07 BMatP= 8.99D-06
 IDIUse=1 WtCom= 1.00D+00 WtEn= 0.00D+00
 Coeff-Com: -0.121D-03-0.449D-03-0.394D-02-0.658D-01 0.107D+01
 Coeff:     -0.121D-03-0.449D-03-0.394D-02-0.658D-01 0.107D+01
 Gap=     0.384 Goal=   None    Shift=    0.000
 Gap=     0.384 Goal=   None    Shift=    0.000
 RMSDP=8.98D-06 MaxDP=1.19D-04 DE=-4.38D-06 OVMax= 1.51D-04

 Cycle   6  Pass 1  IDiag  1:
 E= -78.3450409892778     Delta-E=       -0.000000066387 Rises=F Damp=F
 DIIS: error= 4.10D-06 at cycle   6 NSaved=   6.
 NSaved= 6 IEnMin= 6 EnMin= -78.3450409892778     IErMin= 6 ErrMin= 4.10D-06
 ErrMax= 4.10D-06  0.00D+00 EMaxC= 1.00D-01 BMatC= 2.65D-09 BMatP= 1.36D-07
 IDIUse=1 WtCom= 1.00D+00 WtEn= 0.00D+00
 Coeff-Com: -0.105D-03 0.174D-03 0.123D-02-0.131D-01 0.482D-01 0.964D+00
 Coeff:     -0.105D-03 0.174D-03 0.123D-02-0.131D-01 0.482D-01 0.964D+00
 Gap=     0.384 Goal=   None    Shift=    0.000
 Gap=     0.384 Goal=   None    Shift=    0.000
 RMSDP=8.04D-07 MaxDP=1.42D-05 DE=-6.64D-08 OVMax= 1.31D-05

 Cycle   7  Pass 1  IDiag  1:
 E= -78.3450409902280     Delta-E=       -0.000000000950 Rises=F Damp=F
 DIIS: error= 9.18D-07 at cycle   7 NSaved=   7.
 NSaved= 7 IEnMin= 7 EnMin= -78.3450409902280     IErMin= 7 ErrMin= 9.18D-07
 ErrMax= 9.18D-07  0.00D+00 EMaxC= 1.00D-01 BMatC= 5.93D-11 BMatP= 2.65D-09
 IDIUse=1 WtCom= 1.00D+00 WtEn= 0.00D+00
 Coeff-Com:  0.486D-05 0.107D-04-0.117D-04 0.445D-04-0.227D-01 0.547D-02
 Coeff-Com:  0.102D+01
 Coeff:      0.486D-05 0.107D-04-0.117D-04 0.445D-04-0.227D-01 0.547D-02
 Coeff:      0.102D+01
 Gap=     0.384 Goal=   None    Shift=    0.000
 Gap=     0.384 Goal=   None    Shift=    0.000
 RMSDP=1.73D-07 MaxDP=2.22D-06 DE=-9.50D-10 OVMax= 4.43D-06

 Cycle   8  Pass 1  IDiag  1:
 E= -78.3450409902645     Delta-E=       -0.000000000036 Rises=F Damp=F
 DIIS: error= 8.28D-08 at cycle   8 NSaved=   8.
 NSaved= 8 IEnMin= 8 EnMin= -78.3450409902645     IErMin= 8 ErrMin= 8.28D-08
 ErrMax= 8.28D-08  0.00D+00 EMaxC= 1.00D-01 BMatC= 4.42D-13 BMatP= 5.93D-11
 IDIUse=1 WtCom= 1.00D+00 WtEn= 0.00D+00
 Coeff-Com:  0.107D-05-0.326D-05-0.131D-04 0.180D-03 0.158D-02-0.120D-01
 Coeff-Com: -0.828D-01 0.109D+01
 Coeff:      0.107D-05-0.326D-05-0.131D-04 0.180D-03 0.158D-02-0.120D-01
 Coeff:     -0.828D-01 0.109D+01
 Gap=     0.384 Goal=   None    Shift=    0.000
 Gap=     0.384 Goal=   None    Shift=    0.000
 RMSDP=1.64D-08 MaxDP=2.50D-07 DE=-3.64D-11 OVMax= 2.42D-07

 Cycle   9  Pass 1  IDiag  1:
 E= -78.3450409902647     Delta-E=       -0.000000000000 Rises=F Damp=F
 DIIS: error= 8.31D-09 at cycle   9 NSaved=   9.
 NSaved= 9 IEnMin= 9 EnMin= -78.3450409902647     IErMin= 9 ErrMin= 8.31D-09
 ErrMax= 8.31D-09  0.00D+00 EMaxC= 1.00D-01 BMatC= 5.56D-15 BMatP= 4.42D-13
 IDIUse=1 WtCom= 1.00D+00 WtEn= 0.00D+00
 Coeff-Com: -0.143D-06 0.277D-06 0.337D-05-0.186D-04-0.142D-03 0.159D-02
 Coeff-Com:  0.677D-02-0.139D+00 0.113D+01
 Coeff:     -0.143D-06 0.277D-06 0.337D-05-0.186D-04-0.142D-03 0.159D-02
 Coeff:      0.677D-02-0.139D+00 0.113D+01
 Gap=     0.384 Goal=   None    Shift=    0.000
 Gap=     0.384 Goal=   None    Shift=    0.000
 RMSDP=2.68D-09 MaxDP=4.12D-08 DE=-2.84D-13 OVMax= 1.87D-08

 SCF Done:  E(UM062X) =  -78.3450409903     A.U. after    9 cycles
            NFock=  9  Conv=0.27D-08     -V/T= 1.9815
 <Sx>= 0.0000 <Sy>= 0.0000 <Sz>= 0.0000 <S**2>=-0.0000 S=-0.0000
 <L.S>=  0.00000000000    
 KE= 7.982173578609D+01 PE=-2.601499377568D+02 EE= 6.326692422295D+01
 Annihilation of the first spin contaminant:
 S**2 before annihilation    -0.0000,   after    -0.0000
 Leave Link  502 at Tue Nov 19 11:41:33 2024, MaxMem=   536870912 cpu:              16.7 elap:               2.3
 (Enter /home/szhao/Apps/g16/l601.exe)
 Copying SCF densities to generalized density rwf, IOpCl= 1 IROHF=0.

 **********************************************************************

            Population analysis using the SCF density.

 **********************************************************************

 Orbital symmetries:
 Alpha Orbitals:
       Occupied  (AG) (BU) (AG) (BU) (BU) (AG) (AU) (AG)
       Virtual   (AG) (BU) (BU) (AU) (BG) (AG) (AG) (BU) (BU) (AG)
                 (BG) (BU) (AG) (BU) (AG) (BU) (AG) (AU) (BU) (BU)
                 (BG) (AG) (BU) (AG) (AG) (BG) (AU) (BU) (AU) (AG)
                 (AG) (BU) (AG) (BG) (BU) (BU) (BG) (AU) (BU) (AG)
                 (AG) (AU) (AG) (BG) (BU) (BU) (AG) (AG) (BU) (BU)
                 (AU) (BG) (BU) (AG) (BU) (BU) (AG) (AG) (AG) (BU)
 Beta  Orbitals:
       Occupied  (AG) (BU) (AG) (BU) (BU) (AG) (AU) (AG)
       Virtual   (AG) (BU) (BU) (AU) (BG) (AG) (AG) (BU) (BU) (AG)
                 (BG) (BU) (AG) (BU) (AG) (BU) (AG) (AU) (BU) (BU)
                 (BG) (AG) (BU) (AG) (AG) (BG) (AU) (BU) (AU) (AG)
                 (AG) (BU) (AG) (BG) (BU) (BU) (BG) (AU) (BU) (AG)
                 (AG) (AU) (AG) (BG) (BU) (BU) (AG) (AG) (BU) (BU)
                 (AU) (BG) (BU) (AG) (BU) (BU) (AG) (AG) (AG) (BU)
 The electronic state is 1-AG.
 Alpha  occ. eigenvalues --  -10.49286 -10.48039  -0.93942  -0.63017  -0.57884
 Alpha  occ. eigenvalues --   -0.52757  -0.41436  -0.35049
 Alpha virt. eigenvalues --    0.03317   0.04261   0.04402   0.06759   0.06876
 Alpha virt. eigenvalues --    0.08795   0.09824   0.16115   0.18063   0.18185
 Alpha virt. eigenvalues --    0.18712   0.24821   0.34238   0.41476   0.43210
 Alpha virt. eigenvalues --    0.47037   0.51891   0.52861   0.60601   0.61815
 Alpha virt. eigenvalues --    0.70266   0.75785   0.78494   0.81514   0.84178
 Alpha virt. eigenvalues --    1.02135   1.22642   1.24139   1.27778   1.35818
 Alpha virt. eigenvalues --    1.54650   1.56262   1.70084   1.72477   1.73836
 Alpha virt. eigenvalues --    1.76090   1.76869   1.92440   2.09617   2.17989
 Alpha virt. eigenvalues --    2.21383   2.32254   2.32478   2.39166   2.47188
 Alpha virt. eigenvalues --    2.55936   2.59363   2.67210   2.73926   2.74983
 Alpha virt. eigenvalues --    2.82302   3.00248   3.27387   3.47482   3.53681
 Alpha virt. eigenvalues --    3.75441   3.98295   4.05356  23.86046  25.70384
  Beta  occ. eigenvalues --  -10.49286 -10.48039  -0.93942  -0.63017  -0.57884
  Beta  occ. eigenvalues --   -0.52757  -0.41436  -0.35049
  Beta virt. eigenvalues --    0.03317   0.04261   0.04402   0.06759   0.06876
  Beta virt. eigenvalues --    0.08795   0.09824   0.16115   0.18063   0.18185
  Beta virt. eigenvalues --    0.18712   0.24821   0.34238   0.41476   0.43210
  Beta virt. eigenvalues --    0.47037   0.51891   0.52861   0.60601   0.61815
  Beta virt. eigenvalues --    0.70266   0.75785   0.78494   0.81514   0.84178
  Beta virt. eigenvalues --    1.02135   1.22642   1.24139   1.27778   1.35818
  Beta virt. eigenvalues --    1.54650   1.56262   1.70084   1.72477   1.73836
  Beta virt. eigenvalues --    1.76090   1.76869   1.92440   2.09617   2.17989
  Beta virt. eigenvalues --    2.21383   2.32254   2.32478   2.39166   2.47188
  Beta virt. eigenvalues --    2.55936   2.59363   2.67210   2.73926   2.74983
  Beta virt. eigenvalues --    2.82302   3.00248   3.27387   3.47482   3.53681
  Beta virt. eigenvalues --    3.75441   3.98295   4.05356  23.86046  25.70384
          Condensed to atoms (all electrons):
               1          2          3          4          5          6
     1  C    4.786775   0.716540   0.411322   0.411314  -0.033781  -0.033793
     2  C    0.716540   4.786775  -0.033781  -0.033793   0.411322   0.411314
     3  H    0.411322  -0.033781   0.553166  -0.045835   0.013026  -0.027095
     4  H    0.411314  -0.033793  -0.045835   0.553199  -0.027095   0.013029
     5  H   -0.033781   0.411322   0.013026  -0.027095   0.553166  -0.045835
     6  H   -0.033793   0.411314  -0.027095   0.013029  -0.045835   0.553199
          Atomic-Atomic Spin Densities.
               1          2          3          4          5          6
     1  C   -0.000000   0.000000  -0.000000  -0.000000   0.000000   0.000000
     2  C    0.000000  -0.000000   0.000000   0.000000  -0.000000  -0.000000
     3  H   -0.000000   0.000000  -0.000000   0.000000  -0.000000   0.000000
     4  H   -0.000000   0.000000   0.000000   0.000000   0.000000  -0.000000
     5  H    0.000000  -0.000000  -0.000000   0.000000  -0.000000   0.000000
     6  H    0.000000  -0.000000   0.000000  -0.000000   0.000000   0.000000
 Mulliken charges and spin densities:
               1          2
     1  C   -0.258377  -0.000000
     2  C   -0.258377  -0.000000
     3  H    0.129196  -0.000000
     4  H    0.129181   0.000000
     5  H    0.129196  -0.000000
     6  H    0.129181   0.000000
 Sum of Mulliken charges =  -0.00000   0.00000
 Mulliken charges and spin densities with hydrogens summed into heavy atoms:
               1          2
     1  C   -0.000000   0.000000
     2  C   -0.000000   0.000000
 Electronic spatial extent (au):  <R**2>=             70.0254
 Charge=             -0.0000 electrons
 Dipole moment (field-independent basis, Debye):
    X=             -0.0000    Y=              0.0000    Z=              0.0000  Tot=              0.0000
 Quadrupole moment (field-independent basis, Debye-Ang):
   XX=            -12.3798   YY=            -12.5117   ZZ=            -14.3895
   XY=             -0.0002   XZ=              0.0000   YZ=              0.0000
 Traceless Quadrupole moment (field-independent basis, Debye-Ang):
   XX=              0.7138   YY=              0.5820   ZZ=             -1.2958
   XY=             -0.0002   XZ=              0.0000   YZ=              0.0000
 Octapole moment (field-independent basis, Debye-Ang**2):
  XXX=             -0.0000  YYY=              0.0000  ZZZ=              0.0000  XYY=             -0.0000
  XXY=             -0.0000  XXZ=              0.0000  XZZ=              0.0000  YZZ=              0.0000
  YYZ=              0.0000  XYZ=              0.0000
 Hexadecapole moment (field-independent basis, Debye-Ang**3):
 XXXX=            -27.4598 YYYY=            -54.4281 ZZZZ=            -15.3886 XXXY=             -0.0009
 XXXZ=              0.0000 YYYX=             -0.0015 YYYZ=              0.0000 ZZZX=              0.0000
 ZZZY=              0.0000 XXYY=            -12.3618 XXZZ=             -7.6979 YYZZ=            -12.2416
 XXYZ=              0.0000 YYXZ=              0.0000 ZZXY=             -0.0004
 N-N= 3.871623675746D+01 E-N=-2.601499380694D+02  KE= 7.982173578609D+01
 Symmetry AG   KE= 4.097397629406D+01
 Symmetry BG   KE= 1.383113080179D-31
 Symmetry AU   KE= 2.390210998070D+00
 Symmetry BU   KE= 3.645754849396D+01
 Symmetry AG   SP=-6.225920054046D-15
 Symmetry BG   SP= 1.425296362537D-46
 Symmetry AU   SP= 4.019056047631D-15
 Symmetry BU   SP= 9.397192732150D-16
                          Isotropic Fermi Contact Couplings
        Atom                 a.u.       MegaHertz       Gauss      10(-4) cm-1
     1  C(13)             -0.00000      -0.00000      -0.00000      -0.00000
     2  C(13)             -0.00000      -0.00000      -0.00000      -0.00000
     3  H(1)               0.00000       0.00000       0.00000       0.00000
     4  H(1)               0.00000       0.00000       0.00000       0.00000
     5  H(1)               0.00000       0.00000       0.00000       0.00000
     6  H(1)               0.00000       0.00000       0.00000       0.00000
 --------------------------------------------------------
       Center         ----  Spin Dipole Couplings  ----
                      3XX-RR        3YY-RR        3ZZ-RR
 --------------------------------------------------------
     1   Atom        0.000000      0.000000      0.000000
     2   Atom        0.000000      0.000000      0.000000
     3   Atom        0.000000      0.000000      0.000000
     4   Atom        0.000000      0.000000      0.000000
     5   Atom        0.000000      0.000000      0.000000
     6   Atom        0.000000      0.000000      0.000000
 --------------------------------------------------------
                        XY            XZ            YZ
 --------------------------------------------------------
     1   Atom        0.000000      0.000000      0.000000
     2   Atom        0.000000      0.000000      0.000000
     3   Atom        0.000000      0.000000      0.000000
     4   Atom        0.000000      0.000000      0.000000
     5   Atom        0.000000      0.000000      0.000000
     6   Atom        0.000000      0.000000      0.000000
 --------------------------------------------------------


 ---------------------------------------------------------------------------------
              Anisotropic Spin Dipole Couplings in Principal Axis System
 ---------------------------------------------------------------------------------

       Atom             a.u.   MegaHertz   Gauss  10(-4) cm-1        Axes

              Baa     0.0000     0.000     0.000     0.000  1.0000  0.0000  0.0000
     1 C(13)  Bbb     0.0000     0.000     0.000     0.000 -0.0000  1.0000  0.0000
              Bcc     0.0000     0.000     0.000     0.000  0.0000  0.0000  1.0000
 
              Baa     0.0000     0.000     0.000     0.000  1.0000  0.0000  0.0000
     2 C(13)  Bbb     0.0000     0.000     0.000     0.000 -0.0000  1.0000  0.0000
              Bcc     0.0000     0.000     0.000     0.000  0.0000  0.0000  1.0000
 
              Baa     0.0000     0.000     0.000     0.000  1.0000  0.0000  0.0000
     3 H(1)   Bbb     0.0000     0.000     0.000     0.000 -0.0000  1.0000  0.0000
              Bcc     0.0000     0.000     0.000     0.000  0.0000  0.0000  1.0000
 
              Baa     0.0000     0.000     0.000     0.000  1.0000  0.0000  0.0000
     4 H(1)   Bbb     0.0000     0.000     0.000     0.000 -0.0000  1.0000  0.0000
              Bcc     0.0000     0.000     0.000     0.000  0.0000  0.0000  1.0000
 
              Baa     0.0000     0.000     0.000     0.000  1.0000  0.0000  0.0000
     5 H(1)   Bbb     0.0000     0.000     0.000     0.000 -0.0000  1.0000  0.0000
              Bcc     0.0000     0.000     0.000     0.000  0.0000  0.0000  1.0000
 
              Baa     0.0000     0.000     0.000     0.000  1.0000  0.0000  0.0000
     6 H(1)   Bbb     0.0000     0.000     0.000     0.000 -0.0000  1.0000  0.0000
              Bcc     0.0000     0.000     0.000     0.000  0.0000  0.0000  1.0000
 

 ---------------------------------------------------------------------------------

 No NMR shielding tensors so no spin-rotation constants.
 Leave Link  601 at Tue Nov 19 11:41:34 2024, MaxMem=   536870912 cpu:               1.0 elap:               0.1
 (Enter /home/szhao/Apps/g16/l701.exe)
 ... and contract with generalized density number  0.
 Compute integral first derivatives.
 Leave Link  701 at Tue Nov 19 11:41:34 2024, MaxMem=   536870912 cpu:               1.2 elap:               0.2
 (Enter /home/szhao/Apps/g16/l702.exe)
 L702 exits ... SP integral derivatives will be done elsewhere.
 Leave Link  702 at Tue Nov 19 11:41:34 2024, MaxMem=   536870912 cpu:               0.5 elap:               0.1
 (Enter /home/szhao/Apps/g16/l703.exe)
 Integral derivatives from FoFJK, PRISM(SPDF).
 Compute integral first derivatives, UseDBF=F ICtDFT=           0.
 Calling FoFJK, ICntrl=      2127 FMM=F ISym2X=1 I1Cent= 0 IOpClX= 1 NMat=1 NMatS=1 NMatT=0.
 FoFJK:  IHMeth= 1 ICntrl=    2127 DoSepK=F KAlg= 0 I1Cent=           0 FoldK=F
 IRaf=         0 NMat=       1 IRICut=       1 DoRegI=T DoRafI=F ISym2E= 1 IDoP0=0 IntGTp=1.
 FoFCou: FMM=F IPFlag=           0 FMFlag=      100000 FMFlg1=         800
         NFxFlg=           0 DoJE=F BraDBF=F KetDBF=F FulRan=T
         wScrn=  0.000000 ICntrl=      2127 IOpCl=  1 I1Cent=           0 NGrid=           0
         NMat0=    1 NMatS0=      1 NMatT0=    0 NMatD0=    1 NMtDS0=    0 NMtDT0=    0
 Petite list used in FoFCou.
 Leave Link  703 at Tue Nov 19 11:41:35 2024, MaxMem=   536870912 cpu:               4.5 elap:               0.7
 (Enter /home/szhao/Apps/g16/l716.exe)
 Dipole        = 0.00000000D+00 4.44089210D-16 0.00000000D+00
 ***** Axes restored to original set *****
 -------------------------------------------------------------------
 Center     Atomic                   Forces (Hartrees/Bohr)
 Number     Number              X              Y              Z
 -------------------------------------------------------------------
      1        6          -0.980442944    0.000038578   -0.000000000
      2        6           0.980442944   -0.000038578   -0.000000000
      3        1          -0.000081059   -0.000097198   -0.000000000
      4        1          -0.000066418    0.000068792   -0.000000000
      5        1           0.000081059    0.000097198   -0.000000000
      6        1           0.000066418   -0.000068792   -0.000000000
 -------------------------------------------------------------------
 Cartesian Forces:  Max     0.980442944 RMS     0.326814319
 Z-matrix is all fixed cartesians, so copy forces.
 Force constants in Cartesian coordinates: 
                1             2             3             4             5 
      1  0.353698D+01
      2  0.328044D-04  0.748524D+00
      3  0.000000D+00  0.000000D+00  0.429027D+00
      4 -0.315616D+01  0.000000D+00  0.000000D+00  0.353698D+01
      5  0.000000D+00 -0.271267D+00  0.000000D+00  0.328044D-04  0.748524D+00
      6  0.000000D+00  0.000000D+00 -0.283941D+00  0.000000D+00  0.000000D+00
      7 -0.190436D+00 -0.111520D+00  0.000000D+00  0.000000D+00 -0.329875D-01
      8 -0.109105D+00 -0.262324D+00  0.000000D+00  0.000000D+00  0.236847D-01
      9  0.000000D+00  0.000000D+00 -0.116632D+00  0.000000D+00  0.000000D+00
     10 -0.190384D+00  0.111487D+00  0.000000D+00  0.000000D+00  0.329880D-01
     11  0.109072D+00 -0.262298D+00  0.000000D+00  0.000000D+00  0.236803D-01
     12  0.000000D+00  0.000000D+00 -0.116613D+00  0.000000D+00  0.000000D+00
     13  0.000000D+00 -0.329875D-01  0.000000D+00 -0.190436D+00 -0.111520D+00
     14  0.000000D+00  0.236847D-01  0.000000D+00 -0.109105D+00 -0.262324D+00
     15  0.000000D+00  0.000000D+00  0.440785D-01  0.000000D+00  0.000000D+00
     16  0.000000D+00  0.329880D-01  0.000000D+00 -0.190384D+00  0.111487D+00
     17  0.000000D+00  0.236803D-01  0.000000D+00  0.109072D+00 -0.262298D+00
     18  0.000000D+00  0.000000D+00  0.440802D-01  0.000000D+00  0.000000D+00
                6             7             8             9            10 
      6  0.429027D+00
      7  0.000000D+00  0.165780D+00
      8  0.000000D+00  0.126808D+00  0.251348D+00
      9  0.440785D-01  0.000000D+00  0.000000D+00  0.620413D-01
     10  0.000000D+00  0.246564D-01 -0.177031D-01  0.000000D+00  0.165728D+00
     11  0.000000D+00  0.176995D-01 -0.127081D-01  0.000000D+00 -0.126772D+00
     12  0.440802D-01  0.000000D+00  0.000000D+00  0.105088D-01  0.000000D+00
     13  0.000000D+00  0.000000D+00  0.000000D+00  0.000000D+00  0.000000D+00
     14  0.000000D+00  0.000000D+00  0.000000D+00  0.000000D+00  0.000000D+00
     15 -0.116632D+00  0.000000D+00  0.000000D+00  0.257660D-01  0.000000D+00
     16  0.000000D+00  0.000000D+00  0.000000D+00  0.000000D+00  0.000000D+00
     17  0.000000D+00  0.000000D+00  0.000000D+00  0.000000D+00  0.000000D+00
     18 -0.116613D+00  0.000000D+00  0.000000D+00 -0.257628D-01  0.000000D+00
               11            12            13            14            15 
     11  0.251325D+00
     12  0.000000D+00  0.620275D-01
     13  0.000000D+00  0.000000D+00  0.165780D+00
     14  0.000000D+00  0.000000D+00  0.126808D+00  0.251348D+00
     15  0.000000D+00 -0.257628D-01  0.000000D+00  0.000000D+00  0.620413D-01
     16  0.000000D+00  0.000000D+00  0.246564D-01 -0.177031D-01  0.000000D+00
     17  0.000000D+00  0.000000D+00  0.176995D-01 -0.127081D-01  0.000000D+00
     18  0.000000D+00  0.257597D-01  0.000000D+00  0.000000D+00  0.105088D-01
               16            17            18 
     16  0.165728D+00
     17 -0.126772D+00  0.251325D+00
     18  0.000000D+00  0.000000D+00  0.620275D-01
 Leave Link  716 at Tue Nov 19 11:41:35 2024, MaxMem=   536870912 cpu:               0.6 elap:               0.1
 (Enter /home/szhao/Apps/g16/l103.exe)

 GradGradGradGradGradGradGradGradGradGradGradGradGradGradGradGradGradGrad
 Berny optimization.
 Search for a local minimum.
 Step number   1 out of a maximum of    2
 All quantities printed in internal units (Hartrees-Bohrs-Radians)
 Second derivative matrix not updated -- first step.
 The second derivative matrix:
                          X1        Y1        Z1        X2        Y2
           X1           3.53698
           Y1           0.00003   0.74852
           Z1           0.00000   0.00000   0.42903
           X2          -3.15616  -0.00000   0.00000   3.53698
           Y2          -0.00000  -0.27127   0.00000   0.00003   0.74852
           Z2           0.00000   0.00000  -0.28394   0.00000   0.00000
           X3          -0.19044  -0.11152   0.00000   0.00000  -0.03299
           Y3          -0.10910  -0.26232   0.00000  -0.00000   0.02368
           Z3           0.00000   0.00000  -0.11663   0.00000   0.00000
           X4          -0.19038   0.11149   0.00000  -0.00000   0.03299
           Y4           0.10907  -0.26230   0.00000  -0.00000   0.02368
           Z4           0.00000   0.00000  -0.11661   0.00000   0.00000
           X5           0.00000  -0.03299   0.00000  -0.19044  -0.11152
           Y5          -0.00000   0.02368   0.00000  -0.10910  -0.26232
           Z5           0.00000   0.00000   0.04408   0.00000   0.00000
           X6          -0.00000   0.03299   0.00000  -0.19038   0.11149
           Y6          -0.00000   0.02368   0.00000   0.10907  -0.26230
           Z6           0.00000   0.00000   0.04408   0.00000   0.00000
                          Z2        X3        Y3        Z3        X4
           Z2           0.42903
           X3           0.00000   0.16578
           Y3           0.00000   0.12681   0.25135
           Z3           0.04408   0.00000   0.00000   0.06204
           X4           0.00000   0.02466  -0.01770   0.00000   0.16573
           Y4           0.00000   0.01770  -0.01271   0.00000  -0.12677
           Z4           0.04408   0.00000   0.00000   0.01051   0.00000
           X5           0.00000   0.00000   0.00000   0.00000   0.00000
           Y5           0.00000   0.00000   0.00000   0.00000   0.00000
           Z5          -0.11663   0.00000   0.00000   0.02577   0.00000
           X6           0.00000   0.00000   0.00000   0.00000   0.00000
           Y6           0.00000   0.00000   0.00000   0.00000   0.00000
           Z6          -0.11661   0.00000   0.00000  -0.02576   0.00000
                          Y4        Z4        X5        Y5        Z5
           Y4           0.25133
           Z4           0.00000   0.06203
           X5           0.00000   0.00000   0.16578
           Y5           0.00000   0.00000   0.12681   0.25135
           Z5           0.00000  -0.02576   0.00000   0.00000   0.06204
           X6           0.00000   0.00000   0.02466  -0.01770   0.00000
           Y6           0.00000   0.00000   0.01770  -0.01271   0.00000
           Z6           0.00000   0.02576   0.00000   0.00000   0.01051
                          X6        Y6        Z6
           X6           0.16573
           Y6          -0.12677   0.25133
           Z6           0.00000   0.00000   0.06203
 ITU=  0
     Eigenvalues ---    0.04618   0.10305   0.10944   0.16718   0.17953
     Eigenvalues ---    0.18214   0.32998   0.56808   0.68546   0.69626
     Eigenvalues ---    1.12223   6.70819
 Quadratic step=3.810D-01 exceeds max=3.000D-01 adjusted using Lamda=-6.983D-02.
 Angle between NR and scaled steps=  11.99 degrees.
 Angle between quadratic step and forces=  44.62 degrees.
 ClnCor:  largest displacement from symmetrization is 2.11D-14 for atom     5.
 Linear search not attempted -- first point.
 ClnCor:  largest displacement from symmetrization is 2.22D-16 for atom     6.
 B after Tr=    -0.000000   -0.000000    0.000000
         Rot=    1.000000    0.000000    0.000000    0.000001 Ang=   0.00 deg.
 Variable       Old X    -DE/DX   Delta X   Delta X   Delta X     New X
                                 (Linear)    (Quad)   (Total)
    X1       -0.95201  -0.98044   0.00000  -0.15136  -0.15136  -1.10337
    Y1       -0.00000   0.00004   0.00000   0.00002   0.00003   0.00003
    Z1        0.00000  -0.00000   0.00000   0.00000   0.00000   0.00000
    X2        0.95201   0.98044   0.00000   0.15136   0.15136   1.10337
    Y2       -0.00000  -0.00004   0.00000  -0.00002  -0.00003  -0.00003
    Z2        0.00000  -0.00000   0.00000   0.00000   0.00000   0.00000
    X3       -2.15888  -0.00008   0.00000  -0.10452  -0.10453  -2.26340
    Y3       -1.68089  -0.00010   0.00000  -0.01558  -0.01557  -1.69646
    Z3        0.00000  -0.00000   0.00000   0.00000   0.00000   0.00000
    X4       -2.15878  -0.00007   0.00000  -0.10449  -0.10449  -2.26327
    Y4        1.68110   0.00007   0.00000   0.01554   0.01554   1.69664
    Z4        0.00000  -0.00000   0.00000   0.00000   0.00000   0.00000
    X5        2.15888   0.00008   0.00000   0.10452   0.10453   2.26340
    Y5        1.68089   0.00010   0.00000   0.01558   0.01557   1.69646
    Z5        0.00000  -0.00000   0.00000   0.00000   0.00000   0.00000
    X6        2.15878   0.00007   0.00000   0.10449   0.10449   2.26327
    Y6       -1.68110  -0.00007   0.00000  -0.01554  -0.01554  -1.69664
    Z6        0.00000  -0.00000   0.00000   0.00000   0.00000   0.00000
         Item               Value     Threshold  Converged?
 Maximum Force            0.980443     0.000450     NO 
 RMS     Force            0.326814     0.000300     NO 
 Maximum Displacement     0.151359     0.001800     NO 
 RMS     Displacement     0.070897     0.001200     NO 
 Predicted change in Energy=-1.515755D-01
 GradGradGradGradGradGradGradGradGradGradGradGradGradGradGradGradGradGrad

 Leave Link  103 at Tue Nov 19 11:41:35 2024, MaxMem=   536870912 cpu:               0.3 elap:               0.1
 (Enter /home/szhao/Apps/g16/l9999.exe)
 1\1\GINC-NODE02\Force\UM062X\6-311+G(d,p)\C2H4\SZHAO\19-Nov-2024\0\\#p
  UM062X/6-311+G** force int=superfine\\Title Card Required\\0,1\C,-0.5
 03783,0.,0.\C,0.503783,0.,0.\H,-1.142428,-0.889489,0.\H,-1.142377,0.88
 9598,0.\H,1.142428,0.889489,0.\H,1.142377,-0.889598,0.\\Version=ES64L-
 G16RevA.03\State=1-AG\HF=-78.345041\S2=0.\S2-1=0.\S2A=0.\RMSD=2.677e-0
 9\RMSF=3.268e-01\Dipole=0.,0.,0.\Quadrupole=0.4326953,0.5307256,-0.963
 4209,0.0001778,0.,0.\PG=C02H [SGH(C2H4)]\\@


 PATIENCE IS THE ABILITY TO IDLE YOUR MOTOR WHEN
 YOU FEEL LIKE STRIPPING YOUR GEARS.
 Job cpu time:       0 days  0 hours  0 minutes 36.7 seconds.
 Elapsed time:       0 days  0 hours  0 minutes  5.4 seconds.
 File lengths (MBytes):  RWF=     22 Int=      0 D2E=      0 Chk=      2 Scr=      2
 Normal termination of Gaussian 16 at Tue Nov 19 11:41:35 2024.
