Title Card Required                                                     
Force     UM062X                                                      6-311+G(d,p)        
Number of atoms                            I                6
Info1-9                                    I   N=           9
          15          15           0           0           0         100
           5          18        -502
Full Title                                 C   N=           2
Title Card Required     
Route                                      C   N=           4
#p UM062X/6-311+G** force int=superfine         
Charge                                     I                1
Multiplicity                               I                2
Number of electrons                        I               15
Number of alpha electrons                  I                8
Number of beta electrons                   I                7
Number of basis functions                  I               68
Number of independent functions            I               68
Number of point charges in /Mol/           I                0
Number of translation vectors              I                0
Atomic numbers                             I   N=           6
           6           6           1           1           1           1
Nuclear charges                            R   N=           6
  6.00000000E+00  6.00000000E+00  1.00000000E+00  1.00000000E+00  1.00000000E+00
  1.00000000E+00
Current cartesian coordinates              R   N=          18
 -1.61415618E-20  2.11061432E+00  0.00000000E+00 -2.58448805E-16 -2.11061432E+00
  0.00000000E+00 -1.87662465E+00  2.93503947E+00  0.00000000E+00  1.87701583E+00
  2.93497522E+00  0.00000000E+00  1.87662465E+00 -2.93503947E+00  0.00000000E+00
 -1.87701583E+00 -2.93497522E+00  0.00000000E+00
Number of symbols in /Mol/                 I                0
Force Field                                I                0
Atom Types                                 C   N=           6
                                                            
            
Int Atom Types                             I   N=           6
           0           0           0           0           0           0
MM charges                                 R   N=           6
  0.00000000E+00  0.00000000E+00  0.00000000E+00  0.00000000E+00  0.00000000E+00
  0.00000000E+00
Integer atomic weights                     I   N=           6
          12          12           1           1           1           1
Real atomic weights                        R   N=           6
  1.20000000E+01  1.20000000E+01  1.00782504E+00  1.00782504E+00  1.00782504E+00
  1.00782504E+00
Atom fragment info                         I   N=           6
           0           0           0           0           0           0
Atom residue num                           I   N=           6
           0           0           0           0           0           0
Nuclear spins                              I   N=           6
           0           0           1           1           1           1
Nuclear ZEff                               R   N=           6
 -3.60000000E+00 -3.60000000E+00 -1.00000000E+00 -1.00000000E+00 -1.00000000E+00
 -1.00000000E+00
Nuclear ZNuc                               R   N=           6
  6.00000000E+00  6.00000000E+00  1.00000000E+00  1.00000000E+00  1.00000000E+00
  1.00000000E+00
Nuclear QMom                               R   N=           6
  0.00000000E+00  0.00000000E+00  0.00000000E+00  0.00000000E+00  0.00000000E+00
  0.00000000E+00
Nuclear GFac                               R   N=           6
  0.00000000E+00  0.00000000E+00  2.79284600E+00  2.79284600E+00  2.79284600E+00
  2.79284600E+00
MicOpt                                     I   N=           6
          -1          -1          -1          -1          -1          -1
Number of residues                         I                0
Number of secondary structures             I                0
SymInf integers                            I   N=          26
           2           4           1           1           1          -1
          -1           1           1           1          -1          -1
          -1          -1           0           0           0           0
           0           0           0           0           0           0
           0           0
RotTr to input orientation                 R   N=          12
  7.81485343E-17  1.00000000E+00  0.00000000E+00 -1.00000000E+00  7.81459851E-17
  0.00000000E+00  0.00000000E+00  0.00000000E+00  1.00000000E+00  5.55111512E-17
  0.00000000E+00  0.00000000E+00
Number of contracted shells                I               28
Number of primitive shells                 I               50
Pure/Cartesian d shells                    I                0
Pure/Cartesian f shells                    I                0
Highest angular momentum                   I                2
Largest degree of contraction              I                6
Shell types                                I   N=          28
           0          -1          -1          -1          -1          -2
           0          -1          -1          -1          -1          -2
           0           0           0           1           0           0
           0           1           0           0           0           1
           0           0           0           1
Number of primitives per shell             I   N=          28
           6           3           1           1           1           1
           6           3           1           1           1           1
           3           1           1           1           3           1
           1           1           3           1           1           1
           3           1           1           1
Shell to atom map                          I   N=          28
           1           1           1           1           1           1
           2           2           2           2           2           2
           3           3           3           3           4           4
           4           4           5           5           5           5
           6           6           6           6
Primitive exponents                        R   N=          50
  4.56324000E+03  6.82024000E+02  1.54973000E+02  4.44553000E+01  1.30290000E+01
  1.82773000E+00  2.09642000E+01  4.80331000E+00  1.45933000E+00  4.83456000E-01
  1.45585000E-01  4.38000000E-02  6.26000000E-01  4.56324000E+03  6.82024000E+02
  1.54973000E+02  4.44553000E+01  1.30290000E+01  1.82773000E+00  2.09642000E+01
  4.80331000E+00  1.45933000E+00  4.83456000E-01  1.45585000E-01  4.38000000E-02
  6.26000000E-01  3.38650000E+01  5.09479000E+00  1.15879000E+00  3.25840000E-01
  1.02741000E-01  7.50000000E-01  3.38650000E+01  5.09479000E+00  1.15879000E+00
  3.25840000E-01  1.02741000E-01  7.50000000E-01  3.38650000E+01  5.09479000E+00
  1.15879000E+00  3.25840000E-01  1.02741000E-01  7.50000000E-01  3.38650000E+01
  5.09479000E+00  1.15879000E+00  3.25840000E-01  1.02741000E-01  7.50000000E-01
Contraction coefficients                   R   N=          50
  1.96665025E-03  1.52306019E-02  7.61269097E-02  2.60801033E-01  6.16462078E-01
  2.21006028E-01  1.14660081E-01  9.19999648E-01 -3.03068213E-03  1.00000000E+00
  1.00000000E+00  1.00000000E+00  1.00000000E+00  1.96665025E-03  1.52306019E-02
  7.61269097E-02  2.60801033E-01  6.16462078E-01  2.21006028E-01  1.14660081E-01
  9.19999648E-01 -3.03068213E-03  1.00000000E+00  1.00000000E+00  1.00000000E+00
  1.00000000E+00  2.54938145E-02  1.90373109E-01  8.52161486E-01  1.00000000E+00
  1.00000000E+00  1.00000000E+00  2.54938145E-02  1.90373109E-01  8.52161486E-01
  1.00000000E+00  1.00000000E+00  1.00000000E+00  2.54938145E-02  1.90373109E-01
  8.52161486E-01  1.00000000E+00  1.00000000E+00  1.00000000E+00  2.54938145E-02
  1.90373109E-01  8.52161486E-01  1.00000000E+00  1.00000000E+00  1.00000000E+00
P(S=P) Contraction coefficients            R   N=          50
  0.00000000E+00  0.00000000E+00  0.00000000E+00  0.00000000E+00  0.00000000E+00
  0.00000000E+00  4.02486927E-02  2.37593957E-01  8.15853851E-01  1.00000000E+00
  1.00000000E+00  1.00000000E+00  0.00000000E+00  0.00000000E+00  0.00000000E+00
  0.00000000E+00  0.00000000E+00  0.00000000E+00  0.00000000E+00  4.02486927E-02
  2.37593957E-01  8.15853851E-01  1.00000000E+00  1.00000000E+00  1.00000000E+00
  0.00000000E+00  0.00000000E+00  0.00000000E+00  0.00000000E+00  0.00000000E+00
  0.00000000E+00  0.00000000E+00  0.00000000E+00  0.00000000E+00  0.00000000E+00
  0.00000000E+00  0.00000000E+00  0.00000000E+00  0.00000000E+00  0.00000000E+00
  0.00000000E+00  0.00000000E+00  0.00000000E+00  0.00000000E+00  0.00000000E+00
  0.00000000E+00  0.00000000E+00  0.00000000E+00  0.00000000E+00  0.00000000E+00
Coordinates of each shell                  R   N=          84
 -1.07610412E-20  2.11061432E+00  0.00000000E+00 -1.07610412E-20  2.11061432E+00
  0.00000000E+00 -1.07610412E-20  2.11061432E+00  0.00000000E+00 -1.07610412E-20
  2.11061432E+00  0.00000000E+00 -1.07610412E-20  2.11061432E+00  0.00000000E+00
 -1.07610412E-20  2.11061432E+00  0.00000000E+00 -2.58454185E-16 -2.11061432E+00
  0.00000000E+00 -2.58454185E-16 -2.11061432E+00  0.00000000E+00 -2.58454185E-16
 -2.11061432E+00  0.00000000E+00 -2.58454185E-16 -2.11061432E+00  0.00000000E+00
 -2.58454185E-16 -2.11061432E+00  0.00000000E+00 -2.58454185E-16 -2.11061432E+00
  0.00000000E+00 -1.87662465E+00  2.93503947E+00  0.00000000E+00 -1.87662465E+00
  2.93503947E+00  0.00000000E+00 -1.87662465E+00  2.93503947E+00  0.00000000E+00
 -1.87662465E+00  2.93503947E+00  0.00000000E+00  1.87701583E+00  2.93497522E+00
  0.00000000E+00  1.87701583E+00  2.93497522E+00  0.00000000E+00  1.87701583E+00
  2.93497522E+00  0.00000000E+00  1.87701583E+00  2.93497522E+00  0.00000000E+00
  1.87662465E+00 -2.93503947E+00  0.00000000E+00  1.87662465E+00 -2.93503947E+00
  0.00000000E+00  1.87662465E+00 -2.93503947E+00  0.00000000E+00  1.87662465E+00
 -2.93503947E+00  0.00000000E+00 -1.87701583E+00 -2.93497522E+00  0.00000000E+00
 -1.87701583E+00 -2.93497522E+00  0.00000000E+00 -1.87701583E+00 -2.93497522E+00
  0.00000000E+00 -1.87701583E+00 -2.93497522E+00  0.00000000E+00
Num ILSW                                   I              100
ILSW                                       I   N=         100
           1           0           0           0           2           0
           0           0           0           0        4336          -1
           7           0           0           0           2           0
           0           0           0           0           1           0
           1           0           0           0           0           0
           0           0      100000           0          -1           0
           0           0           0           0           0           0
           0           0           0           1           0           0
           0 -2000000000           1           0           0           0
           0           0           4          52           0           0
           0           0          55           0           0           0
           0           0           0           6           0           1
           0           0           0           0           0           0
           0           0           0           0           0           0
           0           0           0           0           0           0
           0           0           0           0           0           0
           0           0           0           0
Num RLSW                                   I               52
RLSW                                       R   N=          52
  1.00000000E+00  1.00000000E+00  1.00000000E+00  1.00000000E+00  5.40000000E-01
  0.00000000E+00  0.00000000E+00  1.00000000E+00  0.00000000E+00  0.00000000E+00
  0.00000000E+00  0.00000000E+00  1.00000000E+00  0.00000000E+00  0.00000000E+00
  0.00000000E+00  0.00000000E+00  1.00000000E+00  0.00000000E+00  0.00000000E+00
  0.00000000E+00  0.00000000E+00  1.00000000E+00  0.00000000E+00  0.00000000E+00
  0.00000000E+00  0.00000000E+00  1.00000000E+00  0.00000000E+00  0.00000000E+00
  0.00000000E+00  0.00000000E+00  1.00000000E+00  0.00000000E+00  0.00000000E+00
  0.00000000E+00  0.00000000E+00  0.00000000E+00  1.00000000E+00  1.00000000E+00
  0.00000000E+00  1.00000000E+00  0.00000000E+00  0.00000000E+00  0.00000000E+00
  0.00000000E+00  0.00000000E+00  0.00000000E+00  0.00000000E+00  0.00000000E+00
  0.00000000E+00  0.00000000E+00
MxBond                                     I                2
NBond                                      I   N=           6
           2           2           1           1           1           1
IBond                                      I   N=          12
           3           4           5           6           1           0
           1           0           2           0           2           0
RBond                                      R   N=          12
  1.00000000E+00  1.00000000E+00  1.00000000E+00  1.00000000E+00  1.00000000E+00
  0.00000000E+00  1.00000000E+00  0.00000000E+00  1.00000000E+00  0.00000000E+00
  1.00000000E+00  0.00000000E+00
Virial Ratio                               R      2.010043556599315E+00
SCF Energy                                 R     -7.801480430009170E+01
Total Energy                               R     -7.801480430009170E+01
S**2                                       R      7.521581944412468E-01
S**2 after annihilation                    R      7.500035553307800E-01
RMS Force                                  R      3.750226605485983E-02
RMS Density                                R      5.318679529322862E-09
Job Status                                 I                1
Nuclear derivative order                   I                1
External E-field                           R   N=          35
  0.00000000E+00  0.00000000E+00  0.00000000E+00  0.00000000E+00  0.00000000E+00
  0.00000000E+00  0.00000000E+00  0.00000000E+00  0.00000000E+00  0.00000000E+00
  0.00000000E+00  0.00000000E+00  0.00000000E+00  0.00000000E+00  0.00000000E+00
  0.00000000E+00  0.00000000E+00  0.00000000E+00  0.00000000E+00  0.00000000E+00
  0.00000000E+00  0.00000000E+00  0.00000000E+00  0.00000000E+00  0.00000000E+00
  0.00000000E+00  0.00000000E+00  0.00000000E+00  0.00000000E+00  0.00000000E+00
  0.00000000E+00  0.00000000E+00  0.00000000E+00  0.00000000E+00  0.00000000E+00
IOpCl                                      I                1
IROHF                                      I                0
Alpha Orbital Energies                     R   N=          68
 -1.09237522E+01 -1.09236431E+01 -1.05163275E+00 -1.00505823E+00 -8.02400917E-01
 -7.81415934E-01 -6.38765786E-01 -5.44629246E-01 -3.76371669E-01 -2.86752732E-01
 -1.38983653E-01 -1.09197575E-01 -1.03590308E-01 -8.14965744E-02 -7.53342442E-02
 -7.01055051E-02 -4.74177269E-02 -3.84975083E-02 -3.38853908E-02  1.03661732E-03
  1.90012056E-02  9.25203204E-02  1.79415134E-01  2.25304787E-01  2.40845379E-01
  3.20885350E-01  3.80834373E-01  4.05409328E-01  4.12841545E-01  4.32667602E-01
  4.56472497E-01  4.89988001E-01  5.26381934E-01  5.59378907E-01  8.02398639E-01
  8.12204730E-01  8.82629132E-01  9.09649032E-01  1.12236441E+00  1.13167330E+00
  1.13701814E+00  1.24912138E+00  1.26084758E+00  1.46795040E+00  1.46965857E+00
  1.48267879E+00  1.50105786E+00  1.59333516E+00  1.65970103E+00  1.73891249E+00
  1.75205257E+00  1.77962955E+00  2.12286280E+00  2.26374088E+00  2.26519061E+00
  2.33731078E+00  2.37976632E+00  2.40085929E+00  2.40403432E+00  2.40993318E+00
  2.45443823E+00  2.46581886E+00  2.53557277E+00  2.88477403E+00  3.40683177E+00
  3.44011119E+00  2.34982325E+01  2.35119432E+01
Beta Orbital Energies                      R   N=          68
 -1.09213159E+01 -1.09212491E+01 -1.02216938E+00 -9.82009778E-01 -7.97720152E-01
 -7.77809247E-01 -6.22123910E-01 -3.42309331E-01 -2.85294711E-01 -2.64394667E-01
 -1.51032429E-01 -1.11882858E-01 -1.05055017E-01 -7.52346937E-02 -7.38059818E-02
 -7.29002517E-02 -4.00439926E-02 -3.81493159E-02 -2.88012789E-02  6.25921888E-03
  9.54203126E-03  1.01120700E-01  1.80119858E-01  2.28207344E-01  2.45596860E-01
  3.35974007E-01  3.69859424E-01  4.14846962E-01  4.20515481E-01  4.23997416E-01
  4.72309038E-01  5.02112524E-01  5.31722514E-01  5.61574709E-01  8.33412680E-01
  8.40926166E-01  9.19969145E-01  9.38843837E-01  1.14192100E+00  1.14405190E+00
  1.15371128E+00  1.28277083E+00  1.28526175E+00  1.48412484E+00  1.49746561E+00
  1.50418074E+00  1.51341196E+00  1.60455106E+00  1.67203038E+00  1.75015923E+00
  1.76852577E+00  1.79547549E+00  2.15933992E+00  2.28296939E+00  2.29772867E+00
  2.35135225E+00  2.39908715E+00  2.41639562E+00  2.44222007E+00  2.45176755E+00
  2.49741961E+00  2.50688105E+00  2.55933757E+00  2.91904498E+00  3.45100271E+00
  3.48476982E+00  2.35106428E+01  2.35246515E+01
Alpha MO coefficients                      R   N=        4624
  3.99022403E-01  3.28094131E-01  5.02627668E-08 -5.42419992E-04  0.00000000E+00
  7.81765542E-03 -1.80852927E-06  1.33914477E-03  0.00000000E+00 -1.88110570E-03
 -1.74958152E-09 -1.25483091E-04  0.00000000E+00 -5.34053466E-04  6.91922513E-07
 -2.87196468E-04  0.00000000E+00 -8.62278811E-04  0.00000000E+00  0.00000000E+00
  9.89403847E-04 -7.27443676E-07  3.99022403E-01  3.28094131E-01 -5.02627668E-08
  5.42419992E-04  0.00000000E+00  7.81765542E-03  1.80852927E-06 -1.33914477E-03
  0.00000000E+00 -1.88110570E-03  1.74958152E-09  1.25483091E-04  0.00000000E+00
 -5.34053466E-04 -6.91922513E-07  2.87196468E-04  0.00000000E+00 -8.62278811E-04
  0.00000000E+00  0.00000000E+00  9.89403847E-04 -7.27443676E-07  1.29225544E-04
 -2.26240995E-03  1.45506008E-03 -1.29317035E-03  6.48909924E-04  0.00000000E+00
  1.29596924E-04 -2.25932531E-03  1.45282450E-03  1.29192742E-03  6.48217421E-04
  0.00000000E+00  1.29225544E-04 -2.26240995E-03  1.45506008E-03  1.29317035E-03
 -6.48909924E-04  0.00000000E+00  1.29596924E-04 -2.25932531E-03  1.45282450E-03
 -1.29192742E-03 -6.48217421E-04  0.00000000E+00  3.99035778E-01  3.28100900E-01
  4.65211459E-08 -6.02424859E-04  0.00000000E+00  8.02502072E-03 -1.76075624E-06
  1.61788413E-03  0.00000000E+00 -2.96662542E-03  1.22607181E-07  2.81259091E-04
  0.00000000E+00  5.01166278E-04  2.54209833E-07 -7.90232342E-04  0.00000000E+00
 -7.57278611E-04  0.00000000E+00  0.00000000E+00  1.17605039E-03 -7.25788769E-07
 -3.99035778E-01 -3.28100900E-01  4.65211459E-08 -6.02424859E-04  0.00000000E+00
 -8.02502072E-03 -1.76075624E-06  1.61788413E-03  0.00000000E+00  2.96662542E-03
  1.22607181E-07  2.81259091E-04  0.00000000E+00 -5.01166278E-04  2.54209833E-07
 -7.90232342E-04  0.00000000E+00  7.57278611E-04  0.00000000E+00  0.00000000E+00
 -1.17605039E-03  7.25788769E-07  9.00360811E-05 -2.15135588E-03  1.60996249E-03
 -1.31092713E-03  5.98359524E-04  0.00000000E+00  9.04739412E-05 -2.14861894E-03
  1.60816697E-03  1.30970365E-03  5.97686651E-04  0.00000000E+00 -9.00360811E-05
  2.15135588E-03 -1.60996249E-03 -1.31092713E-03  5.98359524E-04  0.00000000E+00
 -9.04739412E-05  2.14861894E-03 -1.60816697E-03  1.30970365E-03  5.97686651E-04
  0.00000000E+00 -8.05075035E-02 -1.31074443E-01 -1.96991568E-05  1.17919321E-02
  0.00000000E+00  3.64138099E-01 -2.09133211E-05  1.26115051E-02  0.00000000E+00
  2.46523906E-01 -7.21509193E-06 -3.48580803E-03  0.00000000E+00  7.35513200E-04
 -3.04223460E-06  4.84912237E-03  0.00000000E+00 -4.89532208E-03  0.00000000E+00
  0.00000000E+00  2.72172238E-03 -2.40822664E-06 -8.05075035E-02 -1.31074443E-01
  1.96991568E-05 -1.17919321E-02  0.00000000E+00  3.64138099E-01  2.09133211E-05
 -1.26115051E-02  0.00000000E+00  2.46523906E-01  7.21509193E-06  3.48580803E-03
  0.00000000E+00  7.35513200E-04  3.04223460E-06 -4.84912237E-03  0.00000000E+00
 -4.89532208E-03  0.00000000E+00  0.00000000E+00  2.72172238E-03 -2.40822664E-06
  7.05254391E-02  7.83247457E-02 -6.66804425E-03  1.18672839E-02 -4.48723029E-03
  0.00000000E+00  7.04902047E-02  7.82917089E-02 -6.65958210E-03 -1.18636350E-02
 -4.48357381E-03  0.00000000E+00  7.05254391E-02  7.83247457E-02 -6.66804425E-03
 -1.18672839E-02  4.48723029E-03  0.00000000E+00  7.04902047E-02  7.82917089E-02
 -6.65958210E-03  1.18636350E-02  4.48357381E-03  0.00000000E+00 -7.91866973E-02
 -1.29312213E-01 -2.75896344E-05  4.15497098E-02  0.00000000E+00  3.63695694E-01
 -3.24839039E-05  6.27515146E-02  0.00000000E+00  2.50402391E-01 -1.15110293E-05
  1.80923348E-02  0.00000000E+00 -2.20157399E-02 -5.14262133E-07  1.10556897E-02
  0.00000000E+00 -4.08654082E-03  0.00000000E+00  0.00000000E+00  1.01051709E-02
 -3.51677826E-06  7.91866973E-02  1.29312213E-01 -2.75896344E-05  4.15497098E-02
  0.00000000E+00 -3.63695694E-01 -3.24839039E-05  6.27515146E-02  0.00000000E+00
 -2.50402391E-01 -1.15110293E-05  1.80923348E-02  0.00000000E+00  2.20157399E-02
 -5.14262133E-07  1.10556897E-02  0.00000000E+00  4.08654082E-03  0.00000000E+00
  0.00000000E+00 -1.01051709E-02  3.51677826E-06  8.01136779E-02  9.15089929E-02
 -3.24615557E-03  1.25784690E-02 -3.26542704E-03  0.00000000E+00  8.00667068E-02
  9.14651729E-02 -3.24217645E-03 -1.25739263E-02 -3.26154646E-03  0.00000000E+00
 -8.01136779E-02 -9.15089929E-02  3.24615557E-03  1.25784690E-02 -3.26542704E-03
  0.00000000E+00 -8.00667068E-02 -9.14651729E-02  3.24217645E-03 -1.25739263E-02
 -3.26154646E-03  0.00000000E+00 -1.12553650E-05 -1.90096450E-05  1.59922212E-01
 -3.43471912E-06  0.00000000E+00  5.65004400E-05  2.30292275E-01  3.30831900E-07
  0.00000000E+00  6.65109511E-05  1.34555946E-01 -2.14136353E-06  0.00000000E+00
 -3.46814009E-06  3.51180291E-03  2.61260663E-06  0.00000000E+00  3.48484059E-07
  0.00000000E+00  0.00000000E+00  1.76656129E-06  1.17082281E-02  1.12553650E-05
  1.90096450E-05  1.59922212E-01 -3.43471912E-06  0.00000000E+00 -5.65004400E-05
  2.30292275E-01  3.30831900E-07  0.00000000E+00 -6.65109511E-05  1.34555946E-01
 -2.14136353E-06  0.00000000E+00  3.46814009E-06  3.51180291E-03  2.61260663E-06
  0.00000000E+00 -3.48484059E-07  0.00000000E+00  0.00000000E+00 -1.76656129E-06
 -1.17082281E-02 -1.04617473E-01 -1.36681028E-01 -9.38897795E-03 -1.05977850E-02
  7.66366909E-03  0.00000000E+00  1.04632581E-01  1.36716841E-01  9.39389510E-03
 -1.06032124E-02 -7.66278794E-03  0.00000000E+00  1.04617473E-01  1.36681028E-01
  9.38897795E-03 -1.05977850E-02  7.66366909E-03  0.00000000E+00 -1.04632581E-01
 -1.36716841E-01 -9.39389510E-03 -1.06032124E-02 -7.66278794E-03  0.00000000E+00
 -7.56723264E-06 -1.29615118E-05  1.63470716E-01 -2.82344760E-05  0.00000000E+00
  3.85442569E-05  2.32715804E-01 -3.91151677E-05  0.00000000E+00  5.62586012E-05
  1.38855956E-01 -2.40129655E-05  0.00000000E+00  1.39319199E-06  1.14349595E-02
  1.12171724E-06  0.00000000E+00  5.03259354E-07  0.00000000E+00  0.00000000E+00
 -1.56500492E-06  1.72591446E-02 -7.56723264E-06 -1.29615118E-05 -1.63470716E-01
  2.82344760E-05  0.00000000E+00  3.85442569E-05 -2.32715804E-01  3.91151677E-05
  0.00000000E+00  5.62586012E-05 -1.38855956E-01  2.40129655E-05  0.00000000E+00
  1.39319199E-06 -1.14349595E-02 -1.12171724E-06  0.00000000E+00  5.03259354E-07
  0.00000000E+00  0.00000000E+00 -1.56500492E-06  1.72591446E-02 -1.08815275E-01
 -1.46676993E-01 -9.93441422E-03 -1.10552292E-02  8.07551304E-03  0.00000000E+00
  1.08807435E-01  1.46681856E-01  9.93716606E-03 -1.10577189E-02 -8.07555977E-03
  0.00000000E+00 -1.08815275E-01 -1.46676993E-01 -9.93441422E-03  1.10552292E-02
 -8.07551304E-03  0.00000000E+00  1.08807435E-01  1.46681856E-01  9.93716606E-03
  1.10577189E-02  8.07555977E-03  0.00000000E+00  1.03073935E-02  1.70715684E-02
  2.24702087E-05  1.76838887E-01  0.00000000E+00 -4.11556837E-02  3.80398224E-05
  2.82801272E-01  0.00000000E+00 -1.11859053E-01  2.69740506E-05  2.16534283E-01
  0.00000000E+00 -3.09830998E-03  1.08985829E-06 -4.64634871E-03  0.00000000E+00
 -2.84145730E-04  0.00000000E+00  0.00000000E+00  1.59254647E-02  1.61104223E-07
  1.03073935E-02  1.70715684E-02 -2.24702087E-05 -1.76838887E-01  0.00000000E+00
 -4.11556837E-02 -3.80398224E-05 -2.82801272E-01  0.00000000E+00 -1.11859053E-01
 -2.69740506E-05 -2.16534283E-01  0.00000000E+00 -3.09830998E-03 -1.08985829E-06
  4.64634871E-03  0.00000000E+00 -2.84145730E-04  0.00000000E+00  0.00000000E+00
  1.59254647E-02  1.61104223E-07  5.17748776E-02  8.40701691E-02  2.26108157E-02
  7.95467854E-03  6.65813223E-03  0.00000000E+00  5.17961442E-02  8.41120156E-02
  2.26254234E-02 -7.95574103E-03  6.65535619E-03  0.00000000E+00  5.17748776E-02
  8.40701691E-02  2.26108157E-02 -7.95467854E-03 -6.65813223E-03  0.00000000E+00
  5.17961442E-02  8.41120156E-02  2.26254234E-02  7.95574103E-03 -6.65535619E-03
  0.00000000E+00  0.00000000E+00  0.00000000E+00  0.00000000E+00  0.00000000E+00
  1.90063726E-01  0.00000000E+00  0.00000000E+00  0.00000000E+00  3.03252100E-01
  0.00000000E+00  0.00000000E+00  0.00000000E+00  2.99612342E-01  0.00000000E+00
  0.00000000E+00  0.00000000E+00  1.24630245E-02  0.00000000E+00 -1.66966875E-06
 -7.52207631E-03  0.00000000E+00  0.00000000E+00  0.00000000E+00  0.00000000E+00
  0.00000000E+00  0.00000000E+00  1.90063726E-01  0.00000000E+00  0.00000000E+00
  0.00000000E+00  3.03252100E-01  0.00000000E+00  0.00000000E+00  0.00000000E+00
  2.99612342E-01  0.00000000E+00  0.00000000E+00  0.00000000E+00  1.24630245E-02
  0.00000000E+00  1.66966875E-06  7.52207631E-03  0.00000000E+00  0.00000000E+00
  0.00000000E+00  0.00000000E+00  0.00000000E+00  0.00000000E+00  0.00000000E+00
  1.28525504E-02  0.00000000E+00  0.00000000E+00  0.00000000E+00  0.00000000E+00
  0.00000000E+00  1.28501837E-02  0.00000000E+00  0.00000000E+00  0.00000000E+00
  0.00000000E+00  0.00000000E+00  1.28525504E-02  0.00000000E+00  0.00000000E+00
  0.00000000E+00  0.00000000E+00  0.00000000E+00  1.28501837E-02  0.00000000E+00
  0.00000000E+00  0.00000000E+00  0.00000000E+00  2.06440726E-01  0.00000000E+00
  0.00000000E+00  0.00000000E+00  3.26405030E-01  0.00000000E+00  0.00000000E+00
  0.00000000E+00  3.41062796E-01  0.00000000E+00  0.00000000E+00  0.00000000E+00
  4.60061459E-02  0.00000000E+00 -1.61415659E-06  1.25001665E-02  0.00000000E+00
  0.00000000E+00  0.00000000E+00  0.00000000E+00  0.00000000E+00  0.00000000E+00
 -2.06440726E-01  0.00000000E+00  0.00000000E+00  0.00000000E+00 -3.26405030E-01
  0.00000000E+00  0.00000000E+00  0.00000000E+00 -3.41062796E-01  0.00000000E+00
  0.00000000E+00  0.00000000E+00 -4.60061459E-02  0.00000000E+00 -1.61415659E-06
  1.25001665E-02  0.00000000E+00  0.00000000E+00  0.00000000E+00  0.00000000E+00
  0.00000000E+00  0.00000000E+00  0.00000000E+00  1.66293339E-02  0.00000000E+00
  0.00000000E+00  0.00000000E+00  0.00000000E+00  0.00000000E+00  1.66263221E-02
  0.00000000E+00  0.00000000E+00  0.00000000E+00  0.00000000E+00  0.00000000E+00
 -1.66293339E-02  0.00000000E+00  0.00000000E+00  0.00000000E+00  0.00000000E+00
  0.00000000E+00 -1.66263221E-02 -4.38346487E-02 -7.39366760E-02 -1.47777442E-06
 -2.02619195E-01  0.00000000E+00  2.21539981E-01 -1.02154885E-05 -3.03179675E-01
  0.00000000E+00  4.41436227E-01 -9.77699993E-06 -4.15079830E-01  0.00000000E+00
  2.94537424E-01 -3.77348163E-06 -1.83665788E-01  0.00000000E+00  1.43517790E-02
  0.00000000E+00  0.00000000E+00  1.71591374E-02  1.10906095E-06  4.38346487E-02
  7.39366760E-02 -1.47777442E-06 -2.02619195E-01  0.00000000E+00 -2.21539981E-01
 -1.02154885E-05 -3.03179675E-01  0.00000000E+00 -4.41436227E-01 -9.77699993E-06
 -4.15079830E-01  0.00000000E+00 -2.94537424E-01 -3.77348163E-06 -1.83665788E-01
  0.00000000E+00 -1.43517790E-02  0.00000000E+00  0.00000000E+00 -1.71591374E-02
 -1.10906095E-06 -3.32354545E-02 -7.33987387E-02 -6.64362871E-02 -8.00242123E-03
 -1.36027660E-02  0.00000000E+00 -3.32304583E-02 -7.33893420E-02 -6.64529305E-02
  7.99716196E-03 -1.36021319E-02  0.00000000E+00  3.32354545E-02  7.33987387E-02
  6.64362871E-02 -8.00242123E-03 -1.36027660E-02  0.00000000E+00  3.32304583E-02
  7.33893420E-02  6.64529305E-02  7.99716196E-03 -1.36021319E-02  0.00000000E+00
  3.47927339E-02  5.94642811E-02 -2.44563548E-05 -3.07118530E-02  0.00000000E+00
 -1.73260864E-01 -1.71899608E-05 -4.86591599E-02  0.00000000E+00 -7.49371547E-01
 -1.00495326E-04 -1.09129983E-01  0.00000000E+00  8.22863010E-01 -3.71838219E-05
  1.12522351E-01  0.00000000E+00  1.01427922E-02  0.00000000E+00  0.00000000E+00
  1.96916709E-03  5.75084799E-06  3.47927339E-02  5.94642811E-02  2.44563548E-05
  3.07118530E-02  0.00000000E+00 -1.73260864E-01  1.71899608E-05  4.86591599E-02
  0.00000000E+00 -7.49371547E-01  1.00495326E-04  1.09129983E-01  0.00000000E+00
  8.22863010E-01  3.71838219E-05 -1.12522351E-01  0.00000000E+00  1.01427922E-02
  0.00000000E+00  0.00000000E+00  1.96916709E-03  5.75084799E-06  8.21260771E-03
  1.22823336E-01  5.33874608E-02 -6.39813074E-03 -3.02077872E-03  0.00000000E+00
  8.22643681E-03  1.22823414E-01  5.36291024E-02  6.40797418E-03 -3.01479880E-03
  0.00000000E+00  8.21260771E-03  1.22823336E-01  5.33874608E-02  6.39813074E-03
  3.02077872E-03  0.00000000E+00  8.22643681E-03  1.22823414E-01  5.36291024E-02
 -6.40797418E-03  3.01479880E-03  0.00000000E+00  7.91875193E-06  1.32202706E-05
 -7.10254390E-02 -3.14632702E-05  0.00000000E+00 -3.16236493E-05 -1.16434194E-01
 -4.12913856E-05  0.00000000E+00 -2.28719688E-04 -1.97496478E-01 -1.54523108E-04
  0.00000000E+00  5.97151292E-05  7.33970791E-01  5.43565742E-05  0.00000000E+00
 -2.62776856E-06  0.00000000E+00  0.00000000E+00  4.73416199E-06 -1.04062304E-02
 -7.91875193E-06 -1.32202706E-05 -7.10254390E-02 -3.14632702E-05  0.00000000E+00
  3.16236493E-05 -1.16434194E-01 -4.12913856E-05  0.00000000E+00  2.28719688E-04
 -1.97496478E-01 -1.54523108E-04  0.00000000E+00 -5.97151292E-05  7.33970791E-01
  5.43565742E-05  0.00000000E+00  2.62776856E-06  0.00000000E+00  0.00000000E+00
 -4.73416199E-06  1.04062304E-02  1.74856317E-02 -4.96550629E-02  1.69438112E-01
  9.62770843E-03 -1.11025143E-03  0.00000000E+00 -1.74577066E-02  4.97603975E-02
 -1.69192049E-01  9.63811026E-03  1.10777353E-03  0.00000000E+00 -1.74856317E-02