Title Card Required                                                     
FOpt      UM062X                                                      6-311+G(d,p)        
Number of atoms                            I                4
Info1-9                                    I   N=           9
          13          13           0           0           0         110
           2          18        -502
Full Title                                 C   N=           2
Title Card Required     
Route                                      C   N=           4
#p opt UM062X/6-311+G** nosymm int=superfine    
Charge                                     I                0
Multiplicity                               I                1
Number of electrons                        I               14
Number of alpha electrons                  I                7
Number of beta electrons                   I                7
Number of basis functions                  I               56
Number of independent functions            I               56
Number of point charges in /Mol/           I                0
Number of translation vectors              I                0
Atomic numbers                             I   N=           4
           6           6           1           1
Nuclear charges                            R   N=           4
  6.00000000E+00  6.00000000E+00  1.00000000E+00  1.00000000E+00
Current cartesian coordinates              R   N=          12
 -1.73047647E+00  0.00000000E+00  0.00000000E+00  1.73047647E+00  0.00000000E+00
  0.00000000E+00 -2.31007544E+00 -2.00265294E+00 -2.72083985E-01  2.08632696E+00
  9.40714719E-01 -2.02065846E+00
Number of symbols in /Mol/                 I                0
Force Field                                I                0
Atom Types                                 C   N=           4
                                                
Int Atom Types                             I   N=           4
           0           0           0           0
MM charges                                 R   N=           4
  0.00000000E+00  0.00000000E+00  0.00000000E+00  0.00000000E+00
Integer atomic weights                     I   N=           4
          12          12           1           1
Real atomic weights                        R   N=           4
  1.20000000E+01  1.20000000E+01  1.00782504E+00  1.00782504E+00
Atom fragment info                         I   N=           4
           0           0           0           0
Atom residue num                           I   N=           4
           0           0           0           0
Nuclear spins                              I   N=           4
           0           0           1           1
Nuclear ZEff                               R   N=           4
 -3.60000000E+00 -3.60000000E+00 -1.00000000E+00 -1.00000000E+00
Nuclear ZNuc                               R   N=           4
  6.00000000E+00  6.00000000E+00  1.00000000E+00  1.00000000E+00
Nuclear QMom                               R   N=           4
  0.00000000E+00  0.00000000E+00  0.00000000E+00  0.00000000E+00
Nuclear GFac                               R   N=           4
  0.00000000E+00  0.00000000E+00  2.79284600E+00  2.79284600E+00
MicOpt                                     I   N=           4
          -2          -2          -1          -1
Number of residues                         I                0
Number of secondary structures             I                0
Redundant internal dimensions              I   N=           4
          12           8           4           0
Redundant internal coordinate indices      I   N=          48
           1          -1           0           0           1          -2
           0           0           1          -3           0           0
           2          -1           0           0           2          -2
           0           0           2          -3           0           0
           1           3           0           0           2           4
           0           0           2           1           3          -4
           1           2           4          -4           2           1
           3          -8           1           2           4          -8
Redundant internal coordinates             R   N=          12
 -1.73047647E+00  0.00000000E+00  0.00000000E+00  1.73047647E+00  0.00000000E+00
  0.00000000E+00  2.10251837E+00  2.25712967E+00  3.58049058E+00  1.74511513E+00
  1.85251459E+00  1.93243665E+00
ZRed-IntVec                                I   N=          12
          -1          -1          -1          -1          -1          -1
           0           0           0           0           0           0
ZRed-FPVec                                 R   N=          12
  0.00000000E+00  0.00000000E+00  0.00000000E+00  0.00000000E+00  0.00000000E+00
  0.00000000E+00  0.00000000E+00  0.00000000E+00  0.00000000E+00  0.00000000E+00
  0.00000000E+00  0.00000000E+00
ZRed-Constraint1                           R   N=          12
 -1.73047647E+00  0.00000000E+00  0.00000000E+00  1.73047647E+00  0.00000000E+00
  0.00000000E+00  3.07750549E+00  3.07745923E+00  3.14159265E+00  3.14159263E+00
  3.14159265E+00  3.14159263E+00
ZRed-Constraint2                           R   N=          12
 -1.73047647E+00  0.00000000E+00  0.00000000E+00  1.73047647E+00  0.00000000E+00
  0.00000000E+00  0.00000000E+00  0.00000000E+00  0.00000000E+00  0.00000000E+00
  0.00000000E+00  0.00000000E+00
Number of contracted shells                I               20
Number of primitive shells                 I               38
Pure/Cartesian d shells                    I                0
Pure/Cartesian f shells                    I                0
Highest angular momentum                   I                2
Largest degree of contraction              I                6
Shell types                                I   N=          20
           0          -1          -1          -1          -1          -2
           0          -1          -1          -1          -1          -2
           0           0           0           1           0           0
           0           1
Number of primitives per shell             I   N=          20
           6           3           1           1           1           1
           6           3           1           1           1           1
           3           1           1           1           3           1
           1           1
Shell to atom map                          I   N=          20
           1           1           1           1           1           1
           2           2           2           2           2           2
           3           3           3           3           4           4
           4           4
Primitive exponents                        R   N=          38
  4.56324000E+03  6.82024000E+02  1.54973000E+02  4.44553000E+01  1.30290000E+01
  1.82773000E+00  2.09642000E+01  4.80331000E+00  1.45933000E+00  4.83456000E-01
  1.45585000E-01  4.38000000E-02  6.26000000E-01  4.56324000E+03  6.82024000E+02
  1.54973000E+02  4.44553000E+01  1.30290000E+01  1.82773000E+00  2.09642000E+01
  4.80331000E+00  1.45933000E+00  4.83456000E-01  1.45585000E-01  4.38000000E-02
  6.26000000E-01  3.38650000E+01  5.09479000E+00  1.15879000E+00  3.25840000E-01
  1.02741000E-01  7.50000000E-01  3.38650000E+01  5.09479000E+00  1.15879000E+00
  3.25840000E-01  1.02741000E-01  7.50000000E-01
Contraction coefficients                   R   N=          38
  1.96665025E-03  1.52306019E-02  7.61269097E-02  2.60801033E-01  6.16462078E-01
  2.21006028E-01  1.14660081E-01  9.19999648E-01 -3.03068213E-03  1.00000000E+00
  1.00000000E+00  1.00000000E+00  1.00000000E+00  1.96665025E-03  1.52306019E-02
  7.61269097E-02  2.60801033E-01  6.16462078E-01  2.21006028E-01  1.14660081E-01
  9.19999648E-01 -3.03068213E-03  1.00000000E+00  1.00000000E+00  1.00000000E+00
  1.00000000E+00  2.54938145E-02  1.90373109E-01  8.52161486E-01  1.00000000E+00
  1.00000000E+00  1.00000000E+00  2.54938145E-02  1.90373109E-01  8.52161486E-01
  1.00000000E+00  1.00000000E+00  1.00000000E+00
P(S=P) Contraction coefficients            R   N=          38
  0.00000000E+00  0.00000000E+00  0.00000000E+00  0.00000000E+00  0.00000000E+00
  0.00000000E+00  4.02486927E-02  2.37593957E-01  8.15853851E-01  1.00000000E+00
  1.00000000E+00  1.00000000E+00  0.00000000E+00  0.00000000E+00  0.00000000E+00
  0.00000000E+00  0.00000000E+00  0.00000000E+00  0.00000000E+00  4.02486927E-02
  2.37593957E-01  8.15853851E-01  1.00000000E+00  1.00000000E+00  1.00000000E+00
  0.00000000E+00  0.00000000E+00  0.00000000E+00  0.00000000E+00  0.00000000E+00
  0.00000000E+00  0.00000000E+00  0.00000000E+00  0.00000000E+00  0.00000000E+00
  0.00000000E+00  0.00000000E+00  0.00000000E+00
Coordinates of each shell                  R   N=          60
 -1.73047647E+00  0.00000000E+00  0.00000000E+00 -1.73047647E+00  0.00000000E+00
  0.00000000E+00 -1.73047647E+00  0.00000000E+00  0.00000000E+00 -1.73047647E+00
  0.00000000E+00  0.00000000E+00 -1.73047647E+00  0.00000000E+00  0.00000000E+00
 -1.73047647E+00  0.00000000E+00  0.00000000E+00  1.73047647E+00  0.00000000E+00
  0.00000000E+00  1.73047647E+00  0.00000000E+00  0.00000000E+00  1.73047647E+00
  0.00000000E+00  0.00000000E+00  1.73047647E+00  0.00000000E+00  0.00000000E+00
  1.73047647E+00  0.00000000E+00  0.00000000E+00  1.73047647E+00  0.00000000E+00
  0.00000000E+00 -2.31007544E+00 -2.00265294E+00 -2.72083985E-01 -2.31007544E+00
 -2.00265294E+00 -2.72083985E-01 -2.31007544E+00 -2.00265294E+00 -2.72083985E-01
 -2.31007544E+00 -2.00265294E+00 -2.72083985E-01  2.08632696E+00  9.40714719E-01
 -2.02065846E+00  2.08632696E+00  9.40714719E-01 -2.02065846E+00  2.08632696E+00
  9.40714719E-01 -2.02065846E+00  2.08632696E+00  9.40714719E-01 -2.02065846E+00
Num ILSW                                   I              100
ILSW                                       I   N=         100
           1           0           0           0           2           0
           0           0           0           0        4336          -1
           7           0           0           0           0           0
           0           0           0           0           1           0
           0           1           1           0           0           0
           0           0      100000           0          -1           0
           0           0           0           0           0           0
           0           0           0           1           0           0
           0 -2000000000           1           0           0           0
           0           0           4          52           0           0
           0           0          55           0           0           0
           0           0           0           4           0           1
           0           0           0           0           0           0
           0           0           0           0           0           0
           0           0           0           0           0           0
           0           0           0           0           0           0
           0           0           0           0
Num RLSW                                   I               52
RLSW                                       R   N=          52
  1.00000000E+00  1.00000000E+00  1.00000000E+00  1.00000000E+00  5.40000000E-01
  0.00000000E+00  0.00000000E+00  1.00000000E+00  0.00000000E+00  0.00000000E+00
  0.00000000E+00  0.00000000E+00  1.00000000E+00  0.00000000E+00  0.00000000E+00
  0.00000000E+00  0.00000000E+00  1.00000000E+00  0.00000000E+00  0.00000000E+00
  0.00000000E+00  0.00000000E+00  1.00000000E+00  0.00000000E+00  0.00000000E+00
  0.00000000E+00  0.00000000E+00  1.00000000E+00  0.00000000E+00  0.00000000E+00
  0.00000000E+00  0.00000000E+00  1.00000000E+00  0.00000000E+00  0.00000000E+00
  0.00000000E+00  0.00000000E+00  0.00000000E+00  1.00000000E+00  1.00000000E+00
 -9.18113835E-01  1.00000000E+00  0.00000000E+00  0.00000000E+00  0.00000000E+00
  0.00000000E+00  0.00000000E+00  0.00000000E+00  0.00000000E+00  0.00000000E+00
  0.00000000E+00  0.00000000E+00
MxBond                                     I                2
NBond                                      I   N=           4
           2           2           1           1
IBond                                      I   N=           8
           2           3           1           4           1           0
           2           0
RBond                                      R   N=           8
  1.00000000E+00  1.00000000E-01  1.00000000E+00  1.00000000E-01  1.00000000E-01
  0.00000000E+00  1.00000000E-01  0.00000000E+00
Virial Ratio                               R      2.010472978172248E+00
SCF Energy                                 R     -7.706970760763444E+01
Total Energy                               R     -7.706970760763444E+01
S**2                                       R     -2.309263891220326E-14
S**2 after annihilation                    R      7.815970093361019E-14
RMS Force                                  R      1.095773043604707E-02
RMS Density                                R      2.884460994332875E-09
Job Status                                 I                3
Nuclear derivative order                   I                1
External E-field                           R   N=          35
  0.00000000E+00  0.00000000E+00  0.00000000E+00  0.00000000E+00  0.00000000E+00
  0.00000000E+00  0.00000000E+00  0.00000000E+00  0.00000000E+00  0.00000000E+00
  0.00000000E+00  0.00000000E+00  0.00000000E+00  0.00000000E+00  0.00000000E+00
  0.00000000E+00  0.00000000E+00  0.00000000E+00  0.00000000E+00  0.00000000E+00
  0.00000000E+00  0.00000000E+00  0.00000000E+00  0.00000000E+00  0.00000000E+00
  0.00000000E+00  0.00000000E+00  0.00000000E+00  0.00000000E+00  0.00000000E+00
  0.00000000E+00  0.00000000E+00  0.00000000E+00  0.00000000E+00  0.00000000E+00
IOpCl                                      I                1
IROHF                                      I                0
Alpha Orbital Energies                     R   N=          56
 -1.06590692E+01 -1.06531789E+01 -7.84556631E-01 -6.61317450E-01 -4.34333527E-01
 -3.73678227E-01 -3.10335243E-01 -9.51290036E-02 -7.17143367E-02  2.87888630E-02
  3.55612130E-02  6.63892907E-02  7.76831225E-02  9.62658204E-02  1.04778483E-01
  1.05367905E-01  1.46089119E-01  1.54797238E-01  1.69837165E-01  2.02974393E-01
  4.66101414E-01  4.76114147E-01  5.67437287E-01  5.71233809E-01  5.91554712E-01
  5.96579245E-01  6.05810046E-01  6.34226306E-01  7.21067617E-01  8.24662474E-01
  1.06030387E+00  1.08572900E+00  1.16176305E+00  1.17403906E+00  1.36640510E+00
  1.42702656E+00  1.48769320E+00  1.53851744E+00  1.58697759E+00  1.79131539E+00
  1.85117596E+00  1.87579410E+00  1.91922672E+00  1.99419009E+00  2.31317616E+00
  2.42366593E+00  2.53239636E+00  2.56691357E+00  2.66075123E+00  2.71839328E+00
  2.73757824E+00  3.04817563E+00  3.18936555E+00  3.47141191E+00  2.34589870E+01
  2.35604924E+01
Beta Orbital Energies                      R   N=          56
 -1.06590692E+01 -1.06531789E+01 -7.84556631E-01 -6.61317450E-01 -4.34333527E-01
 -3.73678227E-01 -3.10335243E-01 -9.51290036E-02 -7.17143367E-02  2.87888630E-02
  3.55612130E-02  6.63892907E-02  7.76831225E-02  9.62658204E-02  1.04778483E-01
  1.05367905E-01  1.46089119E-01  1.54797238E-01  1.69837165E-01  2.02974393E-01
  4.66101414E-01  4.76114147E-01  5.67437287E-01  5.71233809E-01  5.91554712E-01
  5.96579245E-01  6.05810046E-01  6.34226306E-01  7.21067617E-01  8.24662474E-01
  1.06030387E+00  1.08572900E+00  1.16176305E+00  1.17403906E+00  1.36640510E+00
  1.42702656E+00  1.48769320E+00  1.53851744E+00  1.58697759E+00  1.79131539E+00
  1.85117596E+00  1.87579410E+00  1.91922672E+00  1.99419009E+00  2.31317616E+00
  2.42366593E+00  2.53239636E+00  2.56691357E+00  2.66075123E+00  2.71839328E+00
  2.73757824E+00  3.04817563E+00  3.18936555E+00  3.47141191E+00  2.34589870E+01
  2.35604924E+01
Alpha MO coefficients                      R   N=        3136
  9.88054076E-03  8.11550924E-03  9.63660484E-05  3.23140553E-05 -1.23946228E-05
  1.00478731E-05  1.07107074E-04 -2.74768721E-04 -3.56387761E-05  2.21561849E-03
  1.22901056E-03 -4.31564150E-05 -3.65853394E-05 -6.71733464E-03 -2.23300330E-03
  3.60873860E-04 -5.67970446E-05 -1.40293199E-04 -6.48560165E-06  4.63374838E-05
 -4.11861976E-05  5.10891698E-05  5.64051294E-01  4.64488259E-01 -1.08920224E-03
  4.68207383E-04 -1.31563672E-03  9.49490528E-03  4.27696564E-04  2.76860813E-04
 -5.34600588E-04 -6.35172866E-03  1.24542460E-03  8.33928090E-06  8.17363581E-05
  7.01380649E-03 -2.50339236E-03 -3.01737882E-04  4.26546405E-04  5.02103629E-04
 -2.00757195E-04 -3.38413877E-04 -3.23296284E-04  3.52598780E-05  2.63819676E-05
 -7.30305584E-04  8.68968155E-04 -7.78501255E-05 -1.62367657E-04 -2.22089224E-05
  3.03023307E-04 -1.15610056E-03  1.22153329E-03  9.28685532E-05  5.13477240E-04
 -1.12870586E-03  5.64046453E-01  4.64367769E-01  8.97913167E-04 -1.32179224E-03
 -3.31125662E-04  1.01170057E-02 -7.94662855E-04 -1.47980095E-03 -1.63470765E-04
 -5.86773625E-03 -1.06019895E-03  4.43530915E-05  2.91498831E-05  5.50157902E-03
  2.17340104E-03  7.76928872E-04  5.18475830E-05 -3.54447255E-04  1.12572195E-04
  2.04790122E-04 -9.62702808E-04  5.45985500E-04 -9.90479859E-03 -8.17091461E-03
 -4.32761137E-05 -3.88388024E-05  4.69138664E-05 -3.24207270E-04 -2.04292610E-04
  4.44001318E-05 -8.98071873E-05  2.00489745E-03 -1.04788607E-03  1.17487808E-05
 -1.97426042E-05 -5.54182605E-03  1.87084024E-03 -3.13094015E-04  1.73748159E-04
 -2.60271207E-06 -2.75996759E-07 -4.32758023E-05  1.04289659E-04  5.04432044E-06
  1.96730717E-04 -2.59832197E-03  2.18144759E-03 -4.37725878E-04 -1.91656125E-03
 -2.71981801E-04  3.25529298E-06 -3.72670338E-04  5.94999804E-04 -1.55302391E-05
  9.67984336E-06 -2.45802577E-05 -8.33198668E-02 -1.34411269E-01  2.32714786E-02
 -3.74213908E-02 -9.16503308E-03  3.71901719E-01  4.35945140E-02 -5.42417644E-02
 -1.48358465E-02  2.54274824E-01  1.86834214E-02 -2.44077869E-02 -9.95672659E-03
  1.83384606E-03 -4.86802509E-03 -3.75543368E-03  4.91391911E-04 -6.30085861E-03
 -8.78894289E-05  1.08200222E-03  2.36543813E-03  2.30041115E-03 -7.36806321E-02
 -1.18961590E-01 -3.13025263E-02  7.19719424E-03 -2.60140924E-02  3.30955980E-01
 -5.47882075E-02  1.01425268E-02 -4.06357386E-02  2.27782634E-01 -2.27835388E-02
  2.67295951E-03 -2.09823102E-02 -9.69424116E-04  5.16253576E-03  2.60987748E-03
 -2.00219967E-03 -1.52063727E-03  3.22404974E-04 -2.41025943E-03  6.82246244E-03
  3.18212484E-04  8.91086650E-02  1.05663115E-01  1.21092505E-03  5.23379275E-03
  1.41395704E-02  1.71788258E-03  6.78195050E-02  8.31927272E-02  1.72746364E-03
 -3.28440800E-03 -5.26309364E-03  1.06768535E-02  6.50228952E-02  1.05427950E-01
  4.76860734E-02  6.61514601E-02  5.02489663E-03 -2.98796835E-01  7.19876162E-02
  9.89599788E-02  7.82672934E-03 -2.32104025E-01  2.65059833E-02  4.07029308E-02
  3.58762183E-03  6.27542545E-02  2.16275828E-02 -2.20991824E-03 -6.43473322E-04
  1.80046939E-03 -4.36371597E-03 -2.70208898E-03  1.68661176E-02 -6.69397063E-03
 -7.70898329E-02 -1.25128038E-01  2.60430111E-02  2.70716955E-02 -5.03141570E-02
  3.56340244E-01  3.85195935E-02  4.15480508E-02 -7.88983249E-02  2.84616845E-01
  1.18348683E-02  1.68330500E-02 -3.52613199E-02 -6.20365047E-02  2.35115604E-02
 -5.30235891E-04  2.16419175E-03  1.04703260E-02 -4.41329190E-03 -6.73099558E-03
 -6.93618745E-03 -2.03971864E-03 -1.17191335E-01 -1.52462174E-01 -3.80247855E-02
 -2.62830728E-03 -1.50654232E-02 -2.10518692E-03  1.07632394E-01  1.44562130E-01
  3.50817644E-02 -1.66940710E-03 -6.72305065E-03  1.43239159E-02  2.37822280E-02
  3.94094812E-02 -1.12089824E-01 -1.15500672E-01 -3.61958245E-02 -1.14515003E-01
 -1.76350051E-01 -1.65900131E-01 -5.69066780E-02 -1.59444502E-01 -1.15490653E-01
 -1.11265874E-01 -3.98823085E-02 -3.19325740E-03  5.88953649E-03 -9.45143014E-03
 -8.67074371E-04 -2.10272249E-03 -6.26891349E-03  6.39828626E-03 -2.63130333E-02
  9.47011462E-03  1.24911139E-02  2.06890426E-02  1.11201973E-01  3.34935864E-02
 -1.14629296E-01 -6.00747498E-02  1.76090116E-01  4.58558398E-02 -1.71406679E-01
 -8.31070078E-02  1.13005432E-01  3.07485026E-02 -1.17369301E-01  9.38520629E-04
 -4.39931272E-03  4.66547056E-03 -7.97996577E-03  2.25482418E-02 -1.86188095E-03
 -1.10701487E-02 -1.55749420E-02  8.80020905E-03  1.08162980E-01  1.77837843E-01
  8.20534838E-02 -2.29494771E-03  9.02453648E-03 -2.49348164E-04  1.12065953E-01
  1.87973121E-01  8.81834288E-02  3.98660200E-03 -5.50414039E-03  8.47768152E-03
  4.35177738E-02  7.19243795E-02  2.01735142E-02 -1.38167475E-01  1.94845567E-02
 -2.11655441E-01  2.95004705E-02 -2.04322838E-01  3.44199296E-02 -2.82480157E-01
  3.55439724E-02 -1.65962065E-01  3.99018755E-02 -7.94081775E-02 -5.50279742E-03
 -8.67538028E-03  5.16447041E-03 -1.42821058E-02  8.89137018E-03  4.32543152E-03
 -1.13786191E-02 -1.08744392E-02 -4.90232121E-02 -8.09289040E-02  3.82974265E-02
 -8.92061213E-02  1.17668659E-01  2.39609020E-01  5.56933516E-02 -1.37037648E-01
  1.72897103E-01  3.10833095E-01  5.53506889E-02 -1.16440835E-01  1.32140422E-01
  8.50996188E-02 -6.54612210E-03 -6.71558994E-03  3.36265980E-03 -1.15630698E-02
 -8.39765612E-03  1.49912270E-02 -4.55668439E-03  1.30731981E-02  6.67571978E-02
  1.11717752E-01  8.92565088E-02  6.64495678E-03  1.01222300E-03  2.10446847E-03
 -7.76212237E-02 -1.35792321E-01 -1.10084971E-01  8.02349191E-03 -1.06416624E-04
 -3.11952572E-03  2.41272603E-02  4.00824652E-02  1.48072614E-01 -8.82080479E-02
 -7.79366468E-02 -1.21713350E-01  2.28496957E-01 -1.30496658E-01 -1.18386963E-01
 -1.68125839E-01  2.10010777E-01 -1.33168889E-01 -1.29549003E-01 -2.05768657E-02
  3.12887254E-02 -1.70696474E-02 -1.71088203E-02 -1.07621463E-02 -1.45635074E-02
  8.31863809E-03  3.45712583E-03 -1.54347255E-02  2.23450572E-02  3.70159332E-02
 -1.46381779E-01 -3.80448736E-02 -9.71516065E-02 -1.11005501E-01 -2.25075530E-01
 -5.98107718E-02 -1.45154239E-01 -1.67918054E-01 -1.94448618E-01 -6.72294116E-02
 -1.49545168E-01 -4.70986390E-02 -2.02868298E-02 -8.48749531E-03 -1.96469569E-02
  2.35948540E-03  2.00380793E-02 -1.03477843E-03  1.34009851E-02  6.81216015E-03
  1.84862732E-02  2.61020642E-02  1.19454036E-02  1.34720595E-02 -2.82975232E-03
 -5.46041909E-03  1.57155453E-02  2.76925745E-02  8.96795074E-03 -1.23515450E-02
 -4.55723949E-03 -3.67743263E-03  1.18819098E-02  1.96416006E-02  5.02153902E-02
 -8.36893616E-02  1.52666332E-01 -5.17710322E-02  8.14101954E-02 -1.22535714E-01
  2.39329761E-01 -1.55886056E-01  9.12852561E-02 -1.04660447E-01  2.88129005E-01
 -9.95475012E-02  2.44233024E-02 -6.72680609E-02  1.38270217E-01 -1.06921242E-02
  3.63450337E-03 -8.91073712E-03 -4.88907481E-03  9.13224905E-03  1.15704083E-02
  1.90532615E-02 -5.37820343E-02  1.63000136E-01  1.14463005E-02 -5.04435460E-02
 -8.58820314E-02  2.52336218E-01  2.35426478E-02 -1.43316660E-01 -8.97407280E-02
  2.76564704E-01  5.99474991E-02 -8.60178292E-02 -2.43216593E-02  1.40972807E-01
  8.28281877E-03 -2.07786603E-03 -1.03274841E-02 -1.40375105E-02 -5.72611952E-05
  7.48318490E-04  4.19436542E-02  9.23392181E-02  1.34959922E-01  3.44358303E-03
  6.67886764E-04  1.63009643E-02  4.60271639E-02  9.70396348E-02  1.40309636E-01
 -7.41379522E-04  1.09103636E-02  9.56959212E-03 -1.02084675E-02 -1.69727064E-02
 -2.06195906E-02  1.97437237E-02  1.76449678E-01  4.80223373E-02 -2.92281002E-02
  2.36950437E-02  2.72400023E-01  1.13946038E-01 -5.87053759E-02 -1.98067097E-04
  3.32820723E-01 -2.98511601E-02 -4.07892745E-02  2.91224044E-02  2.11978527E-01
 -9.09132095E-04 -3.86269583E-03 -1.39986715E-02  3.22451205E-03 -1.19698100E-02
  1.01327911E-02  1.67732362E-02 -1.17998735E-02 -1.47739600E-01 -1.09535793E-01
 -4.81298435E-02 -1.42561956E-02 -2.31590389E-01 -1.64730733E-01 -1.01659371E-01
 -3.82746881E-02 -2.89571168E-01 -1.82437426E-01  5.71491924E-02 -3.33068863E-02
 -1.62644934E-01 -1.46979890E-01  1.31664520E-02 -1.08323364E-02  5.34005135E-03
  2.49133597E-03  4.52619833E-03 -3.59932800E-02 -7.91685608E-02 -1.06666824E-01
  1.58963195E-05 -4.68189505E-03  1.75059063E-02  3.57603432E-02  7.63248448E-02
  9.54235487E-02  2.78216403E-03 -1.66598479E-02 -4.77581586E-03  2.66614006E-02
  4.40456872E-02  2.56275067E-02  2.72730056E-02  2.44515281E-02 -1.14818474E-01
  2.53085232E-02  7.70869989E-02  3.46070514E-02 -5.13587394E-01  1.03042450E-01
  3.22887805E-02  8.21014063E-02  7.79733230E-01 -3.69169520E-01 -6.78029883E-01
 -1.45588498E-01  7.00430813E-03  9.48561527E-04 -4.38527494E-03  1.10055700E-02
 -6.94004069E-03  1.87859007E-02  3.01616412E-02 -3.89655359E-02  8.90638824E-03
  4.29195458E-02 -6.46712450E-02 -4.55499599E-02 -2.68292348E-03  8.17534156E-02
 -4.67721019E-01 -1.08083602E-01  5.36294378E-02  9.60285705E-02  1.19738693E+00
 -9.60071819E-02  2.64880402E-01 -4.06934872E-01 -5.00183532E-03  1.96683589E-03
  4.55954136E-03 -2.71936427E-03 -2.08485207E-03 -1.69021435E-02  1.45265796E-01
 -5.53696794E-01 -1.97655656E-03 -2.94057060E-03 -9.28432315E-04 -4.77680779E-03
  1.14738097E-01 -3.53494778E-01 -1.12165958E-03  2.36528980E-03 -5.75991905E-03
 -2.43121619E-02 -4.13318653E-02  5.17544789E-02 -2.03616237E-02  5.17993488E-03
  1.36731431E-01  1.01046737E-01 -2.87994585E-02  3.76946204E-03  1.98522977E-01
  1.53153314E-02 -9.23276724E-02  1.42532954E-02  2.72622238E+00  1.66073390E+00
  2.46153587E-01  1.69330739E-01  6.70914428E-03  7.27387133E-04  1.25083778E-04
 -1.71202331E-02 -3.58261082E-03  3.23797622E-02  5.41921505E-02  4.42490348E-02
 -1.10264104E-02  3.05772854E-02 -1.64747455E-01  9.69842725E-02 -1.87543098E-02
  5.04811782E-02 -3.94589915E-01 -1.28974895E-02 -3.20467157E-02  1.06513542E-01
 -2.39127173E+00  1.64077300E+00  3.26478166E-02 -4.76864194E-01 -1.17011003E-02
 -3.38647967E-03  3.72277777E-03  1.37536711E-02  2.03020314E-03  5.28660392E-03
 -4.24071167E-02  1.62806494E-02  1.55768828E-02  2.50791336E-03  1.71392750E-04
 -7.98140182E-03  7.25650359E-02 -1.45921580E-01  1.41599645E-02  3.01552225E-03
 -6.59989928E-03 -8.59028578E-03 -1.45643548E-02  2.04825818E-02  5.59945062E-02
 -4.24460150E-02  5.57449426E-02  4.16595746E-02  6.78282752E-02 -3.96839310E-02
  1.51273391E-02  6.75001612E-03  2.28967757E-01 -1.75640725E-01  4.07151903E+00
  1.58499345E+00 -7.57952574E-01  1.60313585E-01  1.32353899E-02 -3.22272301E-03
 -9.87024845E-04  4.48793941E-03  6.25060576E-04  8.70249969E-03  1.50187167E-02
  2.00698143E-02  6.24099418E-02 -3.61684843E-02 -6.15819068E-02  4.11471189E-02
  6.75558224E-02 -4.66166780E-02  2.43444005E-03  2.20137171E-03  2.48816754E-01
 -1.43583367E-01 -4.03351249E+00  1.67390375E+00 -4.48240823E-01  5.99961981E-01
  4.84756569E-03  2.14722256E-03 -1.10900857E-02  5.54620532E-03 -3.62024517E-03
 -1.57359910E-02  9.25739027E-02 -3.77478723E-01  3.91079449E-03 -3.04193697E-03
  8.04252148E-04  1.20324455E-02 -1.03550796E-01  3.74744404E-01  2.71327911E-03
 -2.95903649E-03  3.57507147E-03  1.03029776E-02  1.69242395E-02  2.69411724E-02
 -2.87794312E-02 -6.48382726E-02 -4.50362365E-02  1.21144381E-02 -2.23994160E-02
 -5.96028085E-02 -2.08818608E-01  1.34195499E-01 -1.28715801E-01 -2.83780918E-01
  2.21085428E-01 -4.83303448E-01  3.71360526E-01  5.25243800E-01 -1.68754449E-03
 -6.26641520E-03  5.16319685E-03 -1.36576087E-03 -6.00519395E-03  1.04442935E-02
  1.70316578E-02 -2.74470472E-02 -4.82810624E-02 -4.99847590E-02 -4.37313284E-02
 -1.25396054E-02 -4.63066928E-02 -4.19281298E-02 -2.29723787E-01 -1.32864640E-01
 -2.10234334E-01 -2.14144848E-01  4.16036514E-01  4.01227747E-01  2.88342622E-01
  5.10139280E-01  4.13854566E-03  8.18505718E-03  7.18934665E-04  2.38891853E-03
  3.48124401E-03  4.82313752E-03 -3.05147230E-02  1.48887525E-01  2.77210472E-04
  3.78542221E-03  2.47714243E-03  4.71613601E-03 -2.44783716E-02  1.80404846E-01
  1.44308911E-04  1.38241326E-03  3.44362178E-03  1.32961690E-02  2.10427184E-02
 -3.25999537E-02 -9.79059626E-03  5.38268268E-03 -4.15951412E-02 -2.65178864E-02
  1.29261623E-02  7.84229492E-03 -4.30703748E-01 -1.48802448E-01 -1.17165118E-01
  3.01753450E-02  4.44491223E-01  1.12884831E+00  7.39799425E-01 -3.79455609E-01
  4.36401520E-03  3.78335712E-03 -1.21891490E-04 -1.60406794E-02 -9.82578975E-04
  1.42512694E-02  2.23373662E-02  2.05523402E-02 -1.89324870E-03  5.81453505E-03
 -4.20941022E-02  8.21013795E-03 -1.35242538E-02  3.12179387E-02 -4.88565262E-01
  1.15015502E-01  3.09029908E-02 -2.66993544E-02 -5.19629679E-01 -8.36596905E-01
 -6.39349466E-01  7.46631039E-01  1.40258251E-02 -3.13390250E-05 -6.83578339E-03
 -1.37236062E-02 -1.99429224E-03  1.75322470E-02 -6.68855816E-03  1.45312794E-01
  8.65921508E-03 -1.08530196E-03 -6.11398962E-04  3.39761803E-02  1.35758156E-02
  4.57027017E-01 -1.01764777E-02  1.52012011E-03 -3.92066657E-03  4.88674501E-03
  8.24278450E-03 -1.84641695E-02  1.82527512E-02 -9.57252063E-02 -3.02515046E-02
 -1.84274754E-02  1.20496312E-02 -9.09668302E-02 -5.52703782E-02 -5.71200725E-02
  1.12731853E-01 -4.41060987E-01 -4.05146285E+00 -1.12809143E+00  1.47425184E-01
  1.72173868E+00 -1.68544723E-03 -5.95240945E-03  8.97439753E-03 -2.83069771E-03
  4.87943446E-03 -4.49191388E-03 -8.09769717E-03  8.83203083E-03  2.29784975E-02
  5.01987159E-02  3.97698367E-02 -5.93100056E-03  1.48970017E-02  6.30890231E-02
 -4.61588130E-02  8.06061022E-02  1.29552907E-01  1.78730505E-01  4.10442983E+00
 -1.86146171E+00 -1.07970440E-01 -1.66891303E+00 -8.01328841E-03 -7.91327405E-04
  7.44092806E-03 -7.37090107E-03 -3.76116632E-03  1.22149217E-02 -1.29639223E-02
  3.60671707E-01  1.60637807E-05 -3.93547809E-03  7.46919483E-04 -2.34601328E-02
  5.85172608E-02 -6.33648475E-01 -2.56780002E-04  1.41836004E-04 -1.63117909E-03
  5.57692424E-03  9.37450436E-03  1.90517079E-02 -4.85332925E-02  9.97018204E-03
 -3.05388191E-02 -8.17171713E-04 -6.06773411E-02  6.37635553E-03 -6.77349351E-02
  1.22732512E-01 -1.72673170E-01  5.68264999E-02 -2.21047946E+00 -1.27639160E+00
  1.61191582E+00 -1.96993438E-02 -1.13417362E-02  8.27919130E-04  2.38093165E-03