Title Card Required                                                     
FOpt      UM062X                                                      6-311+G(d,p)        
Number of atoms                            I                6
Info1-9                                    I   N=           9
          15          15           0           0           0         110
           2          18        -502
Full Title                                 C   N=           2
Title Card Required     
Route                                      C   N=           5
#p opt UM062X/6-311+G** nosymm int=superfine SCF=NoVarAcc   
Charge                                     I                0
Multiplicity                               I                1
Number of electrons                        I               16
Number of alpha electrons                  I                8
Number of beta electrons                   I                8
Number of basis functions                  I               68
Number of independent functions            I               68
Number of point charges in /Mol/           I                0
Number of translation vectors              I                0
Atomic numbers                             I   N=           6
           6           6           1           1           1           1
Nuclear charges                            R   N=           6
  6.00000000E+00  6.00000000E+00  1.00000000E+00  1.00000000E+00  1.00000000E+00
  1.00000000E+00
Current cartesian coordinates              R   N=          18
 -1.70747999E+01  0.00000000E+00  0.00000000E+00  1.70747999E+01  0.00000000E+00
  0.00000000E+00 -1.83947007E+01 -1.62717336E+00  2.33750584E-09 -1.83946464E+01
  1.62720463E+00  6.01735663E-10  1.83947007E+01  1.62717336E+00  1.18152695E-09
  1.83946464E+01 -1.62720463E+00 -5.54123001E-10
Number of symbols in /Mol/                 I                0
Force Field                                I                0
Atom Types                                 C   N=           6
                                                            
            
Int Atom Types                             I   N=           6
           0           0           0           0           0           0
MM charges                                 R   N=           6
  0.00000000E+00  0.00000000E+00  0.00000000E+00  0.00000000E+00  0.00000000E+00
  0.00000000E+00
Integer atomic weights                     I   N=           6
          12          12           1           1           1           1
Real atomic weights                        R   N=           6
  1.20000000E+01  1.20000000E+01  1.00782504E+00  1.00782504E+00  1.00782504E+00
  1.00782504E+00
Atom fragment info                         I   N=           6
           0           0           0           0           0           0
Atom residue num                           I   N=           6
           0           0           0           0           0           0
Nuclear spins                              I   N=           6
           0           0           1           1           1           1
Nuclear ZEff                               R   N=           6
 -3.60000000E+00 -3.60000000E+00 -1.00000000E+00 -1.00000000E+00 -1.00000000E+00
 -1.00000000E+00
Nuclear ZNuc                               R   N=           6
  6.00000000E+00  6.00000000E+00  1.00000000E+00  1.00000000E+00  1.00000000E+00
  1.00000000E+00
Nuclear QMom                               R   N=           6
  0.00000000E+00  0.00000000E+00  0.00000000E+00  0.00000000E+00  0.00000000E+00
  0.00000000E+00
Nuclear GFac                               R   N=           6
  0.00000000E+00  0.00000000E+00  2.79284600E+00  2.79284600E+00  2.79284600E+00
  2.79284600E+00
MicOpt                                     I   N=           6
          -2          -2          -1          -1          -1          -1
Number of residues                         I                0
Number of secondary structures             I                0
Redundant internal dimensions              I   N=           4
          20          10           6           4
Redundant internal coordinate indices      I   N=          80
           1          -1           0           0           1          -2
           0           0           1          -3           0           0
           2          -1           0           0           2          -2
           0           0           2          -3           0           0
           1           3           0           0           1           4
           0           0           2           5           0           0
           2           6           0           0           2           1
           3           0           2           1           4           0
           3           1           4           0           1           2
           5           0           1           2           6           0
           5           2           6           0           3           1
           2           5           3           1           2           6
           4           1           2           5           4           1
           2           6
Redundant internal coordinates             R   N=          20
 -1.70747999E+01  0.00000000E+00  0.00000000E+00  1.70747999E+01  0.00000000E+00
  0.00000000E+00  2.09519242E+00  2.09518249E+00  2.09519242E+00  2.09518249E+00
  2.25230626E+00  2.25227673E+00  1.77860232E+00  2.25230626E+00  2.25227673E+00
  1.77860232E+00  3.14159265E+00  0.00000000E+00  0.00000000E+00  3.14159265E+00
ZRed-IntVec                                I   N=          20
          -1          -1          -1          -1          -1          -1
           0           0           0           0           0           0
           0           0           0           0           0           0
           0           0
ZRed-FPVec                                 R   N=          20
  0.00000000E+00  0.00000000E+00  0.00000000E+00  0.00000000E+00  0.00000000E+00
  0.00000000E+00  0.00000000E+00  0.00000000E+00  0.00000000E+00  0.00000000E+00
  0.00000000E+00  0.00000000E+00  0.00000000E+00  0.00000000E+00  0.00000000E+00
  0.00000000E+00  0.00000000E+00  0.00000000E+00  0.00000000E+00  0.00000000E+00
ZRed-Constraint1                           R   N=          20
 -1.70747999E+01  0.00000000E+00  0.00000000E+00  1.70747999E+01  0.00000000E+00
  0.00000000E+00  2.03694512E+00  2.03669844E+00  2.03694512E+00  2.03669844E+00
  2.00316847E+00  2.00313852E+00  2.27687832E+00  2.00316847E+00  2.00313852E+00
  2.27687832E+00  3.14159265E+00  0.00000000E+00  0.00000000E+00  3.14159265E+00
ZRed-Constraint2                           R   N=          20
 -1.70747999E+01  0.00000000E+00  0.00000000E+00  1.70747999E+01  0.00000000E+00
  0.00000000E+00  0.00000000E+00  0.00000000E+00  0.00000000E+00  0.00000000E+00
  0.00000000E+00  0.00000000E+00  0.00000000E+00  0.00000000E+00  0.00000000E+00
  0.00000000E+00  0.00000000E+00  0.00000000E+00  0.00000000E+00  0.00000000E+00
Number of contracted shells                I               28
Number of primitive shells                 I               50
Pure/Cartesian d shells                    I                0
Pure/Cartesian f shells                    I                0
Highest angular momentum                   I                2
Largest degree of contraction              I                6
Shell types                                I   N=          28
           0          -1          -1          -1          -1          -2
           0          -1          -1          -1          -1          -2
           0           0           0           1           0           0
           0           1           0           0           0           1
           0           0           0           1
Number of primitives per shell             I   N=          28
           6           3           1           1           1           1
           6           3           1           1           1           1
           3           1           1           1           3           1
           1           1           3           1           1           1
           3           1           1           1
Shell to atom map                          I   N=          28
           1           1           1           1           1           1
           2           2           2           2           2           2
           3           3           3           3           4           4
           4           4           5           5           5           5
           6           6           6           6
Primitive exponents                        R   N=          50
  4.56324000E+03  6.82024000E+02  1.54973000E+02  4.44553000E+01  1.30290000E+01
  1.82773000E+00  2.09642000E+01  4.80331000E+00  1.45933000E+00  4.83456000E-01
  1.45585000E-01  4.38000000E-02  6.26000000E-01  4.56324000E+03  6.82024000E+02
  1.54973000E+02  4.44553000E+01  1.30290000E+01  1.82773000E+00  2.09642000E+01
  4.80331000E+00  1.45933000E+00  4.83456000E-01  1.45585000E-01  4.38000000E-02
  6.26000000E-01  3.38650000E+01  5.09479000E+00  1.15879000E+00  3.25840000E-01
  1.02741000E-01  7.50000000E-01  3.38650000E+01  5.09479000E+00  1.15879000E+00
  3.25840000E-01  1.02741000E-01  7.50000000E-01  3.38650000E+01  5.09479000E+00
  1.15879000E+00  3.25840000E-01  1.02741000E-01  7.50000000E-01  3.38650000E+01
  5.09479000E+00  1.15879000E+00  3.25840000E-01  1.02741000E-01  7.50000000E-01
Contraction coefficients                   R   N=          50
  1.96665025E-03  1.52306019E-02  7.61269097E-02  2.60801033E-01  6.16462078E-01
  2.21006028E-01  1.14660081E-01  9.19999648E-01 -3.03068213E-03  1.00000000E+00
  1.00000000E+00  1.00000000E+00  1.00000000E+00  1.96665025E-03  1.52306019E-02
  7.61269097E-02  2.60801033E-01  6.16462078E-01  2.21006028E-01  1.14660081E-01
  9.19999648E-01 -3.03068213E-03  1.00000000E+00  1.00000000E+00  1.00000000E+00
  1.00000000E+00  2.54938145E-02  1.90373109E-01  8.52161486E-01  1.00000000E+00
  1.00000000E+00  1.00000000E+00  2.54938145E-02  1.90373109E-01  8.52161486E-01
  1.00000000E+00  1.00000000E+00  1.00000000E+00  2.54938145E-02  1.90373109E-01
  8.52161486E-01  1.00000000E+00  1.00000000E+00  1.00000000E+00  2.54938145E-02
  1.90373109E-01  8.52161486E-01  1.00000000E+00  1.00000000E+00  1.00000000E+00
P(S=P) Contraction coefficients            R   N=          50
  0.00000000E+00  0.00000000E+00  0.00000000E+00  0.00000000E+00  0.00000000E+00
  0.00000000E+00  4.02486927E-02  2.37593957E-01  8.15853851E-01  1.00000000E+00
  1.00000000E+00  1.00000000E+00  0.00000000E+00  0.00000000E+00  0.00000000E+00
  0.00000000E+00  0.00000000E+00  0.00000000E+00  0.00000000E+00  4.02486927E-02
  2.37593957E-01  8.15853851E-01  1.00000000E+00  1.00000000E+00  1.00000000E+00
  0.00000000E+00  0.00000000E+00  0.00000000E+00  0.00000000E+00  0.00000000E+00
  0.00000000E+00  0.00000000E+00  0.00000000E+00  0.00000000E+00  0.00000000E+00
  0.00000000E+00  0.00000000E+00  0.00000000E+00  0.00000000E+00  0.00000000E+00
  0.00000000E+00  0.00000000E+00  0.00000000E+00  0.00000000E+00  0.00000000E+00
  0.00000000E+00  0.00000000E+00  0.00000000E+00  0.00000000E+00  0.00000000E+00
Coordinates of each shell                  R   N=          84
 -1.70747999E+01  0.00000000E+00  0.00000000E+00 -1.70747999E+01  0.00000000E+00
  0.00000000E+00 -1.70747999E+01  0.00000000E+00  0.00000000E+00 -1.70747999E+01
  0.00000000E+00  0.00000000E+00 -1.70747999E+01  0.00000000E+00  0.00000000E+00
 -1.70747999E+01  0.00000000E+00  0.00000000E+00  1.70747999E+01  0.00000000E+00
  0.00000000E+00  1.70747999E+01  0.00000000E+00  0.00000000E+00  1.70747999E+01
  0.00000000E+00  0.00000000E+00  1.70747999E+01  0.00000000E+00  0.00000000E+00
  1.70747999E+01  0.00000000E+00  0.00000000E+00  1.70747999E+01  0.00000000E+00
  0.00000000E+00 -1.83947007E+01 -1.62717336E+00  2.33750584E-09 -1.83947007E+01
 -1.62717336E+00  2.33750584E-09 -1.83947007E+01 -1.62717336E+00  2.33750584E-09
 -1.83947007E+01 -1.62717336E+00  2.33750584E-09 -1.83946464E+01  1.62720463E+00
  6.01735663E-10 -1.83946464E+01  1.62720463E+00  6.01735663E-10 -1.83946464E+01
  1.62720463E+00  6.01735663E-10 -1.83946464E+01  1.62720463E+00  6.01735663E-10
  1.83947007E+01  1.62717336E+00  1.18152695E-09  1.83947007E+01  1.62717336E+00
  1.18152695E-09  1.83947007E+01  1.62717336E+00  1.18152695E-09  1.83947007E+01
  1.62717336E+00  1.18152695E-09  1.83946464E+01 -1.62720463E+00 -5.54123001E-10
  1.83946464E+01 -1.62720463E+00 -5.54123001E-10  1.83946464E+01 -1.62720463E+00
 -5.54123001E-10  1.83946464E+01 -1.62720463E+00 -5.54123001E-10
Num ILSW                                   I              100
ILSW                                       I   N=         100
           1           0           0           0           2           0
           0           0           0           0        4336          -1
           7           0           0           0           2           0
           0           0           0           0           1           0
           1           1           0           0           0           0
           0           0      100000           0          -1           0
           0           0           0           0           0           0
           0           0           0           1           0           0
           0 -2000000000           1           0           0           0
           0           0           4          52           0           0
           0           0          55           0           0           0
           0           0           0           6           0           1
           0           0           0           0           0           0
           0           0           0           0           0           0
           0           0           0           0           0           0
           0           0           0           0           0           0
           0           0           0           0
Num RLSW                                   I               52
RLSW                                       R   N=          52
  1.00000000E+00  1.00000000E+00  1.00000000E+00  1.00000000E+00  5.40000000E-01
  0.00000000E+00  0.00000000E+00  1.00000000E+00  0.00000000E+00  0.00000000E+00
  0.00000000E+00  0.00000000E+00  1.00000000E+00  0.00000000E+00  0.00000000E+00
  0.00000000E+00  0.00000000E+00  1.00000000E+00  0.00000000E+00  0.00000000E+00
  0.00000000E+00  0.00000000E+00  1.00000000E+00  0.00000000E+00  0.00000000E+00
  0.00000000E+00  0.00000000E+00  1.00000000E+00  0.00000000E+00  0.00000000E+00
  0.00000000E+00  0.00000000E+00  1.00000000E+00  0.00000000E+00  0.00000000E+00
  0.00000000E+00  0.00000000E+00  0.00000000E+00  1.00000000E+00  1.00000000E+00
  0.00000000E+00  1.00000000E+00  0.00000000E+00  0.00000000E+00  0.00000000E+00
  0.00000000E+00  0.00000000E+00  0.00000000E+00  0.00000000E+00  0.00000000E+00
  0.00000000E+00  0.00000000E+00
MxBond                                     I                3
NBond                                      I   N=           6
           3           3           1           1           1           1
IBond                                      I   N=          18
           2           3           4           1           5           6
           1           0           0           1           0           0
           2           0           0           2           0           0
RBond                                      R   N=          18
  1.00000000E-01  1.00000000E+00  1.00000000E+00  1.00000000E-01  1.00000000E+00
  1.00000000E+00  1.00000000E+00  0.00000000E+00  0.00000000E+00  1.00000000E+00
  0.00000000E+00  0.00000000E+00  1.00000000E+00  0.00000000E+00  0.00000000E+00
  1.00000000E+00  0.00000000E+00  0.00000000E+00
Virial Ratio                               R      2.003523241674215E+00
SCF Energy                                 R     -7.823772045050127E+01
Total Energy                               R     -7.823772045050127E+01
S**2                                       R     -2.664535259100376E-14
S**2 after annihilation                    R     -1.882938249764249E-13
RMS Force                                  R      1.520923074053098E-04
RMS Density                                R      1.729876274035487E-09
Job Status                                 I                1
Nuclear derivative order                   I                1
External E-field                           R   N=          35
  0.00000000E+00  0.00000000E+00  0.00000000E+00  0.00000000E+00  0.00000000E+00
  0.00000000E+00  0.00000000E+00  0.00000000E+00  0.00000000E+00  0.00000000E+00
  0.00000000E+00  0.00000000E+00  0.00000000E+00  0.00000000E+00  0.00000000E+00
  0.00000000E+00  0.00000000E+00  0.00000000E+00  0.00000000E+00  0.00000000E+00
  0.00000000E+00  0.00000000E+00  0.00000000E+00  0.00000000E+00  0.00000000E+00
  0.00000000E+00  0.00000000E+00  0.00000000E+00  0.00000000E+00  0.00000000E+00
  0.00000000E+00  0.00000000E+00  0.00000000E+00  0.00000000E+00  0.00000000E+00
IOpCl                                      I                1
IROHF                                      I                0
Alpha Orbital Energies                     R   N=          68
 -1.06086406E+01 -1.06086406E+01 -7.57872020E-01 -7.57872020E-01 -4.76702908E-01
 -4.76702908E-01 -3.14915003E-01 -3.14915003E-01 -8.30697393E-02 -8.30697393E-02
  2.32620953E-02  2.32620955E-02  6.55300187E-02  6.55300187E-02  8.49861658E-02
  8.49861658E-02  9.13290700E-02  9.13290713E-02  1.75746795E-01  1.75746795E-01
  1.94526956E-01  1.94526956E-01  4.40720790E-01  4.40720790E-01  4.84507087E-01
  4.84507088E-01  5.87125521E-01  5.87125521E-01  6.22769627E-01  6.22769627E-01
  6.34534167E-01  6.34534167E-01  7.29484669E-01  7.29484669E-01  1.09113057E+00
  1.09113057E+00  1.10337402E+00  1.10337402E+00  1.19189008E+00  1.19189008E+00
  1.55279907E+00  1.55279907E+00  1.56669757E+00  1.56669757E+00  1.62866050E+00
  1.62866050E+00  1.86551857E+00  1.86551857E+00  1.87821418E+00  1.87821418E+00
  2.13457733E+00  2.13457733E+00  2.36555995E+00  2.36555995E+00  2.45220567E+00
  2.45220567E+00  2.50095348E+00  2.50095348E+00  2.55660293E+00  2.55660293E+00
  2.75006294E+00  2.75006294E+00  3.06666686E+00  3.06666686E+00  3.59120047E+00
  3.59120047E+00  2.37691725E+01  2.37691725E+01
Beta Orbital Energies                      R   N=          68
 -1.06086406E+01 -1.06086406E+01 -7.57872020E-01 -7.57872020E-01 -4.76702908E-01
 -4.76702908E-01 -3.14915003E-01 -3.14915003E-01 -8.30697393E-02 -8.30697393E-02
  2.32620953E-02  2.32620955E-02  6.55300187E-02  6.55300187E-02  8.49861658E-02
  8.49861658E-02  9.13290700E-02  9.13290713E-02  1.75746795E-01  1.75746795E-01
  1.94526956E-01  1.94526956E-01  4.40720790E-01  4.40720790E-01  4.84507087E-01
  4.84507088E-01  5.87125521E-01  5.87125521E-01  6.22769627E-01  6.22769627E-01
  6.34534167E-01  6.34534167E-01  7.29484669E-01  7.29484669E-01  1.09113057E+00
  1.09113057E+00  1.10337402E+00  1.10337402E+00  1.19189008E+00  1.19189008E+00
  1.55279907E+00  1.55279907E+00  1.56669757E+00  1.56669757E+00  1.62866050E+00
  1.62866050E+00  1.86551857E+00  1.86551857E+00  1.87821418E+00  1.87821418E+00
  2.13457733E+00  2.13457733E+00  2.36555995E+00  2.36555995E+00  2.45220567E+00
  2.45220567E+00  2.50095348E+00  2.50095348E+00  2.55660293E+00  2.55660293E+00
  2.75006294E+00  2.75006294E+00  3.06666686E+00  3.06666686E+00  3.59120047E+00
  3.59120047E+00  2.37691725E+01  2.37691725E+01
Alpha MO coefficients                      R   N=        4624
 -3.96411931E-01 -3.26235589E-01  1.49537388E-03 -1.92086905E-08 -1.45778387E-12
 -7.69896799E-03  1.17910350E-03 -6.27707835E-08 -1.36432256E-12  2.69296908E-03
  3.57434929E-05  1.35358623E-09 -8.76179288E-15  4.95204277E-04 -5.86167472E-04
  1.51223443E-08  6.40976539E-13  6.97392261E-04  1.07203586E-12  7.77990337E-13
  2.52059155E-04  1.64833433E-08  4.01310283E-01  3.30266792E-01  1.51385180E-03
 -1.94460474E-08  3.48155628E-13  7.79410200E-03  1.19367336E-03 -6.35464212E-08
  2.81232810E-13 -2.72624535E-03  3.61851654E-05  1.37030785E-09  1.06295343E-14
 -5.01323379E-04 -5.93410580E-04  1.53092060E-08 -1.41249272E-13 -7.06009744E-04
  2.55386597E-13  7.87905768E-13 -2.55173780E-04 -1.66870228E-08 -2.42440605E-04
  1.92453043E-03 -1.62779231E-03  7.79527774E-04  1.00664759E-03 -1.40132526E-12
 -2.42430606E-04  1.92460692E-03 -1.62783800E-03  7.79527189E-04 -1.00670346E-03
 -3.27161466E-13  2.45436376E-04 -1.94831132E-03  1.64790649E-03  7.89160183E-04
  1.01908646E-03  7.25016570E-13  2.45426254E-04 -1.94838875E-03  1.64795274E-03
  7.89159590E-04 -1.01914301E-03 -3.62141626E-13  4.01310283E-01  3.30266792E-01
 -1.51385180E-03  1.94460475E-08  1.47662843E-12  7.79410200E-03 -1.19367336E-03
  6.35464146E-08  1.38010954E-12 -2.72624535E-03 -3.61851649E-05 -1.37030841E-09
  9.42027135E-15 -5.01323379E-04  5.93410579E-04 -1.53092058E-08 -6.48674350E-13
 -7.06009744E-04 -1.08569507E-12 -7.89184924E-13 -2.55173780E-04 -1.66870164E-08
  3.96411931E-01  3.26235589E-01  1.49537388E-03 -1.92086918E-08  3.44005986E-13
  7.69896799E-03  1.17910350E-03 -6.27707755E-08  2.77209751E-13 -2.69296908E-03
  3.57434924E-05  1.35357993E-09  1.08620999E-14 -4.95204277E-04 -5.86167470E-04
  1.51223435E-08 -1.38655811E-13 -6.97392261E-04  2.52838760E-13  7.79163395E-13
 -2.52059155E-04 -1.64833414E-08  2.45436376E-04 -1.94831132E-03  1.64790649E-03
 -7.89160183E-04 -1.01908646E-03  1.41748569E-12  2.45426254E-04 -1.94838875E-03
  1.64795274E-03 -7.89159590E-04  1.01914301E-03  3.31999425E-13  2.42440605E-04
 -1.92453043E-03  1.62779231E-03  7.79527774E-04  1.00664759E-03  7.16209415E-13
  2.42430606E-04 -1.92460691E-03  1.62783800E-03  7.79527189E-04 -1.00670346E-03
 -3.57431270E-13  7.36512448E-02  1.18535561E-01  4.78116086E-02 -1.26439450E-06
 -5.22161534E-11 -3.23470257E-01  7.13198445E-02 -1.69828078E-06 -7.70796673E-11
 -2.21059330E-01  3.17036715E-02 -6.84190498E-07 -3.39526173E-11 -4.27087019E-03
  2.13577145E-03 -2.70577488E-08 -2.56340524E-12  5.12825797E-03  9.99896624E-12
  4.78393509E-12  8.69260085E-05  1.18264386E-07 -7.45526071E-02 -1.19986229E-01
  4.83967390E-02 -1.27986845E-06  1.14839687E-11  3.27428967E-01  7.21926746E-02
 -1.71906473E-06  1.65760465E-11  2.23764709E-01  3.20916690E-02 -6.92563774E-07
  7.64918422E-12  4.32313817E-03  2.16190955E-03 -2.73888909E-08  5.26502769E-15
 -5.19101888E-03  2.11180827E-12  4.84127600E-12 -8.79898307E-05 -1.19711732E-07
 -8.03212263E-02 -9.72398878E-02 -5.83798143E-03 -6.66138875E-03 -1.17333526E-02
  1.37306412E-11 -8.03223026E-02 -9.72409282E-02 -5.83806503E-03 -6.66112090E-03
  1.17336221E-02  1.21580056E-12  8.13042175E-02  9.84299339E-02  5.90942811E-03
 -6.74291249E-03 -1.18769483E-02 -7.89031346E-12  8.13053071E-02  9.84309870E-02
  5.90951273E-03 -6.74264136E-03  1.18772211E-02  4.77411351E-12 -7.45526071E-02
 -1.19986229E-01 -4.83967390E-02  1.27986847E-06  5.28554607E-11  3.27428967E-01
 -7.21926746E-02  1.71906476E-06  7.80226124E-11  2.23764709E-01 -3.20916690E-02
  6.92563799E-07  3.43686164E-11  4.32313817E-03 -2.16190955E-03  2.73888925E-08
  2.59474623E-12 -5.19101888E-03 -1.01214473E-11 -4.84221602E-12 -8.79898307E-05
 -1.19711732E-07 -7.36512448E-02 -1.18535561E-01  4.78116086E-02 -1.26439447E-06
  1.13451674E-11  3.23470257E-01  7.13198445E-02 -1.69828074E-06  1.63760445E-11
  2.21059330E-01  3.17036715E-02 -6.84190480E-07  7.55513548E-12  4.27087019E-03
  2.13577145E-03 -2.70577515E-08  6.70844897E-15 -5.12825797E-03  2.08688584E-12
  4.78268979E-12 -8.69260085E-05 -1.18264381E-07  8.13042175E-02  9.84299339E-02
  5.90942811E-03  6.74291249E-03  1.18769483E-02 -1.38985840E-11  8.13053071E-02
  9.84309870E-02  5.90951273E-03  6.74264136E-03 -1.18772211E-02 -1.23069864E-12
  8.03212263E-02  9.72398878E-02  5.83798143E-03 -6.66138875E-03 -1.17333526E-02
 -7.79507891E-12  8.03223026E-02  9.72409282E-02  5.83806503E-03 -6.66112090E-03
  1.17336221E-02  4.71641288E-12  2.11767204E-07  3.54139735E-07  1.96906295E-06
  1.47169683E-01 -7.83772391E-11 -9.99423716E-07  3.11196059E-06  2.19433696E-01
 -1.16908731E-10 -1.89953369E-06  1.92203693E-06  1.19475852E-01 -6.38021641E-11
 -2.48366111E-07  1.38950594E-08 -1.15205643E-03  6.46194134E-13 -2.72854478E-08
  1.73643372E-11  3.49057110E-11 -9.79106434E-07 -3.25629393E-02  2.09360564E-07
  3.50115097E-07 -1.94668538E-06 -1.45497166E-01 -7.74824847E-11 -9.88065720E-07
 -3.07659447E-06 -2.16939931E-01 -1.15572633E-10 -1.87794631E-06 -1.90019378E-06
 -1.18118063E-01 -6.30779338E-11 -2.45543514E-07 -1.37371378E-08  1.13896383E-03
  6.43430459E-13 -2.69753621E-08 -1.71663204E-11 -7.55573910E-12 -9.67979303E-07
 -3.21928762E-02 -1.04442226E-01 -1.60657464E-01 -8.10725219E-02 -8.26165440E-03
 -3.22745164E-03  1.07738558E-11  1.04441978E-01  1.60656890E-01  8.10725278E-02
  8.26154506E-03 -3.22761352E-03 -7.32175241E-12 -1.03255287E-01 -1.58831664E-01
 -8.01511691E-02  8.16776441E-03  3.19077310E-03  3.60350732E-12  1.03255042E-01
  1.58831096E-01  8.01511750E-02 -8.16765631E-03  3.19093315E-03 -1.87783352E-13
  2.09360564E-07  3.50115096E-07  1.94668544E-06  1.45497166E-01 -7.74877077E-11
 -9.88065714E-07  3.07659456E-06  2.16939931E-01 -1.15582501E-10 -1.87794635E-06
  1.90019384E-06  1.18118063E-01 -6.30792208E-11 -2.45543537E-07  1.37371467E-08
 -1.13896383E-03  6.37609215E-13 -2.69753612E-08  1.71673054E-11  3.45092902E-11
 -9.67979329E-07 -3.21928762E-02 -2.11767203E-07 -3.54139736E-07  1.96906289E-06
  1.47169683E-01  7.83727210E-11  9.99423721E-07  3.11196050E-06  2.19433696E-01
  1.16902079E-10  1.89953365E-06  1.92203686E-06  1.19475852E-01  6.38017495E-11
  2.48366081E-07  1.38950485E-08 -1.15205643E-03 -6.49970522E-13  2.72854493E-08
  1.73635382E-11  7.64301434E-12  9.79106407E-07  3.25629393E-02 -1.03255287E-01
 -1.58831664E-01 -8.01511691E-02 -8.16776441E-03 -3.19077310E-03  1.06513547E-11
  1.03255042E-01  1.58831096E-01  8.01511750E-02  8.16765631E-03 -3.19093315E-03
 -7.23907231E-12  1.04442226E-01  1.60657464E-01  8.10725219E-02 -8.26165440E-03
 -3.22745164E-03 -3.64493074E-12 -1.04441978E-01 -1.60656890E-01 -8.10725278E-02
  8.26154506E-03 -3.22761352E-03  1.89609648E-13 -3.92450170E-02 -6.51836637E-02
  1.63025461E-01 -2.42838069E-06 -1.73807136E-10  1.89700921E-01  2.35042022E-01
 -3.35350486E-06 -2.50797907E-10  2.96913661E-01  2.14310245E-01 -2.98954877E-06
 -2.25449236E-10  4.26661621E-02  3.75306664E-02 -5.08416918E-07 -4.00806283E-11
  1.77321020E-02  4.97666852E-11  7.47569723E-12 -1.66910476E-02  4.95493510E-07
 -3.87659648E-02 -6.43879861E-02 -1.61035457E-01  2.39873811E-06 -3.73926957E-11
  1.87385298E-01 -2.32172934E-01  3.31256954E-06 -5.39403617E-11  2.93289324E-01
 -2.11694224E-01  2.95305616E-06 -4.93953572E-11  4.21453490E-02 -3.70725407E-02
  5.02210806E-07 -8.44668205E-12  1.75156515E-02 -1.08780378E-11 -7.38483077E-12
 -1.64873050E-02  4.89445160E-07 -4.91327254E-02 -9.08426217E-02 -6.09859731E-02
  7.31158355E-03 -9.94335968E-03 -2.21844775E-12 -4.91325642E-02 -9.08422673E-02
 -6.09855987E-02  7.31189931E-03  9.94317209E-03 -1.28247572E-11 -4.85329768E-02
 -8.97337328E-02 -6.02415354E-02 -7.22233322E-03  9.82198404E-03  3.62070757E-12
 -4.85328176E-02 -8.97333828E-02 -6.02411656E-02 -7.22264513E-03 -9.82179874E-03
 -6.85951434E-12  3.87659648E-02  6.43879861E-02 -1.61035457E-01  2.39873817E-06
  1.71686347E-10 -1.87385298E-01 -2.32172934E-01  3.31256962E-06  2.47735732E-10
 -2.93289324E-01 -2.11694224E-01  2.95305624E-06  2.22698311E-10 -4.21453491E-02
 -3.70725406E-02  5.02210825E-07  3.95895016E-11 -1.75156515E-02 -4.91591874E-11
 -7.38465294E-12  1.64873050E-02 -4.89445167E-07 -3.92450170E-02 -6.51836637E-02
 -1.63025461E-01  2.42838063E-06 -3.78551172E-11  1.89700921E-01 -2.35042022E-01
  3.35350477E-06 -5.46051027E-11  2.96913661E-01 -2.14310245E-01  2.98954869E-06
 -5.00082853E-11  4.26661622E-02 -3.75306662E-02  5.08416901E-07 -8.54857619E-12
  1.77321020E-02 -1.10121134E-11 -7.47651326E-12 -1.66910476E-02  4.95493501E-07
  4.85329768E-02  8.97337328E-02  6.02415355E-02 -7.22233322E-03  9.82198404E-03
  2.19146671E-12  4.85328176E-02  8.97333827E-02  6.02411657E-02 -7.22264512E-03
 -9.82179874E-03  1.26684184E-11 -4.91327254E-02 -9.08426217E-02 -6.09859732E-02
 -7.31158355E-03  9.94335968E-03  3.66509788E-12 -4.91325642E-02 -9.08422673E-02
 -6.09855988E-02 -7.31189931E-03 -9.94317209E-03 -6.94443636E-12  1.08507288E-12
  1.64581948E-12  1.76548337E-10  8.70086300E-11  1.63053658E-01 -3.92942732E-12
  2.78590473E-10  1.37708182E-10  2.57806110E-01 -1.56871734E-11  3.35937208E-10
  1.61911133E-10  3.04248604E-01 -1.51360391E-11  1.98265871E-10  9.65765785E-11
  1.81577469E-01  3.17863216E-11 -1.73427189E-02  3.00067582E-07 -1.89108405E-11
 -9.28909194E-12  1.63022364E-13  3.08146588E-13 -3.75955728E-11 -8.59819921E-11
  1.61140637E-01 -8.09700360E-13 -6.04608357E-11 -1.36066407E-10  2.54781410E-01
 -9.05415459E-12 -7.28088792E-11 -1.59972836E-10  3.00679019E-01 -1.77909794E-11
 -5.24039233E-11 -9.56551218E-11  1.79447118E-01  7.37859187E-12  1.71392462E-02
 -2.96547044E-07 -3.92701686E-12 -9.16522829E-12  2.32451800E-12  4.44745794E-12
  1.14039906E-11  1.79504661E-11  9.04575699E-12  1.64061027E-02  2.29365705E-12
  4.14592821E-12  1.22437376E-11  1.78898698E-11  8.53156428E-12  1.64061696E-02
  6.20528436E-13 -1.52710501E-13  1.49082084E-11 -4.21599937E-12 -9.19226246E-12
  1.62136188E-02  5.77496747E-13 -3.58635941E-13  1.54333793E-11 -4.17677547E-12
 -8.16825827E-12  1.62136848E-02 -1.07229399E-12 -1.62633924E-12 -1.74476736E-10
 -8.59876046E-11 -1.61140637E-01  3.88216694E-12 -2.75321688E-10 -1.36093044E-10
 -2.54781410E-01  1.55048176E-11 -3.31995707E-10 -1.60011020E-10 -3.00679019E-01
  1.49595158E-11 -1.95941115E-10 -9.54435145E-11 -1.79447118E-01 -3.14135997E-11
  1.71392462E-02 -2.96547051E-07  1.86891582E-11  9.18055600E-12  1.64928160E-13
  3.12085345E-13 -3.80422708E-11 -8.70033796E-11  1.63053658E-01 -8.20108709E-13
 -6.11783405E-11 -1.37682924E-10  2.57806110E-01 -9.16302117E-12 -7.36752421E-11