Title Card Required                                                     
FOpt      UM062X                                                      6-311+G(d,p)        
Number of atoms                            I                4
Info1-9                                    I   N=           9
          13          13           0           0           0         110
           2          18        -502
Full Title                                 C   N=           2
Title Card Required     
Route                                      C   N=           4
#p opt UM062X/6-311+G** nosymm int=superfine    
Charge                                     I                0
Multiplicity                               I                1
Number of electrons                        I               26
Number of alpha electrons                  I               13
Number of beta electrons                   I               13
Number of basis functions                  I               64
Number of independent functions            I               64
Number of point charges in /Mol/           I                0
Number of translation vectors              I                0
Atomic numbers                             I   N=           4
           8          16           1           1
Nuclear charges                            R   N=           4
  8.00000000E+00  1.60000000E+01  1.00000000E+00  1.00000000E+00
Current cartesian coordinates              R   N=          12
 -2.80842404E+00 -1.40217678E-03  1.74610694E-03  2.80811412E+00  3.17473989E-04
 -1.50800145E-03 -2.79674635E+00 -1.81247540E+00 -2.81885335E-01  2.48921564E+00
  2.00475820E+00 -1.53579134E+00
Number of symbols in /Mol/                 I                0
Force Field                                I                0
Atom Types                                 C   N=           4
                                                
Int Atom Types                             I   N=           4
           0           0           0           0
MM charges                                 R   N=           4
  0.00000000E+00  0.00000000E+00  0.00000000E+00  0.00000000E+00
Integer atomic weights                     I   N=           4
          16          32           1           1
Real atomic weights                        R   N=           4
  1.59949146E+01  3.19720718E+01  1.00782504E+00  1.00782504E+00
Atom fragment info                         I   N=           4
           0           0           0           0
Atom residue num                           I   N=           4
           0           0           0           0
Nuclear spins                              I   N=           4
           0           0           1           1
Nuclear ZEff                               R   N=           4
 -5.60000000E+00 -1.36000000E+01 -1.00000000E+00 -1.00000000E+00
Nuclear ZNuc                               R   N=           4
  8.00000000E+00  1.60000000E+01  1.00000000E+00  1.00000000E+00
Nuclear QMom                               R   N=           4
  0.00000000E+00  0.00000000E+00  0.00000000E+00  0.00000000E+00
Nuclear GFac                               R   N=           4
  0.00000000E+00  0.00000000E+00  2.79284600E+00  2.79284600E+00
MicOpt                                     I   N=           4
          -2          -2          -1          -1
Number of residues                         I                0
Number of secondary structures             I                0
Redundant internal dimensions              I   N=           4
          11           8           2           1
Redundant internal coordinate indices      I   N=          44
           1          -1           0           0           1          -2
           0           0           1          -3           0           0
           2          -1           0           0           2          -2
           0           0           2          -3           0           0
           1           3           0           0           2           4
           0           0           2           1           3           0
           1           2           4           0           3           1
           2           4
Redundant internal coordinates             R   N=          11
 -2.80842404E+00 -1.40217678E-03  1.74610694E-03  2.80811412E+00  3.17473989E-04
 -1.50800145E-03  1.83318559E+00  2.54430820E+00  1.56463897E+00  1.44572311E+00
  2.33290323E+00
ZRed-IntVec                                I   N=          11
          -1          -1          -1          -1          -1          -1
           0           0           0           0           0
ZRed-FPVec                                 R   N=          11
  0.00000000E+00  0.00000000E+00  0.00000000E+00  0.00000000E+00  0.00000000E+00
  0.00000000E+00  0.00000000E+00  0.00000000E+00  0.00000000E+00  0.00000000E+00
  0.00000000E+00
ZRed-Constraint1                           R   N=          11
 -2.80842404E+00 -1.40217678E-03  1.74610694E-03  2.80811412E+00  3.17473989E-04
 -1.50800145E-03  1.83478567E+00  2.55266125E+00  1.70504409E+00  1.52075586E+00
  6.97634974E-01
ZRed-Constraint2                           R   N=          11
 -2.80842404E+00 -1.40217678E-03  1.74610694E-03  2.80811412E+00  3.17473989E-04
 -1.50800145E-03  0.00000000E+00  0.00000000E+00  0.00000000E+00  0.00000000E+00
  0.00000000E+00
Number of contracted shells                I               27
Number of primitive shells                 I               49
Pure/Cartesian d shells                    I                0
Pure/Cartesian f shells                    I                0
Highest angular momentum                   I                2
Largest degree of contraction              I                6
Shell types                                I   N=          27
           0          -1          -1          -1          -1          -2
           0           0           0           0           0           0
          -1           1           1           1           1           1
          -2           0           0           0           1           0
           0           0           1
Number of primitives per shell             I   N=          27
           6           3           1           1           1           1
           6           3           1           1           1           1
           1           4           2           1           1           1
           1           3           1           1           1           3
           1           1           1
Shell to atom map                          I   N=          27
           1           1           1           1           1           1
           2           2           2           2           2           2
           2           2           2           2           2           2
           2           3           3           3           3           4
           4           4           4
Primitive exponents                        R   N=          49
  8.58850000E+03  1.29723000E+03  2.99296000E+02  8.73771000E+01  2.56789000E+01
  3.74004000E+00  4.21175000E+01  9.62837000E+00  2.85332000E+00  9.05661000E-01
  2.55611000E-01  8.45000000E-02  1.29200000E+00  9.34134000E+04  1.39617000E+04
  3.16991000E+03  9.02456000E+02  2.97158000E+02  1.08702000E+02  1.08702000E+02
  4.31553000E+01  1.81079000E+01  5.56009000E+00  2.13183000E+00  4.20403000E-01
  1.36045000E-01  4.05000000E-02  4.95040000E+02  1.17221000E+02  3.77749000E+01
  1.40584000E+01  5.56574000E+00  2.26297000E+00  8.07994000E-01  2.77460000E-01
  7.71410000E-02  6.50000000E-01  3.38650000E+01  5.09479000E+00  1.15879000E+00
  3.25840000E-01  1.02741000E-01  7.50000000E-01  3.38650000E+01  5.09479000E+00
  1.15879000E+00  3.25840000E-01  1.02741000E-01  7.50000000E-01
Contraction coefficients                   R   N=          49
  1.89515008E-03  1.43859006E-02  7.07320031E-02  2.40001011E-01  5.94797026E-01
  2.80802012E-01  1.13889012E-01  9.20811101E-01 -3.27447036E-03  1.00000000E+00
  1.00000000E+00  1.00000000E+00  1.00000000E+00  7.42999957E-04  5.79299966E-03
  2.99539983E-02  1.19027993E-01  3.68431979E-01  5.77298966E-01  1.43186060E-01
  6.24465262E-01  2.83366119E-01  1.00000000E+00  1.00000000E+00  1.00000000E+00
  1.00000000E+00  1.00000000E+00  8.30900251E-03  6.40240194E-02  2.77614084E-01
  7.45076225E-01  6.13711672E-01  4.43817763E-01  1.00000000E+00  1.00000000E+00
  1.00000000E+00  1.00000000E+00  2.54938145E-02  1.90373109E-01  8.52161486E-01
  1.00000000E+00  1.00000000E+00  1.00000000E+00  2.54938145E-02  1.90373109E-01
  8.52161486E-01  1.00000000E+00  1.00000000E+00  1.00000000E+00
P(S=P) Contraction coefficients            R   N=          49
  0.00000000E+00  0.00000000E+00  0.00000000E+00  0.00000000E+00  0.00000000E+00
  0.00000000E+00  3.65113974E-02  2.37152983E-01  8.19701941E-01  1.00000000E+00
  1.00000000E+00  1.00000000E+00  0.00000000E+00  0.00000000E+00  0.00000000E+00
  0.00000000E+00  0.00000000E+00  0.00000000E+00  0.00000000E+00  0.00000000E+00
  0.00000000E+00  0.00000000E+00  0.00000000E+00  0.00000000E+00  0.00000000E+00
  0.00000000E+00  1.00000000E+00  0.00000000E+00  0.00000000E+00  0.00000000E+00
  0.00000000E+00  0.00000000E+00  0.00000000E+00  0.00000000E+00  0.00000000E+00
  0.00000000E+00  0.00000000E+00  0.00000000E+00  0.00000000E+00  0.00000000E+00
  0.00000000E+00  0.00000000E+00  0.00000000E+00  0.00000000E+00  0.00000000E+00
  0.00000000E+00  0.00000000E+00  0.00000000E+00  0.00000000E+00
Coordinates of each shell                  R   N=          81
 -2.80842404E+00 -1.40217678E-03  1.74610694E-03 -2.80842404E+00 -1.40217678E-03
  1.74610694E-03 -2.80842404E+00 -1.40217678E-03  1.74610694E-03 -2.80842404E+00
 -1.40217678E-03  1.74610694E-03 -2.80842404E+00 -1.40217678E-03  1.74610694E-03
 -2.80842404E+00 -1.40217678E-03  1.74610694E-03  2.80811412E+00  3.17473989E-04
 -1.50800145E-03  2.80811412E+00  3.17473989E-04 -1.50800145E-03  2.80811412E+00
  3.17473989E-04 -1.50800145E-03  2.80811412E+00  3.17473989E-04 -1.50800145E-03
  2.80811412E+00  3.17473989E-04 -1.50800145E-03  2.80811412E+00  3.17473989E-04
 -1.50800145E-03  2.80811412E+00  3.17473989E-04 -1.50800145E-03  2.80811412E+00
  3.17473989E-04 -1.50800145E-03  2.80811412E+00  3.17473989E-04 -1.50800145E-03
  2.80811412E+00  3.17473989E-04 -1.50800145E-03  2.80811412E+00  3.17473989E-04
 -1.50800145E-03  2.80811412E+00  3.17473989E-04 -1.50800145E-03  2.80811412E+00
  3.17473989E-04 -1.50800145E-03 -2.79674635E+00 -1.81247540E+00 -2.81885335E-01
 -2.79674635E+00 -1.81247540E+00 -2.81885335E-01 -2.79674635E+00 -1.81247540E+00
 -2.81885335E-01 -2.79674635E+00 -1.81247540E+00 -2.81885335E-01  2.48921564E+00
  2.00475820E+00 -1.53579134E+00  2.48921564E+00  2.00475820E+00 -1.53579134E+00
  2.48921564E+00  2.00475820E+00 -1.53579134E+00  2.48921564E+00  2.00475820E+00
 -1.53579134E+00
Num ILSW                                   I              100
ILSW                                       I   N=         100
           1           0           0           0           0           0
           0           0           0           0        4336          -1
           7           0           0           0          -1           0
           0           0           0           0           1           0
           1           1           0           0           0           0
           0           0      100000           0          -1           0
           0           0           0           0           0           0
           0           0           0           1           0           0
           0 -2000000000           1           0           0           0
           0           0           4          52           0           0
           0           0          55           0           0           0
           0           0           0           4           0           1
           0           0           0           0           0           0
           0           0           0           0           0           0
           0           0           0           0           0           0
           0           0           0           0           0           0
           0           0           0           0
Num RLSW                                   I               52
RLSW                                       R   N=          52
  1.00000000E+00  1.00000000E+00  1.00000000E+00  1.00000000E+00  5.40000000E-01
  0.00000000E+00  0.00000000E+00  1.00000000E+00  0.00000000E+00  0.00000000E+00
  0.00000000E+00  0.00000000E+00  1.00000000E+00  0.00000000E+00  0.00000000E+00
  0.00000000E+00  0.00000000E+00  1.00000000E+00  0.00000000E+00  0.00000000E+00
  0.00000000E+00  0.00000000E+00  1.00000000E+00  0.00000000E+00  0.00000000E+00
  0.00000000E+00  0.00000000E+00  1.00000000E+00  0.00000000E+00  0.00000000E+00
  0.00000000E+00  0.00000000E+00  1.00000000E+00  0.00000000E+00  0.00000000E+00
  0.00000000E+00  0.00000000E+00  0.00000000E+00  1.00000000E+00  1.00000000E+00
  0.00000000E+00  1.00000000E+00  0.00000000E+00  0.00000000E+00  0.00000000E+00
  0.00000000E+00  0.00000000E+00  0.00000000E+00  0.00000000E+00  0.00000000E+00
  0.00000000E+00  0.00000000E+00
MxBond                                     I                2
NBond                                      I   N=           4
           2           2           1           1
IBond                                      I   N=           8
           2           3           1           4           1           0
           2           0
RBond                                      R   N=           8
  1.00000000E-01  1.00000000E+00  1.00000000E-01  1.00000000E+00  1.00000000E+00
  0.00000000E+00  1.00000000E+00  0.00000000E+00
Virial Ratio                               R      2.001892449009412E+00
SCF Energy                                 R     -4.744103400782558E+02
Total Energy                               R     -4.744103400782558E+02
S**2                                       R      4.022009392201653E-10
S**2 after annihilation                    R      7.034373085439614E-13
RMS Force                                  R      1.204625535762104E-05
RMS Density                                R      5.795484291357011E-09
Job Status                                 I                3
Nuclear derivative order                   I                1
External E-field                           R   N=          35
  0.00000000E+00  0.00000000E+00  0.00000000E+00  0.00000000E+00  0.00000000E+00
  0.00000000E+00  0.00000000E+00  0.00000000E+00  0.00000000E+00  0.00000000E+00
  0.00000000E+00  0.00000000E+00  0.00000000E+00  0.00000000E+00  0.00000000E+00
  0.00000000E+00  0.00000000E+00  0.00000000E+00  0.00000000E+00  0.00000000E+00
  0.00000000E+00  0.00000000E+00  0.00000000E+00  0.00000000E+00  0.00000000E+00
  0.00000000E+00  0.00000000E+00  0.00000000E+00  0.00000000E+00  0.00000000E+00
  0.00000000E+00  0.00000000E+00  0.00000000E+00  0.00000000E+00  0.00000000E+00
IOpCl                                      I                1
IROHF                                      I                0
Alpha Orbital Energies                     R   N=          64
 -8.99642008E+01 -1.96403637E+01 -8.32614969E+00 -6.24786872E+00 -6.24463741E+00
 -6.23866621E+00 -1.06045413E+00 -8.23893548E-01 -5.15927382E-01 -4.71487319E-01
 -3.76729723E-01 -3.45063564E-01 -3.08511596E-01 -2.30575578E-01  1.56436679E-02
  5.21515608E-02  5.57053504E-02  5.92796390E-02  7.46313183E-02  1.30398942E-01
  2.01723599E-01  2.07494131E-01  2.40600119E-01  3.12363058E-01  3.38984423E-01
  3.48594433E-01  3.97056626E-01  4.30720347E-01  5.65532545E-01  6.32073661E-01
  7.13705944E-01  7.33631970E-01  7.89827548E-01  7.95745724E-01  9.65956047E-01
  1.08405904E+00  1.08976519E+00  1.09998884E+00  1.40672126E+00  1.41341092E+00
  1.44317448E+00  1.45247223E+00  1.47284588E+00  1.67180405E+00  1.67456454E+00
  1.70078624E+00  2.06984518E+00  2.08991248E+00  2.49582632E+00  2.53338936E+00
  2.89996788E+00  2.90889152E+00  3.18399918E+00  3.20579617E+00  3.87093724E+00
  5.03723884E+00  5.07229234E+00  5.58812198E+00  7.83641948E+00  1.74200497E+01
  1.74201920E+01  1.74870047E+01  4.99145111E+01  1.89097512E+02
Beta Orbital Energies                      R   N=          64
 -8.99642008E+01 -1.96403637E+01 -8.32614969E+00 -6.24786873E+00 -6.24463741E+00
 -6.23866622E+00 -1.06045409E+00 -8.23893576E-01 -5.15927367E-01 -4.71487325E-01
 -3.76729712E-01 -3.45063599E-01 -3.08511514E-01 -2.30575542E-01  1.56436751E-02
  5.21515662E-02  5.57053540E-02  5.92796403E-02  7.46313173E-02  1.30398940E-01
  2.01723588E-01  2.07494126E-01  2.40600112E-01  3.12363055E-01  3.38984434E-01
  3.48594436E-01  3.97056623E-01  4.30720360E-01  5.65532550E-01  6.32073641E-01
  7.13705907E-01  7.33631951E-01  7.89827513E-01  7.95745685E-01  9.65956033E-01
  1.08405904E+00  1.08976522E+00  1.09998885E+00  1.40672128E+00  1.41341092E+00
  1.44317447E+00  1.45247222E+00  1.47284589E+00  1.67180396E+00  1.67456452E+00
  1.70078622E+00  2.06984517E+00  2.08991249E+00  2.49582632E+00  2.53338935E+00
  2.89996790E+00  2.90889159E+00  3.18399922E+00  3.20579619E+00  3.87093726E+00
  5.03723891E+00  5.07229235E+00  5.58812200E+00  7.83641948E+00  1.74200496E+01
  1.74201920E+01  1.74870047E+01  4.99145111E+01  1.89097512E+02
Alpha MO coefficients                      R   N=        4096
 -1.93913963E-07  1.16546392E-06  4.00341050E-06  7.88295351E-07 -2.02754042E-07
 -6.18567646E-06 -1.44533932E-05 -3.52642238E-06  5.03837870E-07  3.04383732E-06
  2.20217342E-05 -1.27954659E-05 -4.53443021E-06  1.52095673E-04  5.62912913E-05
 -6.28661281E-05 -8.31318649E-06 -5.70313372E-06 -4.85500133E-07  1.61970476E-06
  2.55348752E-08 -1.95852209E-06  4.10786987E-01  6.54411938E-01  1.53473554E-02
 -4.34542736E-03  1.61404606E-03 -9.17021184E-04  1.19090596E-04 -3.62847468E-05
  1.81500891E-05 -1.41581041E-05 -3.79354245E-05  5.79398841E-05 -4.63028965E-05
  9.35951808E-06 -1.93734822E-05  1.54402886E-05  2.05113152E-06 -5.39706375E-06
  3.51027830E-06 -3.87679062E-05  1.38393650E-04 -1.05257157E-04  1.08885683E-04
 -1.46589693E-04  1.13620264E-04  3.24477838E-06  1.00808244E-05 -7.29372481E-05
 -4.54690845E-05 -1.39858582E-05  1.41269061E-07 -2.25830503E-05 -1.26746195E-04
 -7.55440833E-06 -7.56744216E-06 -2.22223474E-06  2.39371901E-05 -2.05245918E-04
  2.70884342E-04 -2.33315227E-05  1.35813515E-04 -1.03582162E-04  5.52847404E-01
  4.69698021E-01  3.27036299E-04 -1.22305184E-03 -1.98513939E-04  8.05075011E-03
 -7.20263512E-05  1.25203342E-04  2.17363421E-05 -3.14722450E-03 -1.25649103E-04
 -1.97114661E-04 -3.22208638E-05  2.63225238E-03  4.16851605E-04 -3.39337447E-04
 -5.30184796E-05 -5.15631346E-05 -1.61769421E-06  3.51096796E-05 -1.29341105E-04
 -3.47506923E-06 -1.00702952E-09  6.66192821E-07 -4.38469791E-06  6.97177461E-06
  4.26308958E-06 -3.45895260E-05 -5.66579634E-04  4.13426892E-04 -3.00525543E-05
 -1.31732533E-06  6.70300796E-07  2.42126981E-07 -2.14262411E-07  1.23820420E-05
  1.86268244E-07 -6.65431030E-07 -4.66859121E-05 -2.75241995E-06  3.70385143E-06
  1.06577661E-04  2.17953866E-05 -1.84469158E-05 -1.71604921E-05 -7.27080816E-05
  7.06952744E-05  1.54627409E-05  3.90979836E-06 -4.36287653E-06 -3.22394689E-05
 -4.37292690E-06  7.25552773E-05 -4.30240634E-05 -1.00416686E-03  4.41895563E-06
 -4.35289346E-04 -6.91916692E-05  2.61944597E-05 -8.40153817E-05  2.26915243E-04
  2.13179794E-05  1.67502682E-05 -9.91220751E-06  1.57810695E-06  1.51942431E-05
  5.63437341E-05  9.42145339E-06 -7.60762356E-07 -1.53314216E-04 -1.50767879E-04
 -4.23173459E-05  5.04373215E-06  2.43430487E-04  4.01782549E-04 -1.63629929E-04
 -5.54893552E-05  1.72812885E-03  6.31343520E-04 -8.15654238E-04 -1.09902781E-04
 -6.97597122E-05 -4.49148519E-06  1.78147401E-05  1.15551857E-05 -2.03148166E-05
 -1.19760729E-01 -3.20478586E-01  5.15996169E-01  5.98999657E-01  4.29336461E-02
 -1.50897079E-02  2.26019676E-03 -5.52024741E-04  2.08337365E-04 -1.65021456E-04
 -9.87263020E-04  1.42475317E-03 -1.14929221E-03 -2.28309624E-03  3.22149426E-03
 -2.59668947E-03 -2.17731146E-04  2.78794843E-04 -2.41928995E-04 -4.18581168E-04
  1.48507673E-03 -1.12882593E-03  1.38131164E-03 -1.84289311E-03  1.43154267E-03
 -2.61369374E-04  3.62302402E-05 -1.07308760E-03 -1.31372119E-04 -8.43946164E-05
 -2.15546991E-05 -2.63886553E-04 -1.65509955E-03 -8.65499927E-05 -9.47453309E-05
 -2.60986224E-05  1.28848663E-04 -1.90380000E-03  3.43892852E-03 -2.32522688E-04
  1.28222098E-03 -9.77800578E-04  1.34570778E-06  8.69572775E-06 -3.64841811E-05
 -5.30974851E-06  1.42670475E-06 -9.20137125E-05  9.59597142E-05  3.83388352E-05
 -4.08307280E-06  1.64463161E-04 -2.67721932E-05  1.75614432E-04  5.91687708E-05
  7.35602910E-05  3.52356993E-04 -1.10781173E-04 -5.09611577E-05  8.11764943E-06
  5.01579844E-06 -1.00534513E-05  4.77195789E-05  2.04310886E-05 -2.27234342E-04
 -6.24648582E-04  1.18161036E-03  8.66303440E-04  1.66936333E-04 -7.83823163E-05
 -1.05039303E-04 -2.56149104E-03 -3.51341216E-04  3.10064223E-04  3.70520144E-01
  5.86691088E-02 -5.26097246E-02  6.93490763E-01  1.09769351E-01 -9.84445332E-02
  5.37736126E-02  8.50472489E-03 -7.62166371E-03 -7.56951706E-03 -1.13040658E-03
  1.01058168E-03  4.84826569E-03  6.54151653E-04 -5.78345525E-04  1.10779077E-04
 -2.89803975E-04 -1.19138617E-04 -2.30704439E-04  3.54659855E-04 -9.09229207E-05
  4.66590353E-04 -3.83588909E-04  9.92540729E-05  9.39718331E-05  1.41420626E-05
  4.05232732E-05 -1.99194104E-06 -1.87974371E-05  6.58395160E-05  7.61301955E-05
 -5.86690854E-05 -4.78181535E-07 -2.38059238E-06  7.77946035E-06 -5.31035753E-06
  4.45819516E-06  2.60817962E-05 -1.30361049E-05  2.70466203E-05 -2.22960455E-05
 -9.34775102E-05 -3.25958706E-05 -9.66439294E-05  6.70859254E-05  7.90092756E-05
 -2.80455969E-05  8.58557796E-06 -5.80935792E-05 -5.26776165E-07  7.01397340E-06
  3.56208908E-07 -4.85357984E-06 -6.09656456E-06  7.81431444E-04  2.11494619E-03
 -3.74677438E-03 -3.77999448E-03  6.68374177E-04  3.33499046E-04  4.76854986E-04
  4.15057691E-04 -1.56832045E-03  1.18612988E-03 -7.86519911E-02  2.95883018E-01
 -2.24238623E-01 -1.46971340E-01  5.52724012E-01 -4.18887736E-01 -1.11580828E-02
  4.19468172E-02 -3.17897108E-02  1.49720236E-03 -5.44074315E-03  4.12063526E-03
 -9.61236556E-04  3.43999894E-03 -2.60538451E-03  5.51039213E-06  2.06146866E-04
 -5.96883050E-04 -3.06501639E-04 -2.68322580E-04 -6.46521662E-06  2.99004721E-07
 -1.21689149E-04  1.32683027E-05 -4.89202991E-06  4.21267427E-07  5.56794280E-04
  9.33789947E-05 -1.13042665E-03 -5.19886976E-05  5.12567877E-04 -3.89071499E-04
 -9.63504555E-09  2.16756417E-07 -4.25601775E-07 -4.81833394E-06 -5.74723690E-06
 -1.95000401E-07  1.47242188E-06  2.71957704E-05  2.95353267E-05 -3.75640740E-05
 -1.67431053E-05 -2.89066084E-05 -8.01498251E-05  6.11686996E-05  4.53800410E-06
  4.13244156E-06  4.81447192E-05  2.72306156E-06 -7.99371707E-06 -7.82383958E-07
  4.77449527E-06  1.38312953E-06 -2.58307930E-05 -7.02621165E-05  1.26722114E-04
  1.19130899E-04 -2.21304066E-05  1.05700161E-05 -2.80010635E-06 -4.37213276E-05
 -1.29775812E-03 -1.69471269E-03  6.37957697E-03  2.30742522E-01  3.02226462E-01
  1.18917459E-02  4.30299199E-01  5.63607296E-01  8.74319589E-04  3.14826955E-02
  4.12368789E-02 -1.23836152E-04 -4.23159970E-03 -5.54958032E-03  7.66430265E-05
  2.45137499E-03  3.20359025E-03 -3.51225362E-04 -1.54883975E-04  9.39065688E-05
 -2.00434649E-04 -1.11373312E-04 -2.59610542E-05  9.28150866E-05 -9.71347608E-05
  3.94761441E-05  1.69523355E-05  5.88730294E-06 -1.15899356E-06 -1.08502355E-05
  3.83678105E-06  1.46752253E-06  6.03052024E-05  7.40289429E-05 -1.18555761E-01
 -1.95312182E-01  1.49720495E-03 -4.65467627E-02 -7.53674628E-03  5.73061015E-01
  1.86872191E-03 -7.49607065E-02 -1.21353422E-02  4.22578317E-01  6.71190042E-03
 -2.87560398E-02 -5.13060237E-03 -2.32719514E-02 -7.08505651E-03  6.32490009E-03
  9.19321305E-04 -8.96476825E-03  9.90678871E-05  3.39537669E-03 -5.72524415E-03
 -3.40056796E-04  7.73103106E-04  2.18890198E-03 -4.52504324E-03 -8.42642856E-03
  1.30118357E-02  1.37003903E-02  8.37635970E-03 -5.38937331E-03 -1.83426350E-04
  1.24883358E-04  1.43722991E-03 -3.69424434E-05  6.11303795E-05  2.67922943E-03
 -8.31810009E-05  1.21387086E-04 -2.59078977E-03  8.02127779E-05 -9.32799046E-05
 -1.11304397E-02 -5.13698339E-05 -2.04151462E-04 -3.20793338E-03  1.74790749E-03
 -1.65950762E-03 -1.51707947E-03  1.22639168E-04 -4.81219592E-04  2.33543474E-03
  4.66003145E-05  1.10221557E-01  8.72422530E-02  1.75485794E-02 -4.62956309E-04
  2.50695282E-02  3.96878529E-03  1.50053732E-03  1.23642005E-03 -3.88269809E-03
 -2.22202121E-04 -2.75357783E-04  2.04560985E-04  4.01518659E-03  6.66118323E-03
  8.12968813E-03  3.52597516E-03  3.81805231E-04 -2.03876801E-02  1.26633292E-02
  5.25226887E-03  6.18072020E-04 -1.30980463E-02  1.02879076E-02  2.07039209E-03
  1.24739024E-04 -8.52249315E-03 -2.55953954E-03  3.81697155E-03  5.44997963E-04
 -4.78691695E-05 -9.09337965E-05 -1.40023800E-04  9.79601272E-04 -3.74786646E-04
  3.33870433E-02  9.48899700E-02 -1.99303554E-01 -3.68070054E-01  6.67175456E-01
  4.09621500E-01 -1.00955367E-02  2.57282660E-03  1.75529734E-03 -2.70158273E-04
  1.09084568E-03 -1.32410731E-02  1.04398269E-02  2.22696789E-03 -2.64596247E-02
  2.08443896E-02 -3.47756203E-03  3.69661065E-02 -2.89508686E-02  7.18927124E-04
  4.91468206E-02 -3.95592636E-02 -4.68659002E-03  5.82013794E-03 -7.07559425E-03
 -4.60541925E-03  1.22031465E-03 -2.33886308E-02 -4.70599697E-03 -1.61212645E-03
 -5.09686616E-03 -6.60250667E-03  8.84472523E-03  1.17877763E-03 -1.49049791E-03
 -2.14504141E-04  1.01092689E-01  1.32195251E-01  2.20256592E-03  4.19358998E-03
 -1.83388649E-02  1.39796722E-02 -3.90051025E-02 -6.52835781E-02 -6.51751148E-04
  2.48306565E-01  3.75377095E-02  1.98717917E-01 -1.50603700E-03  3.56960628E-01
  5.39515140E-02  2.86263490E-01  3.35824835E-03  2.38918233E-01  3.53127991E-02
  5.99570939E-02 -1.69375341E-03  2.61126977E-02  3.19292903E-03  7.35505474E-03
  2.21629902E-04 -4.84321850E-03  1.68407123E-02  1.42854774E-03 -1.34885295E-03
 -3.84945086E-03  8.23406263E-03  1.52116213E-02 -2.97461251E-02 -2.42925029E-02
 -3.29479948E-03  2.99745286E-03 -2.72463373E-03  6.83304964E-04  3.09412462E-03
 -5.72800054E-03  2.07605743E-03  5.95347854E-03 -1.10692595E-02  4.05027355E-03
 -7.86099133E-03  1.55788283E-02 -5.81717002E-03 -1.87374354E-02  2.99287275E-02
 -9.88663109E-03 -8.74578107E-03  1.16088730E-02 -4.23897088E-04 -6.81270570E-04
  3.98666747E-04 -2.64015084E-03 -4.05030023E-04 -3.18309114E-03 -1.65360533E-01
 -2.59872095E-01 -7.99952532E-02 -9.00352425E-04 -2.98981456E-02 -4.68476189E-03
  1.02534785E-02  1.56923351E-02  1.19627850E-02 -8.43838333E-04 -9.80035953E-04
  1.08183182E-03  2.38239602E-03  3.99209998E-03 -9.13009858E-03 -2.04356273E-02
 -1.31020195E-02 -1.20031222E-02 -1.36835202E-02 -2.97106453E-02 -1.89502569E-02
 -1.99095955E-02 -1.23511133E-02 -1.73785261E-02 -1.57780374E-02 -1.00603914E-02
 -7.51433706E-03 -1.83477491E-03 -2.64885517E-03 -3.35286457E-04 -2.98796818E-04
  8.46104977E-04 -1.68755777E-03  7.46048997E-04 -1.20209879E-02 -3.43496135E-02
  7.38875621E-02  1.34797151E-01 -2.47157822E-01 -2.97171734E-01 -2.08819731E-02
  1.06775574E-03 -1.93234633E-02  1.39734134E-02  1.04157309E-02 -6.52830542E-02
  4.96711426E-02  2.03069349E-02 -1.27130306E-01  9.67294369E-02 -3.00540482E-02
  1.85442772E-01 -1.41175588E-01 -5.18649714E-02  3.23085113E-01 -2.45504384E-01
 -1.42885469E-02  8.82202289E-02 -6.51058779E-02  5.88658161E-03  6.97057520E-03
 -4.04088770E-02 -3.07364765E-02 -8.80501948E-03  1.48274204E-02  2.63483473E-02
  5.15996090E-03 -1.73056311E-03  3.32633004E-03 -6.03372333E-04  1.57323228E-01
  2.85040839E-01  1.30830726E-01  5.56465238E-03 -2.11480039E-02  1.58724122E-02
 -4.06641830E-04 -6.85992574E-04 -1.09049598E-02 -4.71560745E-02  2.99314468E-01
  2.33800200E-03 -1.60840656E-02 -6.90292468E-02  4.38172573E-01  2.40215974E-03
 -1.48552817E-02 -6.16061030E-02  3.95753807E-01 -7.60611720E-03 -5.09224220E-03
 -1.19886028E-02  8.77116226E-02 -3.92636102E-03  1.61869462E-03 -1.36198177E-02
 -2.29734267E-03  3.57210597E-04 -3.40578220E-04 -9.77399876E-04  2.14039871E-03
  3.73559932E-03 -6.13843134E-03 -1.31153619E-02 -5.12989298E-03  1.64753058E-04
 -4.60658633E-03 -2.06377086E-03 -9.23897377E-04 -8.89912866E-03 -5.27754756E-03
 -1.79579452E-03 -1.72222996E-02 -1.00809864E-02  2.46757556E-03  2.54338981E-02
  1.43426420E-02  5.54728675E-03  4.90516996E-02  3.22360501E-02  3.45249645E-03
  1.92974585E-02  2.37554916E-02 -7.43441416E-04 -3.24377648E-03 -2.10036002E-03
 -2.83752852E-03  2.52032695E-04  3.67751984E-04  1.37518558E-03  5.10091671E-03
 -1.29428392E-03 -5.15780157E-03  3.52497923E-02  8.14846322E-03  1.38412090E-02
  1.38630279E-02  1.81932008E-03  9.90822671E-05  2.40880915E-03 -6.18312807E-03
 -1.05447358E-02 -2.07838642E-01  4.24014368E-03 -1.66207942E-02  3.64225568E-02
 -3.09968558E-01  5.91874356E-03 -2.42114275E-02  3.18477905E-02 -3.00625373E-01
  1.88523975E-02 -2.18240733E-02 -2.61969405E-02 -7.90735573E-02 -1.10510448E-03
 -1.95954324E-03  2.61316587E-03  1.86636766E-03  5.91017300E-04 -2.70277213E-03
  1.13697366E-02  2.05744249E-03  5.85888217E-03 -1.24365848E-02 -2.44203680E-02
  5.71339108E-02  1.38591758E-02  8.43293105E-03 -5.12353827E-02 -7.60349203E-03
 -9.59748896E-03 -6.13575612E-02 -1.43292697E-02 -1.07803156E-02 -1.18447946E-01
 -2.78102253E-02 -2.06778289E-02  1.63516595E-01  4.12148084E-02  3.09710102E-02
  3.70478300E-01  7.87325464E-02  6.35070158E-02  2.02439702E-01  5.19019283E-02
  3.92279783E-02  4.97468364E-03 -7.06272947E-03 -6.95514728E-04 -1.43770837E-02
  8.10195703E-03  4.58831307E-04  1.96495308E-02 -7.11604107E-03 -2.43836655E-02
  4.55170385E-03 -1.33343451E-03  1.16918080E-03  9.09704654E-03 -8.20474366E-04
  1.17016305E-02  1.62691450E-03  3.18881061E-03  1.91017331E-03  3.24020814E-03
  4.09200117E-02 -4.40335225E-03 -3.22600299E-02 -1.07661472E-02  6.09579246E-02
 -6.36873804E-03 -4.71877657E-02 -1.18063119E-02  5.99263498E-02 -6.68201145E-03
 -4.34898734E-02 -5.56690800E-04  1.58048632E-02  3.85340512E-03 -1.09110606E-02