Title Card Required                                                     
FOpt      UM062X                                                      6-311+G(d,p)        
Number of atoms                            I                6
Info1-9                                    I   N=           9
          15          15           0           0           0         110
           2          18        -502
Full Title                                 C   N=           2
Title Card Required     
Route                                      C   N=           4
#p opt UM062X/6-311+G** nosymm int=superfine    
Charge                                     I                1
Multiplicity                               I                2
Number of electrons                        I               15
Number of alpha electrons                  I                8
Number of beta electrons                   I                7
Number of basis functions                  I               68
Number of independent functions            I               68
Number of point charges in /Mol/           I                0
Number of translation vectors              I                0
Atomic numbers                             I   N=           6
           6           6           1           1           1           1
Nuclear charges                            R   N=           6
  6.00000000E+00  6.00000000E+00  1.00000000E+00  1.00000000E+00  1.00000000E+00
  1.00000000E+00
Current cartesian coordinates              R   N=          18
 -2.12397332E+00  0.00000000E+00  0.00000000E+00  2.12397332E+00  0.00000000E+00
  0.00000000E+00 -2.94584972E+00 -1.87871441E+00 -6.88985263E-08 -2.94566846E+00
  1.87861973E+00 -6.93644227E-08  2.94584986E+00  1.87871430E+00 -4.82568223E-08
  2.94566860E+00 -1.87861962E+00 -4.87041462E-08
Number of symbols in /Mol/                 I                0
Force Field                                I                0
Atom Types                                 C   N=           6
                                                            
            
Int Atom Types                             I   N=           6
           0           0           0           0           0           0
MM charges                                 R   N=           6
  0.00000000E+00  0.00000000E+00  0.00000000E+00  0.00000000E+00  0.00000000E+00
  0.00000000E+00
Integer atomic weights                     I   N=           6
          12          12           1           1           1           1
Real atomic weights                        R   N=           6
  1.20000000E+01  1.20000000E+01  1.00782504E+00  1.00782504E+00  1.00782504E+00
  1.00782504E+00
Atom fragment info                         I   N=           6
           0           0           0           0           0           0
Atom residue num                           I   N=           6
           0           0           0           0           0           0
Nuclear spins                              I   N=           6
           0           0           1           1           1           1
Nuclear ZEff                               R   N=           6
 -3.60000000E+00 -3.60000000E+00 -1.00000000E+00 -1.00000000E+00 -1.00000000E+00
 -1.00000000E+00
Nuclear ZNuc                               R   N=           6
  6.00000000E+00  6.00000000E+00  1.00000000E+00  1.00000000E+00  1.00000000E+00
  1.00000000E+00
Nuclear QMom                               R   N=           6
  0.00000000E+00  0.00000000E+00  0.00000000E+00  0.00000000E+00  0.00000000E+00
  0.00000000E+00
Nuclear GFac                               R   N=           6
  0.00000000E+00  0.00000000E+00  2.79284600E+00  2.79284600E+00  2.79284600E+00
  2.79284600E+00
MicOpt                                     I   N=           6
          -2          -2          -1          -1          -1          -1
Number of residues                         I                0
Number of secondary structures             I                0
Redundant internal dimensions              I   N=           4
          20          10           6           4
Redundant internal coordinate indices      I   N=          80
           1          -1           0           0           1          -2
           0           0           1          -3           0           0
           2          -1           0           0           2          -2
           0           0           2          -3           0           0
           1           3           0           0           1           4
           0           0           2           5           0           0
           2           6           0           0           2           1
           3           0           2           1           4           0
           3           1           4           0           1           2
           5           0           1           2           6           0
           5           2           6           0           3           1
           2           5           3           1           2           6
           4           1           2           5           4           1
           2           6
Redundant internal coordinates             R   N=          20
 -2.12397332E+00  0.00000000E+00  0.00000000E+00  2.12397332E+00  0.00000000E+00
  0.00000000E+00  2.05062153E+00  2.05046214E+00  2.05062148E+00  2.05046209E+00
  1.98317945E+00  1.98311696E+00  2.31688890E+00  1.98317953E+00  1.98311705E+00
  2.31688873E+00  3.14159259E+00 -1.49011612E-08  1.49011612E-08 -3.14159259E+00
ZRed-IntVec                                I   N=          20
          -1          -1          -1          -1          -1          -1
           0           0           0           0           0           0
           0           0           0           0           0           0
           0           0
ZRed-FPVec                                 R   N=          20
  0.00000000E+00  0.00000000E+00  0.00000000E+00  0.00000000E+00  0.00000000E+00
  0.00000000E+00  0.00000000E+00  0.00000000E+00  0.00000000E+00  0.00000000E+00
  0.00000000E+00  0.00000000E+00  0.00000000E+00  0.00000000E+00  0.00000000E+00
  0.00000000E+00  0.00000000E+00  0.00000000E+00  0.00000000E+00  0.00000000E+00
ZRed-Constraint1                           R   N=          20
 -2.12397332E+00  0.00000000E+00  0.00000000E+00  2.12397332E+00  0.00000000E+00
  0.00000000E+00  2.42755555E+00  2.42677793E+00  2.42755555E+00  2.42677793E+00
  2.32947615E+00  2.32418719E+00  1.62952197E+00  2.32947615E+00  2.32418719E+00
  1.62952197E+00  3.14159265E+00  0.00000000E+00  0.00000000E+00  3.14159265E+00
ZRed-Constraint2                           R   N=          20
 -2.12397332E+00  0.00000000E+00  0.00000000E+00  2.12397332E+00  0.00000000E+00
  0.00000000E+00  0.00000000E+00  0.00000000E+00  0.00000000E+00  0.00000000E+00
  0.00000000E+00  0.00000000E+00  0.00000000E+00  0.00000000E+00  0.00000000E+00
  0.00000000E+00  0.00000000E+00  0.00000000E+00  0.00000000E+00  0.00000000E+00
Number of contracted shells                I               28
Number of primitive shells                 I               50
Pure/Cartesian d shells                    I                0
Pure/Cartesian f shells                    I                0
Highest angular momentum                   I                2
Largest degree of contraction              I                6
Shell types                                I   N=          28
           0          -1          -1          -1          -1          -2
           0          -1          -1          -1          -1          -2
           0           0           0           1           0           0
           0           1           0           0           0           1
           0           0           0           1
Number of primitives per shell             I   N=          28
           6           3           1           1           1           1
           6           3           1           1           1           1
           3           1           1           1           3           1
           1           1           3           1           1           1
           3           1           1           1
Shell to atom map                          I   N=          28
           1           1           1           1           1           1
           2           2           2           2           2           2
           3           3           3           3           4           4
           4           4           5           5           5           5
           6           6           6           6
Primitive exponents                        R   N=          50
  4.56324000E+03  6.82024000E+02  1.54973000E+02  4.44553000E+01  1.30290000E+01
  1.82773000E+00  2.09642000E+01  4.80331000E+00  1.45933000E+00  4.83456000E-01
  1.45585000E-01  4.38000000E-02  6.26000000E-01  4.56324000E+03  6.82024000E+02
  1.54973000E+02  4.44553000E+01  1.30290000E+01  1.82773000E+00  2.09642000E+01
  4.80331000E+00  1.45933000E+00  4.83456000E-01  1.45585000E-01  4.38000000E-02
  6.26000000E-01  3.38650000E+01  5.09479000E+00  1.15879000E+00  3.25840000E-01
  1.02741000E-01  7.50000000E-01  3.38650000E+01  5.09479000E+00  1.15879000E+00
  3.25840000E-01  1.02741000E-01  7.50000000E-01  3.38650000E+01  5.09479000E+00
  1.15879000E+00  3.25840000E-01  1.02741000E-01  7.50000000E-01  3.38650000E+01
  5.09479000E+00  1.15879000E+00  3.25840000E-01  1.02741000E-01  7.50000000E-01
Contraction coefficients                   R   N=          50
  1.96665025E-03  1.52306019E-02  7.61269097E-02  2.60801033E-01  6.16462078E-01
  2.21006028E-01  1.14660081E-01  9.19999648E-01 -3.03068213E-03  1.00000000E+00
  1.00000000E+00  1.00000000E+00  1.00000000E+00  1.96665025E-03  1.52306019E-02
  7.61269097E-02  2.60801033E-01  6.16462078E-01  2.21006028E-01  1.14660081E-01
  9.19999648E-01 -3.03068213E-03  1.00000000E+00  1.00000000E+00  1.00000000E+00
  1.00000000E+00  2.54938145E-02  1.90373109E-01  8.52161486E-01  1.00000000E+00
  1.00000000E+00  1.00000000E+00  2.54938145E-02  1.90373109E-01  8.52161486E-01
  1.00000000E+00  1.00000000E+00  1.00000000E+00  2.54938145E-02  1.90373109E-01
  8.52161486E-01  1.00000000E+00  1.00000000E+00  1.00000000E+00  2.54938145E-02
  1.90373109E-01  8.52161486E-01  1.00000000E+00  1.00000000E+00  1.00000000E+00
P(S=P) Contraction coefficients            R   N=          50
  0.00000000E+00  0.00000000E+00  0.00000000E+00  0.00000000E+00  0.00000000E+00
  0.00000000E+00  4.02486927E-02  2.37593957E-01  8.15853851E-01  1.00000000E+00
  1.00000000E+00  1.00000000E+00  0.00000000E+00  0.00000000E+00  0.00000000E+00
  0.00000000E+00  0.00000000E+00  0.00000000E+00  0.00000000E+00  4.02486927E-02
  2.37593957E-01  8.15853851E-01  1.00000000E+00  1.00000000E+00  1.00000000E+00
  0.00000000E+00  0.00000000E+00  0.00000000E+00  0.00000000E+00  0.00000000E+00
  0.00000000E+00  0.00000000E+00  0.00000000E+00  0.00000000E+00  0.00000000E+00
  0.00000000E+00  0.00000000E+00  0.00000000E+00  0.00000000E+00  0.00000000E+00
  0.00000000E+00  0.00000000E+00  0.00000000E+00  0.00000000E+00  0.00000000E+00
  0.00000000E+00  0.00000000E+00  0.00000000E+00  0.00000000E+00  0.00000000E+00
Coordinates of each shell                  R   N=          84
 -2.12397332E+00  0.00000000E+00  0.00000000E+00 -2.12397332E+00  0.00000000E+00
  0.00000000E+00 -2.12397332E+00  0.00000000E+00  0.00000000E+00 -2.12397332E+00
  0.00000000E+00  0.00000000E+00 -2.12397332E+00  0.00000000E+00  0.00000000E+00
 -2.12397332E+00  0.00000000E+00  0.00000000E+00  2.12397332E+00  0.00000000E+00
  0.00000000E+00  2.12397332E+00  0.00000000E+00  0.00000000E+00  2.12397332E+00
  0.00000000E+00  0.00000000E+00  2.12397332E+00  0.00000000E+00  0.00000000E+00
  2.12397332E+00  0.00000000E+00  0.00000000E+00  2.12397332E+00  0.00000000E+00
  0.00000000E+00 -2.94584972E+00 -1.87871441E+00 -6.88985263E-08 -2.94584972E+00
 -1.87871441E+00 -6.88985263E-08 -2.94584972E+00 -1.87871441E+00 -6.88985263E-08
 -2.94584972E+00 -1.87871441E+00 -6.88985263E-08 -2.94566846E+00  1.87861973E+00
 -6.93644227E-08 -2.94566846E+00  1.87861973E+00 -6.93644227E-08 -2.94566846E+00
  1.87861973E+00 -6.93644227E-08 -2.94566846E+00  1.87861973E+00 -6.93644227E-08
  2.94584986E+00  1.87871430E+00 -4.82568223E-08  2.94584986E+00  1.87871430E+00
 -4.82568223E-08  2.94584986E+00  1.87871430E+00 -4.82568223E-08  2.94584986E+00
  1.87871430E+00 -4.82568223E-08  2.94566860E+00 -1.87861962E+00 -4.87041462E-08
  2.94566860E+00 -1.87861962E+00 -4.87041462E-08  2.94566860E+00 -1.87861962E+00
 -4.87041462E-08  2.94566860E+00 -1.87861962E+00 -4.87041462E-08
Num ILSW                                   I              100
ILSW                                       I   N=         100
           1           0           0           1           2           0
           0           0           0           0        4336          -1
           7           0           0           0           2           0
           0           0           0           0           1           0
           1           1           0           0           0           0
           0           0      100000           0          -1           0
           0           0           0           0           0           0
           0           0           0           1           0           0
           0 -2000000000           1           0           0           0
           0           0           4          52           0           0
           0           0          55           0           0           0
           0           0           0           6           0           1
           0           0           0           0           0           0
           0           0           0           0           0           0
           0           0           0           0           0           0
           0           0           0           0           0           0
           0           0           0           0
Num RLSW                                   I               52
RLSW                                       R   N=          52
  1.00000000E+00  1.00000000E+00  1.00000000E+00  1.00000000E+00  5.40000000E-01
  0.00000000E+00  0.00000000E+00  1.00000000E+00  0.00000000E+00  0.00000000E+00
  0.00000000E+00  0.00000000E+00  1.00000000E+00  0.00000000E+00  0.00000000E+00
  0.00000000E+00  0.00000000E+00  1.00000000E+00  0.00000000E+00  0.00000000E+00
  0.00000000E+00  0.00000000E+00  1.00000000E+00  0.00000000E+00  0.00000000E+00
  0.00000000E+00  0.00000000E+00  1.00000000E+00  0.00000000E+00  0.00000000E+00
  0.00000000E+00  0.00000000E+00  1.00000000E+00  0.00000000E+00  0.00000000E+00
  0.00000000E+00  0.00000000E+00  0.00000000E+00  1.00000000E+00  1.00000000E+00
  0.00000000E+00  1.00000000E+00  0.00000000E+00  0.00000000E+00  0.00000000E+00
  0.00000000E+00  0.00000000E+00  0.00000000E+00  0.00000000E+00  0.00000000E+00
  0.00000000E+00  0.00000000E+00
MxBond                                     I                3
NBond                                      I   N=           6
           3           3           1           1           1           1
IBond                                      I   N=          18
           2           3           4           1           5           6
           1           0           0           1           0           0
           2           0           0           2           0           0
RBond                                      R   N=          18
  1.00000000E-01  1.00000000E+00  1.00000000E+00  1.00000000E-01  1.00000000E+00
  1.00000000E+00  1.00000000E+00  0.00000000E+00  0.00000000E+00  1.00000000E+00
  0.00000000E+00  0.00000000E+00  1.00000000E+00  0.00000000E+00  0.00000000E+00
  1.00000000E+00  0.00000000E+00  0.00000000E+00
Virial Ratio                               R      2.010043254969880E+00
SCF Energy                                 R     -7.801181851058185E+01
Total Energy                               R     -7.801181851058185E+01
S**2                                       R      7.521617309713156E-01
S**2 after annihilation                    R      7.500035697729418E-01
RMS Force                                  R      1.406983633716276E-05
RMS Density                                R      3.994140307886759E-09
Job Status                                 I                1
Nuclear derivative order                   I                1
External E-field                           R   N=          35
  0.00000000E+00  0.00000000E+00  0.00000000E+00  0.00000000E+00  0.00000000E+00
  0.00000000E+00  0.00000000E+00  0.00000000E+00  0.00000000E+00  0.00000000E+00
  0.00000000E+00  0.00000000E+00  0.00000000E+00  0.00000000E+00  0.00000000E+00
  0.00000000E+00  0.00000000E+00  0.00000000E+00  0.00000000E+00  0.00000000E+00
  0.00000000E+00  0.00000000E+00  0.00000000E+00  0.00000000E+00  0.00000000E+00
  0.00000000E+00  0.00000000E+00  0.00000000E+00  0.00000000E+00  0.00000000E+00
  0.00000000E+00  0.00000000E+00  0.00000000E+00  0.00000000E+00  0.00000000E+00
IOpCl                                      I                1
IROHF                                      I                0
Alpha Orbital Energies                     R   N=          68
 -1.09238239E+01 -1.09237170E+01 -1.05058745E+00 -1.00517490E+00 -8.01988951E-01
 -7.81628648E-01 -6.36569134E-01 -5.43461675E-01 -3.77023831E-01 -2.89353511E-01
 -1.38838720E-01 -1.09129563E-01 -1.03705776E-01 -8.13377276E-02 -7.53774360E-02
 -7.00044614E-02 -4.73908781E-02 -3.83324059E-02 -3.43910508E-02  1.37220070E-03
  1.88705754E-02  9.24011674E-02  1.79595189E-01  2.25072513E-01  2.40751355E-01
  3.20762351E-01  3.81091488E-01  4.06092110E-01  4.12885075E-01  4.31315393E-01
  4.56440019E-01  4.88783994E-01  5.26086224E-01  5.59474714E-01  8.02614674E-01
  8.11947243E-01  8.83984648E-01  9.12804566E-01  1.11873200E+00  1.13111084E+00
  1.13486146E+00  1.24965830E+00  1.26065228E+00  1.46081736E+00  1.46936902E+00
  1.48099331E+00  1.50607252E+00  1.59190487E+00  1.65882515E+00  1.73676478E+00
  1.75357387E+00  1.77963145E+00  2.12352290E+00  2.26264530E+00  2.26322275E+00
  2.33632611E+00  2.37940538E+00  2.40083865E+00  2.40562457E+00  2.40845488E+00
  2.45486178E+00  2.46546417E+00  2.54253650E+00  2.87354732E+00  3.40530738E+00
  3.43817167E+00  2.34968987E+01  2.35117435E+01
Beta Orbital Energies                      R   N=          68
 -1.09213806E+01 -1.09213153E+01 -1.02119802E+00 -9.82071776E-01 -7.97342953E-01
 -7.78018410E-01 -6.19873716E-01 -3.41524175E-01 -2.85684308E-01 -2.67055092E-01
 -1.50812263E-01 -1.11781524E-01 -1.05206306E-01 -7.50854701E-02 -7.38142403E-02
 -7.27041257E-02 -3.99927734E-02 -3.81030711E-02 -2.92753538E-02  6.55943615E-03
  9.26208779E-03  1.01087187E-01  1.80302558E-01  2.28072796E-01  2.45518378E-01
  3.35853754E-01  3.70333881E-01  4.15367473E-01  4.19066814E-01  4.24069474E-01
  4.72306557E-01  5.00879438E-01  5.31799530E-01  5.61815232E-01  8.33588107E-01
  8.40673252E-01  9.21254250E-01  9.41975420E-01  1.14053364E+00  1.14142386E+00
  1.15161324E+00  1.28321865E+00  1.28490889E+00  1.48386428E+00  1.49570731E+00
  1.49695839E+00  1.51837814E+00  1.60312201E+00  1.67113563E+00  1.74783550E+00
  1.76996391E+00  1.79540490E+00  2.15996961E+00  2.28259909E+00  2.29553242E+00
  2.35052653E+00  2.39785854E+00  2.41608874E+00  2.44158779E+00  2.45309399E+00
  2.49796299E+00  2.50652598E+00  2.56642656E+00  2.90703538E+00  3.44924095E+00
  3.48260877E+00  2.35093056E+01  2.35244522E+01
Alpha MO coefficients                      R   N=        4624
  3.98966236E-01  3.28050488E-01  5.41286562E-04 -6.44301580E-08  5.59160761E-11
  7.80727820E-03 -1.33989146E-03  9.42370328E-07 -1.40000455E-10 -1.87558216E-03
  1.31501273E-04  8.29759891E-08  1.83779281E-11 -5.33845015E-04  2.81816883E-04
 -2.52361260E-07  1.80606844E-11 -8.62999205E-04  3.56952352E-11 -3.46426609E-13
 -9.93630836E-04 -2.20217606E-07  3.99077820E-01  3.28142237E-01 -5.41453480E-04
  6.44469942E-08  4.94337234E-11  7.80952056E-03  1.34034007E-03 -9.42622780E-07
 -1.01183166E-10 -1.87640747E-03 -1.31424059E-04 -8.29417506E-08  1.51878896E-11
 -5.33709205E-04 -2.82036058E-04  2.52400478E-07  8.40932890E-12 -8.63211069E-04
 -2.87601494E-11  3.23966381E-13 -9.93959284E-04 -2.20277758E-07  1.29122694E-04
 -2.25847381E-03  1.45223404E-03 -6.47661461E-04 -1.29305992E-03 -5.26539866E-11
  1.28948429E-04 -2.25996568E-03  1.45309438E-03 -6.47858626E-04  1.29372386E-03
 -5.29987101E-11  1.29148066E-04 -2.25907401E-03  1.45268286E-03  6.47828271E-04
  1.29342588E-03 -3.60797499E-11  1.28973742E-04 -2.26056622E-03  1.45354344E-03
  6.48025480E-04 -1.29409000E-03 -3.64041670E-11  3.99090963E-01  3.28147857E-01
  5.98669281E-04 -6.08318930E-08  5.63876867E-11  8.01870662E-03 -1.60425438E-03
  9.19056544E-07 -1.39961791E-10 -2.94925548E-03 -2.75049676E-04 -1.23856136E-07
  2.64243336E-11  4.84859311E-04  7.82963418E-04 -1.42876843E-07  3.17160404E-11
 -7.58446452E-04  3.64882071E-11 -3.28803150E-13 -1.17523642E-03 -2.21246650E-07
 -3.98979382E-01 -3.28056109E-01  5.98517415E-04 -6.08136858E-08 -4.99825855E-11
 -8.01652339E-03 -1.60387969E-03  9.18788353E-07  9.98233951E-11  2.94873119E-03
 -2.75086496E-04 -1.23879612E-07 -1.87171896E-11 -4.85008450E-04  7.82884721E-04
 -1.42804762E-07 -2.63319143E-11  7.58204962E-04  2.87880763E-11 -3.06472098E-13
  1.17495836E-03  2.21183266E-07  9.05827815E-05 -2.14651432E-03  1.60465395E-03
 -5.96398463E-04 -1.30907057E-03 -5.36690444E-11  9.03666351E-05 -2.14774400E-03
  1.60555807E-03 -5.96558516E-04  1.30971604E-03 -5.40146529E-11 -9.05467231E-05
  2.14588282E-03 -1.60424798E-03 -5.96217427E-04 -1.30870889E-03  3.67128128E-11
 -9.03306264E-05  2.14711208E-03 -1.60515185E-03 -5.96377423E-04  1.30935418E-03
  3.70394851E-11 -8.04968022E-02 -1.31062291E-01 -1.21197543E-02  1.05661070E-05
 -1.65586015E-09  3.64283737E-01 -1.33972710E-02  1.16030847E-05 -2.13579762E-09
  2.46678912E-01  3.26903103E-03  4.21459736E-06 -1.10038359E-09  7.27257903E-04
 -4.77701298E-03  7.65921503E-07 -2.01401640E-10 -4.85777501E-03  6.33738390E-11
 -1.50713112E-12 -2.93699522E-03 -4.21412344E-07 -8.04968411E-02 -1.31062353E-01
  1.21197843E-02 -1.05660626E-05 -1.26823600E-09  3.64283911E-01  1.33973127E-02
 -1.16030356E-05 -1.51456116E-09  2.46679017E-01 -3.26901537E-03 -4.21458019E-06
 -8.96190638E-10  7.27244113E-04  4.77702109E-03 -7.65919559E-07 -6.30987657E-11
 -4.85776996E-03 -1.31749556E-10  1.43413735E-12 -2.93699881E-03 -4.21407446E-07
  7.06112124E-02  7.84474409E-02 -6.58482065E-03  4.44559980E-03  1.18566134E-02
  3.41800169E-10  7.06284453E-02  7.84620406E-02 -6.58769618E-03  4.44583411E-03
 -1.18587559E-02  3.44851263E-10  7.06112553E-02  7.84474950E-02 -6.58482530E-03
 -4.44560388E-03 -1.18566222E-02  2.46176433E-10  7.06284881E-02  7.84620946E-02
 -6.58770080E-03 -4.44583818E-03  1.18587647E-02  2.49079279E-10 -7.92392280E-02
 -1.29395787E-01 -4.11909742E-02  1.40973921E-05 -2.05388019E-09  3.63984374E-01
 -6.22591530E-02  1.67832027E-05 -2.83852528E-09  2.50283106E-01 -1.79947084E-02
  6.68523171E-06 -1.20720334E-09 -2.16413515E-02 -1.09310948E-02  3.29978162E-07
 -2.82364096E-10 -4.11554592E-03  1.83317500E-10 -2.21193924E-12 -1.00772041E-02
 -5.19827919E-07  7.92391876E-02  1.29395719E-01 -4.11909845E-02  1.40973218E-05
  1.41340404E-09 -3.63984187E-01 -6.22591677E-02  1.67831214E-05  1.84257795E-09
 -2.50282965E-01 -1.79947195E-02  6.68520712E-06  8.28429666E-10  2.16413522E-02
 -1.09310939E-02  3.29973305E-07  2.33623924E-10  4.11553721E-03  2.17955425E-10
 -2.09386077E-12  1.00772012E-02  5.19819175E-07  7.99734760E-02  9.13576150E-02
 -3.24623468E-03  3.24830332E-03  1.25640892E-02  3.49018768E-10  7.99941692E-02
  9.13754982E-02 -3.24843343E-03  3.24854331E-03 -1.25663453E-02  3.52393684E-10
 -7.99734475E-02 -9.13575880E-02  3.24623254E-03  3.24830329E-03  1.25640865E-02
 -2.61727682E-10 -7.99941406E-02 -9.13754711E-02  3.24843127E-03  3.24854327E-03
 -1.25663426E-02 -2.64944909E-10  4.95617279E-06  8.38052537E-06  4.78332292E-06
  1.59961436E-01 -1.77413269E-11 -2.50449376E-05  8.79101734E-06  2.30232367E-01
 -2.51613737E-11 -2.94029610E-05  4.54190462E-06  1.34262467E-01 -1.39678865E-11
  6.00931920E-06  3.31587347E-06  3.50186703E-03 -1.17533927E-12 -2.79805888E-07
  1.82620431E-12 -1.14203701E-09 -1.06384372E-06 -1.17970247E-02 -4.95615581E-06
 -8.38049631E-06  4.78338122E-06  1.59961556E-01  1.67906279E-11  2.50448515E-05
  8.79109684E-06  2.30232537E-01  2.38480476E-11  2.94028476E-05  4.54195437E-06
  1.34262566E-01  1.32095496E-11 -6.00932065E-06  3.31587257E-06  3.50187249E-03
  1.18381491E-12  2.79805333E-07  1.76692113E-12 -7.87819562E-10  1.06384188E-06
  1.17970448E-02 -1.04681652E-01 -1.36984984E-01 -9.57780840E-03 -7.66140463E-03
 -1.06470191E-02 -5.86064658E-10  1.04676525E-01  1.36969829E-01  9.57528473E-03
  7.66031701E-03 -1.06452457E-02  5.88970159E-10  1.04681734E-01  1.36985094E-01
  9.57781880E-03 -7.66141217E-03 -1.06470262E-02  4.09770840E-10 -1.04676606E-01
 -1.36969939E-01 -9.57529513E-03  7.66032454E-03 -1.06452528E-02 -4.12576832E-10
  3.75346767E-06  6.43446824E-06 -1.90956983E-07  1.63451221E-01 -2.20158760E-11
 -1.95482956E-05  9.15295947E-07  2.32641909E-01 -3.17673538E-11 -2.70431014E-05
  5.56825096E-07  1.38539950E-01 -1.90899941E-11 -1.21789683E-06  1.09740131E-06
  1.13890712E-02 -2.51818572E-13 -3.41915353E-07  1.35859997E-12 -1.12654542E-09
 -1.65521145E-06 -1.71531785E-02  3.75343817E-06  6.43441811E-06  1.90949073E-07
 -1.63451103E-01 -2.09771283E-11 -1.95481455E-05 -9.15292931E-07 -2.32641739E-01
 -3.03452363E-11 -2.70429155E-05 -5.56830388E-07 -1.38539840E-01 -1.82578104E-11
 -1.21790854E-06 -1.09739252E-06 -1.13890653E-02 -2.18941198E-13 -3.41914478E-07
 -1.26530537E-12  7.50086151E-10 -1.65521516E-06 -1.71531778E-02 -1.08757633E-01
 -1.46669512E-01 -9.91010935E-03 -8.04668558E-03 -1.11030249E-02 -6.02602731E-10
  1.08757740E-01  1.46661309E-01  9.90988065E-03  8.04553775E-03 -1.11022859E-02
  6.05262263E-10 -1.08757558E-01 -1.46669417E-01 -9.91010944E-03  8.04668186E-03
  1.11030160E-02 -4.20686541E-10  1.08757665E-01  1.46661215E-01  9.90988076E-03
 -8.04553403E-03  1.11022770E-02  4.23241714E-10 -1.04231849E-02 -1.72472288E-02
  1.76742090E-01 -3.94830237E-06  6.78930421E-09  4.15831162E-02  2.82261688E-01
 -3.62033952E-06  1.03575970E-08  1.13325138E-01  2.17731489E-01  1.59597144E-06
  7.61997571E-09  3.28878605E-03 -4.40206891E-03  1.83875299E-06  1.64128601E-10
  3.81332750E-04 -3.00341706E-10  1.86093558E-12  1.56255952E-02  1.29593878E-07
 -1.04231937E-02 -1.72472430E-02 -1.76742090E-01  3.94834334E-06  4.27728791E-09
  4.15831547E-02 -2.82261683E-01  3.62041392E-06  6.84412647E-09  1.13325194E-01
 -2.17731504E-01 -1.59590796E-06  4.66440100E-09  3.28878834E-03  4.40206747E-03
 -1.83875042E-06  8.32708064E-11  3.81337591E-04  4.88244001E-11 -1.76718778E-12
  1.56255899E-02  1.29590864E-07 -5.14975032E-02 -8.38974390E-02 -2.25849015E-02
  6.70715309E-03 -7.96362161E-03  1.24185305E-10 -5.14947043E-02 -8.38932922E-02
 -2.25867690E-02  6.70838685E-03  7.96329319E-03  1.22139455E-10 -5.14975035E-02
 -8.38974384E-02 -2.25849005E-02 -6.70715229E-03  7.96362204E-03  4.37333678E-11
 -5.14947047E-02 -8.38932917E-02 -2.25867680E-02 -6.70838605E-03 -7.96329362E-03
  4.17631800E-11 -1.61848737E-09 -2.78574387E-09 -6.06494768E-09  2.68803547E-11
  1.90213526E-01  9.37172025E-09 -9.91882824E-09  4.23418235E-11  3.03338923E-01
  8.89948443E-09 -8.40095152E-09  2.67462534E-11  2.99976879E-01 -1.79217511E-09
 -9.68555416E-10 -6.33321125E-12  1.27413812E-02  3.47974896E-10  7.25013781E-03
  8.61835402E-07  1.05704263E-10 -1.02989966E-12 -6.91914544E-10 -1.19393630E-09
  7.36642033E-09 -2.59079389E-11  1.90213422E-01  4.28335436E-09  1.14185405E-08
 -4.06528382E-11  3.03338774E-01  2.75379645E-09  1.04165971E-08 -2.50419888E-11
  2.99976731E-01  2.62906231E-10  2.51457601E-10  6.53314587E-12  1.27413777E-02
  1.89499101E-10 -7.25013789E-03 -8.61831516E-07  1.28852174E-10 -1.02682844E-12
 -1.75872906E-09 -1.88808677E-09 -6.69347624E-11 -5.73167663E-10 -1.49557682E-10
  1.28932772E-02 -1.75362143E-09 -1.87121635E-09 -4.37248686E-11 -5.72716326E-10
  1.51846983E-10  1.28943774E-02 -6.04364030E-10 -6.53923367E-11  1.35463233E-10
  5.45363207E-10 -7.26004229E-11  1.28932688E-02 -5.99342066E-10 -4.87043727E-11
  1.58786609E-10  5.44907850E-10  7.05199178E-11  1.28943690E-02 -2.77618773E-09
 -4.73952040E-09  6.98626401E-10  2.26618217E-11  2.06367226E-01  1.49166554E-08
  2.83920383E-10  3.59924744E-11  3.26252110E-01  2.23714427E-08 -3.27065765E-10
  4.38621322E-11  3.40191739E-01 -3.60394179E-09 -1.79356397E-09  8.70024012E-12
  4.56092641E-02  6.35018023E-10 -1.23978738E-02  8.60960079E-07  2.10354848E-10
  4.00373511E-14  2.35619877E-09  3.99094641E-09  3.20677233E-09  2.14970491E-11
 -2.06367300E-01 -1.23302784E-08  4.79253401E-09  3.39266332E-11 -3.26252248E-01
 -1.89930757E-08  3.88526199E-09  4.22791827E-11 -3.40191875E-01  3.86729248E-09
 -1.29696848E-09  9.02350939E-12 -4.56092814E-02 -5.79951161E-10 -1.23978758E-02
  8.60957279E-07 -2.00820332E-10 -1.76640272E-13 -4.12458351E-09 -7.31295787E-09
 -3.35591715E-09 -1.71498745E-10 -6.16003659E-10  1.66172368E-02 -4.13076760E-09
 -7.32304599E-09 -3.37437463E-09 -1.71314534E-10  6.20891761E-10  1.66182009E-02
  3.51043553E-09  6.19881984E-09  2.83318124E-09  5.10667170E-11 -4.92291027E-10
 -1.66172420E-02  3.51671048E-09  6.20896126E-09  2.85310652E-09  5.12778999E-11
  4.96896278E-10 -1.66182061E-02 -4.34598002E-02 -7.32933228E-02  2.02817951E-01
 -8.19771655E-06 -5.02376769E-09  2.19696530E-01  3.03347060E-01 -9.46494254E-06
 -8.77194914E-09  4.33390945E-01  4.11595378E-01 -1.73595628E-05 -1.16353848E-08
  2.83456795E-01  1.77905564E-01 -4.31042913E-06 -1.15704951E-09  1.42102771E-02
 -1.51791999E-10  3.05208264E-13 -1.69109012E-02 -6.09979147E-07  4.34598047E-02
  7.32933294E-02  2.02817935E-01 -8.19772042E-06  3.69612831E-09 -2.19696549E-01
  3.03347031E-01 -9.46496951E-06  6.03566971E-09 -4.33390981E-01  4.11595359E-01