 Entering Gaussian System, Link 0=g16
 Initial command:
 /home/szhao/Apps/g16/l1.exe "/home/szhao/tmp/Gau-124512.inp" -scrdir="/home/szhao/tmp/"
 Default is to use a total of  16 processors:
                               16 via shared-memory
                                1 via Linda
 Entering Link 1 = /home/szhao/Apps/g16/l1.exe PID=    124514.
  
 Copyright (c) 1988,1990,1992,1993,1995,1998,2003,2009,2016,
            Gaussian, Inc.  All Rights Reserved.
  
 This is part of the Gaussian(R) 16 program.  It is based on
 the Gaussian(R) 09 system (copyright 2009, Gaussian, Inc.),
 the Gaussian(R) 03 system (copyright 2003, Gaussian, Inc.),
 the Gaussian(R) 98 system (copyright 1998, Gaussian, Inc.),
 the Gaussian(R) 94 system (copyright 1995, Gaussian, Inc.),
 the Gaussian 92(TM) system (copyright 1992, Gaussian, Inc.),
 the Gaussian 90(TM) system (copyright 1990, Gaussian, Inc.),
 the Gaussian 88(TM) system (copyright 1988, Gaussian, Inc.),
 the Gaussian 86(TM) system (copyright 1986, Carnegie Mellon
 University), and the Gaussian 82(TM) system (copyright 1983,
 Carnegie Mellon University). Gaussian is a federally registered
 trademark of Gaussian, Inc.
  
 This software contains proprietary and confidential information,
 including trade secrets, belonging to Gaussian, Inc.
  
 This software is provided under written license and may be
 used, copied, transmitted, or stored only in accord with that
 written license.
  
 The following legend is applicable only to US Government
 contracts under FAR:
  
                    RESTRICTED RIGHTS LEGEND
  
 Use, reproduction and disclosure by the US Government is
 subject to restrictions as set forth in subparagraphs (a)
 and (c) of the Commercial Computer Software - Restricted
 Rights clause in FAR 52.227-19.
  
 Gaussian, Inc.
 340 Quinnipiac St., Bldg. 40, Wallingford CT 06492
  
  
 ---------------------------------------------------------------
 Warning -- This program may not be used in any manner that
 competes with the business of Gaussian, Inc. or will provide
 assistance to any competitor of Gaussian, Inc.  The licensee
 of this program is prohibited from giving any competitor of
 Gaussian, Inc. access to this program.  By using this program,
 the user acknowledges that Gaussian, Inc. is engaged in the
 business of creating and licensing software in the field of
 computational chemistry and represents and warrants to the
 licensee that it is not a competitor of Gaussian, Inc. and that
 it will not use this program in any manner prohibited above.
 ---------------------------------------------------------------
  

 Cite this work as:
 Gaussian 16, Revision A.03,
 M. J. Frisch, G. W. Trucks, H. B. Schlegel, G. E. Scuseria, 
 M. A. Robb, J. R. Cheeseman, G. Scalmani, V. Barone, 
 G. A. Petersson, H. Nakatsuji, X. Li, M. Caricato, A. V. Marenich, 
 J. Bloino, B. G. Janesko, R. Gomperts, B. Mennucci, H. P. Hratchian, 
 J. V. Ortiz, A. F. Izmaylov, J. L. Sonnenberg, D. Williams-Young, 
 F. Ding, F. Lipparini, F. Egidi, J. Goings, B. Peng, A. Petrone, 
 T. Henderson, D. Ranasinghe, V. G. Zakrzewski, J. Gao, N. Rega, 
 G. Zheng, W. Liang, M. Hada, M. Ehara, K. Toyota, R. Fukuda, 
 J. Hasegawa, M. Ishida, T. Nakajima, Y. Honda, O. Kitao, H. Nakai, 
 T. Vreven, K. Throssell, J. A. Montgomery, Jr., J. E. Peralta, 
 F. Ogliaro, M. J. Bearpark, J. J. Heyd, E. N. Brothers, K. N. Kudin, 
 V. N. Staroverov, T. A. Keith, R. Kobayashi, J. Normand, 
 K. Raghavachari, A. P. Rendell, J. C. Burant, S. S. Iyengar, 
 J. Tomasi, M. Cossi, J. M. Millam, M. Klene, C. Adamo, R. Cammi, 
 J. W. Ochterski, R. L. Martin, K. Morokuma, O. Farkas, 
 J. B. Foresman, and D. J. Fox, Gaussian, Inc., Wallingford CT, 2016.
 
 ******************************************
 Gaussian 16:  ES64L-G16RevA.03 25-Dec-2016
                21-Apr-2025 
 ******************************************
 %chk=opt.chk
 %mem=4GB
 %nprocshared=8
 Will use up to    8 processors via shared memory.
 --------------------------------------------
 #p opt UM062X/6-311+G** nosymm int=superfine
 --------------------------------------------
 1/18=20,19=15,26=5,38=1/1,3;
 2/9=110,12=2,15=1,17=6,18=5,40=1/2;
 3/5=4,6=6,7=111,11=2,25=1,30=1,71=1,74=-55,75=-7,116=2/1,2,3;
 4//1;
 5/5=2,38=5/2;
 6/7=2,8=2,9=2,10=2,28=1/1;
 7/30=1/1,2,3,16;
 1/18=20,19=15,26=5/3(2);
 2/9=110,15=1/2;
 99//99;
 2/9=110,15=1/2;
 3/5=4,6=6,7=111,11=2,25=1,30=1,71=1,74=-55,75=-7,116=2/1,2,3;
 4/5=5,16=3,69=1/1;
 5/5=2,38=5/2;
 7/30=1/1,2,3,16;
 1/18=20,19=15,26=5/3(-5);
 2/9=110,15=1/2;
 6/7=2,8=2,9=2,10=2,19=2,28=1/1;
 99/9=1/99;
 Leave Link    1 at Mon Apr 21 20:16:45 2025, MaxMem=   536870912 cpu:               5.1 elap:               0.7
 (Enter /home/szhao/Apps/g16/l101.exe)
 -------------------
 Title Card Required
 -------------------
 Symbolic Z-matrix:
 Charge =  1 Multiplicity = 2
 Si                   -1   -2.4163    0.        0. 
 Si                   -1    2.4163    0.        0. 
 H                    0    -3.14477  -1.27361   0. 
 H                    0     3.14477   1.27361   0.0012 
 H                    0    -3.14479   1.2736   -0.0001 
 H                    0     3.14479  -1.2736   -0.0013 
 
 Add virtual bond connecting atoms Si2        and Si1        Dist= 9.13D+00.
 ITRead=  2  2  0  0  0  0
 MicOpt= -2 -2 -1 -1 -1 -1
 NAtoms=      6 NQM=        4 NQMF=       2 NMMI=      0 NMMIF=      0
                NMic=       0 NMicF=      0.
                    Isotopes and Nuclear Properties:
 (Nuclear quadrupole moments (NQMom) in fm**2, nuclear magnetic moments (NMagM)
  in nuclear magnetons)

  Atom         1           2           3           4           5           6
 IAtWgt=          28          28           1           1           1           1
 AtmWgt=  27.9769284  27.9769284   1.0078250   1.0078250   1.0078250   1.0078250
 NucSpn=           0           0           1           1           1           1
 AtZEff=  -0.0000000  -0.0000000  -0.0000000  -0.0000000  -0.0000000  -0.0000000
 NQMom=    0.0000000   0.0000000   0.0000000   0.0000000   0.0000000   0.0000000
 NMagM=    0.0000000   0.0000000   2.7928460   2.7928460   2.7928460   2.7928460
 AtZNuc=  14.0000000  14.0000000   1.0000000   1.0000000   1.0000000   1.0000000
 Leave Link  101 at Mon Apr 21 20:16:46 2025, MaxMem=   536870912 cpu:               3.2 elap:               0.5
 (Enter /home/szhao/Apps/g16/l103.exe)

 GradGradGradGradGradGradGradGradGradGradGradGradGradGradGradGradGradGrad
 Berny optimization.
 Initialization pass.
                           ----------------------------
                           !    Initial Parameters    !
                           ! (Angstroms and Degrees)  !
 --------------------------                            --------------------------
 ! Name  Definition              Value          Derivative Info.                !
 --------------------------------------------------------------------------------
 ! X1    R(1,-1)                -2.4163         Frozen                          !
 ! Y1    R(1,-2)                 0.0            Frozen                          !
 ! Z1    R(1,-3)                 0.0            Frozen                          !
 ! X2    R(2,-1)                 2.4163         Frozen                          !
 ! Y2    R(2,-2)                 0.0            Frozen                          !
 ! Z2    R(2,-3)                 0.0            Frozen                          !
 ! R1    R(1,3)                  1.4672         estimate D2E/DX2                !
 ! R2    R(1,5)                  1.4672         estimate D2E/DX2                !
 ! R3    R(2,4)                  1.4672         estimate D2E/DX2                !
 ! R4    R(2,6)                  1.4672         estimate D2E/DX2                !
 ! A1    A(2,1,3)              119.7685         estimate D2E/DX2                !
 ! A2    A(2,1,5)              119.7693         estimate D2E/DX2                !
 ! A3    A(3,1,5)              120.4622         estimate D2E/DX2                !
 ! A4    A(1,2,4)              119.7685         estimate D2E/DX2                !
 ! A5    A(1,2,6)              119.7693         estimate D2E/DX2                !
 ! A6    A(4,2,6)              120.4622         estimate D2E/DX2                !
 ! D1    D(3,1,2,4)           -179.946          estimate D2E/DX2                !
 ! D2    D(3,1,2,6)              0.0583         estimate D2E/DX2                !
 ! D3    D(5,1,2,4)              0.0583         estimate D2E/DX2                !
 ! D4    D(5,1,2,6)           -179.9375         estimate D2E/DX2                !
 --------------------------------------------------------------------------------
 Trust Radius=3.00D-01 FncErr=1.00D-07 GrdErr=1.00D-07 EigMax=2.50D+02 EigMin=1.00D-04
 Number of steps in this run=     30 maximum allowed number of steps=    100.
 GradGradGradGradGradGradGradGradGradGradGradGradGradGradGradGradGradGrad

 Leave Link  103 at Mon Apr 21 20:16:46 2025, MaxMem=   536870912 cpu:               0.6 elap:               0.2
 (Enter /home/szhao/Apps/g16/l202.exe)
                          Input orientation:                          
 ---------------------------------------------------------------------
 Center     Atomic      Atomic             Coordinates (Angstroms)
 Number     Number       Type             X           Y           Z
 ---------------------------------------------------------------------
      1         14           0       -2.416295    0.000000    0.000000
      2         14           0        2.416295    0.000000    0.000000
      3          1           0       -3.144766   -1.273606    0.000000
      4          1           0        3.144766    1.273606    0.001200
      5          1           0       -3.144788    1.273601   -0.000095
      6          1           0        3.144788   -1.273601   -0.001295
 ---------------------------------------------------------------------
                    Distance matrix (angstroms):
                    1          2          3          4          5
     1  Si   0.000000
     2  Si   4.832590   0.000000
     3  H    1.467223   5.705040   0.000000
     4  H    5.705040   1.467223   6.785758   0.000000
     5  H    1.467229   5.705059   2.547207   6.289554   0.000000
     6  H    5.705059   1.467230   6.289554   2.547208   6.785794
                    6
     6  H    0.000000
 Symmetry turned off by external request.
 Stoichiometry    H4Si2(1+,2)
 Framework group  C2[X(H4Si2)]
 Deg. of freedom     7
 Full point group                 C2      NOp   2
 Rotational constants (GHZ):          77.2864592           1.3787315           1.3545671
 Leave Link  202 at Mon Apr 21 20:16:46 2025, MaxMem=   536870912 cpu:               0.0 elap:               0.0
 (Enter /home/szhao/Apps/g16/l301.exe)
 Standard basis: 6-311+G(d,p) (5D, 7F)
 Ernie: Thresh=  0.10000D-02 Tol=  0.10000D-05 Strict=F.
    84 basis functions,   132 primitive gaussians,    86 cartesian basis functions
    16 alpha electrons       15 beta electrons
       nuclear repulsion energy        47.5936596632 Hartrees.
 IExCor= 4336 DFT=T Ex+Corr=M062X ExCW=0 ScaHFX=  0.540000
 ScaDFX=  1.000000  1.000000  1.000000  1.000000 ScalE2=  1.000000  1.000000
 IRadAn=      7 IRanWt=     -1 IRanGd=            0 ICorTp=0 IEmpDi=  4
 NAtoms=    6 NActive=    6 NUniq=    6 SFac= 1.00D+00 NAtFMM=   60 NAOKFM=F Big=F
 Integral buffers will be    131072 words long.
 Raffenetti 2 integral format.
 Two-electron integral symmetry is turned off.
 Leave Link  301 at Mon Apr 21 20:16:47 2025, MaxMem=   536870912 cpu:               0.6 elap:               0.1
 (Enter /home/szhao/Apps/g16/l302.exe)
 NPDir=0 NMtPBC=     1 NCelOv=     1 NCel=       1 NClECP=     1 NCelD=      1
         NCelK=      1 NCelE2=     1 NClLst=     1 CellRange=     0.0.
 One-electron integrals computed using PRISM.
 NBasis=    84 RedAO= T EigKep=  1.53D-02  NBF=    84
 NBsUse=    84 1.00D-06 EigRej= -1.00D+00 NBFU=    84
 Precomputing XC quadrature grid using
 IXCGrd= 4 IRadAn=           7 IRanWt=          -1 IRanGd=           0 AccXCQ= 0.00D+00.
 Generated NRdTot=       0 NPtTot=           0 NUsed=           0 NTot=          32
 NSgBfM=    76    76    76    76    76 MxSgAt=     6 MxSgA2=     6.
 Leave Link  302 at Mon Apr 21 20:16:47 2025, MaxMem=   536870912 cpu:               1.8 elap:               0.3
 (Enter /home/szhao/Apps/g16/l303.exe)
 DipDrv:  MaxL=1.
 Leave Link  303 at Mon Apr 21 20:16:48 2025, MaxMem=   536870912 cpu:               0.6 elap:               0.1
 (Enter /home/szhao/Apps/g16/l401.exe)
 ExpMin= 3.31D-02 ExpMax= 6.94D+04 ExpMxC= 2.33D+03 IAcc=3 IRadAn=         7 AccDes= 0.00D+00
 Harris functional with IExCor= 1009 and IRadAn=       7 diagonalized for initial guess.
 HarFok:  IExCor= 1009 AccDes= 0.00D+00 IRadAn=         7 IDoV= 1 UseB2=F ITyADJ=14
 ICtDFT=  3500011 ScaDFX=  1.000000  1.000000  1.000000  1.000000
 FoFCou: FMM=F IPFlag=           0 FMFlag=      100000 FMFlg1=           0
         NFxFlg=           0 DoJE=T BraDBF=F KetDBF=T FulRan=T
         wScrn=  0.000000 ICntrl=       500 IOpCl=  0 I1Cent=   200000004 NGrid=           0
         NMat0=    1 NMatS0=      1 NMatT0=    0 NMatD0=    1 NMtDS0=    0 NMtDT0=    0
 Symmetry not used in FoFCou.
 Harris En= -580.625510867754    
 JPrj=0 DoOrth=F DoCkMO=F.
 Initial guess <Sx>= 0.0000 <Sy>= 0.0000 <Sz>= 0.5000 <S**2>= 0.7500 S= 0.5000
 Leave Link  401 at Mon Apr 21 20:16:48 2025, MaxMem=   536870912 cpu:               4.6 elap:               0.7
 (Enter /home/szhao/Apps/g16/l502.exe)
 Keep R1 and R2 ints in memory in canonical form, NReq=20057634.
 FoFCou: FMM=F IPFlag=           0 FMFlag=           0 FMFlg1=           0
         NFxFlg=           0 DoJE=F BraDBF=F KetDBF=F FulRan=T
         wScrn=  0.000000 ICntrl=       600 IOpCl=  0 I1Cent=           0 NGrid=           0
         NMat0=    1 NMatS0=   3570 NMatT0=    0 NMatD0=    1 NMtDS0=    0 NMtDT0=    0
 Symmetry not used in FoFCou.
 Two-electron integral symmetry not used.
 UHF open shell SCF:
 Using DIIS extrapolation, IDIIS=  1040.
 NGot=   536870912 LenX=   524106186 LenY=   524098349
 Requested convergence on RMS density matrix=1.00D-08 within 128 cycles.
 Requested convergence on MAX density matrix=1.00D-06.
 Requested convergence on             energy=1.00D-06.
 No special actions if energy rises.

 Cycle   1  Pass 1  IDiag  1:
 E= -580.826656436084    
 DIIS: error= 2.93D-02 at cycle   1 NSaved=   1.
 NSaved= 1 IEnMin= 1 EnMin= -580.826656436084     IErMin= 1 ErrMin= 2.93D-02
 ErrMax= 2.93D-02  0.00D+00 EMaxC= 1.00D-01 BMatC= 2.17D-01 BMatP= 2.17D-01
 IDIUse=3 WtCom= 7.07D-01 WtEn= 2.93D-01
 Coeff-Com:  0.100D+01
 Coeff-En:   0.100D+01
 Coeff:      0.100D+01
 Gap=     0.184 Goal=   None    Shift=    0.000
 Gap=     0.090 Goal=   None    Shift=    0.000
 GapD=    0.090 DampG=0.500 DampE=0.500 DampFc=0.2500 IDamp=-1.
 Damping current iteration by 2.50D-01
 RMSDP=3.89D-03 MaxDP=1.27D-01              OVMax= 8.72D-02

 Cycle   2  Pass 1  IDiag  1:
 E= -580.836660613928     Delta-E=       -0.010004177844 Rises=F Damp=T
 DIIS: error= 2.21D-02 at cycle   2 NSaved=   2.
 NSaved= 2 IEnMin= 2 EnMin= -580.836660613928     IErMin= 2 ErrMin= 2.21D-02
 ErrMax= 2.21D-02  0.00D+00 EMaxC= 1.00D-01 BMatC= 1.06D-01 BMatP= 2.17D-01
 IDIUse=3 WtCom= 7.79D-01 WtEn= 2.21D-01
 Coeff-Com: -0.209D+01 0.309D+01
 Coeff-En:   0.000D+00 0.100D+01
 Coeff:     -0.163D+01 0.263D+01
 Gap=     0.187 Goal=   None    Shift=    0.000
 Gap=     0.091 Goal=   None    Shift=    0.000
 RMSDP=2.34D-03 MaxDP=7.82D-02 DE=-1.00D-02 OVMax= 2.22D-02

 Cycle   3  Pass 1  IDiag  1:
 E= -580.861333744049     Delta-E=       -0.024673130121 Rises=F Damp=F
 DIIS: error= 7.95D-04 at cycle   3 NSaved=   3.
 NSaved= 3 IEnMin= 3 EnMin= -580.861333744049     IErMin= 3 ErrMin= 7.95D-04
 ErrMax= 7.95D-04  0.00D+00 EMaxC= 1.00D-01 BMatC= 1.68D-04 BMatP= 1.06D-01
 IDIUse=3 WtCom= 9.92D-01 WtEn= 7.95D-03
 Coeff-Com:  0.102D+00-0.140D+00 0.104D+01
 Coeff-En:   0.000D+00 0.000D+00 0.100D+01
 Coeff:      0.101D+00-0.139D+00 0.104D+01
 Gap=     0.188 Goal=   None    Shift=    0.000
 Gap=     0.092 Goal=   None    Shift=    0.000
 RMSDP=2.15D-04 MaxDP=6.81D-03 DE=-2.47D-02 OVMax= 7.19D-03

 Cycle   4  Pass 1  IDiag  1:
 E= -580.861427775298     Delta-E=       -0.000094031249 Rises=F Damp=F
 DIIS: error= 2.11D-04 at cycle   4 NSaved=   4.
 NSaved= 4 IEnMin= 4 EnMin= -580.861427775298     IErMin= 4 ErrMin= 2.11D-04
 ErrMax= 2.11D-04  0.00D+00 EMaxC= 1.00D-01 BMatC= 1.09D-05 BMatP= 1.68D-04
 IDIUse=3 WtCom= 9.98D-01 WtEn= 2.11D-03
 Coeff-Com: -0.155D-01 0.176D-01-0.580D-03 0.998D+00
 Coeff-En:   0.000D+00 0.000D+00 0.000D+00 0.100D+01
 Coeff:     -0.155D-01 0.176D-01-0.579D-03 0.998D+00
 Gap=     0.188 Goal=   None    Shift=    0.000
 Gap=     0.092 Goal=   None    Shift=    0.000
 RMSDP=6.76D-05 MaxDP=2.22D-03 DE=-9.40D-05 OVMax= 1.99D-03

 Cycle   5  Pass 1  IDiag  1:
 E= -580.861435653071     Delta-E=       -0.000007877774 Rises=F Damp=F
 DIIS: error= 7.12D-05 at cycle   5 NSaved=   5.
 NSaved= 5 IEnMin= 5 EnMin= -580.861435653071     IErMin= 5 ErrMin= 7.12D-05
 ErrMax= 7.12D-05  0.00D+00 EMaxC= 1.00D-01 BMatC= 7.84D-07 BMatP= 1.09D-05
 IDIUse=1 WtCom= 1.00D+00 WtEn= 0.00D+00
 Coeff-Com:  0.159D-02-0.127D-02-0.604D-01-0.165D+00 0.122D+01
 Coeff:      0.159D-02-0.127D-02-0.604D-01-0.165D+00 0.122D+01
 Gap=     0.189 Goal=   None    Shift=    0.000
 Gap=     0.092 Goal=   None    Shift=    0.000
 RMSDP=2.70D-05 MaxDP=6.94D-04 DE=-7.88D-06 OVMax= 1.02D-03

 Cycle   6  Pass 1  IDiag  1:
 E= -580.861436490499     Delta-E=       -0.000000837428 Rises=F Damp=F
 DIIS: error= 8.77D-06 at cycle   6 NSaved=   6.
 NSaved= 6 IEnMin= 6 EnMin= -580.861436490499     IErMin= 6 ErrMin= 8.77D-06
 ErrMax= 8.77D-06  0.00D+00 EMaxC= 1.00D-01 BMatC= 1.15D-08 BMatP= 7.84D-07
 IDIUse=1 WtCom= 1.00D+00 WtEn= 0.00D+00
 Coeff-Com: -0.156D-03 0.168D-03 0.714D-02-0.120D-02-0.132D+00 0.113D+01
 Coeff:     -0.156D-03 0.168D-03 0.714D-02-0.120D-02-0.132D+00 0.113D+01
 Gap=     0.189 Goal=   None    Shift=    0.000
 Gap=     0.092 Goal=   None    Shift=    0.000
 RMSDP=2.17D-06 MaxDP=6.28D-05 DE=-8.37D-07 OVMax= 7.78D-05

 Cycle   7  Pass 1  IDiag  1:
 E= -580.861436501158     Delta-E=       -0.000000010659 Rises=F Damp=F
 DIIS: error= 2.25D-06 at cycle   7 NSaved=   7.
 NSaved= 7 IEnMin= 7 EnMin= -580.861436501158     IErMin= 7 ErrMin= 2.25D-06
 ErrMax= 2.25D-06  0.00D+00 EMaxC= 1.00D-01 BMatC= 6.50D-10 BMatP= 1.15D-08
 IDIUse=1 WtCom= 1.00D+00 WtEn= 0.00D+00
 Coeff-Com: -0.585D-05-0.214D-04 0.120D-02 0.786D-02-0.292D-01-0.201D+00
 Coeff-Com:  0.122D+01
 Coeff:     -0.585D-05-0.214D-04 0.120D-02 0.786D-02-0.292D-01-0.201D+00
 Coeff:      0.122D+01
 Gap=     0.189 Goal=   None    Shift=    0.000
 Gap=     0.092 Goal=   None    Shift=    0.000
 RMSDP=3.88D-07 MaxDP=1.01D-05 DE=-1.07D-08 OVMax= 1.95D-05

 Cycle   8  Pass 1  IDiag  1:
 E= -580.861436501812     Delta-E=       -0.000000000654 Rises=F Damp=F
 DIIS: error= 4.40D-07 at cycle   8 NSaved=   8.
 NSaved= 8 IEnMin= 8 EnMin= -580.861436501812     IErMin= 8 ErrMin= 4.40D-07
 ErrMax= 4.40D-07  0.00D+00 EMaxC= 1.00D-01 BMatC= 3.00D-11 BMatP= 6.50D-10
 IDIUse=1 WtCom= 1.00D+00 WtEn= 0.00D+00
 Coeff-Com: -0.239D-04 0.400D-04-0.460D-03-0.181D-02 0.973D-02 0.248D-01
 Coeff-Com: -0.345D+00 0.131D+01
 Coeff:     -0.239D-04 0.400D-04-0.460D-03-0.181D-02 0.973D-02 0.248D-01
 Coeff:     -0.345D+00 0.131D+01
 Gap=     0.189 Goal=   None    Shift=    0.000
 Gap=     0.092 Goal=   None    Shift=    0.000
 RMSDP=1.07D-07 MaxDP=1.83D-06 DE=-6.54D-10 OVMax= 3.67D-06

 Cycle   9  Pass 1  IDiag  1:
 E= -580.861436501847     Delta-E=       -0.000000000036 Rises=F Damp=F
 DIIS: error= 6.92D-08 at cycle   9 NSaved=   9.
 NSaved= 9 IEnMin= 9 EnMin= -580.861436501847     IErMin= 9 ErrMin= 6.92D-08
 ErrMax= 6.92D-08  0.00D+00 EMaxC= 1.00D-01 BMatC= 2.23D-12 BMatP= 3.00D-11
 IDIUse=1 WtCom= 1.00D+00 WtEn= 0.00D+00
 Coeff-Com:  0.127D-04-0.171D-04 0.322D-04-0.774D-04-0.231D-03 0.355D-02
 Coeff-Com:  0.865D-02-0.241D+00 0.123D+01
 Coeff:      0.127D-04-0.171D-04 0.322D-04-0.774D-04-0.231D-03 0.355D-02
 Coeff:      0.865D-02-0.241D+00 0.123D+01
 Gap=     0.189 Goal=   None    Shift=    0.000
 Gap=     0.092 Goal=   None    Shift=    0.000
 RMSDP=3.81D-08 MaxDP=7.57D-07 DE=-3.57D-11 OVMax= 2.45D-06

 Cycle  10  Pass 1  IDiag  1:
 E= -580.861436501850     Delta-E=       -0.000000000002 Rises=F Damp=F
 DIIS: error= 5.94D-08 at cycle  10 NSaved=  10.
 NSaved=10 IEnMin=10 EnMin= -580.861436501850     IErMin=10 ErrMin= 5.94D-08
 ErrMax= 5.94D-08  0.00D+00 EMaxC= 1.00D-01 BMatC= 9.12D-13 BMatP= 2.23D-12
 IDIUse=1 WtCom= 1.00D+00 WtEn= 0.00D+00
 Coeff-Com:  0.840D-05-0.122D-04 0.685D-04 0.182D-03-0.126D-02-0.123D-02
 Coeff-Com:  0.445D-01-0.264D+00 0.551D+00 0.670D+00
 Coeff:      0.840D-05-0.122D-04 0.685D-04 0.182D-03-0.126D-02-0.123D-02
 Coeff:      0.445D-01-0.264D+00 0.551D+00 0.670D+00
 Gap=     0.189 Goal=   None    Shift=    0.000
 Gap=     0.092 Goal=   None    Shift=    0.000
 RMSDP=1.53D-08 MaxDP=3.15D-07 DE=-2.27D-12 OVMax= 1.35D-06

 Cycle  11  Pass 1  IDiag  1:
 E= -580.861436501850     Delta-E=       -0.000000000001 Rises=F Damp=F
 DIIS: error= 5.57D-08 at cycle  11 NSaved=  11.
 NSaved=11 IEnMin=11 EnMin= -580.861436501850     IErMin=11 ErrMin= 5.57D-08
 ErrMax= 5.57D-08  0.00D+00 EMaxC= 1.00D-01 BMatC= 1.76D-13 BMatP= 9.12D-13
 IDIUse=1 WtCom= 1.00D+00 WtEn= 0.00D+00
 Coeff-Com: -0.275D-05 0.371D-05-0.526D-05 0.228D-04 0.196D-05-0.484D-03
 Coeff-Com: -0.978D-03 0.347D-01-0.181D+00-0.357D-02 0.115D+01
 Coeff:     -0.275D-05 0.371D-05-0.526D-05 0.228D-04 0.196D-05-0.484D-03
 Coeff:     -0.978D-03 0.347D-01-0.181D+00-0.357D-02 0.115D+01
 Gap=     0.189 Goal=   None    Shift=    0.000
 Gap=     0.092 Goal=   None    Shift=    0.000
 RMSDP=1.35D-08 MaxDP=2.22D-07 DE=-6.82D-13 OVMax= 1.31D-06

 Cycle  12  Pass 1  IDiag  1:
 E= -580.861436501852     Delta-E=       -0.000000000002 Rises=F Damp=F
 DIIS: error= 5.04D-08 at cycle  12 NSaved=  12.
 NSaved=12 IEnMin=12 EnMin= -580.861436501852     IErMin=12 ErrMin= 5.04D-08
 ErrMax= 5.04D-08  0.00D+00 EMaxC= 1.00D-01 BMatC= 1.28D-13 BMatP= 1.76D-13
 IDIUse=1 WtCom= 1.00D+00 WtEn= 0.00D+00
 Coeff-Com:  0.272D-05-0.338D-05-0.134D-04-0.100D-03 0.416D-03 0.954D-03
 Coeff-Com: -0.115D-01 0.176D-01 0.159D+00-0.194D+00-0.206D+01 0.309D+01
 Coeff:      0.272D-05-0.338D-05-0.134D-04-0.100D-03 0.416D-03 0.954D-03
 Coeff:     -0.115D-01 0.176D-01 0.159D+00-0.194D+00-0.206D+01 0.309D+01
 Gap=     0.189 Goal=   None    Shift=    0.000
 Gap=     0.092 Goal=   None    Shift=    0.000
 RMSDP=3.23D-08 MaxDP=5.52D-07 DE=-1.82D-12 OVMax= 3.23D-06

 Cycle  13  Pass 1  IDiag  1:
 E= -580.861436501853     Delta-E=       -0.000000000000 Rises=F Damp=F
 DIIS: error= 3.73D-08 at cycle  13 NSaved=  13.
 NSaved=13 IEnMin=13 EnMin= -580.861436501853     IErMin=13 ErrMin= 3.73D-08
 ErrMax= 3.73D-08  0.00D+00 EMaxC= 1.00D-01 BMatC= 7.20D-14 BMatP= 1.28D-13
 IDIUse=1 WtCom= 1.00D+00 WtEn= 0.00D+00
 Coeff-Com:  0.300D-05-0.423D-05 0.206D-04 0.170D-04-0.285D-03 0.864D-03
 Coeff-Com:  0.705D-02-0.648D-01 0.205D+00 0.986D-01-0.826D+00-0.160D+01
 Coeff-Com:  0.318D+01
 Coeff:      0.300D-05-0.423D-05 0.206D-04 0.170D-04-0.285D-03 0.864D-03
 Coeff:      0.705D-02-0.648D-01 0.205D+00 0.986D-01-0.826D+00-0.160D+01
 Coeff:      0.318D+01
 Gap=     0.189 Goal=   None    Shift=    0.000
 Gap=     0.092 Goal=   None    Shift=    0.000
 RMSDP=7.57D-08 MaxDP=1.30D-06 DE=-4.55D-13 OVMax= 7.57D-06

 Cycle  14  Pass 1  IDiag  1:
 E= -580.861436501855     Delta-E=       -0.000000000002 Rises=F Damp=F
 DIIS: error= 6.98D-09 at cycle  14 NSaved=  14.
 NSaved=14 IEnMin=14 EnMin= -580.861436501855     IErMin=14 ErrMin= 6.98D-09
 ErrMax= 6.98D-09  0.00D+00 EMaxC= 1.00D-01 BMatC= 3.41D-15 BMatP= 7.20D-14
 IDIUse=1 WtCom= 1.00D+00 WtEn= 0.00D+00
 Coeff-Com: -0.599D-06 0.767D-06 0.119D-05 0.128D-04-0.475D-04-0.124D-03
 Coeff-Com:  0.104D-02-0.115D-03-0.269D-01 0.277D-01 0.335D+00-0.418D+00
 Coeff-Com: -0.166D+00 0.125D+01
 Coeff:     -0.599D-06 0.767D-06 0.119D-05 0.128D-04-0.475D-04-0.124D-03
 Coeff:      0.104D-02-0.115D-03-0.269D-01 0.277D-01 0.335D+00-0.418D+00
 Coeff:     -0.166D+00 0.125D+01
 Gap=     0.189 Goal=   None    Shift=    0.000
 Gap=     0.092 Goal=   None    Shift=    0.000
 RMSDP=1.74D-08 MaxDP=2.98D-07 DE=-2.05D-12 OVMax= 1.73D-06

 Cycle  15  Pass 1  IDiag  1:
 E= -580.861436501855     Delta-E=        0.000000000000 Rises=F Damp=F
 DIIS: error= 5.73D-10 at cycle  15 NSaved=  15.
 NSaved=15 IEnMin=14 EnMin= -580.861436501855     IErMin=15 ErrMin= 5.73D-10
 ErrMax= 5.73D-10  0.00D+00 EMaxC= 1.00D-01 BMatC= 4.04D-17 BMatP= 3.41D-15
 IDIUse=1 WtCom= 1.00D+00 WtEn= 0.00D+00
 Coeff-Com:  0.520D-08 0.293D-08-0.611D-06-0.262D-05 0.138D-04-0.384D-06
 Coeff-Com: -0.300D-03 0.159D-02-0.874D-03-0.595D-02-0.266D-01 0.101D+00
 Coeff-Com: -0.546D-01-0.212D+00 0.120D+01
 Coeff:      0.520D-08 0.293D-08-0.611D-06-0.262D-05 0.138D-04-0.384D-06
 Coeff:     -0.300D-03 0.159D-02-0.874D-03-0.595D-02-0.266D-01 0.101D+00
 Coeff:     -0.546D-01-0.212D+00 0.120D+01
 Gap=     0.189 Goal=   None    Shift=    0.000
 Gap=     0.092 Goal=   None    Shift=    0.000
 RMSDP=6.02D-10 MaxDP=9.73D-09 DE= 1.14D-13 OVMax= 5.17D-08

 SCF Done:  E(UM062X) =  -580.861436502     A.U. after   15 cycles
            NFock= 15  Conv=0.60D-09     -V/T= 2.0014
 <Sx>= 0.0000 <Sy>= 0.0000 <Sz>= 0.5000 <S**2>= 0.7598 S= 0.5049
 <L.S>=  0.00000000000    
 KE= 5.800411516574D+02 PE=-1.472511573201D+03 EE= 2.640153253789D+02
 Annihilation of the first spin contaminant:
 S**2 before annihilation     0.7598,   after     0.7500
 Leave Link  502 at Mon Apr 21 20:17:02 2025, MaxMem=   536870912 cpu:             104.3 elap:              14.0
 (Enter /home/szhao/Apps/g16/l601.exe)
 Copying SCF densities to generalized density rwf, IOpCl= 1 IROHF=0.

 **********************************************************************

            Population analysis using the SCF density.

 **********************************************************************

 Alpha  occ. eigenvalues --  -67.23427 -67.23427  -5.78016  -5.78016  -4.09298
 Alpha  occ. eigenvalues --   -4.09298  -4.09004  -4.09004  -4.08623  -4.08623
 Alpha  occ. eigenvalues --   -0.78191  -0.78131  -0.61607  -0.61592  -0.46894
 Alpha  occ. eigenvalues --   -0.45377
 Alpha virt. eigenvalues --   -0.26524  -0.26140  -0.11842  -0.10645  -0.09435
 Alpha virt. eigenvalues --   -0.08746  -0.08732  -0.07649  -0.06313  -0.06264
 Alpha virt. eigenvalues --   -0.05833  -0.05542  -0.05326  -0.03088   0.13294
 Alpha virt. eigenvalues --    0.13796   0.15719   0.15807   0.17029   0.17807
 Alpha virt. eigenvalues --    0.20812   0.23859   0.25139   0.29363   0.29529
 Alpha virt. eigenvalues --    0.30572   0.38135   0.38135   0.40367   0.40676
 Alpha virt. eigenvalues --    0.40715   0.41465   0.61998   0.62265   0.69487
 Alpha virt. eigenvalues --    0.70202   1.01766   1.02234   1.02883   1.03552
 Alpha virt. eigenvalues --    1.03826   1.03962   1.22152   1.23109   1.29679
 Alpha virt. eigenvalues --    1.29726   1.31601   1.31602   1.41083   1.41148
 Alpha virt. eigenvalues --    1.75802   1.76018   1.92071   1.93588   2.42338
 Alpha virt. eigenvalues --    2.42530   2.43107   2.47084   5.31756   5.32522
 Alpha virt. eigenvalues --   11.23011  11.24274  11.28528  11.28959  11.39130
 Alpha virt. eigenvalues --   11.40065 140.88487 140.89286
  Beta  occ. eigenvalues --  -67.23090 -67.23090  -5.77777  -5.77777  -4.09197
  Beta  occ. eigenvalues --   -4.09196  -4.08510  -4.08510  -4.08202  -4.08202
  Beta  occ. eigenvalues --   -0.76444  -0.76251  -0.60525  -0.60503  -0.40262
  Beta virt. eigenvalues --   -0.31075  -0.25361  -0.24858  -0.11224  -0.09599
  Beta virt. eigenvalues --   -0.09248  -0.08689  -0.08622  -0.07049  -0.06184
  Beta virt. eigenvalues --   -0.05908  -0.05176  -0.04577  -0.04011  -0.02611
  Beta virt. eigenvalues --    0.13164   0.13641   0.15667   0.15995   0.17454
  Beta virt. eigenvalues --    0.18072   0.21186   0.24902   0.25332   0.29847
  Beta virt. eigenvalues --    0.30456   0.31330   0.39751   0.39752   0.43374
  Beta virt. eigenvalues --    0.43481   0.43882   0.44703   0.63875   0.64121
  Beta virt. eigenvalues --    0.70524   0.71215   1.03006   1.04122   1.04646
  Beta virt. eigenvalues --    1.05793   1.06338   1.07331   1.22405   1.23481
  Beta virt. eigenvalues --    1.30015   1.30070   1.32024   1.32024   1.41932
  Beta virt. eigenvalues --    1.41947   1.77352   1.77543   1.93414   1.94848
  Beta virt. eigenvalues --    2.43337   2.43392   2.44103   2.47913   5.32858
  Beta virt. eigenvalues --    5.33587  11.23717  11.24986  11.30459  11.30864
  Beta virt. eigenvalues --   11.39771  11.40714 140.89018 140.89817
          Condensed to atoms (all electrons):
               1          2          3          4          5          6
     1  Si  12.806212   0.039217   0.297594  -0.000540   0.297594  -0.000540
     2  Si   0.039217  12.806212  -0.000540   0.297594  -0.000540   0.297594
     3  H    0.297594  -0.000540   0.743627   0.000002  -0.010456   0.000005
     4  H   -0.000540   0.297594   0.000002   0.743627   0.000005  -0.010456
     5  H    0.297594  -0.000540  -0.010456   0.000005   0.743625   0.000002
     6  H   -0.000540   0.297594   0.000005  -0.010456   0.000002   0.743625
          Atomic-Atomic Spin Densities.
               1          2          3          4          5          6
     1  Si   0.503942  -0.050006  -0.025202   0.001234  -0.025202   0.001234
     2  Si  -0.050006   0.503942   0.001234  -0.025202   0.001234  -0.025202
     3  H   -0.025202   0.001234   0.064269  -0.000002   0.006708  -0.000008
     4  H    0.001234  -0.025202  -0.000002   0.064269  -0.000008   0.006708
     5  H   -0.025202   0.001234   0.006708  -0.000008   0.064271  -0.000002
     6  H    0.001234  -0.025202  -0.000008   0.006708  -0.000002   0.064271
 Mulliken charges and spin densities:
               1          2
     1  Si   0.560462   0.406000
     2  Si   0.560462   0.406000
     3  H   -0.030231   0.046999
     4  H   -0.030231   0.047000
     5  H   -0.030231   0.047000
     6  H   -0.030231   0.047000
 Sum of Mulliken charges =   1.00000   1.00000
 Mulliken charges and spin densities with hydrogens summed into heavy atoms:
               1          2
     1  Si   0.500000   0.500000
     2  Si   0.500000   0.500000
 Electronic spatial extent (au):  <R**2>=            774.6890
 Charge=              1.0000 electrons
 Dipole moment (field-independent basis, Debye):
    X=              0.0000    Y=              0.0000    Z=             -0.0001  Tot=              0.0001
 Quadrupole moment (field-independent basis, Debye-Ang):
   XX=             10.5776   YY=            -25.2801   ZZ=            -20.8930
   XY=              0.0000   XZ=              0.0000   YZ=             -0.0021
 Traceless Quadrupole moment (field-independent basis, Debye-Ang):
   XX=             22.4428   YY=            -13.4150   ZZ=             -9.0278
   XY=              0.0000   XZ=              0.0000   YZ=             -0.0021
 Octapole moment (field-independent basis, Debye-Ang**2):
  XXX=              0.0000  YYY=             -0.0000  ZZZ=              0.0002  XYY=              0.0000
  XXY=             -0.0000  XXZ=              0.0020  XZZ=             -0.0000  YZZ=             -0.0000
  YYZ=              0.0001  XYZ=             -0.0057
 Hexadecapole moment (field-independent basis, Debye-Ang**3):
 XXXX=           -814.6525 YYYY=            -69.7377 ZZZZ=            -25.4943 XXXY=             -0.0002
 XXXZ=              0.0000 YYYX=              0.0001 YYYZ=             -0.0088 ZZZX=              0.0000
 ZZZY=             -0.0121 XXYY=           -173.2361 XXZZ=           -137.8297 YYZZ=            -17.0252
 XXYZ=             -0.0167 YYXZ=             -0.0000 ZZXY=              0.0001
 N-N= 4.759365966320D+01 E-N=-1.472511573211D+03  KE= 5.800411516574D+02
                          Isotropic Fermi Contact Couplings
        Atom                 a.u.       MegaHertz       Gauss      10(-4) cm-1
     1  Si(29)             0.56802    -504.81227    -180.12957    -168.38725
     2  Si(29)             0.56802    -504.81237    -180.12961    -168.38728
     3  H(1)               0.02039      91.15900      32.52780      30.40737
     4  H(1)               0.02039      91.15909      32.52783      30.40740
     5  H(1)               0.02039      91.16002      32.52816      30.40771
     6  H(1)               0.02039      91.16010      32.52819      30.40774
 --------------------------------------------------------
       Center         ----  Spin Dipole Couplings  ----
                      3XX-RR        3YY-RR        3ZZ-RR
 --------------------------------------------------------
     1   Atom        0.929696     -0.467997     -0.461699
     2   Atom        0.929696     -0.467997     -0.461699
     3   Atom        0.000658      0.008609     -0.009267
     4   Atom        0.000658      0.008609     -0.009267
     5   Atom        0.000658      0.008609     -0.009267
     6   Atom        0.000658      0.008609     -0.009267
 --------------------------------------------------------
                        XY            XZ            YZ
 --------------------------------------------------------
     1   Atom        0.000012      0.000195      0.000000
     2   Atom        0.000012     -0.000195     -0.000005
     3   Atom        0.004220      0.000001     -0.000001
     4   Atom        0.004220      0.000003      0.000017
     5   Atom       -0.004220      0.000002     -0.000001
     6   Atom       -0.004220     -0.000006      0.000018
 --------------------------------------------------------


 ---------------------------------------------------------------------------------
              Anisotropic Spin Dipole Couplings in Principal Axis System
 ---------------------------------------------------------------------------------

       Atom             a.u.   MegaHertz   Gauss  10(-4) cm-1        Axes

              Baa    -0.4680    49.647    17.715    16.560 -0.0000  1.0000 -0.0000
     1 Si(29) Bbb    -0.4617    48.979    17.477    16.338 -0.0001  0.0000  1.0000
              Bcc     0.9297   -98.626   -35.192   -32.898  1.0000  0.0000  0.0001
 
              Baa    -0.4680    49.647    17.715    16.560 -0.0000  1.0000  0.0007
     2 Si(29) Bbb    -0.4617    48.979    17.477    16.338  0.0001 -0.0007  1.0000
              Bcc     0.9297   -98.626   -35.192   -32.898  1.0000  0.0000 -0.0001
 
              Baa    -0.0093    -4.944    -1.764    -1.649 -0.0002  0.0001  1.0000
     3 H(1)   Bbb    -0.0012    -0.621    -0.222    -0.207  0.9181 -0.3964  0.0002
              Bcc     0.0104     5.565     1.986     1.856  0.3964  0.9181 -0.0000
 
              Baa    -0.0093    -4.944    -1.764    -1.649  0.0002 -0.0010  1.0000
     4 H(1)   Bbb    -0.0012    -0.621    -0.222    -0.207  0.9181 -0.3964 -0.0006
              Bcc     0.0104     5.565     1.986     1.856  0.3964  0.9181  0.0009
 
              Baa    -0.0093    -4.944    -1.764    -1.649 -0.0002  0.0000  1.0000
     5 H(1)   Bbb    -0.0012    -0.621    -0.222    -0.207  0.9181  0.3964  0.0001
              Bcc     0.0104     5.565     1.986     1.856 -0.3964  0.9181 -0.0001
 
              Baa    -0.0093    -4.944    -1.764    -1.649  0.0002 -0.0009  1.0000
     6 H(1)   Bbb    -0.0012    -0.621    -0.222    -0.207  0.9181  0.3964  0.0002
              Bcc     0.0104     5.565     1.986     1.856 -0.3964  0.9181  0.0009
 

 ---------------------------------------------------------------------------------

 No NMR shielding tensors so no spin-rotation constants.
 Leave Link  601 at Mon Apr 21 20:17:03 2025, MaxMem=   536870912 cpu:               1.9 elap:               0.3
 (Enter /home/szhao/Apps/g16/l701.exe)
 ... and contract with generalized density number  0.
 Compute integral first derivatives.
 Leave Link  701 at Mon Apr 21 20:17:04 2025, MaxMem=   536870912 cpu:               1.4 elap:               0.3
 (Enter /home/szhao/Apps/g16/l702.exe)
 L702 exits ... SP integral derivatives will be done elsewhere.
 Leave Link  702 at Mon Apr 21 20:17:04 2025, MaxMem=   536870912 cpu:               0.8 elap:               0.2
 (Enter /home/szhao/Apps/g16/l703.exe)
 Integral derivatives from FoFJK, PRISM(SPDF).
 Compute integral first derivatives, UseDBF=F ICtDFT=           0.
 Calling FoFJK, ICntrl=      2127 FMM=F ISym2X=0 I1Cent= 0 IOpClX= 1 NMat=1 NMatS=1 NMatT=0.
 FoFJK:  IHMeth= 1 ICntrl=    2127 DoSepK=F KAlg= 0 I1Cent=           0 FoldK=F
 IRaf=         0 NMat=       1 IRICut=       1 DoRegI=T DoRafI=F ISym2E= 0 IDoP0=0 IntGTp=1.
 FoFCou: FMM=F IPFlag=           0 FMFlag=      100000 FMFlg1=         800
         NFxFlg=           0 DoJE=F BraDBF=F KetDBF=F FulRan=T
         wScrn=  0.000000 ICntrl=      2127 IOpCl=  1 I1Cent=           0 NGrid=           0
         NMat0=    1 NMatS0=      1 NMatT0=    0 NMatD0=    1 NMtDS0=    0 NMtDT0=    0
 Symmetry not used in FoFCou.
 Leave Link  703 at Mon Apr 21 20:17:05 2025, MaxMem=   536870912 cpu:               9.4 elap:               1.3
 (Enter /home/szhao/Apps/g16/l716.exe)
 Dipole        = 5.34892434D-07 9.04160258D-09-3.25095552D-05
 -------------------------------------------------------------------
 Center     Atomic                   Forces (Hartrees/Bohr)
 Number     Number              X              Y              Z
 -------------------------------------------------------------------
      1       14          -0.000000000   -0.000000000   -0.000000000
      2       14          -0.000000000   -0.000000000   -0.000000000
      3        1          -0.014483374   -0.000694009   -0.000000828
      4        1           0.014483288    0.000693845   -0.000000081
      5        1          -0.014482067    0.000691663   -0.000000921
      6        1           0.014481991   -0.000691515   -0.000001665
 -------------------------------------------------------------------
 Cartesian Forces:  Max     0.014483374 RMS     0.006835007
 Leave Link  716 at Mon Apr 21 20:17:06 2025, MaxMem=   536870912 cpu:               0.9 elap:               0.4
 (Enter /home/szhao/Apps/g16/l103.exe)

 GradGradGradGradGradGradGradGradGradGradGradGradGradGradGradGradGradGrad
 Berny optimization.
 FormGI is forming the generalized inverse of G from B-inverse, IUseBI=4.
 Internal  Forces:  Max     0.028965442 RMS     0.013140340
 Search for a local minimum.
 Step number   1 out of a maximum of   30
 All quantities printed in internal units (Hartrees-Bohrs-Radians)
 RMS Force = .11261D-01 SwitMx=.10000D-02 MixMth= 1
 Mixed Optimization -- RFO/linear search
 Second derivative matrix not updated -- first step.
 The second derivative matrix:
                          X1        Y1        Z1        X2        Y2
           X1           0.50000
           Y1           0.00000   0.50000
           Z1           0.00000   0.00000   0.50000
           X2           0.00000   0.00000   0.00000   0.50000
           Y2           0.00000   0.00000   0.00000   0.00000   0.50000
           Z2           0.00000   0.00000   0.00000   0.00000   0.00000
           R1           0.00000   0.00000   0.00000   0.00000   0.00000
           R2           0.00000   0.00000   0.00000   0.00000   0.00000
           R3           0.00000   0.00000   0.00000   0.00000   0.00000
           R4           0.00000   0.00000   0.00000   0.00000   0.00000
           A1           0.00000   0.00000   0.00000   0.00000   0.00000
           A2           0.00000   0.00000   0.00000   0.00000   0.00000
           A3           0.00000   0.00000   0.00000   0.00000   0.00000
           A4           0.00000   0.00000   0.00000   0.00000   0.00000
           A5           0.00000   0.00000   0.00000   0.00000   0.00000
           A6           0.00000   0.00000   0.00000   0.00000   0.00000
           D1           0.00000   0.00000   0.00000   0.00000   0.00000
           D2           0.00000   0.00000   0.00000   0.00000   0.00000
           D3           0.00000   0.00000   0.00000   0.00000   0.00000
           D4           0.00000   0.00000   0.00000   0.00000   0.00000
                          Z2        R1        R2        R3        R4
           Z2           0.50000
           R1           0.00000   0.18389
           R2           0.00000   0.00000   0.18389
           R3           0.00000   0.00000   0.00000   0.18389
           R4           0.00000   0.00000   0.00000   0.00000   0.18389
           A1           0.00000   0.00000   0.00000   0.00000   0.00000
           A2           0.00000   0.00000   0.00000   0.00000   0.00000
           A3           0.00000   0.00000   0.00000   0.00000   0.00000
           A4           0.00000   0.00000   0.00000   0.00000   0.00000
           A5           0.00000   0.00000   0.00000   0.00000   0.00000
           A6           0.00000   0.00000   0.00000   0.00000   0.00000
           D1           0.00000   0.00000   0.00000   0.00000   0.00000
           D2           0.00000   0.00000   0.00000   0.00000   0.00000
           D3           0.00000   0.00000   0.00000   0.00000   0.00000
           D4           0.00000   0.00000   0.00000   0.00000   0.00000
                          A1        A2        A3        A4        A5
           A1           0.16000
           A2           0.00000   0.16000
           A3           0.00000   0.00000   0.16000
           A4           0.00000   0.00000   0.00000   0.16000
           A5           0.00000   0.00000   0.00000   0.00000   0.16000
           A6           0.00000   0.00000   0.00000   0.00000   0.00000
           D1           0.00000   0.00000   0.00000   0.00000   0.00000
           D2           0.00000   0.00000   0.00000   0.00000   0.00000
           D3           0.00000   0.00000   0.00000   0.00000   0.00000
           D4           0.00000   0.00000   0.00000   0.00000   0.00000
                          A6        D1        D2        D3        D4
           A6           0.16000
           D1           0.00000   0.00230
           D2           0.00000   0.00000   0.00230
           D3           0.00000   0.00000   0.00000   0.00230
           D4           0.00000   0.00000   0.00000   0.00000   0.00230
 ITU=  0
     Eigenvalues ---    0.00230   0.00230   0.00230   0.16000   0.16000
     Eigenvalues ---    0.16000   0.16000   0.18389   0.18389   0.18389
     Eigenvalues ---    0.183891000.000001000.000001000.000001000.00000
     Eigenvalues --- 1000.000001000.000001000.000001000.000001000.00000
 RFO step:  Lambda=-1.02524273D-02 EMin= 2.30000000D-03
 Linear search not attempted -- first point.
 Iteration  1 RMS(Cart)=  0.08382477 RMS(Int)=  0.00278128
 Iteration  2 RMS(Cart)=  0.00309135 RMS(Int)=  0.00000245
 Iteration  3 RMS(Cart)=  0.00000368 RMS(Int)=  0.00000000
 Iteration  4 RMS(Cart)=  0.00000000 RMS(Int)=  0.00000000
 ITry= 1 IFail=0 DXMaxC= 1.79D-01 DCOld= 1.00D+10 DXMaxT= 3.00D-01 DXLimC= 3.00D+00 Rises=F
 Variable       Old X    -DE/DX   Delta X   Delta X   Delta X     New X
                                 (Linear)    (Quad)   (Total)
    X1       -4.56614  -0.02897   0.00000   0.00000   0.00000  -4.56614
    Y1        0.00000  -0.00000   0.00000   0.00000   0.00000   0.00000
    Z1        0.00000  -0.00000   0.00000   0.00000   0.00000   0.00000
    X2        4.56614   0.02897   0.00000   0.00000   0.00000   4.56614
    Y2        0.00000   0.00000   0.00000   0.00000   0.00000   0.00000
    Z2        0.00000  -0.00000   0.00000   0.00000   0.00000   0.00000
    R1        2.77265   0.00779   0.00000   0.04014   0.04014   2.81279
    R2        2.77266   0.00779   0.00000   0.04013   0.04013   2.81279
    R3        2.77265   0.00779   0.00000   0.04014   0.04014   2.81279
    R4        2.77266   0.00779   0.00000   0.04013   0.04013   2.81279
    A1        2.09035   0.01130   0.00000   0.06638   0.06638   2.15673
    A2        2.09037   0.01130   0.00000   0.06638   0.06638   2.15675
    A3        2.10246  -0.02260   0.00000  -0.13275  -0.13275   1.96971
    A4        2.09035   0.01130   0.00000   0.06638   0.06638   2.15673
    A5        2.09037   0.01130   0.00000   0.06638   0.06638   2.15675
    A6        2.10246  -0.02260   0.00000  -0.13275  -0.13275   1.96971
    D1       -3.14065  -0.00000   0.00000  -0.00004  -0.00004  -3.14069
    D2        0.00102   0.00000   0.00000   0.00001   0.00001   0.00102
    D3        0.00102   0.00000   0.00000   0.00001   0.00001   0.00102
    D4       -3.14050   0.00000   0.00000   0.00005   0.00005  -3.14045
         Item               Value     Threshold  Converged?
 Maximum Force            0.022602     0.000450     NO 
 RMS     Force            0.011261     0.000300     NO 
 Maximum Displacement     0.178804     0.001800     NO 
 RMS     Displacement     0.084805     0.001200     NO 
 Predicted change in Energy=-5.430269D-03
 Lowest energy point so far.  Saving SCF results.
 GradGradGradGradGradGradGradGradGradGradGradGradGradGradGradGradGradGrad

 Leave Link  103 at Mon Apr 21 20:17:07 2025, MaxMem=   536870912 cpu:               2.0 elap:               0.9
 (Enter /home/szhao/Apps/g16/l202.exe)
                          Input orientation:                          
 ---------------------------------------------------------------------
 Center     Atomic      Atomic             Coordinates (Angstroms)
 Number     Number       Type             X           Y           Z
 ---------------------------------------------------------------------
      1         14           0       -2.416295    0.000000    0.000000
      2         14           0        2.416295    0.000000    0.000000
      3          1           0       -3.239385   -1.240181   -0.000003
      4          1           0        3.239385    1.240181    0.001123
      5          1           0       -3.239402    1.240170   -0.000146
      6          1           0        3.239402   -1.240169   -0.001272
 ---------------------------------------------------------------------
                    Distance matrix (angstroms):
                    1          2          3          4          5
     1  Si   0.000000
     2  Si   4.832590   0.000000
     3  H    1.488465   5.790058   0.000000
     4  H    5.790058   1.488465   6.937339   0.000000
     5  H    1.488465   5.790072   2.480351   6.478788   0.000000
     6  H    5.790072   1.488465   6.478788   2.480352   6.937362
                    6
     6  H    0.000000
 Symmetry turned off by external request.
 Stoichiometry    H4Si2(1+,2)
 Framework group  C1[X(H4Si2)]
 Deg. of freedom    12
 Full point group                 C1      NOp   1
 Rotational constants (GHZ):          81.5090083           1.3696327           1.3469985
 Leave Link  202 at Mon Apr 21 20:17:08 2025, MaxMem=   536870912 cpu:               0.4 elap:               0.3
 (Enter /home/szhao/Apps/g16/l301.exe)
 Standard basis: 6-311+G(d,p) (5D, 7F)
 Ernie: Thresh=  0.10000D-02 Tol=  0.10000D-05 Strict=F.
    84 basis functions,   132 primitive gaussians,    86 cartesian basis functions
    16 alpha electrons       15 beta electrons
       nuclear repulsion energy        47.2320771730 Hartrees.
 IExCor= 4336 DFT=T Ex+Corr=M062X ExCW=0 ScaHFX=  0.540000
 ScaDFX=  1.000000  1.000000  1.000000  1.000000 ScalE2=  1.000000  1.000000
 IRadAn=      7 IRanWt=     -1 IRanGd=            0 ICorTp=0 IEmpDi=  4
 NAtoms=    6 NActive=    6 NUniq=    6 SFac= 1.00D+00 NAtFMM=   60 NAOKFM=F Big=F
 Integral buffers will be    131072 words long.
 Raffenetti 2 integral format.
 Two-electron integral symmetry is turned off.
 Leave Link  301 at Mon Apr 21 20:17:09 2025, MaxMem=   536870912 cpu:               1.3 elap:               0.3
 (Enter /home/szhao/Apps/g16/l302.exe)
 NPDir=0 NMtPBC=     1 NCelOv=     1 NCel=       1 NClECP=     1 NCelD=      1
         NCelK=      1 NCelE2=     1 NClLst=     1 CellRange=     0.0.
 One-electron integrals computed using PRISM.
 NBasis=    84 RedAO= T EigKep=  1.50D-02  NBF=    84
 NBsUse=    84 1.00D-06 EigRej= -1.00D+00 NBFU=    84
 Precomputing XC quadrature grid using
 IXCGrd= 4 IRadAn=           7 IRanWt=          -1 IRanGd=           0 AccXCQ= 0.00D+00.
 Generated NRdTot=       0 NPtTot=           0 NUsed=           0 NTot=          32
 NSgBfM=    76    76    76    76    76 MxSgAt=     6 MxSgA2=     6.
 Leave Link  302 at Mon Apr 21 20:17:09 2025, MaxMem=   536870912 cpu:               2.4 elap:               0.4
 (Enter /home/szhao/Apps/g16/l303.exe)
 DipDrv:  MaxL=1.
 Leave Link  303 at Mon Apr 21 20:17:10 2025, MaxMem=   536870912 cpu:               1.3 elap:               0.2
 (Enter /home/szhao/Apps/g16/l401.exe)
 Initial guess from the checkpoint file:  "opt.chk"
 B after Tr=    -0.000000    0.000000   -0.000006
         Rot=    1.000000    0.000009    0.000000   -0.000000 Ang=   0.00 deg.
 Guess basis will be translated and rotated to current coordinates.
 JPrj=2 DoOrth=T DoCkMO=T.
 Initial guess <Sx>= 0.0000 <Sy>= 0.0000 <Sz>= 0.5000 <S**2>= 0.7596 S= 0.5048
 Generating alternative initial guess.
 ExpMin= 3.31D-02 ExpMax= 6.94D+04 ExpMxC= 2.33D+03 IAcc=3 IRadAn=         5 AccDes= 0.00D+00
 Harris functional with IExCor= 1009 and IRadAn=       5 diagonalized for initial guess.
 HarFok:  IExCor= 1009 AccDes= 0.00D+00 IRadAn=         5 IDoV= 1 UseB2=F ITyADJ=14
 ICtDFT=  3500011 ScaDFX=  1.000000  1.000000  1.000000  1.000000
 FoFCou: FMM=F IPFlag=           0 FMFlag=      100000 FMFlg1=           0
         NFxFlg=           0 DoJE=T BraDBF=F KetDBF=T FulRan=T
         wScrn=  0.000000 ICntrl=       500 IOpCl=  0 I1Cent=   200000004 NGrid=           0
         NMat0=    1 NMatS0=      1 NMatT0=    0 NMatD0=    1 NMtDS0=    0 NMtDT0=    0
 Symmetry not used in FoFCou.
 Harris En= -580.634494810728    
 Leave Link  401 at Mon Apr 21 20:17:11 2025, MaxMem=   536870912 cpu:               3.8 elap:               0.7
 (Enter /home/szhao/Apps/g16/l502.exe)
 Keep R1 and R2 ints in memory in canonical form, NReq=20057634.
 FoFCou: FMM=F IPFlag=           0 FMFlag=           0 FMFlg1=           0
         NFxFlg=           0 DoJE=F BraDBF=F KetDBF=F FulRan=T
         wScrn=  0.000000 ICntrl=       600 IOpCl=  0 I1Cent=           0 NGrid=           0
         NMat0=    1 NMatS0=   3570 NMatT0=    0 NMatD0=    1 NMtDS0=    0 NMtDT0=    0
 Symmetry not used in FoFCou.
 Two-electron integral symmetry not used.
 UHF open shell SCF:
 Using DIIS extrapolation, IDIIS=  1040.
 NGot=   536870912 LenX=   524106186 LenY=   524098349
 Requested convergence on RMS density matrix=1.00D-08 within 128 cycles.
 Requested convergence on MAX density matrix=1.00D-06.
 Requested convergence on             energy=1.00D-06.
 No special actions if energy rises.

 Cycle   1  Pass 1  IDiag  1:
 E= -580.868097247797    
 DIIS: error= 3.13D-03 at cycle   1 NSaved=   1.
 NSaved= 1 IEnMin= 1 EnMin= -580.868097247797     IErMin= 1 ErrMin= 3.13D-03
 ErrMax= 3.13D-03  0.00D+00 EMaxC= 1.00D-01 BMatC= 2.08D-03 BMatP= 2.08D-03
 IDIUse=3 WtCom= 9.69D-01 WtEn= 3.13D-02
 Coeff-Com:  0.100D+01
 Coeff-En:   0.100D+01
 Coeff:      0.100D+01
 Gap=     0.538 Goal=   None    Shift=    0.000
 Gap=     0.320 Goal=   None    Shift=    0.000
 GapD=    0.320 DampG=1.000 DampE=1.000 DampFc=1.0000 IDamp=-1.
 RMSDP=3.33D-04 MaxDP=4.37D-03              OVMax= 1.13D-02

 Cycle   2  Pass 1  IDiag  1:
 E= -580.868852546414     Delta-E=       -0.000755298616 Rises=F Damp=F
 DIIS: error= 3.75D-04 at cycle   2 NSaved=   2.
 NSaved= 2 IEnMin= 2 EnMin= -580.868852546414     IErMin= 2 ErrMin= 3.75D-04
 ErrMax= 3.75D-04  0.00D+00 EMaxC= 1.00D-01 BMatC= 3.47D-05 BMatP= 2.08D-03
 IDIUse=3 WtCom= 9.96D-01 WtEn= 3.75D-03
 Coeff-Com: -0.720D-01 0.107D+01
 Coeff-En:   0.000D+00 0.100D+01
 Coeff:     -0.717D-01 0.107D+01
 Gap=     0.199 Goal=   None    Shift=    0.000
 Gap=     0.090 Goal=   None    Shift=    0.000
 RMSDP=8.04D-05 MaxDP=1.21D-03 DE=-7.55D-04 OVMax= 2.69D-03

 Cycle   3  Pass 1  IDiag  1:
 E= -580.868873377331     Delta-E=       -0.000020830917 Rises=F Damp=F
 DIIS: error= 8.48D-05 at cycle   3 NSaved=   3.
 NSaved= 3 IEnMin= 3 EnMin= -580.868873377331     IErMin= 3 ErrMin= 8.48D-05
 ErrMax= 8.48D-05  0.00D+00 EMaxC= 1.00D-01 BMatC= 2.96D-06 BMatP= 3.47D-05
 IDIUse=1 WtCom= 1.00D+00 WtEn= 0.00D+00
 Coeff-Com: -0.215D-01 0.162D+00 0.860D+00
 Coeff:     -0.215D-01 0.162D+00 0.860D+00
 Gap=     0.199 Goal=   None    Shift=    0.000
 Gap=     0.090 Goal=   None    Shift=    0.000
 RMSDP=1.61D-05 MaxDP=3.46D-04 DE=-2.08D-05 OVMax= 5.35D-04

 Cycle   4  Pass 1  IDiag  1:
 E= -580.868874344837     Delta-E=       -0.000000967506 Rises=F Damp=F
 DIIS: error= 2.70D-05 at cycle   4 NSaved=   4.
 NSaved= 4 IEnMin= 4 EnMin= -580.868874344837     IErMin= 4 ErrMin= 2.70D-05
 ErrMax= 2.70D-05  0.00D+00 EMaxC= 1.00D-01 BMatC= 2.66D-07 BMatP= 2.96D-06
 IDIUse=1 WtCom= 1.00D+00 WtEn= 0.00D+00
 Coeff-Com:  0.405D-02-0.738D-01 0.726D-01 0.997D+00
 Coeff:      0.405D-02-0.738D-01 0.726D-01 0.997D+00
 Gap=     0.199 Goal=   None    Shift=    0.000
 Gap=     0.090 Goal=   None    Shift=    0.000
 RMSDP=8.65D-06 MaxDP=2.53D-04 DE=-9.68D-07 OVMax= 2.77D-04

 Cycle   5  Pass 1  IDiag  1:
 E= -580.868874500631     Delta-E=       -0.000000155794 Rises=F Damp=F
 DIIS: error= 9.34D-06 at cycle   5 NSaved=   5.
 NSaved= 5 IEnMin= 5 EnMin= -580.868874500631     IErMin= 5 ErrMin= 9.34D-06
 ErrMax= 9.34D-06  0.00D+00 EMaxC= 1.00D-01 BMatC= 1.65D-08 BMatP= 2.66D-07
 IDIUse=1 WtCom= 1.00D+00 WtEn= 0.00D+00
 Coeff-Com: -0.178D-04 0.986D-02-0.500D-01-0.259D+00 0.130D+01
 Coeff:     -0.178D-04 0.986D-02-0.500D-01-0.259D+00 0.130D+01
 Gap=     0.199 Goal=   None    Shift=    0.000
 Gap=     0.090 Goal=   None    Shift=    0.000
 RMSDP=3.16D-06 MaxDP=9.21D-05 DE=-1.56D-07 OVMax= 9.97D-05

 Cycle   6  Pass 1  IDiag  1:
 E= -580.868874520893     Delta-E=       -0.000000020262 Rises=F Damp=F
 DIIS: error= 3.69D-06 at cycle   6 NSaved=   6.
 NSaved= 6 IEnMin= 6 EnMin= -580.868874520893     IErMin= 6 ErrMin= 3.69D-06
 ErrMax= 3.69D-06  0.00D+00 EMaxC= 1.00D-01 BMatC= 1.36D-09 BMatP= 1.65D-08
 IDIUse=1 WtCom= 1.00D+00 WtEn= 0.00D+00
 Coeff-Com: -0.366D-03 0.514D-02-0.361D-02-0.316D-01-0.232D+00 0.126D+01
 Coeff:     -0.366D-03 0.514D-02-0.361D-02-0.316D-01-0.232D+00 0.126D+01
 Gap=     0.199 Goal=   None    Shift=    0.000
 Gap=     0.090 Goal=   None    Shift=    0.000
 RMSDP=9.04D-07 MaxDP=2.07D-05 DE=-2.03D-08 OVMax= 2.58D-05

 Cycle   7  Pass 1  IDiag  1:
 E= -580.868874522439     Delta-E=       -0.000000001546 Rises=F Damp=F
 DIIS: error= 6.75D-07 at cycle   7 NSaved=   7.
 NSaved= 7 IEnMin= 7 EnMin= -580.868874522439     IErMin= 7 ErrMin= 6.75D-07
 ErrMax= 6.75D-07  0.00D+00 EMaxC= 1.00D-01 BMatC= 3.70D-11 BMatP= 1.36D-09
 IDIUse=1 WtCom= 1.00D+00 WtEn= 0.00D+00
 Coeff-Com:  0.116D-04-0.510D-03 0.300D-02 0.725D-02-0.614D-01 0.497D-01
 Coeff-Com:  0.100D+01
 Coeff:      0.116D-04-0.510D-03 0.300D-02 0.725D-02-0.614D-01 0.497D-01
 Coeff:      0.100D+01
 Gap=     0.199 Goal=   None    Shift=    0.000
 Gap=     0.090 Goal=   None    Shift=    0.000
 RMSDP=1.11D-07 MaxDP=2.59D-06 DE=-1.55D-09 OVMax= 4.01D-06

 Cycle   8  Pass 1  IDiag  1:
 E= -580.868874522466     Delta-E=       -0.000000000027 Rises=F Damp=F
 DIIS: error= 6.40D-08 at cycle   8 NSaved=   8.
 NSaved= 8 IEnMin= 8 EnMin= -580.868874522466     IErMin= 8 ErrMin= 6.40D-08
 ErrMax= 6.40D-08  0.00D+00 EMaxC= 1.00D-01 BMatC= 7.89D-13 BMatP= 3.70D-11
 IDIUse=1 WtCom= 1.00D+00 WtEn= 0.00D+00
 Coeff-Com:  0.118D-04-0.159D-03-0.157D-03 0.169D-02 0.106D-01-0.402D-01
 Coeff-Com: -0.120D+00 0.115D+01
 Coeff:      0.118D-04-0.159D-03-0.157D-03 0.169D-02 0.106D-01-0.402D-01
 Coeff:     -0.120D+00 0.115D+01
 Gap=     0.199 Goal=   None    Shift=    0.000
 Gap=     0.090 Goal=   None    Shift=    0.000
 RMSDP=3.11D-08 MaxDP=9.14D-07 DE=-2.66D-11 OVMax= 8.85D-07

 Cycle   9  Pass 1  IDiag  1:
 E= -580.868874522467     Delta-E=       -0.000000000001 Rises=F Damp=F
 DIIS: error= 1.07D-08 at cycle   9 NSaved=   9.
 NSaved= 9 IEnMin= 9 EnMin= -580.868874522467     IErMin= 9 ErrMin= 1.07D-08
 ErrMax= 1.07D-08  0.00D+00 EMaxC= 1.00D-01 BMatC= 1.60D-14 BMatP= 7.89D-13
 IDIUse=1 WtCom= 1.00D+00 WtEn= 0.00D+00
 Coeff-Com: -0.822D-06 0.254D-04-0.747D-04-0.356D-03 0.105D-02 0.133D-02
 Coeff-Com: -0.209D-01-0.208D-01 0.104D+01
 Coeff:     -0.822D-06 0.254D-04-0.747D-04-0.356D-03 0.105D-02 0.133D-02
 Coeff:     -0.209D-01-0.208D-01 0.104D+01
 Gap=     0.199 Goal=   None    Shift=    0.000
 Gap=     0.090 Goal=   None    Shift=    0.000
 RMSDP=2.23D-09 MaxDP=6.98D-08 DE=-6.82D-13 OVMax= 1.33D-07

 SCF Done:  E(UM062X) =  -580.868874522     A.U. after    9 cycles
            NFock=  9  Conv=0.22D-08     -V/T= 2.0015
 <Sx>= 0.0000 <Sy>= 0.0000 <Sz>= 0.5000 <S**2>= 0.7593 S= 0.5046
 <L.S>=  0.00000000000    
 KE= 5.799731434684D+02 PE=-1.471723392902D+03 EE= 2.636492977384D+02
 Annihilation of the first spin contaminant:
 S**2 before annihilation     0.7593,   after     0.7500
 Leave Link  502 at Mon Apr 21 20:17:20 2025, MaxMem=   536870912 cpu:              62.3 elap:               8.3
 (Enter /home/szhao/Apps/g16/l701.exe)
 ... and contract with generalized density number  0.
 Compute integral first derivatives.
 Leave Link  701 at Mon Apr 21 20:17:20 2025, MaxMem=   536870912 cpu:               1.4 elap:               0.2
 (Enter /home/szhao/Apps/g16/l702.exe)
 L702 exits ... SP integral derivatives will be done elsewhere.
 Leave Link  702 at Mon Apr 21 20:17:20 2025, MaxMem=   536870912 cpu:               0.4 elap:               0.1
 (Enter /home/szhao/Apps/g16/l703.exe)
 Integral derivatives from FoFJK, PRISM(SPDF).
 Compute integral first derivatives, UseDBF=F ICtDFT=           0.
 Calling FoFJK, ICntrl=      2127 FMM=F ISym2X=0 I1Cent= 0 IOpClX= 1 NMat=1 NMatS=1 NMatT=0.
 FoFJK:  IHMeth= 1 ICntrl=    2127 DoSepK=F KAlg= 0 I1Cent=           0 FoldK=F
 IRaf=         0 NMat=       1 IRICut=       1 DoRegI=T DoRafI=F ISym2E= 0 IDoP0=0 IntGTp=1.
 FoFCou: FMM=F IPFlag=           0 FMFlag=      100000 FMFlg1=         800
         NFxFlg=           0 DoJE=F BraDBF=F KetDBF=F FulRan=T
         wScrn=  0.000000 ICntrl=      2127 IOpCl=  1 I1Cent=           0 NGrid=           0
         NMat0=    1 NMatS0=      1 NMatT0=    0 NMatD0=    1 NMtDS0=    0 NMtDT0=    0
 Symmetry not used in FoFCou.
 Leave Link  703 at Mon Apr 21 20:17:22 2025, MaxMem=   536870912 cpu:               9.2 elap:               1.2
 (Enter /home/szhao/Apps/g16/l716.exe)
 Dipole        = 4.56880169D-07 1.78580475D-08-3.53685316D-05
 -------------------------------------------------------------------
 Center     Atomic                   Forces (Hartrees/Bohr)
 Number     Number              X              Y              Z
 -------------------------------------------------------------------
      1       14          -0.000000000   -0.000000000   -0.000000000
      2       14          -0.000000000   -0.000000000   -0.000000000
      3        1          -0.005315444    0.002910091   -0.000000453
      4        1           0.005315453   -0.002910090   -0.000003329
      5        1          -0.005315392   -0.002910138   -0.000000129
      6        1           0.005315400    0.002910138    0.000002748
 -------------------------------------------------------------------
 Cartesian Forces:  Max     0.005315453 RMS     0.002856668
 Leave Link  716 at Mon Apr 21 20:17:22 2025, MaxMem=   536870912 cpu:               0.5 elap:               0.1
 (Enter /home/szhao/Apps/g16/l103.exe)

 GradGradGradGradGradGradGradGradGradGradGradGradGradGradGradGradGradGrad
 Berny optimization.
 Using GEDIIS/GDIIS optimizer.
 FormGI is forming the generalized inverse of G from B-inverse, IUseBI=4.
 Internal  Forces:  Max     0.011322452 RMS     0.005530292
 Search for a local minimum.
 Step number   2 out of a maximum of   30
 All quantities printed in internal units (Hartrees-Bohrs-Radians)
 RMS Force = .52485D-02 SwitMx=.10000D-02 MixMth= 1
 Mixed Optimization -- RFO/linear search
 Update second derivatives using D2CorX and points    1    2
 DE= -7.44D-03 DEPred=-5.43D-03 R= 1.37D+00
 TightC=F SS=  1.41D+00  RLast= 2.44D-01 DXNew= 5.0454D-01 7.3064D-01
 Trust test= 1.37D+00 RLast= 2.44D-01 DXMaxT set to 5.05D-01
 The second derivative matrix:
                          X1        Y1        Z1        X2        Y2
           X1           0.55939
           Y1           0.00001   0.50000
           Z1           0.00000   0.00000   0.50000
           X2          -0.05939  -0.00001  -0.00000   0.55939
           Y2          -0.00001  -0.00000  -0.00000   0.00001   0.50000
           Z2           0.00000   0.00000   0.00000  -0.00000  -0.00000
           R1          -0.02358  -0.00000  -0.00000   0.02358   0.00000
           R2          -0.02357  -0.00000  -0.00000   0.02357   0.00000
           R3          -0.02358  -0.00000  -0.00000   0.02358   0.00000
           R4          -0.02357  -0.00000  -0.00000   0.02357   0.00000
           A1          -0.01827  -0.00000  -0.00000   0.01827   0.00000
           A2          -0.01827  -0.00000  -0.00000   0.01827   0.00000
           A3           0.03653   0.00000   0.00000  -0.03653  -0.00000
           A4          -0.01827  -0.00000  -0.00000   0.01827   0.00000
           A5          -0.01827  -0.00000  -0.00000   0.01827   0.00000
           A6           0.03653   0.00000   0.00000  -0.03653  -0.00000
           D1           0.00000   0.00000   0.00000  -0.00000  -0.00000
           D2          -0.00000  -0.00000  -0.00000   0.00000   0.00000
           D3          -0.00000  -0.00000  -0.00000   0.00000   0.00000
           D4          -0.00000  -0.00000  -0.00000   0.00000   0.00000
                          Z2        R1        R2        R3        R4
           Z2           0.50000
           R1          -0.00000   0.18760
           R2          -0.00000   0.00371   0.18760
           R3          -0.00000   0.00371   0.00371   0.18760
           R4          -0.00000   0.00371   0.00371   0.00371   0.18760
           A1          -0.00000  -0.00088  -0.00088  -0.00088  -0.00088
           A2          -0.00000  -0.00088  -0.00088  -0.00088  -0.00088
           A3           0.00000   0.00175   0.00175   0.00175   0.00175
           A4          -0.00000  -0.00088  -0.00088  -0.00088  -0.00088
           A5          -0.00000  -0.00088  -0.00088  -0.00088  -0.00088
           A6           0.00000   0.00175   0.00175   0.00175   0.00175
           D1           0.00000  -0.00000  -0.00000  -0.00000  -0.00000
           D2          -0.00000   0.00000   0.00000   0.00000   0.00000
           D3          -0.00000   0.00000   0.00000   0.00000   0.00000
           D4          -0.00000   0.00000   0.00000   0.00000   0.00000
                          A1        A2        A3        A4        A5
           A1           0.15392
           A2          -0.00608   0.15392
           A3           0.01215   0.01215   0.13569
           A4          -0.00608  -0.00608   0.01215   0.15392
           A5          -0.00608  -0.00608   0.01215  -0.00608   0.15392
           A6           0.01215   0.01215  -0.02431   0.01215   0.01215
           D1          -0.00000  -0.00000   0.00000  -0.00000  -0.00000
           D2           0.00000   0.00000  -0.00000   0.00000   0.00000
           D3           0.00000   0.00000  -0.00000   0.00000   0.00000
           D4           0.00000   0.00000  -0.00000   0.00000   0.00000
                          A6        D1        D2        D3        D4
           A6           0.13569
           D1           0.00000   0.00230
           D2          -0.00000  -0.00000   0.00230
           D3          -0.00000  -0.00000   0.00000   0.00230
           D4          -0.00000  -0.00000   0.00000   0.00000   0.00230
 ITU=  1  0
 Use linear search instead of GDIIS.
     Eigenvalues ---    0.00230   0.00230   0.00230   0.08676   0.16000
     Eigenvalues ---    0.16000   0.16000   0.18389   0.18389   0.18389
     Eigenvalues ---    0.199051000.000001000.000001000.000001000.00000
     Eigenvalues --- 1000.000001000.000001000.000001000.000001000.00000
 RFO step:  Lambda=-6.95890242D-04 EMin= 2.30000000D-03
 Quartic linear search produced a step of  0.78743.
 Iteration  1 RMS(Cart)=  0.07965243 RMS(Int)=  0.00252018
 Iteration  2 RMS(Cart)=  0.00254182 RMS(Int)=  0.00000052
 Iteration  3 RMS(Cart)=  0.00000083 RMS(Int)=  0.00000000
 ITry= 1 IFail=0 DXMaxC= 1.49D-01 DCOld= 1.00D+10 DXMaxT= 5.05D-01 DXLimC= 3.00D+00 Rises=F
 Variable       Old X    -DE/DX   Delta X   Delta X   Delta X     New X
                                 (Linear)    (Quad)   (Total)
    X1       -4.56614  -0.01063   0.00000   0.00000   0.00000  -4.56614
    Y1        0.00000  -0.00000   0.00000   0.00000   0.00000   0.00000
    Z1        0.00000  -0.00000   0.00000   0.00000   0.00000   0.00000
    X2        4.56614   0.01063   0.00000   0.00000   0.00000   4.56614
    Y2        0.00000   0.00000   0.00000   0.00000   0.00000   0.00000
    Z2        0.00000  -0.00000   0.00000   0.00000   0.00000   0.00000
    R1        2.81279   0.00051   0.03161  -0.02603   0.00558   2.81837
    R2        2.81279   0.00051   0.03160  -0.02602   0.00558   2.81837
    R3        2.81279   0.00051   0.03161  -0.02603   0.00558   2.81837
    R4        2.81279   0.00051   0.03160  -0.02602   0.00558   2.81837
    A1        2.15673   0.00566   0.05227   0.01115   0.06341   2.22015
    A2        2.15675   0.00566   0.05227   0.01114   0.06341   2.22016
    A3        1.96971  -0.01132  -0.10454  -0.02229  -0.12683   1.84288
    A4        2.15673   0.00566   0.05227   0.01115   0.06341   2.22015
    A5        2.15675   0.00566   0.05227   0.01115   0.06341   2.22016
    A6        1.96971  -0.01132  -0.10454  -0.02229  -0.12683   1.84288
    D1       -3.14069  -0.00000  -0.00003   0.00004   0.00001  -3.14068
    D2        0.00102  -0.00000   0.00001  -0.00010  -0.00010   0.00092
    D3        0.00102  -0.00000   0.00001  -0.00010  -0.00010   0.00092
    D4       -3.14045  -0.00000   0.00004  -0.00024  -0.00020  -3.14065
         Item               Value     Threshold  Converged?
 Maximum Force            0.011322     0.000450     NO 
 RMS     Force            0.005248     0.000300     NO 
 Maximum Displacement     0.148764     0.001800     NO 
 RMS     Displacement     0.079873     0.001200     NO 
 Predicted change in Energy=-2.220831D-03
 Lowest energy point so far.  Saving SCF results.
 GradGradGradGradGradGradGradGradGradGradGradGradGradGradGradGradGradGrad

 Leave Link  103 at Mon Apr 21 20:17:22 2025, MaxMem=   536870912 cpu:               0.8 elap:               0.2
 (Enter /home/szhao/Apps/g16/l202.exe)
                          Input orientation:                          
 ---------------------------------------------------------------------
 Center     Atomic      Atomic             Coordinates (Angstroms)
 Number     Number       Type             X           Y           Z
 ---------------------------------------------------------------------
      1         14           0       -2.416295    0.000000    0.000000
      2         14           0        2.416295    0.000000    0.000000
      3          1           0       -3.318107   -1.187881    0.000028
      4          1           0        3.318107    1.187880    0.001053
      5          1           0       -3.318123    1.187869   -0.000045
      6          1           0        3.318123   -1.187869   -0.001071
 ---------------------------------------------------------------------
                    Distance matrix (angstroms):
                    1          2          3          4          5
     1  Si   0.000000
     2  Si   4.832590   0.000000
     3  H    1.491418   5.856145   0.000000
     4  H    5.856145   1.491418   7.048659   0.000000
     5  H    1.491418   5.856157   2.375750   6.636230   0.000000
     6  H    5.856157   1.491418   6.636230   2.375750   7.048680
                    6
     6  H    0.000000
 Symmetry turned off by external request.
 Stoichiometry    H4Si2(1+,2)
 Framework group  C1[X(H4Si2)]
 Deg. of freedom    12
 Full point group                 C1      NOp   1
 Rotational constants (GHZ):          88.8445115           1.3619516           1.3413887
 Leave Link  202 at Mon Apr 21 20:17:23 2025, MaxMem=   536870912 cpu:               0.2 elap:               0.2
 (Enter /home/szhao/Apps/g16/l301.exe)
 Standard basis: 6-311+G(d,p) (5D, 7F)
 Ernie: Thresh=  0.10000D-02 Tol=  0.10000D-05 Strict=F.
    84 basis functions,   132 primitive gaussians,    86 cartesian basis functions
    16 alpha electrons       15 beta electrons
       nuclear repulsion energy        47.1474044926 Hartrees.
 IExCor= 4336 DFT=T Ex+Corr=M062X ExCW=0 ScaHFX=  0.540000
 ScaDFX=  1.000000  1.000000  1.000000  1.000000 ScalE2=  1.000000  1.000000
 IRadAn=      7 IRanWt=     -1 IRanGd=            0 ICorTp=0 IEmpDi=  4
 NAtoms=    6 NActive=    6 NUniq=    6 SFac= 1.00D+00 NAtFMM=   60 NAOKFM=F Big=F
 Integral buffers will be    131072 words long.
 Raffenetti 2 integral format.
 Two-electron integral symmetry is turned off.
 Leave Link  301 at Mon Apr 21 20:17:23 2025, MaxMem=   536870912 cpu:               0.6 elap:               0.1
 (Enter /home/szhao/Apps/g16/l302.exe)
 NPDir=0 NMtPBC=     1 NCelOv=     1 NCel=       1 NClECP=     1 NCelD=      1
         NCelK=      1 NCelE2=     1 NClLst=     1 CellRange=     0.0.
 One-electron integrals computed using PRISM.
 NBasis=    84 RedAO= T EigKep=  1.45D-02  NBF=    84
 NBsUse=    84 1.00D-06 EigRej= -1.00D+00 NBFU=    84
 Precomputing XC quadrature grid using
 IXCGrd= 4 IRadAn=           7 IRanWt=          -1 IRanGd=           0 AccXCQ= 0.00D+00.
 Generated NRdTot=       0 NPtTot=           0 NUsed=           0 NTot=          32
 NSgBfM=    76    76    76    76    76 MxSgAt=     6 MxSgA2=     6.
 Leave Link  302 at Mon Apr 21 20:17:24 2025, MaxMem=   536870912 cpu:               1.8 elap:               0.3
 (Enter /home/szhao/Apps/g16/l303.exe)
 DipDrv:  MaxL=1.
 Leave Link  303 at Mon Apr 21 20:17:24 2025, MaxMem=   536870912 cpu:               1.2 elap:               0.2
 (Enter /home/szhao/Apps/g16/l401.exe)
 Initial guess from the checkpoint file:  "opt.chk"
 B after Tr=     0.000000   -0.000000    0.000016
         Rot=    1.000000    0.000011   -0.000000    0.000000 Ang=   0.00 deg.
 Guess basis will be translated and rotated to current coordinates.
 JPrj=2 DoOrth=T DoCkMO=T.
 Initial guess <Sx>= 0.0000 <Sy>= 0.0000 <Sz>= 0.5000 <S**2>= 0.7591 S= 0.5045
 Generating alternative initial guess.
 ExpMin= 3.31D-02 ExpMax= 6.94D+04 ExpMxC= 2.33D+03 IAcc=3 IRadAn=         5 AccDes= 0.00D+00
 Harris functional with IExCor= 1009 and IRadAn=       5 diagonalized for initial guess.
 HarFok:  IExCor= 1009 AccDes= 0.00D+00 IRadAn=         5 IDoV= 1 UseB2=F ITyADJ=14
 ICtDFT=  3500011 ScaDFX=  1.000000  1.000000  1.000000  1.000000
 FoFCou: FMM=F IPFlag=           0 FMFlag=      100000 FMFlg1=           0
         NFxFlg=           0 DoJE=T BraDBF=F KetDBF=T FulRan=T
         wScrn=  0.000000 ICntrl=       500 IOpCl=  0 I1Cent=   200000004 NGrid=           0
         NMat0=    1 NMatS0=      1 NMatT0=    0 NMatD0=    1 NMtDS0=    0 NMtDT0=    0
 Symmetry not used in FoFCou.
 Harris En= -580.639487585200    
 Leave Link  401 at Mon Apr 21 20:17:25 2025, MaxMem=   536870912 cpu:               3.4 elap:               0.6
 (Enter /home/szhao/Apps/g16/l502.exe)
 Keep R1 and R2 ints in memory in canonical form, NReq=20057634.
 FoFCou: FMM=F IPFlag=           0 FMFlag=           0 FMFlg1=           0
         NFxFlg=           0 DoJE=F BraDBF=F KetDBF=F FulRan=T
         wScrn=  0.000000 ICntrl=       600 IOpCl=  0 I1Cent=           0 NGrid=           0
         NMat0=    1 NMatS0=   3570 NMatT0=    0 NMatD0=    1 NMtDS0=    0 NMtDT0=    0
 Symmetry not used in FoFCou.
 Two-electron integral symmetry not used.
 UHF open shell SCF:
 Using DIIS extrapolation, IDIIS=  1040.
 NGot=   536870912 LenX=   524106186 LenY=   524098349
 Requested convergence on RMS density matrix=1.00D-08 within 128 cycles.
 Requested convergence on MAX density matrix=1.00D-06.
 Requested convergence on             energy=1.00D-06.
 No special actions if energy rises.

 Cycle   1  Pass 1  IDiag  1:
 E= -580.870467379424    
 DIIS: error= 3.00D-03 at cycle   1 NSaved=   1.
 NSaved= 1 IEnMin= 1 EnMin= -580.870467379424     IErMin= 1 ErrMin= 3.00D-03
 ErrMax= 3.00D-03  0.00D+00 EMaxC= 1.00D-01 BMatC= 1.37D-03 BMatP= 1.37D-03
 IDIUse=3 WtCom= 9.70D-01 WtEn= 3.00D-02
 Coeff-Com:  0.100D+01
 Coeff-En:   0.100D+01
 Coeff:      0.100D+01
 Gap=     0.544 Goal=   None    Shift=    0.000
 Gap=     0.308 Goal=   None    Shift=    0.000
 GapD=    0.308 DampG=1.000 DampE=1.000 DampFc=1.0000 IDamp=-1.
 RMSDP=2.51D-04 MaxDP=2.69D-03              OVMax= 9.81D-03

 Cycle   2  Pass 1  IDiag  1:
 E= -580.870968140970     Delta-E=       -0.000500761546 Rises=F Damp=F
 DIIS: error= 3.40D-04 at cycle   2 NSaved=   2.
 NSaved= 2 IEnMin= 2 EnMin= -580.870968140970     IErMin= 2 ErrMin= 3.40D-04
 ErrMax= 3.40D-04  0.00D+00 EMaxC= 1.00D-01 BMatC= 2.12D-05 BMatP= 1.37D-03
 IDIUse=3 WtCom= 9.97D-01 WtEn= 3.40D-03
 Coeff-Com: -0.823D-01 0.108D+01
 Coeff-En:   0.000D+00 0.100D+01
 Coeff:     -0.820D-01 0.108D+01
 Gap=     0.209 Goal=   None    Shift=    0.000
 Gap=     0.089 Goal=   None    Shift=    0.000
 RMSDP=5.39D-05 MaxDP=6.29D-04 DE=-5.01D-04 OVMax= 1.66D-03

 Cycle   3  Pass 1  IDiag  1:
 E= -580.870980207390     Delta-E=       -0.000012066421 Rises=F Damp=F
 DIIS: error= 5.13D-05 at cycle   3 NSaved=   3.
 NSaved= 3 IEnMin= 3 EnMin= -580.870980207390     IErMin= 3 ErrMin= 5.13D-05
 ErrMax= 5.13D-05  0.00D+00 EMaxC= 1.00D-01 BMatC= 1.03D-06 BMatP= 2.12D-05
 IDIUse=1 WtCom= 1.00D+00 WtEn= 0.00D+00
 Coeff-Com: -0.145D-01 0.107D+00 0.908D+00
 Coeff:     -0.145D-01 0.107D+00 0.908D+00
 Gap=     0.209 Goal=   None    Shift=    0.000
 Gap=     0.089 Goal=   None    Shift=    0.000
 RMSDP=8.52D-06 MaxDP=1.75D-04 DE=-1.21D-05 OVMax= 3.53D-04

 Cycle   4  Pass 1  IDiag  1:
 E= -580.870980547779     Delta-E=       -0.000000340389 Rises=F Damp=F
 DIIS: error= 1.56D-05 at cycle   4 NSaved=   4.
 NSaved= 4 IEnMin= 4 EnMin= -580.870980547779     IErMin= 4 ErrMin= 1.56D-05
 ErrMax= 1.56D-05  0.00D+00 EMaxC= 1.00D-01 BMatC= 7.81D-08 BMatP= 1.03D-06
 IDIUse=1 WtCom= 1.00D+00 WtEn= 0.00D+00
 Coeff-Com:  0.279D-02-0.506D-01 0.887D-01 0.959D+00
 Coeff:      0.279D-02-0.506D-01 0.887D-01 0.959D+00
 Gap=     0.209 Goal=   None    Shift=    0.000
 Gap=     0.089 Goal=   None    Shift=    0.000
 RMSDP=3.22D-06 MaxDP=6.85D-05 DE=-3.40D-07 OVMax= 1.01D-04

 Cycle   5  Pass 1  IDiag  1:
 E= -580.870980577303     Delta-E=       -0.000000029524 Rises=F Damp=F
 DIIS: error= 4.11D-06 at cycle   5 NSaved=   5.
 NSaved= 5 IEnMin= 5 EnMin= -580.870980577303     IErMin= 5 ErrMin= 4.11D-06
 ErrMax= 4.11D-06  0.00D+00 EMaxC= 1.00D-01 BMatC= 3.12D-09 BMatP= 7.81D-08
 IDIUse=1 WtCom= 1.00D+00 WtEn= 0.00D+00
 Coeff-Com:  0.530D-03-0.591D-02-0.222D-01 0.371D-01 0.990D+00
 Coeff:      0.530D-03-0.591D-02-0.222D-01 0.371D-01 0.990D+00
 Gap=     0.209 Goal=   None    Shift=    0.000
 Gap=     0.089 Goal=   None    Shift=    0.000
 RMSDP=8.38D-07 MaxDP=1.94D-05 DE=-2.95D-08 OVMax= 2.39D-05

 Cycle   6  Pass 1  IDiag  1:
 E= -580.870980579725     Delta-E=       -0.000000002422 Rises=F Damp=F
 DIIS: error= 1.52D-06 at cycle   6 NSaved=   6.
 NSaved= 6 IEnMin= 6 EnMin= -580.870980579725     IErMin= 6 ErrMin= 1.52D-06
 ErrMax= 1.52D-06  0.00D+00 EMaxC= 1.00D-01 BMatC= 4.32D-10 BMatP= 3.12D-09
 IDIUse=1 WtCom= 1.00D+00 WtEn= 0.00D+00
 Coeff-Com: -0.375D-03 0.617D-02-0.390D-02-0.902D-01-0.281D+00 0.137D+01
 Coeff:     -0.375D-03 0.617D-02-0.390D-02-0.902D-01-0.281D+00 0.137D+01
 Gap=     0.209 Goal=   None    Shift=    0.000
 Gap=     0.089 Goal=   None    Shift=    0.000
 RMSDP=4.68D-07 MaxDP=1.01D-05 DE=-2.42D-09 OVMax= 1.40D-05

 Cycle   7  Pass 1  IDiag  1:
 E= -580.870980580227     Delta-E=       -0.000000000502 Rises=F Damp=F
 DIIS: error= 4.30D-07 at cycle   7 NSaved=   7.
 NSaved= 7 IEnMin= 7 EnMin= -580.870980580227     IErMin= 7 ErrMin= 4.30D-07
 ErrMax= 4.30D-07  0.00D+00 EMaxC= 1.00D-01 BMatC= 1.79D-11 BMatP= 4.32D-10
 IDIUse=1 WtCom= 1.00D+00 WtEn= 0.00D+00
 Coeff-Com:  0.208D-04-0.635D-03 0.226D-02 0.132D-01-0.371D-01-0.161D+00
 Coeff-Com:  0.118D+01
 Coeff:      0.208D-04-0.635D-03 0.226D-02 0.132D-01-0.371D-01-0.161D+00
 Coeff:      0.118D+01
 Gap=     0.209 Goal=   None    Shift=    0.000
 Gap=     0.089 Goal=   None    Shift=    0.000
 RMSDP=9.34D-08 MaxDP=2.41D-06 DE=-5.02D-10 OVMax= 3.41D-06

 Cycle   8  Pass 1  IDiag  1:
 E= -580.870980580249     Delta-E=       -0.000000000021 Rises=F Damp=F
 DIIS: error= 1.07D-07 at cycle   8 NSaved=   8.
 NSaved= 8 IEnMin= 8 EnMin= -580.870980580249     IErMin= 8 ErrMin= 1.07D-07
 ErrMax= 1.07D-07  0.00D+00 EMaxC= 1.00D-01 BMatC= 1.56D-12 BMatP= 1.79D-11
 IDIUse=1 WtCom= 1.00D+00 WtEn= 0.00D+00
 Coeff-Com:  0.178D-04-0.297D-03 0.374D-03 0.359D-02 0.130D-01-0.786D-01
 Coeff-Com:  0.117D+00 0.945D+00
 Coeff:      0.178D-04-0.297D-03 0.374D-03 0.359D-02 0.130D-01-0.786D-01
 Coeff:      0.117D+00 0.945D+00
 Gap=     0.209 Goal=   None    Shift=    0.000
 Gap=     0.089 Goal=   None    Shift=    0.000
 RMSDP=2.15D-08 MaxDP=3.41D-07 DE=-2.15D-11 OVMax= 1.76D-06

 Cycle   9  Pass 1  IDiag  1:
 E= -580.870980580252     Delta-E=       -0.000000000003 Rises=F Damp=F
 DIIS: error= 9.21D-08 at cycle   9 NSaved=   9.
 NSaved= 9 IEnMin= 9 EnMin= -580.870980580252     IErMin= 9 ErrMin= 9.21D-08
 ErrMax= 9.21D-08  0.00D+00 EMaxC= 1.00D-01 BMatC= 5.08D-13 BMatP= 1.56D-12
 IDIUse=1 WtCom= 1.00D+00 WtEn= 0.00D+00
 Coeff-Com: -0.706D-05 0.140D-03-0.354D-03-0.176D-02-0.291D-03 0.337D-01
 Coeff-Com: -0.133D+00-0.295D+00 0.140D+01
 Coeff:     -0.706D-05 0.140D-03-0.354D-03-0.176D-02-0.291D-03 0.337D-01
 Coeff:     -0.133D+00-0.295D+00 0.140D+01
 Gap=     0.209 Goal=   None    Shift=    0.000
 Gap=     0.089 Goal=   None    Shift=    0.000
 RMSDP=2.38D-08 MaxDP=4.08D-07 DE=-2.96D-12 OVMax= 2.25D-06

 Cycle  10  Pass 1  IDiag  1:
 E= -580.870980580254     Delta-E=       -0.000000000002 Rises=F Damp=F
 DIIS: error= 7.23D-08 at cycle  10 NSaved=  10.
 NSaved=10 IEnMin=10 EnMin= -580.870980580254     IErMin=10 ErrMin= 7.23D-08
 ErrMax= 7.23D-08  0.00D+00 EMaxC= 1.00D-01 BMatC= 2.94D-13 BMatP= 5.08D-13
 IDIUse=1 WtCom= 1.00D+00 WtEn= 0.00D+00
 Coeff-Com: -0.556D-06-0.833D-05 0.169D-03 0.249D-05-0.448D-02 0.174D-02
 Coeff-Com:  0.650D-01-0.897D-01-0.119D+01 0.222D+01
 Coeff:     -0.556D-06-0.833D-05 0.169D-03 0.249D-05-0.448D-02 0.174D-02
 Coeff:      0.650D-01-0.897D-01-0.119D+01 0.222D+01
 Gap=     0.209 Goal=   None    Shift=    0.000
 Gap=     0.089 Goal=   None    Shift=    0.000
 RMSDP=3.59D-08 MaxDP=6.14D-07 DE=-2.39D-12 OVMax= 3.46D-06

 Cycle  11  Pass 1  IDiag  1:
 E= -580.870980580257     Delta-E=       -0.000000000003 Rises=F Damp=F
 DIIS: error= 4.12D-08 at cycle  11 NSaved=  11.
 NSaved=11 IEnMin=11 EnMin= -580.870980580257     IErMin=11 ErrMin= 4.12D-08
 ErrMax= 4.12D-08  0.00D+00 EMaxC= 1.00D-01 BMatC= 1.56D-13 BMatP= 2.94D-13
 IDIUse=1 WtCom= 1.00D+00 WtEn= 0.00D+00
 Coeff-Com:  0.537D-05-0.120D-03 0.417D-03 0.137D-02-0.301D-02-0.256D-01
 Coeff-Com:  0.153D+00 0.183D+00-0.201D+01 0.160D+01 0.110D+01
 Coeff:      0.537D-05-0.120D-03 0.417D-03 0.137D-02-0.301D-02-0.256D-01
 Coeff:      0.153D+00 0.183D+00-0.201D+01 0.160D+01 0.110D+01
 Gap=     0.209 Goal=   None    Shift=    0.000
 Gap=     0.089 Goal=   None    Shift=    0.000
 RMSDP=3.69D-08 MaxDP=6.30D-07 DE=-2.61D-12 OVMax= 3.57D-06

 Cycle  12  Pass 1  IDiag  1:
 E= -580.870980580259     Delta-E=       -0.000000000002 Rises=F Damp=F
 DIIS: error= 8.69D-09 at cycle  12 NSaved=  12.
 NSaved=12 IEnMin=12 EnMin= -580.870980580259     IErMin=12 ErrMin= 8.69D-09
 ErrMax= 8.69D-09  0.00D+00 EMaxC= 1.00D-01 BMatC= 6.26D-15 BMatP= 1.56D-13
 IDIUse=1 WtCom= 1.00D+00 WtEn= 0.00D+00
 Coeff-Com: -0.255D-06 0.100D-04-0.615D-04-0.592D-04 0.101D-02 0.163D-02
 Coeff-Com: -0.255D-01 0.964D-02 0.385D+00-0.546D+00-0.968D-01 0.127D+01
 Coeff:     -0.255D-06 0.100D-04-0.615D-04-0.592D-04 0.101D-02 0.163D-02
 Coeff:     -0.255D-01 0.964D-02 0.385D+00-0.546D+00-0.968D-01 0.127D+01
 Gap=     0.209 Goal=   None    Shift=    0.000
 Gap=     0.089 Goal=   None    Shift=    0.000
 RMSDP=8.38D-09 MaxDP=1.40D-07 DE=-1.93D-12 OVMax= 8.27D-07

 SCF Done:  E(UM062X) =  -580.870980580     A.U. after   12 cycles
[...]
           A2          -0.00000  -0.00075  -0.00075  -0.00075  -0.00075
           A3           0.00001   0.00151   0.00151   0.00151   0.00151
           A4          -0.00000  -0.00075  -0.00075  -0.00075  -0.00075
           A5          -0.00000  -0.00075  -0.00075  -0.00075  -0.00075
           A6           0.00001   0.00151   0.00151   0.00151   0.00151
           D1           0.00000   0.00000   0.00000   0.00000   0.00000
           D2           0.00000  -0.00000  -0.00000  -0.00000  -0.00000
           D3           0.00000  -0.00000  -0.00000  -0.00000  -0.00000
           D4          -0.00000  -0.00000  -0.00000  -0.00000  -0.00000
                          A1        A2        A3        A4        A5
           A1           0.15468
           A2          -0.00532   0.15467
           A3           0.01065   0.01065   0.13870
           A4          -0.00532  -0.00532   0.01065   0.15468
           A5          -0.00532  -0.00533   0.01065  -0.00532   0.15467
           A6           0.01065   0.01065  -0.02130   0.01065   0.01065
           D1          -0.00000  -0.00000   0.00000  -0.00000  -0.00000
           D2           0.00000   0.00000  -0.00000   0.00000   0.00000
           D3           0.00000   0.00000  -0.00000   0.00000   0.00000
           D4           0.00000   0.00000  -0.00001   0.00000   0.00000
                          A6        D1        D2        D3        D4
           A6           0.13870
           D1           0.00000   0.00230
           D2          -0.00000  -0.00000   0.00230
           D3          -0.00000  -0.00000  -0.00000   0.00230
           D4          -0.00001  -0.00000   0.00000   0.00000   0.00230
 ITU=  1  1  1  0
     Eigenvalues ---    0.00230   0.00230   0.00230   0.09584   0.16000
     Eigenvalues ---    0.16000   0.16000   0.18389   0.18389   0.18389
     Eigenvalues ---    0.198461000.000001000.000001000.000001000.00000
     Eigenvalues --- 1000.000001000.000001000.000001000.000001000.00000
 En-DIIS/RFO-DIIS/Sim-DIIS IScMMF=       -3 using points:     4    3
 RFO step:  Lambda=-1.29732313D-10.
 NNeg= 0 NGDIIS= 2 SimSw=  2.50D-01 Rises=F DC= -2.82D-06 SmlDif=  1.00D-05
 NRisDI= 0 DoIntr=F SqrtH=F CThrHd= 10.0 CDAdj=  3.0
 RMS Error=  0.1226997181D-04 NUsed= 2 OKEnD=F EnDIS=F
 InvSVX:  RCond= 6.52D-05 Info=           0 Equed=N FErr=  8.88D-16 BErr=  3.41D-17
 DidBck=F Rises=F RFO-DIIS coefs:    0.99987    0.00013
 Iteration  1 RMS(Cart)=  0.00001675 RMS(Int)=  0.00000000
 Iteration  2 RMS(Cart)=  0.00000000 RMS(Int)=  0.00000000
 ITry= 1 IFail=0 DXMaxC= 4.55D-05 DCOld= 1.00D+10 DXMaxT= 6.60D-01 DXLimC= 3.00D+00 Rises=F
 Variable       Old X    -DE/DX   Delta X   Delta X   Delta X     New X
                                 (Linear)    (Quad)   (Total)
    X1       -4.56614  -0.00000   0.00000   0.00000   0.00000  -4.56614
    Y1        0.00000   0.00000   0.00000   0.00000   0.00000   0.00000
    Z1        0.00000  -0.00000   0.00000   0.00000   0.00000   0.00000
    X2        4.56614   0.00000   0.00000   0.00000   0.00000   4.56614
    Y2        0.00000  -0.00000   0.00000   0.00000   0.00000   0.00000
    Z2        0.00000  -0.00000   0.00000   0.00000   0.00000   0.00000
    R1        2.81865   0.00000  -0.00000   0.00001   0.00001   2.81867
    R2        2.81865   0.00000  -0.00000   0.00001   0.00001   2.81867
    R3        2.81865   0.00000  -0.00000   0.00001   0.00001   2.81867
    R4        2.81865   0.00000  -0.00000   0.00001   0.00001   2.81867
    A1        2.21795   0.00000   0.00000   0.00000   0.00000   2.21796
    A2        2.21797   0.00000   0.00000   0.00000   0.00000   2.21797
    A3        1.84726  -0.00000  -0.00000  -0.00000  -0.00000   1.84726
    A4        2.21795   0.00000   0.00000   0.00000   0.00000   2.21796
    A5        2.21797   0.00000   0.00000   0.00000   0.00000   2.21797
    A6        1.84726  -0.00000  -0.00000  -0.00000  -0.00000   1.84726
    D1       -3.14065  -0.00000  -0.00000  -0.00002  -0.00002  -3.14067
    D2        0.00094   0.00000  -0.00000   0.00001   0.00001   0.00095
    D3        0.00094   0.00000  -0.00000   0.00001   0.00001   0.00095
    D4       -3.14066   0.00000   0.00000   0.00004   0.00004  -3.14062
         Item               Value     Threshold  Converged?
 Maximum Force            0.000003     0.000450     YES
 RMS     Force            0.000002     0.000300     YES
 Maximum Displacement     0.000045     0.001800     YES
 RMS     Displacement     0.000017     0.001200     YES
 Predicted change in Energy=-8.298252D-11
 Optimization completed.
    -- Stationary point found.
                           ----------------------------
                           !   Optimized Parameters   !
                           ! (Angstroms and Degrees)  !
 --------------------------                            --------------------------
 ! Name  Definition              Value          Derivative Info.                !
 --------------------------------------------------------------------------------
 ! X1    R(1,-1)                -2.4163         -DE/DX =    0.0                 !
 ! Y1    R(1,-2)                 0.0            -DE/DX =    0.0                 !
 ! Z1    R(1,-3)                 0.0            -DE/DX =    0.0                 !
 ! X2    R(2,-1)                 2.4163         -DE/DX =    0.0                 !
 ! Y2    R(2,-2)                 0.0            -DE/DX =    0.0                 !
 ! Z2    R(2,-3)                 0.0            -DE/DX =    0.0                 !
 ! R1    R(1,3)                  1.4916         -DE/DX =    0.0                 !
 ! R2    R(1,5)                  1.4916         -DE/DX =    0.0                 !
 ! R3    R(2,4)                  1.4916         -DE/DX =    0.0                 !
 ! R4    R(2,6)                  1.4916         -DE/DX =    0.0                 !
 ! A1    A(2,1,3)              127.0794         -DE/DX =    0.0                 !
 ! A2    A(2,1,5)              127.0802         -DE/DX =    0.0                 !
 ! A3    A(3,1,5)              105.8404         -DE/DX =    0.0                 !
 ! A4    A(1,2,4)              127.0794         -DE/DX =    0.0                 !
 ! A5    A(1,2,6)              127.0802         -DE/DX =    0.0                 !
 ! A6    A(4,2,6)              105.8404         -DE/DX =    0.0                 !
 ! D1    D(3,1,2,4)           -179.946          -DE/DX =    0.0                 !
 ! D2    D(3,1,2,6)              0.0537         -DE/DX =    0.0                 !
 ! D3    D(5,1,2,4)              0.0537         -DE/DX =    0.0                 !
 ! D4    D(5,1,2,6)           -179.9466         -DE/DX =    0.0                 !
 --------------------------------------------------------------------------------
 Lowest energy point so far.  Saving SCF results.
 Largest change from initial coordinates is atom    4       0.190 Angstoms.
 GradGradGradGradGradGradGradGradGradGradGradGradGradGradGradGradGradGrad

 Leave Link  103 at Mon Apr 21 20:17:50 2025, MaxMem=   536870912 cpu:               0.6 elap:               0.1
 (Enter /home/szhao/Apps/g16/l202.exe)
                          Input orientation:                          
 ---------------------------------------------------------------------
 Center     Atomic      Atomic             Coordinates (Angstroms)
 Number     Number       Type             X           Y           Z
 ---------------------------------------------------------------------
      1         14           0       -2.416295    0.000000    0.000000
      2         14           0        2.416295    0.000000    0.000000
      3          1           0       -3.315593   -1.189973    0.000047
      4          1           0        3.315593    1.189973    0.001075
      5          1           0       -3.315608    1.189962   -0.000040
      6          1           0        3.315608   -1.189961   -0.001069
 ---------------------------------------------------------------------
                    Distance matrix (angstroms):
                    1          2          3          4          5
     1  Si   0.000000
     2  Si   4.832590   0.000000
     3  H    1.491568   5.854108   0.000000
     4  H    5.854108   1.491567   7.045338   0.000000
     5  H    1.491568   5.854120   2.379935   6.631202   0.000000
     6  H    5.854120   1.491568   6.631202   2.379935   7.045358
                    6
     6  H    0.000000
 Symmetry turned off by external request.
 Stoichiometry    H4Si2(1+,2)
 Framework group  C1[X(H4Si2)]
 Deg. of freedom    12
 Full point group                 C1      NOp   1
 Rotational constants (GHZ):          88.5323334           1.3621984           1.3415567
 Leave Link  202 at Mon Apr 21 20:17:50 2025, MaxMem=   536870912 cpu:               0.2 elap:               0.1
 (Enter /home/szhao/Apps/g16/l601.exe)
 Copying SCF densities to generalized density rwf, IOpCl= 1 IROHF=0.

 **********************************************************************

            Population analysis using the SCF density.

 **********************************************************************

 Alpha  occ. eigenvalues --  -67.23825 -67.23825  -5.78319  -5.78319  -4.09588
 Alpha  occ. eigenvalues --   -4.09588  -4.09268  -4.09268  -4.08925  -4.08925
 Alpha  occ. eigenvalues --   -0.77839  -0.77776  -0.59645  -0.59629  -0.48868
 Alpha  occ. eigenvalues --   -0.47504
 Alpha virt. eigenvalues --   -0.26660  -0.26254  -0.12041  -0.11956  -0.09214
 Alpha virt. eigenvalues --   -0.08462  -0.07769  -0.06904  -0.06707  -0.05932
 Alpha virt. eigenvalues --   -0.05576  -0.05521  -0.05360  -0.03416   0.13008
 Alpha virt. eigenvalues --    0.14106   0.15701   0.16093   0.17089   0.17732
 Alpha virt. eigenvalues --    0.21394   0.22012   0.26960   0.27541   0.29737
 Alpha virt. eigenvalues --    0.31435   0.38720   0.38720   0.39241   0.39995
 Alpha virt. eigenvalues --    0.40028   0.40656   0.58532   0.58687   0.71207
 Alpha virt. eigenvalues --    0.72247   1.01241   1.01898   1.02080   1.02875
 Alpha virt. eigenvalues --    1.03503   1.03671   1.21468   1.21569   1.28354
 Alpha virt. eigenvalues --    1.28354   1.32488   1.32557   1.43443   1.43737
 Alpha virt. eigenvalues --    1.73284   1.73301   1.90229   1.91652   2.37823
 Alpha virt. eigenvalues --    2.41863   2.46635   2.47130   5.32320   5.32401
 Alpha virt. eigenvalues --   11.22744  11.24013  11.29515  11.30061  11.34626
 Alpha virt. eigenvalues --   11.35605 140.88627 140.88792
  Beta  occ. eigenvalues --  -67.23492 -67.23492  -5.78068  -5.78068  -4.09486
  Beta  occ. eigenvalues --   -4.09485  -4.08816  -4.08816  -4.08493  -4.08493
  Beta  occ. eigenvalues --   -0.76027  -0.75825  -0.58471  -0.58447  -0.42166
  Beta virt. eigenvalues --   -0.33291  -0.25481  -0.24957  -0.11314  -0.10861
  Beta virt. eigenvalues --   -0.09257  -0.07210  -0.06817  -0.06494  -0.06274
  Beta virt. eigenvalues --   -0.05950  -0.05284  -0.05218  -0.04755  -0.02988
  Beta virt. eigenvalues --    0.12859   0.13985   0.15658   0.16358   0.17500
  Beta virt. eigenvalues --    0.18027   0.22245   0.22469   0.27587   0.28112
  Beta virt. eigenvalues --    0.30542   0.31987   0.40347   0.40348   0.42502
  Beta virt. eigenvalues --    0.42520   0.42621   0.43568   0.60397   0.60529
  Beta virt. eigenvalues --    0.72393   0.73376   1.02905   1.03830   1.04506
  Beta virt. eigenvalues --    1.05334   1.06096   1.06304   1.21615   1.21718
  Beta virt. eigenvalues --    1.28719   1.28719   1.32838   1.32917   1.44338
  Beta virt. eigenvalues --    1.44531   1.74781   1.74802   1.91775   1.93119
  Beta virt. eigenvalues --    2.38824   2.42858   2.47669   2.48162   5.33429
  Beta virt. eigenvalues --    5.33463  11.23450  11.24723  11.31373  11.31892
  Beta virt. eigenvalues --   11.35262  11.36246 140.89148 140.89312
          Condensed to atoms (all electrons):
               1          2          3          4          5          6
     1  Si  12.778173   0.036134   0.311346  -0.000308   0.311346  -0.000308
     2  Si   0.036134  12.778173  -0.000308   0.311346  -0.000308   0.311346
     3  H    0.311346  -0.000308   0.739461   0.000001  -0.018692   0.000002
     4  H   -0.000308   0.311346   0.000001   0.739461   0.000002  -0.018692
     5  H    0.311346  -0.000308  -0.018692   0.000002   0.739460   0.000001
     6  H   -0.000308   0.311346   0.000002  -0.018692   0.000001   0.739460
          Atomic-Atomic Spin Densities.
               1          2          3          4          5          6
     1  Si   0.468937  -0.040493  -0.020241   0.000721  -0.020241   0.000721
     2  Si  -0.040493   0.468937   0.000721  -0.020241   0.000721  -0.020241
     3  H   -0.020241   0.000721   0.066420  -0.000001   0.008400  -0.000003
     4  H    0.000721  -0.020241  -0.000001   0.066420  -0.000003   0.008400
     5  H   -0.020241   0.000721   0.008400  -0.000003   0.066421  -0.000001
     6  H    0.000721  -0.020241  -0.000003   0.008400  -0.000001   0.066421
 Mulliken charges and spin densities:
               1          2
     1  Si   0.563618   0.389406
     2  Si   0.563618   0.389406
     3  H   -0.031809   0.055297
     4  H   -0.031809   0.055297
     5  H   -0.031809   0.055297
     6  H   -0.031809   0.055297
 Sum of Mulliken charges =   1.00000   1.00000
 Mulliken charges and spin densities with hydrogens summed into heavy atoms:
               1          2
     1  Si   0.500000   0.500000
     2  Si   0.500000   0.500000
 Electronic spatial extent (au):  <R**2>=            789.8754
 Charge=              1.0000 electrons
 Dipole moment (field-independent basis, Debye):
    X=              0.0000    Y=              0.0000    Z=              0.0000  Tot=              0.0000
 Quadrupole moment (field-independent basis, Debye-Ang):
   XX=              8.0303   YY=            -25.9208   ZZ=            -20.8869
   XY=             -0.0000   XZ=              0.0000   YZ=             -0.0022
 Traceless Quadrupole moment (field-independent basis, Debye-Ang):
   XX=             20.9561   YY=            -12.9950   ZZ=             -7.9611
   XY=             -0.0000   XZ=              0.0000   YZ=             -0.0022
 Octapole moment (field-independent basis, Debye-Ang**2):
  XXX=              0.0000  YYY=             -0.0000  ZZZ=             -0.0000  XYY=              0.0000
  XXY=              0.0000  XXZ=             -0.0001  XZZ=             -0.0000  YZZ=             -0.0000
  YYZ=             -0.0000  XYZ=             -0.0058
 Hexadecapole moment (field-independent basis, Debye-Ang**3):
 XXXX=           -860.6477 YYYY=            -69.0041 ZZZZ=            -25.0983 XXXY=             -0.0004
 XXXZ=              0.0000 YYYX=             -0.0001 YYYZ=             -0.0085 ZZZX=              0.0000
 ZZZY=             -0.0105 XXYY=           -181.0185 XXZZ=           -144.3116 YYZZ=            -16.4333
 XXYZ=             -0.0159 YYXZ=              0.0000 ZZXY=             -0.0000
 N-N= 4.714657682265D+01 E-N=-1.471545207026D+03  KE= 5.799714386930D+02
                          Isotropic Fermi Contact Couplings
        Atom                 a.u.       MegaHertz       Gauss      10(-4) cm-1
     1  Si(29)             0.61668    -548.06432    -195.56298    -182.81458
     2  Si(29)             0.61668    -548.06435    -195.56299    -182.81459
     3  H(1)               0.02312     103.36506      36.88322      34.47887
     4  H(1)               0.02312     103.36506      36.88322      34.47887
     5  H(1)               0.02312     103.36544      36.88336      34.47900
     6  H(1)               0.02312     103.36544      36.88336      34.47900
 --------------------------------------------------------
       Center         ----  Spin Dipole Couplings  ----
                      3XX-RR        3YY-RR        3ZZ-RR
 --------------------------------------------------------
     1   Atom        0.886521     -0.448817     -0.437705
     2   Atom        0.886521     -0.448817     -0.437705
     3   Atom       -0.000015      0.008553     -0.008537
     4   Atom       -0.000015      0.008553     -0.008537
     5   Atom       -0.000015      0.008552     -0.008537
     6   Atom       -0.000015      0.008552     -0.008537
 --------------------------------------------------------
                        XY            XZ            YZ
 --------------------------------------------------------
     1   Atom        0.000009     -0.000001      0.000000
     2   Atom        0.000009      0.000001     -0.000011
     3   Atom        0.004759     -0.000000     -0.000001
     4   Atom        0.004759      0.000004      0.000015
     5   Atom       -0.004759      0.000000     -0.000001
     6   Atom       -0.004759     -0.000004      0.000015
 --------------------------------------------------------


 ---------------------------------------------------------------------------------
              Anisotropic Spin Dipole Couplings in Principal Axis System
 ---------------------------------------------------------------------------------

       Atom             a.u.   MegaHertz   Gauss  10(-4) cm-1        Axes

              Baa    -0.4488    47.612    16.989    15.882 -0.0000  1.0000 -0.0000
     1 Si(29) Bbb    -0.4377    46.433    16.569    15.489  0.0000  0.0000  1.0000
              Bcc     0.8865   -94.046   -33.558   -31.370  1.0000  0.0000 -0.0000
 
              Baa    -0.4488    47.612    16.989    15.882 -0.0000  1.0000  0.0010
     2 Si(29) Bbb    -0.4377    46.434    16.569    15.489 -0.0000 -0.0010  1.0000
              Bcc     0.8865   -94.046   -33.558   -31.370  1.0000  0.0000  0.0000
 
              Baa    -0.0085    -4.555    -1.625    -1.519 -0.0000  0.0000  1.0000
     3 H(1)   Bbb    -0.0021    -1.139    -0.406    -0.380  0.9135 -0.4068  0.0000
              Bcc     0.0107     5.694     2.032     1.899  0.4068  0.9135 -0.0000
 
              Baa    -0.0085    -4.555    -1.625    -1.519 -0.0000 -0.0009  1.0000
     4 H(1)   Bbb    -0.0021    -1.139    -0.406    -0.380  0.9135 -0.4068 -0.0004
              Bcc     0.0107     5.694     2.032     1.899  0.4068  0.9135  0.0008
 
              Baa    -0.0085    -4.555    -1.625    -1.519 -0.0000  0.0000  1.0000
     5 H(1)   Bbb    -0.0021    -1.139    -0.406    -0.380  0.9135  0.4068 -0.0000
              Bcc     0.0107     5.694     2.032     1.899 -0.4068  0.9135 -0.0000
 
              Baa    -0.0085    -4.555    -1.625    -1.519  0.0000 -0.0009  1.0000
     6 H(1)   Bbb    -0.0021    -1.139    -0.406    -0.380  0.9135  0.4068  0.0004
              Bcc     0.0107     5.694     2.032     1.899 -0.4068  0.9135  0.0008
 

 ---------------------------------------------------------------------------------

 No NMR shielding tensors so no spin-rotation constants.
 Leave Link  601 at Mon Apr 21 20:17:51 2025, MaxMem=   536870912 cpu:               2.1 elap:               0.4
 (Enter /home/szhao/Apps/g16/l9999.exe)
 1\1\GINC-NODE06\FOpt\UM062X\6-311+G(d,p)\H4Si2(1+,2)\SZHAO\21-Apr-2025
 \0\\#p opt UM062X/6-311+G** nosymm int=superfine\\Title Card Required\
 \1,2\Si,-2.416295,0.,0.\Si,2.416295,0.,0.\H,-3.315593411,-1.1899730977
 ,0.0000466047\H,3.3155933961,1.1899726214,0.0010753005\H,-3.3156084077
 ,1.1899617708,-0.0000398424\H,3.3156084073,-1.189961289,-0.0010685767\
 \Version=ES64L-G16RevA.03\HF=-580.8709834\S2=0.758914\S2-1=0.\S2A=0.75
 0011\RMSD=8.819e-09\RMSF=1.328e-06\Dipole=0.,0.,0.0000001\Quadrupole=1
 5.5803665,-9.6614671,-5.9188993,-0.0000037,0.,-0.0016174\PG=C01 [X(H4S
 i2)]\\@


 ALL OUR THINKING ABOUT NATURE MUST NECESSARILY MOVE IN CIRCLES OR SPIRALS;
 FOR WE CAN ONLY UNDERSTAND NATURE IF WE THINK ABOUT HER, AND WE CAN ONLY
 THINK BECAUSE OUR BRAIN IS BUILT IN ACCORDANCE WITH NATURE'S LAWS.

                                             -- TIMOTHY FERRIS, "GALAXIES"
 Job cpu time:       0 days  0 hours  6 minutes 26.3 seconds.
 Elapsed time:       0 days  0 hours  0 minutes 55.7 seconds.
 File lengths (MBytes):  RWF=     22 Int=      0 D2E=      0 Chk=      2 Scr=      2
 Normal termination of Gaussian 16 at Mon Apr 21 20:17:52 2025.
