Title Card Required                                                     
Force     UM062X                                                      6-311+G(d,p)        
Number of atoms                            I                6
Info1-9                                    I   N=           9
          15          15           0           0           0         100
           5          18        -502
Full Title                                 C   N=           2
Title Card Required     
Route                                      C   N=           4
#p UM062X/6-311+G** force int=superfine         
Charge                                     I                0
Multiplicity                               I                1
Number of electrons                        I               16
Number of alpha electrons                  I                8
Number of beta electrons                   I                8
Number of basis functions                  I               68
Number of independent functions            I               68
Number of point charges in /Mol/           I                0
Number of translation vectors              I                0
Atomic numbers                             I   N=           6
           6           6           1           1           1           1
Nuclear charges                            R   N=           6
  6.00000000E+00  6.00000000E+00  1.00000000E+00  1.00000000E+00  1.00000000E+00
  1.00000000E+00
Current cartesian coordinates              R   N=          18
  6.39277435E-21  1.59086027E+00  0.00000000E+00 -1.94834848E-16 -1.59086027E+00
  0.00000000E+00  1.79824448E+00  2.55435414E+00  0.00000000E+00 -1.79812732E+00
  2.55438627E+00 -4.93038066E-32 -1.79824448E+00 -2.55435414E+00  0.00000000E+00
  1.79812732E+00 -2.55438627E+00  4.93038066E-32
Number of symbols in /Mol/                 I                0
Force Field                                I                0
Atom Types                                 C   N=           6
                                                            
            
Int Atom Types                             I   N=           6
           0           0           0           0           0           0
MM charges                                 R   N=           6
  0.00000000E+00  0.00000000E+00  0.00000000E+00  0.00000000E+00  0.00000000E+00
  0.00000000E+00
Integer atomic weights                     I   N=           6
          12          12           1           1           1           1
Real atomic weights                        R   N=           6
  1.20000000E+01  1.20000000E+01  1.00782504E+00  1.00782504E+00  1.00782504E+00
  1.00782504E+00
Atom fragment info                         I   N=           6
           0           0           0           0           0           0
Atom residue num                           I   N=           6
           0           0           0           0           0           0
Nuclear spins                              I   N=           6
           0           0           1           1           1           1
Nuclear ZEff                               R   N=           6
 -3.60000000E+00 -3.60000000E+00 -1.00000000E+00 -1.00000000E+00 -1.00000000E+00
 -1.00000000E+00
Nuclear ZNuc                               R   N=           6
  6.00000000E+00  6.00000000E+00  1.00000000E+00  1.00000000E+00  1.00000000E+00
  1.00000000E+00
Nuclear QMom                               R   N=           6
  0.00000000E+00  0.00000000E+00  0.00000000E+00  0.00000000E+00  0.00000000E+00
  0.00000000E+00
Nuclear GFac                               R   N=           6
  0.00000000E+00  0.00000000E+00  2.79284600E+00  2.79284600E+00  2.79284600E+00
  2.79284600E+00
MicOpt                                     I   N=           6
          -1          -1          -1          -1          -1          -1
Number of residues                         I                0
Number of secondary structures             I                0
SymInf integers                            I   N=          26
           2           4           1           1           1          -1
          -1           1           1           1          -1          -1
          -1          -1           0           0           0           0
           0           0           0           0           0           0
           0           0
RotTr to input orientation                 R   N=          12
 -5.15155195E-17 -1.00000000E+00 -1.35873376E-21 -1.00000000E+00  5.15141800E-17
 -1.22464680E-16  1.22464680E-16  1.35873376E-21 -1.00000000E+00  2.77555756E-17
  0.00000000E+00  0.00000000E+00
Number of contracted shells                I               28
Number of primitive shells                 I               50
Pure/Cartesian d shells                    I                0
Pure/Cartesian f shells                    I                0
Highest angular momentum                   I                2
Largest degree of contraction              I                6
Shell types                                I   N=          28
           0          -1          -1          -1          -1          -2
           0          -1          -1          -1          -1          -2
           0           0           0           1           0           0
           0           1           0           0           0           1
           0           0           0           1
Number of primitives per shell             I   N=          28
           6           3           1           1           1           1
           6           3           1           1           1           1
           3           1           1           1           3           1
           1           1           3           1           1           1
           3           1           1           1
Shell to atom map                          I   N=          28
           1           1           1           1           1           1
           2           2           2           2           2           2
           3           3           3           3           4           4
           4           4           5           5           5           5
           6           6           6           6
Primitive exponents                        R   N=          50
  4.56324000E+03  6.82024000E+02  1.54973000E+02  4.44553000E+01  1.30290000E+01
  1.82773000E+00  2.09642000E+01  4.80331000E+00  1.45933000E+00  4.83456000E-01
  1.45585000E-01  4.38000000E-02  6.26000000E-01  4.56324000E+03  6.82024000E+02
  1.54973000E+02  4.44553000E+01  1.30290000E+01  1.82773000E+00  2.09642000E+01
  4.80331000E+00  1.45933000E+00  4.83456000E-01  1.45585000E-01  4.38000000E-02
  6.26000000E-01  3.38650000E+01  5.09479000E+00  1.15879000E+00  3.25840000E-01
  1.02741000E-01  7.50000000E-01  3.38650000E+01  5.09479000E+00  1.15879000E+00
  3.25840000E-01  1.02741000E-01  7.50000000E-01  3.38650000E+01  5.09479000E+00
  1.15879000E+00  3.25840000E-01  1.02741000E-01  7.50000000E-01  3.38650000E+01
  5.09479000E+00  1.15879000E+00  3.25840000E-01  1.02741000E-01  7.50000000E-01
Contraction coefficients                   R   N=          50
  1.96665025E-03  1.52306019E-02  7.61269097E-02  2.60801033E-01  6.16462078E-01
  2.21006028E-01  1.14660081E-01  9.19999648E-01 -3.03068213E-03  1.00000000E+00
  1.00000000E+00  1.00000000E+00  1.00000000E+00  1.96665025E-03  1.52306019E-02
  7.61269097E-02  2.60801033E-01  6.16462078E-01  2.21006028E-01  1.14660081E-01
  9.19999648E-01 -3.03068213E-03  1.00000000E+00  1.00000000E+00  1.00000000E+00
  1.00000000E+00  2.54938145E-02  1.90373109E-01  8.52161486E-01  1.00000000E+00
  1.00000000E+00  1.00000000E+00  2.54938145E-02  1.90373109E-01  8.52161486E-01
  1.00000000E+00  1.00000000E+00  1.00000000E+00  2.54938145E-02  1.90373109E-01
  8.52161486E-01  1.00000000E+00  1.00000000E+00  1.00000000E+00  2.54938145E-02
  1.90373109E-01  8.52161486E-01  1.00000000E+00  1.00000000E+00  1.00000000E+00
P(S=P) Contraction coefficients            R   N=          50
  0.00000000E+00  0.00000000E+00  0.00000000E+00  0.00000000E+00  0.00000000E+00
  0.00000000E+00  4.02486927E-02  2.37593957E-01  8.15853851E-01  1.00000000E+00
  1.00000000E+00  1.00000000E+00  0.00000000E+00  0.00000000E+00  0.00000000E+00
  0.00000000E+00  0.00000000E+00  0.00000000E+00  0.00000000E+00  4.02486927E-02
  2.37593957E-01  8.15853851E-01  1.00000000E+00  1.00000000E+00  1.00000000E+00
  0.00000000E+00  0.00000000E+00  0.00000000E+00  0.00000000E+00  0.00000000E+00
  0.00000000E+00  0.00000000E+00  0.00000000E+00  0.00000000E+00  0.00000000E+00
  0.00000000E+00  0.00000000E+00  0.00000000E+00  0.00000000E+00  0.00000000E+00
  0.00000000E+00  0.00000000E+00  0.00000000E+00  0.00000000E+00  0.00000000E+00
  0.00000000E+00  0.00000000E+00  0.00000000E+00  0.00000000E+00  0.00000000E+00
Coordinates of each shell                  R   N=          84
  4.26184957E-21  1.59086027E+00  0.00000000E+00  4.26184957E-21  1.59086027E+00
  0.00000000E+00  4.26184957E-21  1.59086027E+00  0.00000000E+00  4.26184957E-21
  1.59086027E+00  0.00000000E+00  4.26184957E-21  1.59086027E+00  0.00000000E+00
  4.26184957E-21  1.59086027E+00  0.00000000E+00 -1.94832717E-16 -1.59086027E+00
  8.01564815E-58 -1.94832717E-16 -1.59086027E+00  8.01564815E-58 -1.94832717E-16
 -1.59086027E+00  8.01564815E-58 -1.94832717E-16 -1.59086027E+00  8.01564815E-58
 -1.94832717E-16 -1.59086027E+00  8.01564815E-58 -1.94832717E-16 -1.59086027E+00
  8.01564815E-58  1.79824448E+00  2.55435414E+00 -3.38212197E-37  1.79824448E+00
  2.55435414E+00 -3.38212197E-37  1.79824448E+00  2.55435414E+00 -3.38212197E-37
  1.79824448E+00  2.55435414E+00 -3.38212197E-37 -1.79812732E+00  2.55438627E+00
  3.38190161E-37 -1.79812732E+00  2.55438627E+00  3.38190161E-37 -1.79812732E+00
  2.55438627E+00  3.38190161E-37 -1.79812732E+00  2.55438627E+00  3.38190161E-37
 -1.79824448E+00 -2.55435414E+00  0.00000000E+00 -1.79824448E+00 -2.55435414E+00
  0.00000000E+00 -1.79824448E+00 -2.55435414E+00  0.00000000E+00 -1.79824448E+00
 -2.55435414E+00  0.00000000E+00  1.79812732E+00 -2.55438627E+00  0.00000000E+00
  1.79812732E+00 -2.55438627E+00  0.00000000E+00  1.79812732E+00 -2.55438627E+00
  0.00000000E+00  1.79812732E+00 -2.55438627E+00  0.00000000E+00
Num ILSW                                   I              100
ILSW                                       I   N=         100
           1           0           0           0           2           0
           0           0           0           0        4336          -1
           7           0           0           0           2           0
           0           0           0           0           1           0
           1           0           0           0           0           0
           0           0      100000           0          -1           0
           0           0           0           0           0           0
           0           0           0           1           0           0
           0 -2000000000           1           0           0           0
           0           0           4          52           0           0
           0           0          55           0           0           0
           0           0           0           6           0           1
           0           0           0           0           0           0
           0           0           0           0           0           0
           0           0           0           0           0           0
           0           0           0           0           0           0
           0           0           0           0
Num RLSW                                   I               52
RLSW                                       R   N=          52
  1.00000000E+00  1.00000000E+00  1.00000000E+00  1.00000000E+00  5.40000000E-01
  0.00000000E+00  0.00000000E+00  1.00000000E+00  0.00000000E+00  0.00000000E+00
  0.00000000E+00  0.00000000E+00  1.00000000E+00  0.00000000E+00  0.00000000E+00
  0.00000000E+00  0.00000000E+00  1.00000000E+00  0.00000000E+00  0.00000000E+00
  0.00000000E+00  0.00000000E+00  1.00000000E+00  0.00000000E+00  0.00000000E+00
  0.00000000E+00  0.00000000E+00  1.00000000E+00  0.00000000E+00  0.00000000E+00
  0.00000000E+00  0.00000000E+00  1.00000000E+00  0.00000000E+00  0.00000000E+00
  0.00000000E+00  0.00000000E+00  0.00000000E+00  1.00000000E+00  1.00000000E+00
  0.00000000E+00  1.00000000E+00  0.00000000E+00  0.00000000E+00  0.00000000E+00
  0.00000000E+00  0.00000000E+00  0.00000000E+00  0.00000000E+00  0.00000000E+00
  0.00000000E+00  0.00000000E+00
MxBond                                     I                3
NBond                                      I   N=           6
           3           3           1           1           1           1
IBond                                      I   N=          18
           2           3           4           1           5           6
           1           0           0           1           0           0
           2           0           0           2           0           0
RBond                                      R   N=          18
  1.00000000E+00  1.00000000E+00  1.00000000E+00  1.00000000E+00  1.00000000E+00
  1.00000000E+00  1.00000000E+00  0.00000000E+00  0.00000000E+00  1.00000000E+00
  0.00000000E+00  0.00000000E+00  1.00000000E+00  0.00000000E+00  0.00000000E+00
  1.00000000E+00  0.00000000E+00  0.00000000E+00
Virial Ratio                               R      2.011459119703228E+00
SCF Energy                                 R     -7.848241951141095E+01
Total Energy                               R     -7.848241951141095E+01
S**2                                       R     -7.105427357601002E-15
S**2 after annihilation                    R     -1.012523398458142E-13
RMS Force                                  R      5.834911203790549E-02
RMS Density                                R      4.878726636180570E-09
Job Status                                 I                1
Nuclear derivative order                   I                1
External E-field                           R   N=          35
  0.00000000E+00  0.00000000E+00  0.00000000E+00  0.00000000E+00  0.00000000E+00
  0.00000000E+00  0.00000000E+00  0.00000000E+00  0.00000000E+00  0.00000000E+00
  0.00000000E+00  0.00000000E+00  0.00000000E+00  0.00000000E+00  0.00000000E+00
  0.00000000E+00  0.00000000E+00  0.00000000E+00  0.00000000E+00  0.00000000E+00
  0.00000000E+00  0.00000000E+00  0.00000000E+00  0.00000000E+00  0.00000000E+00
  0.00000000E+00  0.00000000E+00  0.00000000E+00  0.00000000E+00  0.00000000E+00
  0.00000000E+00  0.00000000E+00  0.00000000E+00  0.00000000E+00  0.00000000E+00
IOpCl                                      I                1
IROHF                                      I                0
Alpha Orbital Energies                     R   N=          68
 -1.05855596E+01 -1.05852798E+01 -8.00846611E-01 -6.93532889E-01 -5.30619249E-01
 -4.68645176E-01 -4.29139569E-01 -2.87312836E-01 -2.79506480E-02  3.37315844E-02
  3.54268270E-02  5.36605468E-02  7.67393868E-02  8.56297517E-02  9.74436076E-02
  1.18402492E-01  1.57408346E-01  1.67679925E-01  1.92129658E-01  2.08800791E-01
  2.38634404E-01  2.92877982E-01  4.11999347E-01  4.43862579E-01  4.80980383E-01
  5.96375782E-01  5.97992627E-01  6.22055386E-01  6.69813637E-01  6.91216789E-01
  7.15438994E-01  7.37541308E-01  7.78629952E-01  8.41118939E-01  1.07379844E+00
  1.09841979E+00  1.12475976E+00  1.41334227E+00  1.43143299E+00  1.44357547E+00
  1.49429367E+00  1.55404012E+00  1.57544960E+00  1.58747656E+00  1.74725184E+00
  1.92077035E+00  1.92396535E+00  1.92742580E+00  1.96514178E+00  2.04619977E+00
  2.09679918E+00  2.12400635E+00  2.38949867E+00  2.52541893E+00  2.52941799E+00
  2.58110071E+00  2.63213956E+00  2.64365742E+00  2.75557805E+00  2.76683949E+00
  2.84349614E+00  2.85400289E+00  2.93028832E+00  3.73569475E+00  3.80129548E+00
  3.95286960E+00  2.38001912E+01  2.38861016E+01
Beta Orbital Energies                      R   N=          68
 -1.05855596E+01 -1.05852798E+01 -8.00846611E-01 -6.93532889E-01 -5.30619249E-01
 -4.68645176E-01 -4.29139569E-01 -2.87312836E-01 -2.79506480E-02  3.37315844E-02
  3.54268270E-02  5.36605468E-02  7.67393868E-02  8.56297517E-02  9.74436076E-02
  1.18402492E-01  1.57408346E-01  1.67679925E-01  1.92129658E-01  2.08800791E-01
  2.38634404E-01  2.92877982E-01  4.11999347E-01  4.43862579E-01  4.80980383E-01
  5.96375782E-01  5.97992627E-01  6.22055386E-01  6.69813637E-01  6.91216789E-01
  7.15438994E-01  7.37541308E-01  7.78629952E-01  8.41118939E-01  1.07379844E+00
  1.09841979E+00  1.12475976E+00  1.41334227E+00  1.43143299E+00  1.44357547E+00
  1.49429367E+00  1.55404012E+00  1.57544960E+00  1.58747656E+00  1.74725184E+00
  1.92077035E+00  1.92396535E+00  1.92742580E+00  1.96514178E+00  2.04619977E+00
  2.09679918E+00  2.12400635E+00  2.38949867E+00  2.52541893E+00  2.52941799E+00
  2.58110071E+00  2.63213956E+00  2.64365742E+00  2.75557805E+00  2.76683949E+00
  2.84349614E+00  2.85400289E+00  2.93028832E+00  3.73569475E+00  3.80129548E+00
  3.95286960E+00  2.38001912E+01  2.38861016E+01
Alpha MO coefficients                      R   N=        4624
  3.98960319E-01  3.28020849E-01  3.63615948E-08 -3.34303188E-04  0.00000000E+00
  8.42289912E-03 -4.95921597E-07  1.48735795E-03  0.00000000E+00 -2.05757580E-03
 -7.20997503E-08  1.14177523E-04  0.00000000E+00 -5.92093980E-04  2.23214214E-07
 -5.48947810E-04  0.00000000E+00 -8.05754573E-04  0.00000000E+00  0.00000000E+00
  9.59845233E-04 -2.47389364E-07  3.98960319E-01  3.28020849E-01 -3.63615948E-08
  3.34303188E-04  0.00000000E+00  8.42289912E-03  4.95921597E-07 -1.48735795E-03
  0.00000000E+00 -2.05757580E-03  7.20997503E-08 -1.14177523E-04  0.00000000E+00
 -5.92093980E-04 -2.23214214E-07  5.48947810E-04  0.00000000E+00 -8.05754573E-04
  0.00000000E+00  0.00000000E+00  9.59845233E-04 -2.47389364E-07  1.34947534E-04
 -2.42825494E-03  1.55086895E-03  1.30647318E-03  7.38265504E-04  0.00000000E+00
  1.34837715E-04 -2.42919619E-03  1.55147176E-03 -1.30680788E-03  7.38521151E-04
  0.00000000E+00  1.34947534E-04 -2.42825494E-03  1.55086895E-03 -1.30647318E-03
 -7.38265504E-04  0.00000000E+00  1.34837715E-04 -2.42919619E-03  1.55147176E-03
  1.30680788E-03 -7.38521151E-04  0.00000000E+00  3.98979078E-01  3.28123922E-01
  3.48466022E-08 -9.52986535E-05  0.00000000E+00  8.06302628E-03 -4.39523408E-07
  1.45958584E-03  0.00000000E+00 -3.81789320E-03  3.23633754E-08  8.01608040E-04
  0.00000000E+00  2.06841201E-03  5.94698297E-08 -1.26261273E-03  0.00000000E+00
 -8.30906065E-04  0.00000000E+00  0.00000000E+00  7.47744302E-04 -2.08182772E-07
 -3.98979078E-01 -3.28123922E-01  3.48466022E-08 -9.52986535E-05  0.00000000E+00
 -8.06302628E-03 -4.39523408E-07  1.45958584E-03  0.00000000E+00  3.81789320E-03
  3.23633754E-08  8.01608040E-04  0.00000000E+00 -2.06841201E-03  5.94698297E-08
 -1.26261273E-03  0.00000000E+00  8.30906065E-04  0.00000000E+00  0.00000000E+00
 -7.47744302E-04  2.08182772E-07  1.44723065E-04 -2.06079075E-03  1.56588356E-03
  1.21910724E-03  6.00337394E-04  0.00000000E+00  1.44608786E-04 -2.06150859E-03
  1.56635134E-03 -1.21940465E-03  6.00555956E-04  0.00000000E+00 -1.44723065E-04
  2.06079075E-03 -1.56588356E-03  1.21910724E-03  6.00337394E-04  0.00000000E+00
 -1.44608786E-04  2.06150859E-03 -1.56635134E-03 -1.21940465E-03  6.00555956E-04
  0.00000000E+00 -7.99302370E-02 -1.28742655E-01 -3.49779102E-06 -9.15532819E-03
  0.00000000E+00  3.42031783E-01 -3.13920054E-06 -2.07860447E-02  0.00000000E+00
  2.22016252E-01 -1.03204118E-06 -5.84484354E-03  0.00000000E+00  1.95129427E-03
 -7.09649454E-07  5.49002504E-03  0.00000000E+00 -9.66766169E-03  0.00000000E+00
  0.00000000E+00 -2.95808272E-03 -5.90920194E-07 -7.99302370E-02 -1.28742655E-01
  3.49779102E-06  9.15532819E-03  0.00000000E+00  3.42031783E-01  3.13920054E-06
  2.07860447E-02  0.00000000E+00  2.22016252E-01  1.03204118E-06  5.84484354E-03
  0.00000000E+00  1.95129427E-03  7.09649454E-07 -5.49002504E-03  0.00000000E+00
 -9.66766169E-03  0.00000000E+00  0.00000000E+00 -2.95808272E-03 -5.90920194E-07
  6.58443700E-02  7.45213958E-02  2.42848161E-03 -9.93045717E-03 -5.18359521E-03
  0.00000000E+00  6.58516114E-02  7.45284920E-02  2.42737996E-03  9.93105888E-03
 -5.18462554E-03  0.00000000E+00  6.58443700E-02  7.45213958E-02  2.42848161E-03
  9.93045717E-03  5.18359521E-03  0.00000000E+00  6.58516114E-02  7.45284920E-02
  2.42737996E-03 -9.93105888E-03  5.18462554E-03  0.00000000E+00 -7.13597398E-02
 -1.15358916E-01 -8.05502913E-06  6.05196106E-02  0.00000000E+00  3.11355158E-01
 -9.16734090E-06  8.83955331E-02  0.00000000E+00  2.24824665E-01 -3.85173495E-06
  4.19307346E-02  0.00000000E+00 -3.75286857E-02 -8.53616633E-08  1.50340274E-02
  0.00000000E+00 -5.92086325E-03  0.00000000E+00  0.00000000E+00  9.65841532E-03
 -8.15414973E-07  7.13597398E-02  1.15358916E-01 -8.05502913E-06  6.05196106E-02
  0.00000000E+00 -3.11355158E-01 -9.16734090E-06  8.83955331E-02  0.00000000E+00
 -2.24824665E-01 -3.85173495E-06  4.19307346E-02  0.00000000E+00  3.75286857E-02
 -8.53616633E-08  1.50340274E-02  0.00000000E+00  5.92086325E-03  0.00000000E+00
  0.00000000E+00 -9.65841532E-03  8.15414973E-07  8.78652965E-02  1.07023931E-01
  1.42195934E-02 -1.25051461E-02 -3.53046926E-03  0.00000000E+00  8.78801602E-02
  1.07039378E-01  1.42208542E-02  1.25066518E-02 -3.53194835E-03  0.00000000E+00
 -8.78652965E-02 -1.07023931E-01 -1.42195934E-02 -1.25051461E-02 -3.53046926E-03
  0.00000000E+00 -8.78801602E-02 -1.07039378E-01 -1.42208542E-02  1.25066518E-02
 -3.53194835E-03  0.00000000E+00 -2.97540897E-06 -4.98173706E-06  1.46959796E-01
  6.66957982E-07  0.00000000E+00  1.43418334E-05  2.08212341E-01  2.88150118E-06
  0.00000000E+00  1.76944179E-05  1.24612733E-01  1.85247099E-06  0.00000000E+00
 -1.41808092E-06  4.91394998E-03  1.18617374E-06  0.00000000E+00 -2.53191647E-07
  0.00000000E+00  0.00000000E+00  9.92654546E-07  5.42259808E-03  2.97540897E-06
  4.98173706E-06  1.46959796E-01  6.66957982E-07  0.00000000E+00 -1.43418334E-05
  2.08212341E-01  2.88150118E-06  0.00000000E+00 -1.76944179E-05  1.24612733E-01
  1.85247099E-06  0.00000000E+00  1.41808092E-06  4.91394998E-03  1.18617374E-06
  0.00000000E+00  2.53191647E-07  0.00000000E+00  0.00000000E+00 -9.92654546E-07
 -5.42259808E-03  1.03018695E-01  1.40367454E-01  3.85880548E-02 -9.20214091E-03
 -7.79010746E-03  0.00000000E+00 -1.03011418E-01 -1.40354168E-01 -3.85842163E-02
 -9.20070561E-03  7.79060585E-03  0.00000000E+00 -1.03018695E-01 -1.40367454E-01
 -3.85880548E-02 -9.20214091E-03 -7.79010746E-03  0.00000000E+00  1.03011418E-01
  1.40354168E-01  3.85842163E-02 -9.20070561E-03  7.79060585E-03  0.00000000E+00
 -2.42247674E-06 -4.13356237E-06  1.48871512E-01 -3.34205741E-05  0.00000000E+00
  1.25444385E-05  2.07716214E-01 -4.88969487E-05  0.00000000E+00  1.65071792E-05
  1.38534341E-01 -2.97284239E-05  0.00000000E+00  8.13510160E-07  1.40681374E-02
 -4.59133191E-07  0.00000000E+00 -2.71200736E-07  0.00000000E+00  0.00000000E+00
 -2.11930767E-06  2.40714540E-02 -2.42247674E-06 -4.13356237E-06 -1.48871512E-01
  3.34205741E-05  0.00000000E+00  1.25444385E-05 -2.07716214E-01  4.88969487E-05
  0.00000000E+00  1.65071792E-05 -1.38534341E-01  2.97284239E-05  0.00000000E+00
  8.13510160E-07 -1.40681374E-02  4.59133191E-07  0.00000000E+00 -2.71200736E-07
  0.00000000E+00  0.00000000E+00 -2.11930767E-06  2.40714540E-02  1.14191736E-01
  1.64261995E-01  6.08950550E-02 -7.98012292E-03 -7.90001021E-03  0.00000000E+00
 -1.14213010E-01 -1.64289001E-01 -6.09050202E-02 -7.98237366E-03  7.89899039E-03
  0.00000000E+00  1.14191736E-01  1.64261995E-01  6.08950550E-02  7.98012292E-03
  7.90001021E-03  0.00000000E+00 -1.14213010E-01 -1.64289001E-01 -6.09050202E-02
  7.98237366E-03 -7.89899039E-03  0.00000000E+00  1.09879746E-02  1.83795475E-02
  2.56590477E-05  1.80562414E-01  0.00000000E+00 -5.54626433E-02  3.78640608E-05
  2.73337917E-01  0.00000000E+00 -5.47612917E-02  2.68621530E-05  1.82030203E-01
  0.00000000E+00  2.20879139E-03  3.19215603E-06  7.86484979E-03  0.00000000E+00
  6.81906657E-04  0.00000000E+00  0.00000000E+00  1.49264963E-02  3.96252842E-06
  1.09879746E-02  1.83795475E-02 -2.56590477E-05 -1.80562414E-01  0.00000000E+00
 -5.54626433E-02 -3.78640608E-05 -2.73337917E-01  0.00000000E+00 -5.47612917E-02
 -2.68621530E-05 -1.82030203E-01  0.00000000E+00  2.20879139E-03 -3.19215603E-06
 -7.86484979E-03  0.00000000E+00  6.81906657E-04  0.00000000E+00  0.00000000E+00
  1.49264963E-02  3.96252842E-06  6.54187367E-02  9.80222529E-02  4.32276627E-02
 -9.39961371E-03  5.21875314E-03  0.00000000E+00  6.53825935E-02  9.79660245E-02
  4.32019822E-02  9.39794538E-03  5.22112017E-03  0.00000000E+00  6.54187367E-02
  9.80222529E-02  4.32276627E-02  9.39961371E-03 -5.21875314E-03  0.00000000E+00
  6.53825935E-02  9.79660245E-02  4.32019822E-02 -9.39794538E-03 -5.22112017E-03
  0.00000000E+00  0.00000000E+00  0.00000000E+00  0.00000000E+00  0.00000000E+00
  1.71194707E-01  0.00000000E+00  0.00000000E+00  0.00000000E+00  2.72044774E-01
  0.00000000E+00  0.00000000E+00  0.00000000E+00  2.79695766E-01  0.00000000E+00
  0.00000000E+00  0.00000000E+00  4.57650065E-02  0.00000000E+00 -1.63625851E-07
 -1.41062025E-02  0.00000000E+00  0.00000000E+00  0.00000000E+00  0.00000000E+00
  0.00000000E+00  0.00000000E+00  1.71194707E-01  0.00000000E+00  0.00000000E+00
  0.00000000E+00  2.72044774E-01  0.00000000E+00  0.00000000E+00  0.00000000E+00
  2.79695766E-01  0.00000000E+00  0.00000000E+00  0.00000000E+00  4.57650065E-02
  0.00000000E+00  1.63625851E-07  1.41062025E-02  0.00000000E+00  0.00000000E+00
  0.00000000E+00  0.00000000E+00  0.00000000E+00  0.00000000E+00  0.00000000E+00
  1.35974607E-02  0.00000000E+00  0.00000000E+00  0.00000000E+00  0.00000000E+00
  0.00000000E+00  1.35982208E-02  0.00000000E+00  0.00000000E+00  0.00000000E+00
  0.00000000E+00  0.00000000E+00  1.35974607E-02  0.00000000E+00  0.00000000E+00
  0.00000000E+00  0.00000000E+00  0.00000000E+00  1.35982208E-02  0.00000000E+00
  0.00000000E+00  0.00000000E+00  0.00000000E+00  1.77686767E-01  0.00000000E+00
  0.00000000E+00  0.00000000E+00  2.74069837E-01  0.00000000E+00  0.00000000E+00
  0.00000000E+00  3.92234113E-01  0.00000000E+00  0.00000000E+00  0.00000000E+00
  4.22261562E-01  0.00000000E+00 -1.43531876E-07  2.20542416E-02  0.00000000E+00
  0.00000000E+00  0.00000000E+00  0.00000000E+00  0.00000000E+00  0.00000000E+00
 -1.77686767E-01  0.00000000E+00  0.00000000E+00  0.00000000E+00 -2.74069837E-01
  0.00000000E+00  0.00000000E+00  0.00000000E+00 -3.92234113E-01  0.00000000E+00
  0.00000000E+00  0.00000000E+00 -4.22261562E-01  0.00000000E+00 -1.43531876E-07
  2.20542416E-02  0.00000000E+00  0.00000000E+00  0.00000000E+00  0.00000000E+00
  0.00000000E+00  0.00000000E+00  0.00000000E+00  1.96028844E-02  0.00000000E+00
  0.00000000E+00  0.00000000E+00  0.00000000E+00  0.00000000E+00  1.96039167E-02
  0.00000000E+00  0.00000000E+00  0.00000000E+00  0.00000000E+00  0.00000000E+00
 -1.96028844E-02  0.00000000E+00  0.00000000E+00  0.00000000E+00  0.00000000E+00
  0.00000000E+00 -1.96039167E-02  2.00506894E-02  3.39883474E-02 -2.11800769E-06
 -3.67413012E-02  0.00000000E+00 -9.22818827E-02  3.71728396E-06 -5.47796739E-02
  0.00000000E+00 -3.51388117E-01 -2.64851744E-05 -1.27180879E-01  0.00000000E+00
  1.18627879E+00 -7.74716825E-05  5.65446675E-01  0.00000000E+00  1.37966590E-02
  0.00000000E+00  0.00000000E+00 -8.21694151E-03  1.86133920E-06  2.00506894E-02
  3.39883474E-02  2.11800769E-06  3.67413012E-02  0.00000000E+00 -9.22818827E-02
 -3.71728396E-06  5.47796739E-02  0.00000000E+00 -3.51388117E-01  2.64851744E-05
  1.27180879E-01  0.00000000E+00  1.18627879E+00  7.74716825E-05 -5.65446675E-01
  0.00000000E+00  1.37966590E-02  0.00000000E+00  0.00000000E+00 -8.21694151E-03
  1.86133920E-06 -1.92708200E-02  8.49357534E-02 -3.51424503E-01  1.65347406E-03
  8.72337474E-04  0.00000000E+00 -1.92722203E-02  8.49468170E-02 -3.51525773E-01
 -1.65132225E-03  8.71383887E-04  0.00000000E+00 -1.92708200E-02  8.49357534E-02
 -3.51424503E-01 -1.65347406E-03 -8.72337474E-04  0.00000000E+00 -1.92722203E-02
  8.49468170E-02 -3.51525773E-01  1.65132225E-03 -8.71383887E-04  0.00000000E+00
 -2.63428471E-02 -4.50289251E-02  5.97315578E-07 -7.53077068E-03  0.00000000E+00
  1.44148378E-01 -2.35240247E-06 -2.06232307E-02  0.00000000E+00  1.88427810E-01
  6.27376091E-06  8.26314664E-02  0.00000000E+00  4.66241486E+00  1.73898314E-05
 -2.43531746E+00  0.00000000E+00  2.13275627E-03  0.00000000E+00  0.00000000E+00
  1.49790567E-02 -1.39528199E-06  2.63428471E-02  4.50289251E-02  5.97315578E-07
 -7.53077068E-03  0.00000000E+00 -1.44148378E-01 -2.35240247E-06 -2.06232307E-02
  0.00000000E+00 -1.88427810E-01  6.27376091E-06  8.26314664E-02  0.00000000E+00
 -4.66241486E+00  1.73898314E-05 -2.43531746E+00  0.00000000E+00 -2.13275627E-03
  0.00000000E+00  0.00000000E+00 -1.49790567E-02  1.39528199E-06  6.00531906E-03
 -5.72148992E-02  1.36576202E-01 -1.59327625E-03 -1.08912899E-02  0.00000000E+00
  6.00716278E-03 -5.72219632E-02  1.36623069E-01  1.59195727E-03 -1.08905299E-02
  0.00000000E+00 -6.00531906E-03  5.72148992E-02 -1.36576202E-01 -1.59327625E-03
 -1.08912899E-02  0.00000000E+00 -6.00716278E-03  5.72219632E-02 -1.36623069E-01
  1.59195727E-03 -1.08905299E-02  0.00000000E+00  1.27463968E-06  1.98957664E-06
 -5.30882973E-02  4.61165067E-07  0.00000000E+00 -3.13025750E-06 -9.21888338E-02
  3.68512672E-06  0.00000000E+00 -2.21376889E-05 -1.65465296E-01 -8.96869993E-06
  0.00000000E+00 -9.79256764E-06  8.59151422E-01  1.25055967E-05  0.00000000E+00
 -6.62109716E-07  0.00000000E+00  0.00000000E+00 -5.02353052E-07 -1.36611920E-02
 -1.27463968E-06 -1.98957664E-06 -5.30882973E-02  4.61165067E-07  0.00000000E+00
  3.13025750E-06 -9.21888338E-02  3.68512672E-06  0.00000000E+00  2.21376889E-05
 -1.65465296E-01 -8.96869993E-06  0.00000000E+00  9.79256764E-06  8.59151422E-01
  1.25055967E-05  0.00000000E+00  6.62109716E-07  0.00000000E+00  0.00000000E+00