 Entering Gaussian System, Link 0=g16
 Initial command:
 /home/szhao/Apps/g16/l1.exe "/home/szhao/tmp/Gau-66044.inp" -scrdir="/home/szhao/tmp/"
 Default is to use a total of  16 processors:
                               16 via shared-memory
                                1 via Linda
 Entering Link 1 = /home/szhao/Apps/g16/l1.exe PID=     66046.
  
 Copyright (c) 1988,1990,1992,1993,1995,1998,2003,2009,2016,
            Gaussian, Inc.  All Rights Reserved.
  
 This is part of the Gaussian(R) 16 program.  It is based on
 the Gaussian(R) 09 system (copyright 2009, Gaussian, Inc.),
 the Gaussian(R) 03 system (copyright 2003, Gaussian, Inc.),
 the Gaussian(R) 98 system (copyright 1998, Gaussian, Inc.),
 the Gaussian(R) 94 system (copyright 1995, Gaussian, Inc.),
 the Gaussian 92(TM) system (copyright 1992, Gaussian, Inc.),
 the Gaussian 90(TM) system (copyright 1990, Gaussian, Inc.),
 the Gaussian 88(TM) system (copyright 1988, Gaussian, Inc.),
 the Gaussian 86(TM) system (copyright 1986, Carnegie Mellon
 University), and the Gaussian 82(TM) system (copyright 1983,
 Carnegie Mellon University). Gaussian is a federally registered
 trademark of Gaussian, Inc.
  
 This software contains proprietary and confidential information,
 including trade secrets, belonging to Gaussian, Inc.
  
 This software is provided under written license and may be
 used, copied, transmitted, or stored only in accord with that
 written license.
  
 The following legend is applicable only to US Government
 contracts under FAR:
  
                    RESTRICTED RIGHTS LEGEND
  
 Use, reproduction and disclosure by the US Government is
 subject to restrictions as set forth in subparagraphs (a)
 and (c) of the Commercial Computer Software - Restricted
 Rights clause in FAR 52.227-19.
  
 Gaussian, Inc.
 340 Quinnipiac St., Bldg. 40, Wallingford CT 06492
  
  
 ---------------------------------------------------------------
 Warning -- This program may not be used in any manner that
 competes with the business of Gaussian, Inc. or will provide
 assistance to any competitor of Gaussian, Inc.  The licensee
 of this program is prohibited from giving any competitor of
 Gaussian, Inc. access to this program.  By using this program,
 the user acknowledges that Gaussian, Inc. is engaged in the
 business of creating and licensing software in the field of
 computational chemistry and represents and warrants to the
 licensee that it is not a competitor of Gaussian, Inc. and that
 it will not use this program in any manner prohibited above.
 ---------------------------------------------------------------
  

 Cite this work as:
 Gaussian 16, Revision A.03,
 M. J. Frisch, G. W. Trucks, H. B. Schlegel, G. E. Scuseria, 
 M. A. Robb, J. R. Cheeseman, G. Scalmani, V. Barone, 
 G. A. Petersson, H. Nakatsuji, X. Li, M. Caricato, A. V. Marenich, 
 J. Bloino, B. G. Janesko, R. Gomperts, B. Mennucci, H. P. Hratchian, 
 J. V. Ortiz, A. F. Izmaylov, J. L. Sonnenberg, D. Williams-Young, 
 F. Ding, F. Lipparini, F. Egidi, J. Goings, B. Peng, A. Petrone, 
 T. Henderson, D. Ranasinghe, V. G. Zakrzewski, J. Gao, N. Rega, 
 G. Zheng, W. Liang, M. Hada, M. Ehara, K. Toyota, R. Fukuda, 
 J. Hasegawa, M. Ishida, T. Nakajima, Y. Honda, O. Kitao, H. Nakai, 
 T. Vreven, K. Throssell, J. A. Montgomery, Jr., J. E. Peralta, 
 F. Ogliaro, M. J. Bearpark, J. J. Heyd, E. N. Brothers, K. N. Kudin, 
 V. N. Staroverov, T. A. Keith, R. Kobayashi, J. Normand, 
 K. Raghavachari, A. P. Rendell, J. C. Burant, S. S. Iyengar, 
 J. Tomasi, M. Cossi, J. M. Millam, M. Klene, C. Adamo, R. Cammi, 
 J. W. Ochterski, R. L. Martin, K. Morokuma, O. Farkas, 
 J. B. Foresman, and D. J. Fox, Gaussian, Inc., Wallingford CT, 2016.
 
 ******************************************
 Gaussian 16:  ES64L-G16RevA.03 25-Dec-2016
                13-Nov-2024 
 ******************************************
 %chk=opt.chk
 %mem=16GB
 %nprocshared=28
 Will use up to   28 processors via shared memory.
 ---------------------------------------
 #p UM062X/6-311+G** force int=superfine
 ---------------------------------------
 1/10=7,30=1,38=1/1,3;
 2/12=2,17=6,18=5,40=1/2;
 3/5=4,6=6,7=111,11=2,25=1,30=1,71=1,74=-55,75=-7,116=2/1,2,3;
 4//1;
 5/5=2,38=5/2;
 6/7=2,8=2,9=2,10=2,28=1/1;
 7/29=1/1,2,3,16;
 1/10=7,30=1/3;
 99//99;
 Leave Link    1 at Wed Nov 13 13:06:18 2024, MaxMem=  2147483648 cpu:               2.6 elap:               0.1
 (Enter /home/szhao/Apps/g16/l101.exe)
 -------------------
 Title Card Required
 -------------------
 Symbolic Z-matrix:
 Charge =  1 Multiplicity = 2
 C                    -1.96881   0.        0. 
 C                     1.96881   0.        0. 
 H                     1.99648  -0.93757   0.54265 
 H                    -1.99476  -0.93867  -0.54083 
 H                     1.99575   0.93877   0.54062 
 H                     1.99484  -0.00117  -1.08332 
 H                    -1.99654   0.93768  -0.54247 
 H                    -1.99577   0.00095   1.0833 
 
 ITRead=  0  0  0  0  0  0  0  0
 MicOpt= -1 -1 -1 -1 -1 -1 -1 -1
 NAtoms=      8 NQM=        8 NQMF=       0 NMMI=      0 NMMIF=      0
                NMic=       0 NMicF=      0.
                    Isotopes and Nuclear Properties:
 (Nuclear quadrupole moments (NQMom) in fm**2, nuclear magnetic moments (NMagM)
  in nuclear magnetons)

  Atom         1           2           3           4           5           6           7           8
 IAtWgt=          12          12           1           1           1           1           1           1
 AtmWgt=  12.0000000  12.0000000   1.0078250   1.0078250   1.0078250   1.0078250   1.0078250   1.0078250
 NucSpn=           0           0           1           1           1           1           1           1
 AtZEff=  -0.0000000  -0.0000000  -0.0000000  -0.0000000  -0.0000000  -0.0000000  -0.0000000  -0.0000000
 NQMom=    0.0000000   0.0000000   0.0000000   0.0000000   0.0000000   0.0000000   0.0000000   0.0000000
 NMagM=    0.0000000   0.0000000   2.7928460   2.7928460   2.7928460   2.7928460   2.7928460   2.7928460
 AtZNuc=   6.0000000   6.0000000   1.0000000   1.0000000   1.0000000   1.0000000   1.0000000   1.0000000
 Leave Link  101 at Wed Nov 13 13:06:19 2024, MaxMem=  2147483648 cpu:               5.2 elap:               0.2
 (Enter /home/szhao/Apps/g16/l103.exe)

 GradGradGradGradGradGradGradGradGradGradGradGradGradGradGradGradGradGrad
 Berny optimization.
 Initialization pass.
 Trust Radius=3.00D-01 FncErr=1.00D-07 GrdErr=1.00D-07 EigMax=2.50D+02 EigMin=1.00D-04
 Number of steps in this run=      2 maximum allowed number of steps=      2.
 GradGradGradGradGradGradGradGradGradGradGradGradGradGradGradGradGradGrad

 Leave Link  103 at Wed Nov 13 13:06:19 2024, MaxMem=  2147483648 cpu:               1.7 elap:               0.1
 (Enter /home/szhao/Apps/g16/l202.exe)
                          Input orientation:                          
 ---------------------------------------------------------------------
 Center     Atomic      Atomic             Coordinates (Angstroms)
 Number     Number       Type             X           Y           Z
 ---------------------------------------------------------------------
      1          6           0       -1.968807    0.000000    0.000000
      2          6           0        1.968807    0.000000    0.000000
      3          1           0        1.996484   -0.937574    0.542649
      4          1           0       -1.994759   -0.938672   -0.540828
      5          1           0        1.995747    0.938765    0.540620
      6          1           0        1.994841   -0.001168   -1.083324
      7          1           0       -1.996537    0.937678   -0.542467
      8          1           0       -1.995774    0.000945    1.083302
 ---------------------------------------------------------------------
                    Distance matrix (angstroms):
                    1          2          3          4          5
     1  C    0.000000
     2  C    3.937614   0.000000
     3  H    4.110602   1.083642   0.000000
     4  H    1.083639   4.108948   4.135692   0.000000
     5  H    4.109895   1.083640   1.876340   4.540753   0.000000
     6  H    4.109026   1.083637   1.876339   4.134020   1.876345
     7  H    1.083642   4.110652   4.542936   1.876352   4.136594
     8  H    1.083638   4.109921   4.136574   1.876347   4.135970
                    6          7          8
     6  H    0.000000
     7  H    4.135826   0.000000
     8  H    4.540846   1.876325   0.000000
 This structure is nearly, but not quite of a higher symmetry.
 Consider Symm=Loose if the higher symmetry is desired.
 Stoichiometry    C2H6(1+,2)
 Framework group  C1[X(C2H6)]
 Deg. of freedom    18
 Full point group                 C1      NOp   1
 Largest Abelian subgroup         C1      NOp   1
 Largest concise Abelian subgroup C1      NOp   1
                         Standard orientation:                         
 ---------------------------------------------------------------------
 Center     Atomic      Atomic             Coordinates (Angstroms)
 Number     Number       Type             X           Y           Z
 ---------------------------------------------------------------------
      1          6           0        0.564749    0.825175   -1.695980
      2          6           0       -0.564752   -0.825170    1.695981
      3          1           0       -1.476686   -1.196733    1.243659
      4          1           0        0.561755   -0.136675   -2.195088
      5          1           0       -0.561824    0.136215    2.195987
      6          1           0        0.321177   -1.448808    1.717783
      7          1           0        1.476599    1.196938   -1.243651
      8          1           0       -0.321003    1.449033   -1.718698
 ---------------------------------------------------------------------
 Rotational constants (GHZ):          71.2161715           4.1884321           4.1884296
 Leave Link  202 at Wed Nov 13 13:06:19 2024, MaxMem=  2147483648 cpu:               1.0 elap:               0.1
 (Enter /home/szhao/Apps/g16/l301.exe)
 Standard basis: 6-311+G(d,p) (5D, 7F)
 Ernie: Thresh=  0.10000D-02 Tol=  0.10000D-05 Strict=F.
 There are    82 symmetry adapted cartesian basis functions of A   symmetry.
 There are    80 symmetry adapted basis functions of A   symmetry.
    80 basis functions,   120 primitive gaussians,    82 cartesian basis functions
     9 alpha electrons        8 beta electrons
       nuclear repulsion energy        29.8627789336 Hartrees.
 IExCor= 4336 DFT=T Ex+Corr=M062X ExCW=0 ScaHFX=  0.540000
 ScaDFX=  1.000000  1.000000  1.000000  1.000000 ScalE2=  1.000000  1.000000
 IRadAn=      7 IRanWt=     -1 IRanGd=            0 ICorTp=0 IEmpDi=  4
 NAtoms=    8 NActive=    8 NUniq=    8 SFac= 1.00D+00 NAtFMM=   60 NAOKFM=F Big=F
 Integral buffers will be    131072 words long.
 Raffenetti 2 integral format.
 Two-electron integral symmetry is turned on.
 Leave Link  301 at Wed Nov 13 13:06:19 2024, MaxMem=  2147483648 cpu:               2.7 elap:               0.1
 (Enter /home/szhao/Apps/g16/l302.exe)
 NPDir=0 NMtPBC=     1 NCelOv=     1 NCel=       1 NClECP=     1 NCelD=      1
         NCelK=      1 NCelE2=     1 NClLst=     1 CellRange=     0.0.
 One-electron integrals computed using PRISM.
 One-electron integral symmetry used in STVInt
 NBasis=    80 RedAO= T EigKep=  5.02D-03  NBF=    80
 NBsUse=    80 1.00D-06 EigRej= -1.00D+00 NBFU=    80
 Precomputing XC quadrature grid using
 IXCGrd= 4 IRadAn=           7 IRanWt=          -1 IRanGd=           0 AccXCQ= 0.00D+00.
 Generated NRdTot=       0 NPtTot=           0 NUsed=           0 NTot=          32
 NSgBfM=    82    82    82    82    82 MxSgAt=     8 MxSgA2=     8.
 Leave Link  302 at Wed Nov 13 13:06:19 2024, MaxMem=  2147483648 cpu:               5.8 elap:               0.2
 (Enter /home/szhao/Apps/g16/l303.exe)
 DipDrv:  MaxL=1.
 Leave Link  303 at Wed Nov 13 13:06:19 2024, MaxMem=  2147483648 cpu:               2.4 elap:               0.1
 (Enter /home/szhao/Apps/g16/l401.exe)
 ExpMin= 4.38D-02 ExpMax= 4.56D+03 ExpMxC= 6.82D+02 IAcc=3 IRadAn=         7 AccDes= 0.00D+00
 Harris functional with IExCor= 1009 and IRadAn=       7 diagonalized for initial guess.
 HarFok:  IExCor= 1009 AccDes= 0.00D+00 IRadAn=         7 IDoV= 1 UseB2=F ITyADJ=14
 ICtDFT=  3500011 ScaDFX=  1.000000  1.000000  1.000000  1.000000
 FoFCou: FMM=F IPFlag=           0 FMFlag=      100000 FMFlg1=           0
         NFxFlg=           0 DoJE=T BraDBF=F KetDBF=T FulRan=T
         wScrn=  0.000000 ICntrl=       500 IOpCl=  0 I1Cent=   200000004 NGrid=           0
         NMat0=    1 NMatS0=      1 NMatT0=    0 NMatD0=    1 NMtDS0=    0 NMtDT0=    0
 Petite list used in FoFCou.
 Harris En= -79.3444576505835    
 JPrj=0 DoOrth=F DoCkMO=F.
 Initial guess <Sx>= 0.0000 <Sy>= 0.0000 <Sz>= 0.5000 <S**2>= 0.7500 S= 0.5000
 Leave Link  401 at Wed Nov 13 13:06:20 2024, MaxMem=  2147483648 cpu:               8.9 elap:               0.3
 (Enter /home/szhao/Apps/g16/l502.exe)
 Keep R1 and R2 ints in memory in canonical form, NReq=35964544.
 FoFCou: FMM=F IPFlag=           0 FMFlag=           0 FMFlg1=           0
         NFxFlg=           0 DoJE=F BraDBF=F KetDBF=F FulRan=T
         wScrn=  0.000000 ICntrl=       600 IOpCl=  0 I1Cent=           0 NGrid=           0
         NMat0=    1 NMatS0=   3240 NMatT0=    0 NMatD0=    1 NMtDS0=    0 NMtDT0=    0
 Symmetry not used in FoFCou.
 Two-electron integral symmetry not used.
 UHF open shell SCF:
 Using DIIS extrapolation, IDIIS=  1040.
 NGot=  2147483648 LenX=  2136966052 LenY=  2136958887
 Requested convergence on RMS density matrix=1.00D-08 within 128 cycles.
 Requested convergence on MAX density matrix=1.00D-06.
 Requested convergence on             energy=1.00D-06.
 No special actions if energy rises.

 Cycle   1  Pass 1  IDiag  1:
 E= -79.2985434523988    
 DIIS: error= 2.61D-02 at cycle   1 NSaved=   1.
 NSaved= 1 IEnMin= 1 EnMin= -79.2985434523988     IErMin= 1 ErrMin= 2.61D-02
 ErrMax= 2.61D-02  0.00D+00 EMaxC= 1.00D-01 BMatC= 1.09D-01 BMatP= 1.09D-01
 IDIUse=3 WtCom= 7.39D-01 WtEn= 2.61D-01
 Coeff-Com:  0.100D+01
 Coeff-En:   0.100D+01
 Coeff:      0.100D+01
 Gap=     0.099 Goal=   None    Shift=    0.000
 Gap=     0.437 Goal=   None    Shift=    0.000
 GapD=    0.099 DampG=0.500 DampE=0.500 DampFc=0.2500 IDamp=-1.
 Damping current iteration by 2.50D-01
 RMSDP=1.80D-03 MaxDP=5.04D-02              OVMax= 8.56D-02

 Cycle   2  Pass 1  IDiag  1:
 E= -79.3046743013022     Delta-E=       -0.006130848903 Rises=F Damp=T
 DIIS: error= 1.79D-02 at cycle   2 NSaved=   2.
 NSaved= 2 IEnMin= 2 EnMin= -79.3046743013022     IErMin= 2 ErrMin= 1.79D-02
 ErrMax= 1.79D-02  0.00D+00 EMaxC= 1.00D-01 BMatC= 4.97D-02 BMatP= 1.09D-01
 IDIUse=3 WtCom= 8.21D-01 WtEn= 1.79D-01
 Coeff-Com: -0.184D+01 0.284D+01
 Coeff-En:   0.000D+00 0.100D+01
 Coeff:     -0.151D+01 0.251D+01
 Gap=     0.099 Goal=   None    Shift=    0.000
 Gap=     0.397 Goal=   None    Shift=    0.000
 RMSDP=1.08D-03 MaxDP=1.91D-02 DE=-6.13D-03 OVMax= 2.26D-02

 Cycle   3  Pass 1  IDiag  1:
 E= -79.3183169086046     Delta-E=       -0.013642607302 Rises=F Damp=F
 DIIS: error= 9.16D-04 at cycle   3 NSaved=   3.
 NSaved= 3 IEnMin= 3 EnMin= -79.3183169086046     IErMin= 3 ErrMin= 9.16D-04
 ErrMax= 9.16D-04  0.00D+00 EMaxC= 1.00D-01 BMatC= 1.15D-04 BMatP= 4.97D-02
 IDIUse=3 WtCom= 9.91D-01 WtEn= 9.16D-03
 Coeff-Com: -0.610D-01 0.746D-01 0.986D+00
 Coeff-En:   0.000D+00 0.000D+00 0.100D+01
 Coeff:     -0.605D-01 0.739D-01 0.987D+00
 Gap=     0.100 Goal=   None    Shift=    0.000
 Gap=     0.400 Goal=   None    Shift=    0.000
 RMSDP=1.13D-04 MaxDP=2.41D-03 DE=-1.36D-02 OVMax= 5.80D-03

 Cycle   4  Pass 1  IDiag  1:
 E= -79.3183791353618     Delta-E=       -0.000062226757 Rises=F Damp=F
 DIIS: error= 2.90D-04 at cycle   4 NSaved=   4.
 NSaved= 4 IEnMin= 4 EnMin= -79.3183791353618     IErMin= 4 ErrMin= 2.90D-04
 ErrMax= 2.90D-04  0.00D+00 EMaxC= 1.00D-01 BMatC= 1.27D-05 BMatP= 1.15D-04
 IDIUse=3 WtCom= 9.97D-01 WtEn= 2.90D-03
 Coeff-Com:  0.452D-01-0.633D-01-0.175D+00 0.119D+01
 Coeff-En:   0.000D+00 0.000D+00 0.000D+00 0.100D+01
 Coeff:      0.451D-01-0.631D-01-0.175D+00 0.119D+01
 Gap=     0.100 Goal=   None    Shift=    0.000
 Gap=     0.399 Goal=   None    Shift=    0.000
 RMSDP=4.61D-05 MaxDP=8.00D-04 DE=-6.22D-05 OVMax= 2.05D-03

 Cycle   5  Pass 1  IDiag  1:
 E= -79.3183874087878     Delta-E=       -0.000008273426 Rises=F Damp=F
 DIIS: error= 8.74D-05 at cycle   5 NSaved=   5.
 NSaved= 5 IEnMin= 5 EnMin= -79.3183874087878     IErMin= 5 ErrMin= 8.74D-05
 ErrMax= 8.74D-05  0.00D+00 EMaxC= 1.00D-01 BMatC= 1.35D-06 BMatP= 1.27D-05
 IDIUse=1 WtCom= 1.00D+00 WtEn= 0.00D+00
 Coeff-Com:  0.107D-01-0.141D-01-0.102D+00 0.967D-01 0.101D+01
 Coeff:      0.107D-01-0.141D-01-0.102D+00 0.967D-01 0.101D+01
 Gap=     0.100 Goal=   None    Shift=    0.000
 Gap=     0.399 Goal=   None    Shift=    0.000
 RMSDP=9.96D-06 MaxDP=1.71D-04 DE=-8.27D-06 OVMax= 4.38D-04

 Cycle   6  Pass 1  IDiag  1:
 E= -79.3183881830498     Delta-E=       -0.000000774262 Rises=F Damp=F
 DIIS: error= 2.11D-05 at cycle   6 NSaved=   6.
 NSaved= 6 IEnMin= 6 EnMin= -79.3183881830498     IErMin= 6 ErrMin= 2.11D-05
 ErrMax= 2.11D-05  0.00D+00 EMaxC= 1.00D-01 BMatC= 7.83D-08 BMatP= 1.35D-06
 IDIUse=1 WtCom= 1.00D+00 WtEn= 0.00D+00
 Coeff-Com: -0.597D-02 0.819D-02 0.284D-01-0.106D+00-0.148D+00 0.122D+01
 Coeff:     -0.597D-02 0.819D-02 0.284D-01-0.106D+00-0.148D+00 0.122D+01
 Gap=     0.100 Goal=   None    Shift=    0.000
 Gap=     0.399 Goal=   None    Shift=    0.000
 RMSDP=3.07D-06 MaxDP=5.42D-05 DE=-7.74D-07 OVMax= 8.44D-05

 Cycle   7  Pass 1  IDiag  1:
 E= -79.3183882364514     Delta-E=       -0.000000053402 Rises=F Damp=F
 DIIS: error= 7.14D-06 at cycle   7 NSaved=   7.
 NSaved= 7 IEnMin= 7 EnMin= -79.3183882364514     IErMin= 7 ErrMin= 7.14D-06
 ErrMax= 7.14D-06  0.00D+00 EMaxC= 1.00D-01 BMatC= 2.29D-09 BMatP= 7.83D-08
 IDIUse=1 WtCom= 1.00D+00 WtEn= 0.00D+00
 Coeff-Com:  0.342D-03-0.485D-03-0.191D-02 0.167D-01-0.133D-01-0.226D+00
 Coeff-Com:  0.122D+01
 Coeff:      0.342D-03-0.485D-03-0.191D-02 0.167D-01-0.133D-01-0.226D+00
 Coeff:      0.122D+01
 Gap=     0.100 Goal=   None    Shift=    0.000
 Gap=     0.399 Goal=   None    Shift=    0.000
 RMSDP=9.35D-07 MaxDP=1.44D-05 DE=-5.34D-08 OVMax= 4.96D-05

 Cycle   8  Pass 1  IDiag  1:
 E= -79.3183882384179     Delta-E=       -0.000000001966 Rises=F Damp=F
 DIIS: error= 1.25D-06 at cycle   8 NSaved=   8.
 NSaved= 8 IEnMin= 8 EnMin= -79.3183882384179     IErMin= 8 ErrMin= 1.25D-06
 ErrMax= 1.25D-06  0.00D+00 EMaxC= 1.00D-01 BMatC= 1.59D-10 BMatP= 2.29D-09
 IDIUse=1 WtCom= 1.00D+00 WtEn= 0.00D+00
 Coeff-Com:  0.171D-03-0.239D-03-0.833D-03 0.503D-02-0.740D-03-0.610D-01
 Coeff-Com:  0.204D+00 0.854D+00
 Coeff:      0.171D-03-0.239D-03-0.833D-03 0.503D-02-0.740D-03-0.610D-01
 Coeff:      0.204D+00 0.854D+00
 Gap=     0.100 Goal=   None    Shift=    0.000
 Gap=     0.399 Goal=   None    Shift=    0.000
 RMSDP=1.79D-07 MaxDP=4.68D-06 DE=-1.97D-09 OVMax= 2.52D-05

 Cycle   9  Pass 1  IDiag  1:
 E= -79.3183882383742     Delta-E=        0.000000000044 Rises=F Damp=F
 DIIS: error= 2.10D-06 at cycle   9 NSaved=   9.
 NSaved= 9 IEnMin= 8 EnMin= -79.3183882384179     IErMin= 8 ErrMin= 1.25D-06
 ErrMax= 2.10D-06  0.00D+00 EMaxC= 1.00D-01 BMatC= 3.53D-10 BMatP= 1.59D-10
 IDIUse=1 WtCom= 1.00D+00 WtEn= 0.00D+00
 Coeff-Com:  0.455D-04-0.621D-04-0.158D-03-0.315D-03 0.263D-02 0.106D-01
 Coeff-Com: -0.158D+00 0.692D+00 0.452D+00
 Coeff:      0.455D-04-0.621D-04-0.158D-03-0.315D-03 0.263D-02 0.106D-01
 Coeff:     -0.158D+00 0.692D+00 0.452D+00
 Gap=     0.100 Goal=   None    Shift=    0.000
 Gap=     0.399 Goal=   None    Shift=    0.000
 RMSDP=1.05D-07 MaxDP=2.76D-06 DE= 4.38D-11 OVMax= 1.56D-05

 Cycle  10  Pass 1  IDiag  1:
 E= -79.3183882384959     Delta-E=       -0.000000000122 Rises=F Damp=F
 DIIS: error= 4.43D-08 at cycle  10 NSaved=  10.
 NSaved=10 IEnMin=10 EnMin= -79.3183882384959     IErMin=10 ErrMin= 4.43D-08
 ErrMax= 4.43D-08  0.00D+00 EMaxC= 1.00D-01 BMatC= 2.28D-13 BMatP= 1.59D-10
 IDIUse=1 WtCom= 1.00D+00 WtEn= 0.00D+00
 Coeff-Com: -0.131D-04 0.175D-04 0.351D-04-0.832D-04-0.314D-03 0.712D-03
 Coeff-Com:  0.107D-01-0.960D-01-0.476D-01 0.113D+01
 Coeff:     -0.131D-04 0.175D-04 0.351D-04-0.832D-04-0.314D-03 0.712D-03
 Coeff:      0.107D-01-0.960D-01-0.476D-01 0.113D+01
 Gap=     0.100 Goal=   None    Shift=    0.000
 Gap=     0.399 Goal=   None    Shift=    0.000
 RMSDP=5.26D-09 MaxDP=1.49D-07 DE=-1.22D-10 OVMax= 4.83D-07

 SCF Done:  E(UM062X) =  -79.3183882385     A.U. after   10 cycles
            NFock= 10  Conv=0.53D-08     -V/T= 2.0051
 <Sx>= 0.0000 <Sy>= 0.0000 <Sz>= 0.5000 <S**2>= 0.7527 S= 0.5013
 <L.S>=  0.00000000000    
 KE= 7.891472567359D+01 PE=-2.386485167010D+02 EE= 5.055262385532D+01
 Annihilation of the first spin contaminant:
 S**2 before annihilation     0.7527,   after     0.7500
 Leave Link  502 at Wed Nov 13 13:06:25 2024, MaxMem=  2147483648 cpu:             137.5 elap:               5.3
 (Enter /home/szhao/Apps/g16/l601.exe)
 Copying SCF densities to generalized density rwf, IOpCl= 1 IROHF=0.

 **********************************************************************

            Population analysis using the SCF density.

 **********************************************************************

 Orbital symmetries:
 Alpha Orbitals:
       Occupied  (A) (A) (A) (A) (A) (A) (A) (A) (A)
       Virtual   (A) (A) (A) (A) (A) (A) (A) (A) (A) (A) (A) (A)
                 (A) (A) (A) (A) (A) (A) (A) (A) (A) (A) (A) (A)
                 (A) (A) (A) (A) (A) (A) (A) (A) (A) (A) (A) (A)
                 (A) (A) (A) (A) (A) (A) (A) (A) (A) (A) (A) (A)
                 (A) (A) (A) (A) (A) (A) (A) (A) (A) (A) (A) (A)
                 (A) (A) (A) (A) (A) (A) (A) (A) (A) (A) (A)
 Beta  Orbitals:
       Occupied  (A) (A) (A) (A) (A) (A) (A) (A)
       Virtual   (A) (A) (A) (A) (A) (A) (A) (A) (A) (A) (A) (A)
                 (A) (A) (A) (A) (A) (A) (A) (A) (A) (A) (A) (A)
                 (A) (A) (A) (A) (A) (A) (A) (A) (A) (A) (A) (A)
                 (A) (A) (A) (A) (A) (A) (A) (A) (A) (A) (A) (A)
                 (A) (A) (A) (A) (A) (A) (A) (A) (A) (A) (A) (A)
                 (A) (A) (A) (A) (A) (A) (A) (A) (A) (A) (A) (A)
 The electronic state is 2-A.
 Alpha  occ. eigenvalues --  -10.83576 -10.83575  -1.02139  -1.01792  -0.73186
 Alpha  occ. eigenvalues --   -0.73186  -0.73067  -0.73066  -0.47595
 Alpha virt. eigenvalues --   -0.37579  -0.12770  -0.10162  -0.09450  -0.09450
 Alpha virt. eigenvalues --   -0.06220  -0.06220  -0.04388  -0.02941  -0.00110
 Alpha virt. eigenvalues --   -0.00107   0.01362   0.01364   0.02730   0.08684
 Alpha virt. eigenvalues --    0.24161   0.24163   0.26940   0.26942   0.27881
 Alpha virt. eigenvalues --    0.30764   0.35360   0.43139   0.43201   0.43202
 Alpha virt. eigenvalues --    0.45197   0.45199   0.56144   0.61992   0.86219
 Alpha virt. eigenvalues --    0.86219   0.86417   0.86418   1.22171   1.22171
 Alpha virt. eigenvalues --    1.22901   1.22902   1.26580   1.26581   1.30571
 Alpha virt. eigenvalues --    1.32565   1.44350   1.51441   1.71221   1.71222
 Alpha virt. eigenvalues --    1.72632   1.72633   1.75880   1.75881   1.76552
 Alpha virt. eigenvalues --    1.76553   2.22211   2.23827   2.24548   2.24551
 Alpha virt. eigenvalues --    2.26880   2.26883   2.43177   2.43177   2.43888
 Alpha virt. eigenvalues --    2.43889   2.46385   2.52830   2.53884   2.64259
 Alpha virt. eigenvalues --    3.51231   3.51231   3.51465   3.51465  23.70189
 Alpha virt. eigenvalues --   23.71271
  Beta  occ. eigenvalues --  -10.83357 -10.83356  -0.99483  -0.99264  -0.72665
  Beta  occ. eigenvalues --   -0.72664  -0.72527  -0.72527
  Beta virt. eigenvalues --   -0.32632  -0.26632  -0.16578  -0.10888  -0.10887
  Beta virt. eigenvalues --   -0.10219  -0.06215  -0.06214  -0.05228  -0.01989
  Beta virt. eigenvalues --   -0.00355  -0.00352   0.01625   0.01627   0.02487
  Beta virt. eigenvalues --    0.09533   0.23320   0.23324   0.26053   0.26057
  Beta virt. eigenvalues --    0.26177   0.30858   0.34271   0.43341   0.44102
  Beta virt. eigenvalues --    0.44103   0.46275   0.46276   0.56954   0.62713
  Beta virt. eigenvalues --    0.88773   0.88774   0.88895   0.88895   1.23316
  Beta virt. eigenvalues --    1.23317   1.23612   1.23614   1.27557   1.27559
  Beta virt. eigenvalues --    1.34960   1.37034   1.45132   1.52500   1.72498
  Beta virt. eigenvalues --    1.72499   1.73930   1.73930   1.77219   1.77220
  Beta virt. eigenvalues --    1.77924   1.77925   2.25466   2.25468   2.25935
  Beta virt. eigenvalues --    2.27326   2.28049   2.28051   2.45625   2.45626
  Beta virt. eigenvalues --    2.46283   2.46283   2.46594   2.55197   2.57066
  Beta virt. eigenvalues --    2.66098   3.55148   3.55149   3.55379   3.55380
  Beta virt. eigenvalues --   23.71379  23.72469
          Condensed to atoms (all electrons):
               1          2          3          4          5          6
     1  C    5.096213   0.029700  -0.001006   0.376020  -0.001001  -0.001001
     2  C    0.029700   5.096212   0.376047  -0.001001   0.376030   0.376022
     3  H   -0.001006   0.376047   0.409079   0.000005  -0.017250  -0.017255
     4  H    0.376020  -0.001001   0.000005   0.409146   0.000023   0.000005
     5  H   -0.001001   0.376030  -0.017250   0.000023   0.409113  -0.017253
     6  H   -0.001001   0.376022  -0.017255   0.000005  -0.017253   0.409130
     7  H    0.376047  -0.001006   0.000023  -0.017252   0.000005   0.000005
     8  H    0.376031  -0.001001   0.000005  -0.017253   0.000005   0.000023
               7          8
     1  C    0.376047   0.376031
     2  C   -0.001006  -0.001001
     3  H    0.000023   0.000005
     4  H   -0.017252  -0.017253
     5  H    0.000005   0.000005
     6  H    0.000005   0.000023
     7  H    0.409078  -0.017252
     8  H   -0.017252   0.409098
          Atomic-Atomic Spin Densities.
               1          2          3          4          5          6
     1  C    0.545504   0.033721  -0.000905  -0.006454  -0.000909  -0.000911
     2  C    0.033721   0.545505  -0.006462  -0.000910  -0.006456  -0.006454
     3  H   -0.000905  -0.006462  -0.014182   0.000018   0.001230   0.001233
     4  H   -0.006454  -0.000910   0.000018  -0.014194   0.000008   0.000018
     5  H   -0.000909  -0.006456   0.001230   0.000008  -0.014195   0.001232
     6  H   -0.000911  -0.006454   0.001233   0.000018   0.001232  -0.014176
     7  H   -0.006463  -0.000905   0.000008   0.001231   0.000018   0.000018
     8  H   -0.006456  -0.000909   0.000018   0.001232   0.000018   0.000008
               7          8
     1  C   -0.006463  -0.006456
     2  C   -0.000905  -0.000909
     3  H    0.000008   0.000018
     4  H    0.001231   0.001232
     5  H    0.000018   0.000018
     6  H    0.000018   0.000008
     7  H   -0.014182   0.001232
     8  H    0.001232  -0.014177
 Mulliken charges and spin densities:
               1          2
     1  C   -0.251003   0.557128
     2  C   -0.251002   0.557129
     3  H    0.250351  -0.019043
     4  H    0.250307  -0.019051
     5  H    0.250327  -0.019054
     6  H    0.250324  -0.019033
     7  H    0.250352  -0.019042
     8  H    0.250344  -0.019035
 Sum of Mulliken charges =   1.00000   1.00000
 Mulliken charges and spin densities with hydrogens summed into heavy atoms:
               1          2
     1  C    0.500000   0.500000
     2  C    0.500000   0.500000
 Electronic spatial extent (au):  <R**2>=            287.7137
 Charge=              1.0000 electrons
 Dipole moment (field-independent basis, Debye):
    X=              0.0000    Y=             -0.0000    Z=             -0.0000  Tot=              0.0001
 Quadrupole moment (field-independent basis, Debye-Ang):
   XX=             -9.6006   YY=             -7.8849   ZZ=              2.5204
   XY=              2.2101   XZ=             -4.5417   YZ=             -6.6346
 Traceless Quadrupole moment (field-independent basis, Debye-Ang):
   XX=             -4.6122   YY=             -2.8966   ZZ=              7.5088
   XY=              2.2101   XZ=             -4.5417   YZ=             -6.6346
 Octapole moment (field-independent basis, Debye-Ang**2):
  XXX=             -0.0003  YYY=              0.0012  ZZZ=              0.0045  XYY=              0.0006
  XXY=             -0.0001  XXZ=              0.0002  XZZ=             -0.0027  YZZ=              0.0037
  YYZ=             -0.0032  XYZ=              0.0007
 Hexadecapole moment (field-independent basis, Debye-Ang**3):
 XXXX=            -41.9863 YYYY=            -71.1725 ZZZZ=           -192.5434 XXXY=            -10.5335
 XXXZ=             31.9631 YYYX=            -17.1965 YYYZ=             43.5608 ZZZX=             23.0904
 ZZZY=             40.4771 XXYY=            -14.4621 XXZZ=            -43.1913 YYZZ=            -38.7625
 XXYZ=             11.6293 YYXZ=             10.4167 ZZXY=             -4.1130
 N-N= 2.986277893363D+01 E-N=-2.386485158981D+02  KE= 7.891472567359D+01
                          Isotropic Fermi Contact Couplings
        Atom                 a.u.       MegaHertz       Gauss      10(-4) cm-1
     1  C(13)              0.09362     105.24768      37.55499      35.10685
     2  C(13)              0.09362     105.24721      37.55482      35.10669
     3  H(1)              -0.00737     -32.92128     -11.74713     -10.98136
     4  H(1)              -0.00736     -32.91870     -11.74621     -10.98050
     5  H(1)              -0.00737     -32.92083     -11.74697     -10.98121
     6  H(1)              -0.00736     -32.91353     -11.74437     -10.97877
     7  H(1)              -0.00737     -32.92136     -11.74716     -10.98138
     8  H(1)              -0.00736     -32.91549     -11.74507     -10.97943
 --------------------------------------------------------
       Center         ----  Spin Dipole Couplings  ----
                      3XX-RR        3YY-RR        3ZZ-RR
 --------------------------------------------------------
     1   Atom       -0.197315     -0.124294      0.321609
     2   Atom       -0.197528     -0.123669      0.321197
     3   Atom        0.016780     -0.022451      0.005671
     4   Atom       -0.033918      0.029155      0.004763
     5   Atom       -0.033925      0.029125      0.004800
     6   Atom        0.016185     -0.007283     -0.008903
     7   Atom        0.016776     -0.022466      0.005690
     8   Atom        0.016174     -0.007285     -0.008889
 --------------------------------------------------------
                        XY            XZ            YZ
 --------------------------------------------------------
     1   Atom        0.094075     -0.193822     -0.283124
     2   Atom        0.094132     -0.193432     -0.283668
     3   Atom        0.024590      0.017859     -0.002936
     4   Atom        0.005358     -0.008966      0.014848
     5   Atom        0.005352     -0.008951      0.014873
     6   Atom       -0.029478     -0.009873     -0.013328
     7   Atom        0.024599      0.017841     -0.002904
     8   Atom       -0.029490     -0.009834     -0.013340
 --------------------------------------------------------


 ---------------------------------------------------------------------------------
              Anisotropic Spin Dipole Couplings in Principal Axis System
 ---------------------------------------------------------------------------------

       Atom             a.u.   MegaHertz   Gauss  10(-4) cm-1        Axes

              Baa    -0.2617   -35.120   -12.532   -11.715  0.9503 -0.2389  0.1998
     1 C(13)  Bbb    -0.2617   -35.119   -12.531   -11.715  0.1223  0.8763  0.4660
              Bcc     0.5234    70.239    25.063    23.429 -0.2864 -0.4184  0.8619
 
              Baa    -0.2617   -35.120   -12.532   -11.715  0.9557 -0.0593  0.2883
     2 C(13)  Bbb    -0.2617   -35.119   -12.532   -11.715 -0.0698  0.9059  0.4177
              Bcc     0.5234    70.239    25.063    23.429 -0.2859 -0.4193  0.8616
 
              Baa    -0.0370   -19.760    -7.051    -6.591 -0.4706  0.8448  0.2549
     3 H(1)   Bbb     0.0008     0.449     0.160     0.150 -0.3008 -0.4251  0.8537
              Bcc     0.0362    19.311     6.891     6.441  0.8295  0.3251  0.4541
 
              Baa    -0.0370   -19.762    -7.052    -6.592  0.9580 -0.1343  0.2532
     4 H(1)   Bbb     0.0009     0.454     0.162     0.151 -0.2863 -0.4020  0.8697
              Bcc     0.0362    19.309     6.890     6.441  0.0150  0.9057  0.4236
 
              Baa    -0.0370   -19.761    -7.051    -6.592  0.9582 -0.1343  0.2528
     5 H(1)   Bbb     0.0008     0.452     0.161     0.151 -0.2859 -0.4031  0.8694
              Bcc     0.0362    19.309     6.890     6.441  0.0149  0.9052  0.4247
 
              Baa    -0.0370   -19.763    -7.052    -6.592  0.4876  0.7104  0.5076
     6 H(1)   Bbb     0.0008     0.453     0.162     0.151 -0.2710 -0.4295  0.8614
              Bcc     0.0362    19.309     6.890     6.441  0.8300 -0.5576 -0.0169
 
              Baa    -0.0370   -19.760    -7.051    -6.591 -0.4705  0.8451  0.2539
     7 H(1)   Bbb     0.0008     0.449     0.160     0.150 -0.3012 -0.4243  0.8540
              Bcc     0.0362    19.311     6.891     6.441  0.8294  0.3253  0.4541
 
              Baa    -0.0370   -19.761    -7.051    -6.592  0.4876  0.7107  0.5071
     8 H(1)   Bbb     0.0008     0.451     0.161     0.150 -0.2716 -0.4286  0.8617
              Bcc     0.0362    19.310     6.890     6.441  0.8297 -0.5579 -0.0159
 

 ---------------------------------------------------------------------------------

 No NMR shielding tensors so no spin-rotation constants.
 Leave Link  601 at Wed Nov 13 13:06:25 2024, MaxMem=  2147483648 cpu:              10.1 elap:               0.4
 (Enter /home/szhao/Apps/g16/l701.exe)
 ... and contract with generalized density number  0.
 Compute integral first derivatives.
 Leave Link  701 at Wed Nov 13 13:06:26 2024, MaxMem=  2147483648 cpu:               4.6 elap:               0.2
 (Enter /home/szhao/Apps/g16/l702.exe)
 L702 exits ... SP integral derivatives will be done elsewhere.
 Leave Link  702 at Wed Nov 13 13:06:26 2024, MaxMem=  2147483648 cpu:               1.8 elap:               0.1
 (Enter /home/szhao/Apps/g16/l703.exe)
 Integral derivatives from FoFJK, PRISM(SPDF).
 Compute integral first derivatives, UseDBF=F ICtDFT=           0.
 Calling FoFJK, ICntrl=      2127 FMM=F ISym2X=0 I1Cent= 0 IOpClX= 1 NMat=1 NMatS=1 NMatT=0.
 FoFJK:  IHMeth= 1 ICntrl=    2127 DoSepK=F KAlg= 0 I1Cent=           0 FoldK=F
 IRaf=         0 NMat=       1 IRICut=       1 DoRegI=T DoRafI=F ISym2E= 0 IDoP0=0 IntGTp=1.
 FoFCou: FMM=F IPFlag=           0 FMFlag=      100000 FMFlg1=         800
         NFxFlg=           0 DoJE=F BraDBF=F KetDBF=F FulRan=T
         wScrn=  0.000000 ICntrl=      2127 IOpCl=  1 I1Cent=           0 NGrid=           0
         NMat0=    1 NMatS0=      1 NMatT0=    0 NMatD0=    1 NMtDS0=    0 NMtDT0=    0
 Symmetry not used in FoFCou.
 Leave Link  703 at Wed Nov 13 13:06:27 2024, MaxMem=  2147483648 cpu:              33.9 elap:               1.3
 (Enter /home/szhao/Apps/g16/l716.exe)
 Dipole        = 1.07382495D-05-1.96035231D-05-6.73893815D-06
 ***** Axes restored to original set *****
 -------------------------------------------------------------------
 Center     Atomic                   Forces (Hartrees/Bohr)
 Number     Number              X              Y              Z
 -------------------------------------------------------------------
      1        6           0.006947292    0.000000787    0.000004026
      2        6          -0.006947155    0.000001337   -0.000001666
      3        1          -0.000006802   -0.000010353    0.000008525
      4        1           0.000000662   -0.000010255   -0.000007301
      5        1          -0.000003202    0.000010194    0.000006631
      6        1          -0.000001869    0.000000877   -0.000014842
      7        1           0.000006941    0.000009421   -0.000009981
      8        1           0.000004133   -0.000002008    0.000014608
 -------------------------------------------------------------------
 Cartesian Forces:  Max     0.006947292 RMS     0.002005504
 Z-matrix is all fixed cartesians, so copy forces.
 Force constants in Cartesian coordinates: 
                1             2             3             4             5 
      1  0.964290D-01
      2 -0.575799D-03  0.704216D+00
      3 -0.466751D-04  0.669058D-05  0.704212D+00
      4  0.000000D+00  0.000000D+00  0.000000D+00  0.964289D-01
      5  0.000000D+00  0.000000D+00  0.000000D+00 -0.238132D-03  0.704211D+00
      6  0.000000D+00  0.000000D+00  0.000000D+00  0.476810D-03  0.248503D-05
      7  0.000000D+00  0.000000D+00  0.000000D+00 -0.321574D-01  0.102684D-01
      8  0.000000D+00  0.000000D+00  0.000000D+00  0.713176D-02 -0.294780D+00
      9  0.000000D+00  0.000000D+00  0.000000D+00 -0.417358D-02  0.104523D+00
     10 -0.321262D-01 -0.983740D-02 -0.570659D-02  0.000000D+00  0.000000D+00
     11 -0.669728D-02 -0.295216D+00 -0.104302D+00  0.000000D+00  0.000000D+00
     12 -0.389732D-02 -0.104301D+00 -0.174279D+00  0.000000D+00  0.000000D+00
     13  0.000000D+00  0.000000D+00  0.000000D+00 -0.321439D-01 -0.100748D-01
     14  0.000000D+00  0.000000D+00  0.000000D+00 -0.693426D-02 -0.295247D+00
     15  0.000000D+00  0.000000D+00  0.000000D+00 -0.407635D-02 -0.104266D+00
     16  0.000000D+00  0.000000D+00  0.000000D+00 -0.321277D-01  0.445656D-04
     17  0.000000D+00  0.000000D+00  0.000000D+00  0.406300D-04 -0.114185D+00
     18  0.000000D+00  0.000000D+00  0.000000D+00  0.777313D-02 -0.259197D-03
     19 -0.321584D-01  0.103252D-01 -0.592215D-02  0.000000D+00  0.000000D+00
     20  0.718831D-02 -0.294817D+00  0.104501D+00  0.000000D+00  0.000000D+00
     21 -0.410740D-02  0.104502D+00 -0.174641D+00  0.000000D+00  0.000000D+00
     22 -0.321445D-01  0.879921D-04  0.116754D-01  0.000000D+00  0.000000D+00
     23  0.847701D-04 -0.114184D+00 -0.205756D-03  0.000000D+00  0.000000D+00
     24  0.805140D-02 -0.208390D-03 -0.355292D+00  0.000000D+00  0.000000D+00
                6             7             8             9            10 
      6  0.704217D+00
      7 -0.598904D-02  0.109197D-01
      8  0.104525D+00 -0.760543D-02  0.285299D+00
      9 -0.174679D+00  0.443839D-02 -0.121039D+00  0.146224D+00
     10  0.000000D+00  0.000000D+00  0.000000D+00  0.000000D+00  0.108926D-01
     11  0.000000D+00  0.000000D+00  0.000000D+00  0.000000D+00  0.714143D-02
     12  0.000000D+00  0.000000D+00  0.000000D+00  0.000000D+00  0.414535D-02
     13 -0.588502D-02  0.106199D-01  0.106847D-02  0.130443D-02  0.000000D+00
     14 -0.104269D+00 -0.104981D-02 -0.956128D-02 -0.164662D-01  0.000000D+00
     15 -0.174228D+00  0.129375D-02  0.165495D-01  0.285278D-01  0.000000D+00
     16  0.113973D-01  0.106178D-01 -0.594806D-03 -0.156923D-02  0.000000D+00
     17 -0.257979D-03 -0.161312D-02  0.190421D-01  0.329827D-01  0.000000D+00
     18 -0.355310D+00  0.256901D-03 -0.348246D-04 -0.732718D-04  0.000000D+00
     19  0.000000D+00  0.000000D+00  0.000000D+00  0.000000D+00  0.106177D-01
     20  0.000000D+00  0.000000D+00  0.000000D+00  0.000000D+00  0.106514D-02
     21  0.000000D+00  0.000000D+00  0.000000D+00  0.000000D+00  0.129839D-02
     22  0.000000D+00  0.000000D+00  0.000000D+00  0.000000D+00  0.106159D-01
     23  0.000000D+00  0.000000D+00  0.000000D+00  0.000000D+00  0.163083D-02
     24  0.000000D+00  0.000000D+00  0.000000D+00  0.000000D+00  0.262843D-03
               11            12            13            14            15 
     11  0.285796D+00
     12  0.120779D+00  0.145757D+00
     13  0.000000D+00  0.000000D+00  0.109080D-01
     14  0.000000D+00  0.000000D+00  0.739921D-02  0.285835D+00
     15  0.000000D+00  0.000000D+00  0.432721D-02  0.120742D+00  0.145702D+00
     16  0.000000D+00  0.000000D+00  0.106160D-01  0.584863D-03 -0.154461D-02
     17  0.000000D+00  0.000000D+00  0.160711D-02  0.189725D-01 -0.330251D-01
     18  0.000000D+00  0.000000D+00  0.253388D-03 -0.640030D-05 -0.151287D-05
     19 -0.102466D-02  0.126893D-02  0.000000D+00  0.000000D+00  0.000000D+00
     20 -0.956092D-02  0.165430D-01  0.000000D+00  0.000000D+00  0.000000D+00
     21 -0.164741D-01  0.285305D-01  0.000000D+00  0.000000D+00  0.000000D+00
     22  0.580514D-03 -0.151696D-02  0.000000D+00  0.000000D+00  0.000000D+00
     23  0.189803D-01 -0.330208D-01  0.000000D+00  0.000000D+00  0.000000D+00
     24 -0.210619D-05 -0.895715D-05  0.000000D+00  0.000000D+00  0.000000D+00
               16            17            18            19            20 
     16  0.108939D-01
     17 -0.346222D-04  0.761702D-01
     18 -0.828341D-02  0.300422D-03  0.355385D+00
     19  0.000000D+00  0.000000D+00  0.000000D+00  0.109206D-01
     20  0.000000D+00  0.000000D+00  0.000000D+00 -0.765438D-02  0.285344D+00
     21  0.000000D+00  0.000000D+00  0.000000D+00  0.438741D-02 -0.121013D+00
     22  0.000000D+00  0.000000D+00  0.000000D+00  0.106201D-01 -0.599069D-03
     23  0.000000D+00  0.000000D+00  0.000000D+00 -0.164616D-02  0.190336D-01
     24  0.000000D+00  0.000000D+00  0.000000D+00  0.265806D-03 -0.315165D-04
               21            22            23            24 
     21  0.146178D+00
     22 -0.157840D-02  0.109084D-01
     23  0.329846D-01 -0.694377D-04  0.761699D-01
     24 -0.680651D-04 -0.858005D-02  0.242013D-03  0.355369D+00
 Leave Link  716 at Wed Nov 13 13:06:27 2024, MaxMem=  2147483648 cpu:               2.9 elap:               0.1
 (Enter /home/szhao/Apps/g16/l103.exe)

 GradGradGradGradGradGradGradGradGradGradGradGradGradGradGradGradGradGrad
 Berny optimization.
 Search for a local minimum.
 Step number   1 out of a maximum of    2
 All quantities printed in internal units (Hartrees-Bohrs-Radians)
 Second derivative matrix not updated -- first step.
 ITU=  0
     Eigenvalues ---   -0.00000  -0.00000  -0.00000   0.00000   0.00000
     Eigenvalues ---    0.00000   0.10521   0.12744   0.15721   0.15721
     Eigenvalues ---    0.15741   0.15741   0.35623   0.35651   0.85251
     Eigenvalues ---    0.85252   0.86156   0.86157
 Eigenvalue     1 is  -8.88D-16 should be greater than     0.000000 Eigenvector:
                          X5        Y6        X8        Y8        X2
   1                    0.41928   0.28096  -0.27266   0.25956   0.25413
                          X1        X4        Z7        Z5        X7
   1                   -0.25413  -0.25350  -0.23956   0.23863  -0.23622
 Eigenvalue     2 is  -2.22D-16 should be greater than     0.000000 Eigenvector:
                          X7        X8        X6        X5        X3
   1                    0.67161  -0.56180  -0.34887   0.28798  -0.07104
                          Y8        Y1        Y5        Y3        Y2
   1                   -0.05112  -0.04889   0.04713   0.04701   0.04661
 Eigenvalue     3 is  -1.11D-16 should be greater than     0.000000 Eigenvector:
                          X5        X6        X8        X7        X3
   1                    0.60269  -0.60229   0.35206  -0.29081  -0.11053
                          Z4        Z3        Z2        Z1        Y8
   1                   -0.10330   0.10015   0.07395  -0.07054  -0.06501
 Eigenvalue     4 is   4.44D-16 Eigenvector:
                          Y8        Y6        X8        X3        Z5
   1                    0.29980   0.29833   0.27960  -0.27318   0.26035
                          Z4        Z7        Z3        X4        X2
   1                    0.25922  -0.25922  -0.25809   0.24569  -0.23877
 Eigenvalue     5 is   4.66D-15 Eigenvector:
                          X3        X6        X5        Y8        Z7
   1                    0.80758  -0.46615  -0.30797   0.08452  -0.06674
                          Z5        Y5        Y3        Y2        Y1
   1                    0.06145  -0.05919  -0.05882  -0.05701   0.04818
 Eigenvalue     6 is   4.44D-14 Eigenvector:
                          X4        X8        X7        Y1        Y6
   1                    0.80379  -0.42559  -0.38171   0.05932  -0.05269
                          Y2        Y3        Y5        Y4        Y7
   1                   -0.04969  -0.04895  -0.04894   0.04425   0.04313
 Quadratic step=4.921D+01 exceeds max=3.000D-01 adjusted using Lamda=-1.658D-02.
 Angle between NR and scaled steps=  11.21 degrees.
 Angle between quadratic step and forces=  48.67 degrees.
 Linear search not attempted -- first point.
 B after Tr=     0.000000    0.000002    0.000004
         Rot=    1.000000    0.000000   -0.000000   -0.000001 Ang=  -0.00 deg.
 Variable       Old X    -DE/DX   Delta X   Delta X   Delta X     New X
                                 (Linear)    (Quad)   (Total)
    X1       -3.72051   0.00695   0.00000   0.14037   0.14037  -3.58014
    Y1        0.00000   0.00000   0.00000  -0.00001  -0.00001  -0.00001
    Z1       -0.00000   0.00000   0.00000   0.00002   0.00002   0.00002
    X2        3.72051  -0.00695   0.00000  -0.14037  -0.14037   3.58014
    Y2       -0.00000   0.00000   0.00000   0.00002   0.00003   0.00003
    Z2        0.00000  -0.00000   0.00000   0.00000   0.00000   0.00000
    X3        3.77281  -0.00001   0.00000  -0.09249  -0.09249   3.68032
    Y3       -1.77176  -0.00001   0.00000   0.00091   0.00091  -1.77084
    Z3        1.02546   0.00001   0.00000  -0.00051  -0.00051   1.02495
    X4       -3.76955   0.00000   0.00000   0.09211   0.09212  -3.67743
    Y4       -1.77383  -0.00001   0.00000   0.00084   0.00084  -1.77300
    Z4       -1.02202  -0.00001   0.00000   0.00050   0.00051  -1.02151
    X5        3.77142  -0.00000   0.00000  -0.09227  -0.09227   3.67915
    Y5        1.77401   0.00001   0.00000  -0.00085  -0.00084   1.77317
    Z5        1.02162   0.00001   0.00000  -0.00051  -0.00051   1.02111
    X6        3.76970  -0.00000   0.00000  -0.09217  -0.09218   3.67753
    Y6       -0.00221   0.00000   0.00000   0.00004   0.00004  -0.00217
    Z6       -2.04719  -0.00001   0.00000   0.00097   0.00097  -2.04622
    X7       -3.77291   0.00001   0.00000   0.09250   0.09250  -3.68041
    Y7        1.77195   0.00001   0.00000  -0.00092  -0.00092   1.77103
    Z7       -1.02511  -0.00001   0.00000   0.00049   0.00050  -1.02461
    X8       -3.77147   0.00000   0.00000   0.09232   0.09232  -3.67915
    Y8        0.00179  -0.00000   0.00000  -0.00005  -0.00005   0.00174
    Z8        2.04714   0.00001   0.00000  -0.00098  -0.00098   2.04617
         Item               Value     Threshold  Converged?
 Maximum Force            0.006947     0.000450     NO 
 RMS     Force            0.002006     0.000300     NO 
 Maximum Displacement     0.140368     0.001800     NO 
 RMS     Displacement     0.061420     0.001200     NO 
 Predicted change in Energy=-1.730978D-03
 GradGradGradGradGradGradGradGradGradGradGradGradGradGradGradGradGradGrad

 Leave Link  103 at Wed Nov 13 13:06:27 2024, MaxMem=  2147483648 cpu:               1.5 elap:               0.1
 (Enter /home/szhao/Apps/g16/l9999.exe)
 1\1\GINC-NODE01\Force\UM062X\6-311+G(d,p)\C2H6(1+,2)\SZHAO\13-Nov-2024
 \0\\#p UM062X/6-311+G** force int=superfine\\Title Card Required\\1,2\
 C,-1.968807,0.,0.\C,1.968807,0.,0.\H,1.996484,-0.937574,0.542649\H,-1.
 994759,-0.938672,-0.540828\H,1.995747,0.938765,0.54062\H,1.994841,-0.0
 01168,-1.083324\H,-1.996537,0.937678,-0.542467\H,-1.995774,0.000945,1.
 083302\\Version=ES64L-G16RevA.03\State=2-A\HF=-79.3183882\S2=0.752699\
 S2-1=0.\S2A=0.750006\RMSD=5.260e-09\RMSF=2.006e-03\Dipole=-0.0000007,-
 0.0000121,-0.0000199\Quadrupole=9.1077727,-4.5538676,-4.5539051,-0.001
 3809,0.0006838,0.0000081\PG=C01 [X(C2H6)]\\@


 YOU KNOW YOU'VE SPOKEN TOO LONG WHEN THE AUDIENCE STOPS LOOKING AT
 THEIR WATCHES AND STARTS SHAKING THEM.
 Job cpu time:       0 days  0 hours  3 minutes 45.9 seconds.
 Elapsed time:       0 days  0 hours  0 minutes  8.9 seconds.
 File lengths (MBytes):  RWF=     10 Int=      0 D2E=      0 Chk=      2 Scr=      1
 Normal termination of Gaussian 16 at Wed Nov 13 13:06:28 2024.
