 Entering Gaussian System, Link 0=g16
 Initial command:
 /home/szhao/Apps/g16/l1.exe "/home/szhao/tmp/Gau-60360.inp" -scrdir="/home/szhao/tmp/"
 Default is to use a total of  16 processors:
                               16 via shared-memory
                                1 via Linda
 Entering Link 1 = /home/szhao/Apps/g16/l1.exe PID=     60393.
  
 Copyright (c) 1988,1990,1992,1993,1995,1998,2003,2009,2016,
            Gaussian, Inc.  All Rights Reserved.
  
 This is part of the Gaussian(R) 16 program.  It is based on
 the Gaussian(R) 09 system (copyright 2009, Gaussian, Inc.),
 the Gaussian(R) 03 system (copyright 2003, Gaussian, Inc.),
 the Gaussian(R) 98 system (copyright 1998, Gaussian, Inc.),
 the Gaussian(R) 94 system (copyright 1995, Gaussian, Inc.),
 the Gaussian 92(TM) system (copyright 1992, Gaussian, Inc.),
 the Gaussian 90(TM) system (copyright 1990, Gaussian, Inc.),
 the Gaussian 88(TM) system (copyright 1988, Gaussian, Inc.),
 the Gaussian 86(TM) system (copyright 1986, Carnegie Mellon
 University), and the Gaussian 82(TM) system (copyright 1983,
 Carnegie Mellon University). Gaussian is a federally registered
 trademark of Gaussian, Inc.
  
 This software contains proprietary and confidential information,
 including trade secrets, belonging to Gaussian, Inc.
  
 This software is provided under written license and may be
 used, copied, transmitted, or stored only in accord with that
 written license.
  
 The following legend is applicable only to US Government
 contracts under FAR:
  
                    RESTRICTED RIGHTS LEGEND
  
 Use, reproduction and disclosure by the US Government is
 subject to restrictions as set forth in subparagraphs (a)
 and (c) of the Commercial Computer Software - Restricted
 Rights clause in FAR 52.227-19.
  
 Gaussian, Inc.
 340 Quinnipiac St., Bldg. 40, Wallingford CT 06492
  
  
 ---------------------------------------------------------------
 Warning -- This program may not be used in any manner that
 competes with the business of Gaussian, Inc. or will provide
 assistance to any competitor of Gaussian, Inc.  The licensee
 of this program is prohibited from giving any competitor of
 Gaussian, Inc. access to this program.  By using this program,
 the user acknowledges that Gaussian, Inc. is engaged in the
 business of creating and licensing software in the field of
 computational chemistry and represents and warrants to the
 licensee that it is not a competitor of Gaussian, Inc. and that
 it will not use this program in any manner prohibited above.
 ---------------------------------------------------------------
  

 Cite this work as:
 Gaussian 16, Revision A.03,
 M. J. Frisch, G. W. Trucks, H. B. Schlegel, G. E. Scuseria, 
 M. A. Robb, J. R. Cheeseman, G. Scalmani, V. Barone, 
 G. A. Petersson, H. Nakatsuji, X. Li, M. Caricato, A. V. Marenich, 
 J. Bloino, B. G. Janesko, R. Gomperts, B. Mennucci, H. P. Hratchian, 
 J. V. Ortiz, A. F. Izmaylov, J. L. Sonnenberg, D. Williams-Young, 
 F. Ding, F. Lipparini, F. Egidi, J. Goings, B. Peng, A. Petrone, 
 T. Henderson, D. Ranasinghe, V. G. Zakrzewski, J. Gao, N. Rega, 
 G. Zheng, W. Liang, M. Hada, M. Ehara, K. Toyota, R. Fukuda, 
 J. Hasegawa, M. Ishida, T. Nakajima, Y. Honda, O. Kitao, H. Nakai, 
 T. Vreven, K. Throssell, J. A. Montgomery, Jr., J. E. Peralta, 
 F. Ogliaro, M. J. Bearpark, J. J. Heyd, E. N. Brothers, K. N. Kudin, 
 V. N. Staroverov, T. A. Keith, R. Kobayashi, J. Normand, 
 K. Raghavachari, A. P. Rendell, J. C. Burant, S. S. Iyengar, 
 J. Tomasi, M. Cossi, J. M. Millam, M. Klene, C. Adamo, R. Cammi, 
 J. W. Ochterski, R. L. Martin, K. Morokuma, O. Farkas, 
 J. B. Foresman, and D. J. Fox, Gaussian, Inc., Wallingford CT, 2016.
 
 ******************************************
 Gaussian 16:  ES64L-G16RevA.03 25-Dec-2016
                21-Apr-2025 
 ******************************************
 %chk=force.chk
 %mem=4GB
 %nprocshared=8
 Will use up to    8 processors via shared memory.
 ---------------------------------------------------
 #p UM062X/6-311+G** force int=superfine pop=saveNBO
 ---------------------------------------------------
 1/10=7,30=1,38=1/1,3;
 2/12=2,17=6,18=5,40=1/2;
 3/5=4,6=6,7=111,11=2,25=1,30=1,71=1,74=-55,75=-7,116=2/1,2,3;
 4//1;
 5/5=2,38=5/2;
 6/7=2,8=2,9=2,10=2,28=1,40=1,73=1/1,7;
 7/29=1/1,2,3,16;
 1/10=7,30=1/3;
 99//99;
 Leave Link    1 at Mon Apr 21 19:30:34 2025, MaxMem=   536870912 cpu:               1.1 elap:               0.1
 (Enter /home/szhao/Apps/g16/l101.exe)
 -------------------
 Title Card Required
 -------------------
 Symbolic Z-matrix:
 Charge =  0 Multiplicity = 1
 C                    -1.13608   0.        0. 
 O                     1.13608   0.        0. 
 
 ITRead=  0  0
 MicOpt= -1 -1
 NAtoms=      2 NQM=        2 NQMF=       0 NMMI=      0 NMMIF=      0
                NMic=       0 NMicF=      0.
                    Isotopes and Nuclear Properties:
 (Nuclear quadrupole moments (NQMom) in fm**2, nuclear magnetic moments (NMagM)
  in nuclear magnetons)

  Atom         1           2
 IAtWgt=          12          16
 AtmWgt=  12.0000000  15.9949146
 NucSpn=           0           0
 AtZEff=  -0.0000000  -0.0000000
 NQMom=    0.0000000   0.0000000
 NMagM=    0.0000000   0.0000000
 AtZNuc=   6.0000000   8.0000000
 Leave Link  101 at Mon Apr 21 19:30:35 2025, MaxMem=   536870912 cpu:               2.1 elap:               0.3
 (Enter /home/szhao/Apps/g16/l103.exe)

 GradGradGradGradGradGradGradGradGradGradGradGradGradGradGradGradGradGrad
 Berny optimization.
 Initialization pass.
 Trust Radius=3.00D-01 FncErr=1.00D-07 GrdErr=1.00D-07 EigMax=2.50D+02 EigMin=1.00D-04
 Number of steps in this run=      2 maximum allowed number of steps=      2.
 GradGradGradGradGradGradGradGradGradGradGradGradGradGradGradGradGradGrad

 Leave Link  103 at Mon Apr 21 19:30:36 2025, MaxMem=   536870912 cpu:               0.8 elap:               0.8
 (Enter /home/szhao/Apps/g16/l202.exe)
                          Input orientation:                          
 ---------------------------------------------------------------------
 Center     Atomic      Atomic             Coordinates (Angstroms)
 Number     Number       Type             X           Y           Z
 ---------------------------------------------------------------------
      1          6           0       -1.136082    0.000000    0.000000
      2          8           0        1.136082    0.000000    0.000000
 ---------------------------------------------------------------------
 Stoichiometry    CO
 Framework group  C*V[C*(CO)]
 Deg. of freedom     1
 Full point group                 C*V     NOp   4
 Largest Abelian subgroup         C2V     NOp   4
 Largest concise Abelian subgroup C1      NOp   1
                         Standard orientation:                         
 ---------------------------------------------------------------------
 Center     Atomic      Atomic             Coordinates (Angstroms)
 Number     Number       Type             X           Y           Z
 ---------------------------------------------------------------------
      1          6           0        0.000000    0.000000   -1.298379
      2          8           0        0.000000    0.000000    0.973785
 ---------------------------------------------------------------------
 Rotational constants (GHZ):           0.0000000          14.2775545          14.2775545
 Leave Link  202 at Mon Apr 21 19:30:37 2025, MaxMem=   536870912 cpu:               0.3 elap:               0.2
 (Enter /home/szhao/Apps/g16/l301.exe)
 Standard basis: 6-311+G(d,p) (5D, 7F)
 Ernie: Thresh=  0.10000D-02 Tol=  0.10000D-05 Strict=F.
 There are    24 symmetry adapted cartesian basis functions of A1  symmetry.
 There are     2 symmetry adapted cartesian basis functions of A2  symmetry.
 There are    10 symmetry adapted cartesian basis functions of B1  symmetry.
 There are    10 symmetry adapted cartesian basis functions of B2  symmetry.
 There are    22 symmetry adapted basis functions of A1  symmetry.
 There are     2 symmetry adapted basis functions of A2  symmetry.
 There are    10 symmetry adapted basis functions of B1  symmetry.
 There are    10 symmetry adapted basis functions of B2  symmetry.
    44 basis functions,    72 primitive gaussians,    46 cartesian basis functions
     7 alpha electrons        7 beta electrons
       nuclear repulsion energy        11.1789932963 Hartrees.
 IExCor= 4336 DFT=T Ex+Corr=M062X ExCW=0 ScaHFX=  0.540000
 ScaDFX=  1.000000  1.000000  1.000000  1.000000 ScalE2=  1.000000  1.000000
 IRadAn=      7 IRanWt=     -1 IRanGd=            0 ICorTp=0 IEmpDi=  4
 NAtoms=    2 NActive=    2 NUniq=    2 SFac= 1.00D+00 NAtFMM=   60 NAOKFM=F Big=F
 Integral buffers will be    131072 words long.
 Raffenetti 2 integral format.
 Two-electron integral symmetry is turned on.
 Leave Link  301 at Mon Apr 21 19:30:37 2025, MaxMem=   536870912 cpu:               0.6 elap:               0.2
 (Enter /home/szhao/Apps/g16/l302.exe)
 NPDir=0 NMtPBC=     1 NCelOv=     1 NCel=       1 NClECP=     1 NCelD=      1
         NCelK=      1 NCelE2=     1 NClLst=     1 CellRange=     0.0.
 One-electron integrals computed using PRISM.
 One-electron integral symmetry used in STVInt
 NBasis=    44 RedAO= T EigKep=  2.22D-02  NBF=    22     2    10    10
 NBsUse=    44 1.00D-06 EigRej= -1.00D+00 NBFU=    22     2    10    10
 Precomputing XC quadrature grid using
 IXCGrd= 4 IRadAn=           7 IRanWt=          -1 IRanGd=           0 AccXCQ= 0.00D+00.
 Generated NRdTot=       0 NPtTot=           0 NUsed=           0 NTot=          32
 NSgBfM=    46    46    46    46    46 MxSgAt=     2 MxSgA2=     2.
 Leave Link  302 at Mon Apr 21 19:30:38 2025, MaxMem=   536870912 cpu:               1.2 elap:               0.2
 (Enter /home/szhao/Apps/g16/l303.exe)
 DipDrv:  MaxL=1.
 Leave Link  303 at Mon Apr 21 19:30:39 2025, MaxMem=   536870912 cpu:               1.2 elap:               0.3
 (Enter /home/szhao/Apps/g16/l401.exe)
 ExpMin= 4.38D-02 ExpMax= 8.59D+03 ExpMxC= 1.30D+03 IAcc=3 IRadAn=         7 AccDes= 0.00D+00
 Harris functional with IExCor= 1009 and IRadAn=       7 diagonalized for initial guess.
 HarFok:  IExCor= 1009 AccDes= 0.00D+00 IRadAn=         7 IDoV= 1 UseB2=F ITyADJ=14
 ICtDFT=  3500011 ScaDFX=  1.000000  1.000000  1.000000  1.000000
 FoFCou: FMM=F IPFlag=           0 FMFlag=      100000 FMFlg1=           0
         NFxFlg=           0 DoJE=T BraDBF=F KetDBF=T FulRan=T
         wScrn=  0.000000 ICntrl=       500 IOpCl=  0 I1Cent=   200000004 NGrid=           0
         NMat0=    1 NMatS0=      1 NMatT0=    0 NMatD0=    1 NMtDS0=    0 NMtDT0=    0
 Petite list used in FoFCou.
 Harris En= -112.960663865237    
 JPrj=0 DoOrth=F DoCkMO=F.
 Initial guess orbital symmetries:
 Alpha Orbitals:
       Occupied  (SG) (SG) (SG) (SG) (SG) (PI) (PI)
       Virtual   (PI) (PI) (SG) (SG) (SG) (PI) (PI) (SG) (PI) (PI)
                 (SG) (PI) (PI) (SG) (SG) (SG) (PI) (PI) (SG) (DLTA)
                 (DLTA) (PI) (PI) (SG) (PI) (PI) (SG) (DLTA) (DLTA)
                 (PI) (PI) (SG) (PI) (PI) (SG) (SG) (SG)
 Beta  Orbitals:
       Occupied  (SG) (SG) (SG) (SG) (SG) (PI) (PI)
       Virtual   (PI) (PI) (SG) (SG) (SG) (PI) (PI) (SG) (PI) (PI)
                 (SG) (PI) (PI) (SG) (SG) (SG) (PI) (PI) (SG) (DLTA)
                 (DLTA) (PI) (PI) (SG) (PI) (PI) (SG) (DLTA) (DLTA)
                 (PI) (PI) (SG) (PI) (PI) (SG) (SG) (SG)
 The electronic state of the initial guess is 1-SG.
 Initial guess <Sx>= 0.0000 <Sy>= 0.0000 <Sz>= 0.0000 <S**2>=-0.0000 S=-0.0000
 Leave Link  401 at Mon Apr 21 19:30:39 2025, MaxMem=   536870912 cpu:               2.0 elap:               0.4
 (Enter /home/szhao/Apps/g16/l502.exe)
 Keep R1 and R2 ints in memory in symmetry-blocked form, NReq=7469717.
 FoFCou: FMM=F IPFlag=           0 FMFlag=           0 FMFlg1=           0
         NFxFlg=           0 DoJE=F BraDBF=F KetDBF=F FulRan=T
         wScrn=  0.000000 ICntrl=       600 IOpCl=  0 I1Cent=           0 NGrid=           0
         NMat0=    1 NMatS0=    990 NMatT0=    0 NMatD0=    1 NMtDS0=    0 NMtDT0=    0
 Petite list used in FoFCou.
 UHF open shell SCF:
 Using DIIS extrapolation, IDIIS=  1040.
 NGot=   536870912 LenX=   536591038 LenY=   536588481
 Requested convergence on RMS density matrix=1.00D-08 within 128 cycles.
 Requested convergence on MAX density matrix=1.00D-06.
 Requested convergence on             energy=1.00D-06.
 No special actions if energy rises.

 Cycle   1  Pass 1  IDiag  1:
 E= -112.039324128426    
 DIIS: error= 1.38D-01 at cycle   1 NSaved=   1.
 NSaved= 1 IEnMin= 1 EnMin= -112.039324128426     IErMin= 1 ErrMin= 1.38D-01
 ErrMax= 1.38D-01  0.00D+00 EMaxC= 1.00D-01 BMatC= 2.20D+00 BMatP= 2.20D+00
 IDIUse=3 WtCom= 0.00D+00 WtEn= 1.00D+00
 Coeff-Com:  0.100D+01
 Coeff-En:   0.100D+01
 Coeff:      0.100D+01
 Gap=     0.014 Goal=   None    Shift=    0.000
 Gap=     0.014 Goal=   None    Shift=    0.000
 GapD=    0.014 DampG=0.250 DampE=0.250 DampFc=0.2500 IDamp=-1.
 Damping current iteration by 2.50D-01
 RMSDP=3.03D-02 MaxDP=3.61D-01              OVMax= 7.86D-01

 Cycle   2  Pass 1  IDiag  1:
 E= -112.471499661064     Delta-E=       -0.432175532638 Rises=F Damp=T
 DIIS: error= 2.20D-02 at cycle   2 NSaved=   2.
 NSaved= 2 IEnMin= 2 EnMin= -112.471499661064     IErMin= 2 ErrMin= 2.20D-02
 ErrMax= 2.20D-02  0.00D+00 EMaxC= 1.00D-01 BMatC= 1.11D-01 BMatP= 2.20D+00
 IDIUse=3 WtCom= 7.80D-01 WtEn= 2.20D-01
 Coeff-Com:  0.393D-01 0.961D+00
 Coeff-En:   0.252D+00 0.748D+00
 Coeff:      0.860D-01 0.914D+00
 Gap=     0.168 Goal=   None    Shift=    0.000
 Gap=     0.168 Goal=   None    Shift=    0.000
 RMSDP=6.95D-03 MaxDP=6.98D-02 DE=-4.32D-01 OVMax= 9.67D-01

 Cycle   3  Pass 1  IDiag  1:
 E= -112.600445161325     Delta-E=       -0.128945500261 Rises=F Damp=F
 DIIS: error= 8.28D-02 at cycle   3 NSaved=   3.
 NSaved= 3 IEnMin= 3 EnMin= -112.600445161325     IErMin= 2 ErrMin= 2.20D-02
 ErrMax= 8.28D-02  0.00D+00 EMaxC= 1.00D-01 BMatC= 5.89D-01 BMatP= 1.11D-01
 IDIUse=2 WtCom= 0.00D+00 WtEn= 1.00D+00
 Coeff-En:   0.000D+00 0.283D+00 0.717D+00
 Coeff:      0.000D+00 0.283D+00 0.717D+00
 Gap=    -0.140 Goal=   None    Shift=    0.000
 Gap=    -0.140 Goal=   None    Shift=    0.000
 RMSDP=2.32D-02 MaxDP=2.36D-01 DE=-1.29D-01 OVMax= 9.15D-01

 Cycle   4  Pass 1  IDiag  1:
 E= -106.299904173222     Delta-E=        6.300540988102 Rises=F Damp=F
 DIIS: error= 3.38D-01 at cycle   4 NSaved=   4.
 NSaved= 4 IEnMin= 3 EnMin= -112.600445161325     IErMin= 2 ErrMin= 2.20D-02
 ErrMax= 3.38D-01  0.00D+00 EMaxC= 1.00D-01 BMatC= 1.42D+01 BMatP= 1.11D-01
 IDIUse=2 WtCom= 0.00D+00 WtEn= 1.00D+00
 Coeff-En:   0.000D+00 0.000D+00 0.882D+00 0.118D+00
 Coeff:      0.000D+00 0.000D+00 0.882D+00 0.118D+00
 Gap=     0.040 Goal=   None    Shift=    0.000
 Gap=     0.040 Goal=   None    Shift=    0.000
 RMSDP=1.34D-02 MaxDP=1.33D-01 DE= 6.30D+00 OVMax= 5.56D-01

 Cycle   5  Pass 1  IDiag  1:
 E= -111.619701783986     Delta-E=       -5.319797610764 Rises=F Damp=F
 DIIS: error= 3.06D-01 at cycle   5 NSaved=   5.
 NSaved= 5 IEnMin= 3 EnMin= -112.600445161325     IErMin= 2 ErrMin= 2.20D-02
 ErrMax= 3.06D-01  0.00D+00 EMaxC= 1.00D-01 BMatC= 6.37D+00 BMatP= 1.11D-01
 IDIUse=2 WtCom= 0.00D+00 WtEn= 1.00D+00
 Coeff-En:   0.000D+00 0.000D+00 0.726D+00 0.000D+00 0.274D+00
 Coeff:      0.000D+00 0.000D+00 0.726D+00 0.000D+00 0.274D+00
 Gap=     0.104 Goal=   None    Shift=    0.000
 Gap=     0.104 Goal=   None    Shift=    0.000
 RMSDP=7.49D-03 MaxDP=6.99D-02 DE=-5.32D+00 OVMax= 3.23D-01

 Cycle   6  Pass 1  IDiag  1:
 E= -112.806884515434     Delta-E=       -1.187182731447 Rises=F Damp=F
 DIIS: error= 3.65D-02 at cycle   6 NSaved=   6.
 NSaved= 6 IEnMin= 6 EnMin= -112.806884515434     IErMin= 2 ErrMin= 2.20D-02
 ErrMax= 3.65D-02  0.00D+00 EMaxC= 1.00D-01 BMatC= 9.91D-02 BMatP= 1.11D-01
 IDIUse=3 WtCom= 6.35D-01 WtEn= 3.65D-01
 Coeff-Com: -0.140D-01-0.108D-01 0.158D+00 0.569D-02-0.856D-01 0.947D+00
 Coeff-En:   0.000D+00 0.000D+00 0.174D+00 0.000D+00 0.000D+00 0.826D+00
 Coeff:     -0.890D-02-0.683D-02 0.164D+00 0.361D-02-0.543D-01 0.903D+00
 Gap=     0.179 Goal=   None    Shift=    0.000
 Gap=     0.179 Goal=   None    Shift=    0.000
 RMSDP=2.46D-03 MaxDP=2.20D-02 DE=-1.19D+00 OVMax= 1.03D-01

 Cycle   7  Pass 1  IDiag  1:
 E= -112.821338816949     Delta-E=       -0.014454301515 Rises=F Damp=F
 DIIS: error= 2.12D-02 at cycle   7 NSaved=   7.
 NSaved= 7 IEnMin= 7 EnMin= -112.821338816949     IErMin= 7 ErrMin= 2.12D-02
 ErrMax= 2.12D-02  0.00D+00 EMaxC= 1.00D-01 BMatC= 4.44D-02 BMatP= 9.91D-02
 IDIUse=3 WtCom= 7.88D-01 WtEn= 2.12D-01
 Coeff-Com: -0.427D-01 0.112D-01 0.308D-01-0.131D-02-0.553D-02 0.377D+00
 Coeff-Com:  0.630D+00
 Coeff-En:   0.000D+00 0.000D+00 0.000D+00 0.000D+00 0.000D+00 0.362D+00
 Coeff-En:   0.638D+00
 Coeff:     -0.337D-01 0.885D-02 0.243D-01-0.103D-02-0.436D-02 0.374D+00
 Coeff:      0.632D+00
 Gap=     0.176 Goal=   None    Shift=    0.000
 Gap=     0.176 Goal=   None    Shift=    0.000
 RMSDP=6.71D-04 MaxDP=8.02D-03 DE=-1.45D-02 OVMax= 3.60D-02

 Cycle   8  Pass 1  IDiag  1:
 E= -112.830724108926     Delta-E=       -0.009385291978 Rises=F Damp=F
 DIIS: error= 7.84D-03 at cycle   8 NSaved=   8.
 NSaved= 8 IEnMin= 8 EnMin= -112.830724108926     IErMin= 8 ErrMin= 7.84D-03
 ErrMax= 7.84D-03  0.00D+00 EMaxC= 1.00D-01 BMatC= 4.65D-03 BMatP= 4.44D-02
 IDIUse=3 WtCom= 9.22D-01 WtEn= 7.84D-02
 Coeff-Com:  0.267D-01-0.349D-01-0.712D-01 0.786D-02-0.214D-01 0.516D-01
 Coeff-Com: -0.453D+00 0.149D+01
 Coeff-En:   0.000D+00 0.000D+00 0.000D+00 0.000D+00 0.000D+00 0.539D-01
 Coeff-En:   0.000D+00 0.946D+00
 Coeff:      0.246D-01-0.321D-01-0.656D-01 0.724D-02-0.197D-01 0.518D-01
 Coeff:     -0.417D+00 0.145D+01
 Gap=     0.179 Goal=   None    Shift=    0.000
 Gap=     0.179 Goal=   None    Shift=    0.000
 RMSDP=6.99D-04 MaxDP=7.79D-03 DE=-9.39D-03 OVMax= 3.40D-02

 Cycle   9  Pass 1  IDiag  1:
 E= -112.832351782893     Delta-E=       -0.001627673967 Rises=F Damp=F
 DIIS: error= 5.39D-03 at cycle   9 NSaved=   9.
 NSaved= 9 IEnMin= 9 EnMin= -112.832351782893     IErMin= 9 ErrMin= 5.39D-03
 ErrMax= 5.39D-03  0.00D+00 EMaxC= 1.00D-01 BMatC= 2.53D-03 BMatP= 4.65D-03
 IDIUse=3 WtCom= 9.46D-01 WtEn= 5.39D-02
 Coeff-Com:  0.185D-01-0.295D-01-0.899D-02 0.690D-02-0.233D-01 0.213D-01
 Coeff-Com: -0.660D+00 0.566D+00 0.111D+01
 Coeff-En:   0.000D+00 0.000D+00 0.000D+00 0.000D+00 0.000D+00 0.000D+00
 Coeff-En:   0.000D+00 0.000D+00 0.100D+01
 Coeff:      0.175D-01-0.279D-01-0.850D-02 0.653D-02-0.221D-01 0.202D-01
 Coeff:     -0.624D+00 0.536D+00 0.110D+01
 Gap=     0.179 Goal=   None    Shift=    0.000
 Gap=     0.179 Goal=   None    Shift=    0.000
 RMSDP=6.91D-04 MaxDP=7.48D-03 DE=-1.63D-03 OVMax= 3.39D-02

 Cycle  10  Pass 1  IDiag  1:
 E= -112.833567585793     Delta-E=       -0.001215802899 Rises=F Damp=F
 DIIS: error= 2.15D-03 at cycle  10 NSaved=  10.
 NSaved=10 IEnMin=10 EnMin= -112.833567585793     IErMin=10 ErrMin= 2.15D-03
 ErrMax= 2.15D-03  0.00D+00 EMaxC= 1.00D-01 BMatC= 4.08D-04 BMatP= 2.53D-03
 IDIUse=3 WtCom= 9.78D-01 WtEn= 2.15D-02
 Coeff-Com: -0.303D-03 0.193D-02 0.973D-02 0.303D-03-0.360D-02-0.217D-01
 Coeff-Com:  0.211D+00-0.773D-01-0.239D+01 0.327D+01
 Coeff-En:   0.000D+00 0.000D+00 0.000D+00 0.000D+00 0.000D+00 0.000D+00
 Coeff-En:   0.000D+00 0.000D+00 0.000D+00 0.100D+01
 Coeff:     -0.296D-03 0.189D-02 0.952D-02 0.296D-03-0.352D-02-0.212D-01
 Coeff:      0.207D+00-0.756D-01-0.234D+01 0.323D+01
 Gap=     0.179 Goal=   None    Shift=    0.000
 Gap=     0.179 Goal=   None    Shift=    0.000
 RMSDP=1.45D-03 MaxDP=1.35D-02 DE=-1.22D-03 OVMax= 6.26D-02

 Cycle  11  Pass 1  IDiag  1:
 E= -112.834427878036     Delta-E=       -0.000860292243 Rises=F Damp=F
 DIIS: error= 6.41D-04 at cycle  11 NSaved=  11.
 NSaved=11 IEnMin=11 EnMin= -112.834427878036     IErMin=11 ErrMin= 6.41D-04
 ErrMax= 6.41D-04  0.00D+00 EMaxC= 1.00D-01 BMatC= 3.16D-05 BMatP= 4.08D-04
 IDIUse=3 WtCom= 9.94D-01 WtEn= 6.41D-03
 Coeff-Com:  0.216D-02-0.210D-02-0.255D-02 0.557D-03-0.271D-02 0.281D-02
 Coeff-Com:  0.258D-01 0.703D-01-0.354D+00 0.390D+00 0.870D+00
 Coeff-En:   0.000D+00 0.000D+00 0.000D+00 0.000D+00 0.000D+00 0.000D+00
 Coeff-En:   0.000D+00 0.000D+00 0.000D+00 0.000D+00 0.100D+01
 Coeff:      0.214D-02-0.208D-02-0.253D-02 0.553D-03-0.270D-02 0.279D-02
 Coeff:      0.256D-01 0.699D-01-0.352D+00 0.388D+00 0.870D+00
 Gap=     0.180 Goal=   None    Shift=    0.000
 Gap=     0.180 Goal=   None    Shift=    0.000
 RMSDP=5.45D-05 MaxDP=5.88D-04 DE=-8.60D-04 OVMax= 2.61D-03

 Cycle  12  Pass 1  IDiag  1:
 E= -112.834430350990     Delta-E=       -0.000002472954 Rises=F Damp=F
 DIIS: error= 4.82D-04 at cycle  12 NSaved=  12.
 NSaved=12 IEnMin=12 EnMin= -112.834430350990     IErMin=12 ErrMin= 4.82D-04
 ErrMax= 4.82D-04  0.00D+00 EMaxC= 1.00D-01 BMatC= 1.89D-05 BMatP= 3.16D-05
 IDIUse=3 WtCom= 9.95D-01 WtEn= 4.82D-03
 Coeff-Com:  0.927D-03-0.115D-02-0.369D-03 0.345D-03-0.186D-02 0.818D-02
 Coeff-Com: -0.244D-01 0.140D-01 0.276D-02-0.128D+00 0.279D-01 0.110D+01
 Coeff-En:   0.000D+00 0.000D+00 0.000D+00 0.000D+00 0.000D+00 0.000D+00
 Coeff-En:   0.000D+00 0.000D+00 0.000D+00 0.000D+00 0.431D+00 0.569D+00
 Coeff:      0.923D-03-0.115D-02-0.367D-03 0.343D-03-0.185D-02 0.814D-02
 Coeff:     -0.243D-01 0.140D-01 0.275D-02-0.127D+00 0.298D-01 0.110D+01
 Gap=     0.180 Goal=   None    Shift=    0.000
 Gap=     0.180 Goal=   None    Shift=    0.000
 RMSDP=2.03D-04 MaxDP=1.93D-03 DE=-2.47D-06 OVMax= 8.85D-03

 Cycle  13  Pass 1  IDiag  1:
 E= -112.834453054777     Delta-E=       -0.000022703788 Rises=F Damp=F
 DIIS: error= 4.98D-05 at cycle  13 NSaved=  13.
 NSaved=13 IEnMin=13 EnMin= -112.834453054777     IErMin=13 ErrMin= 4.98D-05
 ErrMax= 4.98D-05  0.00D+00 EMaxC= 1.00D-01 BMatC= 2.70D-07 BMatP= 1.89D-05
 IDIUse=1 WtCom= 1.00D+00 WtEn= 0.00D+00
 Coeff-Com:  0.268D-03-0.346D-03-0.117D-03 0.841D-04-0.442D-03 0.170D-02
 Coeff-Com: -0.870D-02 0.179D-01-0.149D-01-0.634D-02-0.172D+00 0.390D-01
 Coeff-Com:  0.114D+01
 Coeff:      0.268D-03-0.346D-03-0.117D-03 0.841D-04-0.442D-03 0.170D-02
 Coeff:     -0.870D-02 0.179D-01-0.149D-01-0.634D-02-0.172D+00 0.390D-01
 Coeff:      0.114D+01
 Gap=     0.180 Goal=   None    Shift=    0.000
 Gap=     0.180 Goal=   None    Shift=    0.000
 RMSDP=4.37D-05 MaxDP=3.65D-04 DE=-2.27D-05 OVMax= 1.66D-03

 Cycle  14  Pass 1  IDiag  1:
 E= -112.834454096730     Delta-E=       -0.000001041953 Rises=F Damp=F
 DIIS: error= 1.23D-05 at cycle  14 NSaved=  14.
 NSaved=14 IEnMin=14 EnMin= -112.834454096730     IErMin=14 ErrMin= 1.23D-05
 ErrMax= 1.23D-05  0.00D+00 EMaxC= 1.00D-01 BMatC= 1.27D-08 BMatP= 2.70D-07
 IDIUse=1 WtCom= 1.00D+00 WtEn= 0.00D+00
 Coeff-Com: -0.110D-04 0.267D-05 0.446D-04-0.720D-06 0.974D-05-0.276D-03
 Coeff-Com:  0.285D-03-0.347D-02 0.583D-02-0.116D-01 0.223D-01 0.275D-01
 Coeff-Com: -0.296D+00 0.126D+01
 Coeff:     -0.110D-04 0.267D-05 0.446D-04-0.720D-06 0.974D-05-0.276D-03
 Coeff:      0.285D-03-0.347D-02 0.583D-02-0.116D-01 0.223D-01 0.275D-01
 Coeff:     -0.296D+00 0.126D+01
 Gap=     0.181 Goal=   None    Shift=    0.000
 Gap=     0.181 Goal=   None    Shift=    0.000
 RMSDP=1.71D-05 MaxDP=1.47D-04 DE=-1.04D-06 OVMax= 6.82D-04

 Cycle  15  Pass 1  IDiag  1:
 E= -112.834454181014     Delta-E=       -0.000000084284 Rises=F Damp=F
 DIIS: error= 7.89D-06 at cycle  15 NSaved=  15.
 NSaved=15 IEnMin=15 EnMin= -112.834454181014     IErMin=15 ErrMin= 7.89D-06
 ErrMax= 7.89D-06  0.00D+00 EMaxC= 1.00D-01 BMatC= 6.14D-09 BMatP= 1.27D-08
 IDIUse=1 WtCom= 1.00D+00 WtEn= 0.00D+00
 Coeff-Com: -0.408D-07-0.209D-05 0.229D-05-0.108D-06 0.467D-05 0.110D-05
 Coeff-Com: -0.214D-03 0.541D-03 0.562D-03 0.253D-02-0.467D-02 0.149D-02
 Coeff-Com: -0.336D-01-0.197D+00 0.123D+01
 Coeff:     -0.408D-07-0.209D-05 0.229D-05-0.108D-06 0.467D-05 0.110D-05
 Coeff:     -0.214D-03 0.541D-03 0.562D-03 0.253D-02-0.467D-02 0.149D-02
 Coeff:     -0.336D-01-0.197D+00 0.123D+01
 Gap=     0.180 Goal=   None    Shift=    0.000
 Gap=     0.180 Goal=   None    Shift=    0.000
 RMSDP=8.37D-07 MaxDP=9.93D-06 DE=-8.43D-08 OVMax= 3.90D-05

 Cycle  16  Pass 1  IDiag  1:
 E= -112.834454182272     Delta-E=       -0.000000001258 Rises=F Damp=F
 DIIS: error= 4.21D-06 at cycle  16 NSaved=  16.
 NSaved=16 IEnMin=16 EnMin= -112.834454182272     IErMin=16 ErrMin= 4.21D-06
 ErrMax= 4.21D-06  0.00D+00 EMaxC= 1.00D-01 BMatC= 1.83D-09 BMatP= 6.14D-09
 IDIUse=1 WtCom= 1.00D+00 WtEn= 0.00D+00
 Coeff-Com:  0.226D-06 0.692D-07 0.202D-05 0.354D-06-0.176D-05 0.536D-05
 Coeff-Com: -0.180D-04 0.524D-04-0.211D-03 0.118D-03 0.875D-05 0.196D-02
 Coeff-Com: -0.117D-01 0.258D-01 0.383D+00 0.601D+00
 Coeff:      0.226D-06 0.692D-07 0.202D-05 0.354D-06-0.176D-05 0.536D-05
 Coeff:     -0.180D-04 0.524D-04-0.211D-03 0.118D-03 0.875D-05 0.196D-02
 Coeff:     -0.117D-01 0.258D-01 0.383D+00 0.601D+00
 Gap=     0.180 Goal=   None    Shift=    0.000
 Gap=     0.180 Goal=   None    Shift=    0.000
 RMSDP=2.58D-07 MaxDP=2.85D-06 DE=-1.26D-09 OVMax= 1.11D-05

 Cycle  17  Pass 1  IDiag  1:
 E= -112.834454182764     Delta-E=       -0.000000000491 Rises=F Damp=F
 DIIS: error= 2.34D-07 at cycle  17 NSaved=  17.
 NSaved=17 IEnMin=17 EnMin= -112.834454182764     IErMin=17 ErrMin= 2.34D-07
 ErrMax= 2.34D-07  0.00D+00 EMaxC= 1.00D-01 BMatC= 5.51D-12 BMatP= 1.83D-09
 IDIUse=1 WtCom= 1.00D+00 WtEn= 0.00D+00
 Coeff-Com:  0.114D-06-0.116D-07-0.982D-07 0.202D-07-0.125D-06 0.293D-06
 Coeff-Com: -0.121D-06-0.656D-07-0.242D-04 0.732D-04 0.151D-03-0.672D-03
 Coeff-Com: -0.678D-03 0.278D-02-0.379D-01-0.501D-01 0.109D+01
 Coeff:      0.114D-06-0.116D-07-0.982D-07 0.202D-07-0.125D-06 0.293D-06
 Coeff:     -0.121D-06-0.656D-07-0.242D-04 0.732D-04 0.151D-03-0.672D-03
 Coeff:     -0.678D-03 0.278D-02-0.379D-01-0.501D-01 0.109D+01
 Gap=     0.180 Goal=   None    Shift=    0.000
 Gap=     0.180 Goal=   None    Shift=    0.000
 RMSDP=6.16D-08 MaxDP=6.47D-07 DE=-4.91D-10 OVMax= 2.83D-06

 Cycle  18  Pass 1  IDiag  1:
 E= -112.834454182766     Delta-E=       -0.000000000002 Rises=F Damp=F
 DIIS: error= 3.16D-09 at cycle  18 NSaved=  18.
 NSaved=18 IEnMin=18 EnMin= -112.834454182766     IErMin=18 ErrMin= 3.16D-09
 ErrMax= 3.16D-09  0.00D+00 EMaxC= 1.00D-01 BMatC= 2.00D-15 BMatP= 5.51D-12
 IDIUse=1 WtCom= 1.00D+00 WtEn= 0.00D+00
 Large coefficients: NSaved= 18 BigCof=    0.00 CofMax=   10.00 Det=-9.63D-15
 Inversion failed.  Reducing to 17 matrices.
 Large coefficients: NSaved= 17 BigCof=    0.00 CofMax=   10.00 Det=-9.69D-15
 Inversion failed.  Reducing to 16 matrices.
 Large coefficients: NSaved= 16 BigCof=    0.00 CofMax=   10.00 Det=-9.81D-15
 Inversion failed.  Reducing to 15 matrices.
 Coeff-Com: -0.103D-07 0.381D-07-0.139D-06-0.453D-06-0.232D-05 0.716D-05
 Coeff-Com: -0.149D-04-0.110D-04 0.931D-04 0.150D-03-0.604D-03 0.109D-02
 Coeff-Com: -0.954D-03-0.902D-01 0.109D+01
 Coeff:     -0.103D-07 0.381D-07-0.139D-06-0.453D-06-0.232D-05 0.716D-05
 Coeff:     -0.149D-04-0.110D-04 0.931D-04 0.150D-03-0.604D-03 0.109D-02
 Coeff:     -0.954D-03-0.902D-01 0.109D+01
 Gap=     0.180 Goal=   None    Shift=    0.000
 Gap=     0.180 Goal=   None    Shift=    0.000
 RMSDP=2.43D-09 MaxDP=2.68D-08 DE=-2.42D-12 OVMax= 1.14D-07

 SCF Done:  E(UM062X) =  -112.834454183     A.U. after   18 cycles
            NFock= 18  Conv=0.24D-08     -V/T= 2.0070
 <Sx>= 0.0000 <Sy>= 0.0000 <Sz>= 0.0000 <S**2>= 0.0000 S= 0.0000
 <L.S>=  0.00000000000    
 KE= 1.120519025551D+02 PE=-2.880285539556D+02 EE= 5.196320392146D+01
 Annihilation of the first spin contaminant:
 S**2 before annihilation     0.0000,   after     0.0000
 Leave Link  502 at Mon Apr 21 19:30:42 2025, MaxMem=   536870912 cpu:              14.6 elap:               2.3
 (Enter /home/szhao/Apps/g16/l601.exe)
 Copying SCF densities to generalized density rwf, IOpCl= 1 IROHF=0.

 **********************************************************************

            Population analysis using the SCF density.

 **********************************************************************

 Orbital symmetries:
 Alpha Orbitals:
       Occupied  (SG) (SG) (SG) (SG) (SG) (PI) (PI)
       Virtual   (PI) (PI) (SG) (SG) (PI) (PI) (SG) (SG) (PI) (PI)
                 (SG) (PI) (PI) (SG) (SG) (SG) (PI) (PI) (DLTA)
                 (DLTA) (PI) (PI) (SG) (SG) (PI) (PI) (SG) (PI)
                 (PI) (DLTA) (DLTA) (SG) (PI) (PI) (SG) (SG) (SG)
 Beta  Orbitals:
       Occupied  (SG) (SG) (SG) (SG) (SG) (PI) (PI)
       Virtual   (PI) (PI) (SG) (SG) (PI) (PI) (SG) (SG) (PI) (PI)
                 (SG) (PI) (PI) (SG) (SG) (SG) (PI) (PI) (DLTA)
                 (DLTA) (PI) (PI) (SG) (SG) (PI) (PI) (SG) (PI)
                 (PI) (DLTA) (DLTA) (SG) (PI) (PI) (SG) (SG) (SG)
 The electronic state is 1-SG.
 Alpha  occ. eigenvalues --  -19.68874 -10.84600  -0.99498  -0.72440  -0.37637
 Alpha  occ. eigenvalues --   -0.36243  -0.36243
 Alpha virt. eigenvalues --   -0.18193  -0.18193  -0.11521   0.02949   0.06105
 Alpha virt. eigenvalues --    0.06105   0.06903   0.20060   0.22618   0.22618
 Alpha virt. eigenvalues --    0.32019   0.51198   0.51198   0.53670   0.66217
 Alpha virt. eigenvalues --    1.03011   1.10494   1.10494   1.23589   1.23589
 Alpha virt. eigenvalues --    1.27837   1.27837   1.31758   1.61094   2.57222
 Alpha virt. eigenvalues --    2.57222   2.62416   2.90848   2.90848   2.92252
 Alpha virt. eigenvalues --    2.92252   2.93762   5.06042   5.06042   5.09135
 Alpha virt. eigenvalues --   23.09458  49.82812
  Beta  occ. eigenvalues --  -19.68874 -10.84600  -0.99498  -0.72440  -0.37637
  Beta  occ. eigenvalues --   -0.36243  -0.36243
  Beta virt. eigenvalues --   -0.18193  -0.18193  -0.11521   0.02949   0.06105
  Beta virt. eigenvalues --    0.06105   0.06903   0.20060   0.22618   0.22618
  Beta virt. eigenvalues --    0.32019   0.51198   0.51198   0.53670   0.66217
  Beta virt. eigenvalues --    1.03011   1.10494   1.10494   1.23589   1.23589
  Beta virt. eigenvalues --    1.27837   1.27837   1.31758   1.61094   2.57222
  Beta virt. eigenvalues --    2.57222   2.62416   2.90848   2.90848   2.92252
  Beta virt. eigenvalues --    2.92252   2.93762   5.06042   5.06042   5.09135
  Beta virt. eigenvalues --   23.09458  49.82812
          Condensed to atoms (all electrons):
               1          2
     1  C    5.477376   0.186975
     2  O    0.186975   8.148674
          Atomic-Atomic Spin Densities.
               1          2
     1  C    0.000000   0.000000
     2  O    0.000000  -0.000000
 Mulliken charges and spin densities:
               1          2
     1  C    0.335649   0.000000
     2  O   -0.335649  -0.000000
 Sum of Mulliken charges =   0.00000   0.00000
 Mulliken charges and spin densities with hydrogens summed into heavy atoms:
               1          2
     1  C    0.335649   0.000000
     2  O   -0.335649  -0.000000
 Electronic spatial extent (au):  <R**2>=             88.2238
 Charge=              0.0000 electrons
 Dipole moment (field-independent basis, Debye):
    X=              0.0000    Y=              0.0000    Z=             -3.8232  Tot=              3.8232
 Quadrupole moment (field-independent basis, Debye-Ang):
   XX=            -11.5060   YY=            -11.5060   ZZ=            -10.6315
   XY=              0.0000   XZ=              0.0000   YZ=              0.0000
 Traceless Quadrupole moment (field-independent basis, Debye-Ang):
   XX=             -0.2915   YY=             -0.2915   ZZ=              0.5830
   XY=              0.0000   XZ=              0.0000   YZ=              0.0000
 Octapole moment (field-independent basis, Debye-Ang**2):
  XXX=              0.0000  YYY=              0.0000  ZZZ=              6.7079  XYY=              0.0000
  XXY=              0.0000  XXZ=             -0.2779  XZZ=              0.0000  YZZ=              0.0000
  YYZ=             -0.2779  XYZ=              0.0000
 Hexadecapole moment (field-independent basis, Debye-Ang**3):
 XXXX=            -11.8879 YYYY=            -11.8879 ZZZZ=           -108.8996 XXXY=              0.0000
 XXXZ=              0.0000 YYYX=              0.0000 YYYZ=              0.0000 ZZZX=              0.0000
 ZZZY=              0.0000 XXYY=             -3.9626 XXZZ=            -18.2490 YYZZ=            -18.2490
 XXYZ=              0.0000 YYXZ=              0.0000 ZZXY=              0.0000
 N-N= 1.117899329633D+01 E-N=-2.880285539019D+02  KE= 1.120519025551D+02
 Symmetry A1   KE= 1.032176115098D+02
 Symmetry A2   KE= 1.992475215488D-52
 Symmetry B1   KE= 4.417145522626D+00
 Symmetry B2   KE= 4.417145522626D+00
 Symmetry A1   SP=-5.902238886660D-16
 Symmetry A2   SP= 1.276447023031D-52
 Symmetry B1   SP=-4.570973027472D-15
 Symmetry B2   SP= 5.032789051771D-15
                          Isotropic Fermi Contact Couplings
        Atom                 a.u.       MegaHertz       Gauss      10(-4) cm-1
     1  C(13)              0.00000       0.00000       0.00000       0.00000
     2  O(17)              0.00000      -0.00000      -0.00000      -0.00000
 --------------------------------------------------------
       Center         ----  Spin Dipole Couplings  ----
                      3XX-RR        3YY-RR        3ZZ-RR
 --------------------------------------------------------
     1   Atom        0.000000      0.000000      0.000000
     2   Atom        0.000000      0.000000      0.000000
 --------------------------------------------------------
                        XY            XZ            YZ
 --------------------------------------------------------
     1   Atom        0.000000      0.000000      0.000000
     2   Atom        0.000000      0.000000      0.000000
 --------------------------------------------------------


 ---------------------------------------------------------------------------------
              Anisotropic Spin Dipole Couplings in Principal Axis System
 ---------------------------------------------------------------------------------

       Atom             a.u.   MegaHertz   Gauss  10(-4) cm-1        Axes

              Baa     0.0000     0.000     0.000     0.000  1.0000  0.0000  0.0000
     1 C(13)  Bbb     0.0000     0.000     0.000     0.000 -0.0000  1.0000  0.0000
              Bcc     0.0000     0.000     0.000     0.000  0.0000  0.0000  1.0000
 
              Baa     0.0000    -0.000    -0.000    -0.000  1.0000  0.0000  0.0000
     2 O(17)  Bbb     0.0000    -0.000    -0.000    -0.000 -0.0000  1.0000  0.0000
              Bcc     0.0000    -0.000    -0.000    -0.000  0.0000  0.0000  1.0000
 

 ---------------------------------------------------------------------------------

 No NMR shielding tensors so no spin-rotation constants.
 Leave Link  601 at Mon Apr 21 19:30:42 2025, MaxMem=   536870912 cpu:               2.3 elap:               0.5
 (Enter /home/szhao/Apps/g16/l607.exe)
 ******************************Gaussian NBO Version 3.1******************************
             N A T U R A L   A T O M I C   O R B I T A L   A N D
          N A T U R A L   B O N D   O R B I T A L   A N A L Y S I S
 ******************************Gaussian NBO Version 3.1******************************
       /RESON  / : Allow strongly delocalized NBO set

 Analyzing the SCF density

 Job title: Title Card Required                                             

 Storage needed:      6104 in NPA,      7902 in NBO ( 536870884 available)
 GSVD:  LWork=         144 too small for GESVD, short by        3188 words or        3188 for optimal perf.


 NATURAL POPULATIONS:  Natural atomic orbital occupancies 
                                                          
   NAO  Atom  No  lang   Type(AO)    Occupancy
 --------------------------------------------
     1    C    1  S      Cor( 1S)     2.00000
     2    C    1  S      Val( 2S)     1.96337
     3    C    1  S      Ryd( 3S)     0.00045
     4    C    1  S      Ryd( 4S)     0.00001
     5    C    1  S      Ryd( 5S)     0.00000
     6    C    1  px     Val( 2p)     0.15570
     7    C    1  px     Ryd( 3p)     0.00006
     8    C    1  px     Ryd( 4p)     0.00001
     9    C    1  px     Ryd( 5p)     0.00000
    10    C    1  py     Val( 2p)     0.15570
    11    C    1  py     Ryd( 3p)     0.00006
    12    C    1  py     Ryd( 4p)     0.00001
    13    C    1  py     Ryd( 5p)     0.00000
    14    C    1  pz     Val( 2p)     1.17799
    15    C    1  pz     Ryd( 4p)     0.00009
    16    C    1  pz     Ryd( 3p)     0.00012
    17    C    1  pz     Ryd( 5p)     0.00000
    18    C    1  dxy    Ryd( 3d)     0.00000
    19    C    1  dxz    Ryd( 3d)     0.00018
    20    C    1  dyz    Ryd( 3d)     0.00018
    21    C    1  dx2y2  Ryd( 3d)     0.00000
    22    C    1  dz2    Ryd( 3d)     0.00050
 
    23    O    2  S      Cor( 1S)     2.00000
    24    O    2  S      Val( 2S)     1.99410
    25    O    2  S      Ryd( 3S)     0.00066
    26    O    2  S      Ryd( 4S)     0.00000
    27    O    2  S      Ryd( 5S)     0.00000
    28    O    2  px     Val( 2p)     1.84399
    29    O    2  px     Ryd( 3p)     0.00003
    30    O    2  px     Ryd( 4p)     0.00000
    31    O    2  px     Ryd( 5p)     0.00000
    32    O    2  py     Val( 2p)     1.84399
    33    O    2  py     Ryd( 3p)     0.00003
    34    O    2  py     Ryd( 4p)     0.00000
    35    O    2  py     Ryd( 5p)     0.00000
    36    O    2  pz     Val( 2p)     0.86208
    37    O    2  pz     Ryd( 3p)     0.00030
    38    O    2  pz     Ryd( 4p)     0.00004
    39    O    2  pz     Ryd( 5p)     0.00000
    40    O    2  dxy    Ryd( 3d)     0.00000
    41    O    2  dxz    Ryd( 3d)     0.00003
    42    O    2  dyz    Ryd( 3d)     0.00003
    43    O    2  dx2y2  Ryd( 3d)     0.00000
    44    O    2  dz2    Ryd( 3d)     0.00030


 Summary of Natural Population Analysis:                  
                                                          
                                       Natural Population 
                Natural  -----------------------------------------------
    Atom  No    Charge         Core      Valence    Rydberg      Total
 -----------------------------------------------------------------------
      C    1    0.54557      2.00000     3.45277    0.00167     5.45443
      O    2   -0.54557      2.00000     6.54415    0.00141     8.54557
 =======================================================================
   * Total *    0.00000      3.99999     9.99693    0.00308    14.00000

                                 Natural Population      
 --------------------------------------------------------
   Core                       3.99999 ( 99.9998% of   4)
   Valence                    9.99693 ( 99.9693% of  10)
   Natural Minimal Basis     13.99692 ( 99.9780% of  14)
   Natural Rydberg Basis      0.00308 (  0.0220% of  14)
 --------------------------------------------------------

    Atom  No          Natural Electron Configuration
 ----------------------------------------------------------------------------
      C    1      [core]2S( 1.96)2p( 1.49)
      O    2      [core]2S( 1.99)2p( 4.55)


 ***************************************************
 *******         Alpha spin orbitals         *******
 ***************************************************


 NATURAL POPULATIONS:  Natural atomic orbital occupancies 
                                                          
   NAO  Atom  No  lang   Type(AO)    Occupancy      Energy
 ----------------------------------------------------------
     1    C    1  S      Cor( 1S)     1.00000     -10.82217
     2    C    1  S      Val( 2S)     0.98168      -0.73733
     3    C    1  S      Ryd( 3S)     0.00022       0.14689
     4    C    1  S      Ryd( 4S)     0.00000       0.89619
     5    C    1  S      Ryd( 5S)     0.00000      22.84485
     6    C    1  px     Val( 2p)     0.07785      -0.19423
     7    C    1  px     Ryd( 4p)     0.00003       1.19039
     8    C    1  px     Ryd( 3p)     0.00001       0.18209
     9    C    1  px     Ryd( 5p)     0.00000       1.78449
    10    C    1  py     Val( 2p)     0.07785      -0.19423
    11    C    1  py     Ryd( 4p)     0.00003       1.19039
    12    C    1  py     Ryd( 3p)     0.00001       0.18209
    13    C    1  py     Ryd( 5p)     0.00000       1.78449
    14    C    1  pz     Val( 2p)     0.58900      -0.27157
    15    C    1  pz     Ryd( 4p)     0.00005       1.26568
    16    C    1  pz     Ryd( 3p)     0.00006       0.21384
    17    C    1  pz     Ryd( 5p)     0.00000       1.76225
    18    C    1  dxy    Ryd( 3d)     0.00000       1.23590
    19    C    1  dxz    Ryd( 3d)     0.00009       1.26653
    20    C    1  dyz    Ryd( 3d)     0.00009       1.26653
    21    C    1  dx2y2  Ryd( 3d)     0.00000       1.23590
    22    C    1  dz2    Ryd( 3d)     0.00025       1.36155
 
    23    O    2  S      Cor( 1S)     1.00000     -19.62183
    24    O    2  S      Val( 2S)     0.99705      -1.05094
    25    O    2  S      Ryd( 3S)     0.00033       0.42050
    26    O    2  S      Ryd( 4S)     0.00000       1.80520
    27    O    2  S      Ryd( 5S)     0.00000      49.29379
    28    O    2  px     Val( 2p)     0.92199      -0.34799
    29    O    2  px     Ryd( 3p)     0.00002       0.34336
    30    O    2  px     Ryd( 4p)     0.00000       1.04177
    31    O    2  px     Ryd( 5p)     0.00000       5.00863
    32    O    2  py     Val( 2p)     0.92199      -0.34799
    33    O    2  py     Ryd( 3p)     0.00002       0.34336
    34    O    2  py     Ryd( 4p)     0.00000       1.04177
    35    O    2  py     Ryd( 5p)     0.00000       5.00863
    36    O    2  pz     Val( 2p)     0.43104      -0.23363
    37    O    2  pz     Ryd( 3p)     0.00015       0.34694
    38    O    2  pz     Ryd( 4p)     0.00002       1.05489
    39    O    2  pz     Ryd( 5p)     0.00000       5.02548
    40    O    2  dxy    Ryd( 3d)     0.00000       2.92252
    41    O    2  dxz    Ryd( 3d)     0.00001       2.90425
    42    O    2  dyz    Ryd( 3d)     0.00001       2.90425
    43    O    2  dx2y2  Ryd( 3d)     0.00000       2.92252
    44    O    2  dz2    Ryd( 3d)     0.00015       2.90637

 WARNING:  Population inversion found on atom  C    1


 Summary of Natural Population Analysis:                  
                                                          
                                       Natural Population 
                Natural  -----------------------------------------------
    Atom  No    Charge         Core      Valence    Rydberg      Total
 -----------------------------------------------------------------------
      C    1    0.27278      1.00000     1.72639    0.00083     2.72722
      O    2   -0.27278      1.00000     3.27208    0.00071     4.27278
 =======================================================================
   * Total *    0.00000      2.00000     4.99846    0.00154     7.00000

                                 Natural Population      
 --------------------------------------------------------
   Core                       2.00000 ( 99.9998% of   2)
   Valence                    4.99846 ( 99.9693% of   5)
   Natural Minimal Basis      6.99846 ( 99.9780% of   7)
   Natural Rydberg Basis      0.00154 (  0.0220% of   7)
 --------------------------------------------------------

    Atom  No          Natural Electron Configuration
 ----------------------------------------------------------------------------
      C    1      [core]2S( 0.98)2p( 0.74)
      O    2      [core]2S( 1.00)2p( 2.28)


 NATURAL BOND ORBITAL ANALYSIS, alpha spin orbitals:

                       Occupancies       Lewis Structure    Low   High
           Occ.    -------------------  -----------------   occ   occ
  Cycle   Thresh.   Lewis   Non-Lewis     CR  BD  3C  LP    (L)   (NL)   Dev
 =============================================================================
   1(1)    0.90     6.84394   0.15606      2   1   0   4     0      0    0.00
 -----------------------------------------------------------------------------

 Structure accepted: No low occupancy Lewis orbitals

 --------------------------------------------------------
   Core                      2.00000 (100.000% of   2)
   Valence Lewis             4.84394 ( 96.879% of   5)
  ==================       ============================
   Total Lewis               6.84394 ( 97.771% of   7)
  -----------------------------------------------------
   Valence non-Lewis         0.15595 (  2.228% of   7)
   Rydberg non-Lewis         0.00011 (  0.002% of   7)
  ==================       ============================
   Total non-Lewis           0.15606 (  2.229% of   7)
 --------------------------------------------------------


       (Occupancy)   Bond orbital/ Coefficients/ Hybrids
 ---------------------------------------------------------------------------------
     1. (1.00000) BD ( 1) C   1 - O   2  
                ( 57.12%)   0.7558* C   1 s(  4.27%)p22.42( 95.72%)d 0.00(  0.01%)
                                           -0.0000  0.2058 -0.0186  0.0007 -0.0001
                                            0.0000  0.0000  0.0000  0.0000  0.0000
                                            0.0000  0.0000  0.0000  0.9783  0.0045
                                            0.0042 -0.0001  0.0000  0.0000  0.0000
                                            0.0000  0.0107
                ( 42.88%)   0.6548* O   2 s(  0.56%)p99.99( 99.42%)d 0.03(  0.02%)
                                            0.0000  0.0694 -0.0274  0.0001  0.0000
                                            0.0000  0.0000  0.0000  0.0000  0.0000
                                            0.0000  0.0000  0.0000 -0.9969  0.0183
                                            0.0010 -0.0000  0.0000  0.0000  0.0000
                                            0.0000  0.0139
     2. (1.00000) CR ( 1) C   1           s(100.00%)
                                            1.0000 -0.0000 -0.0000  0.0000 -0.0000
                                            0.0000  0.0000  0.0000  0.0000  0.0000
                                            0.0000  0.0000  0.0000  0.0000  0.0000
                                           -0.0000  0.0000  0.0000  0.0000  0.0000
                                            0.0000  0.0000
     3. (1.00000) CR ( 1) O   2           s(100.00%)
                                            1.0000  0.0000  0.0000 -0.0000 -0.0000
                                            0.0000  0.0000  0.0000  0.0000  0.0000
                                            0.0000  0.0000  0.0000  0.0000  0.0000
                                           -0.0000 -0.0000  0.0000  0.0000  0.0000
                                            0.0000  0.0000
     4. (0.99999) LP ( 1) C   1           s( 95.75%)p 0.04(  4.23%)d 0.00(  0.02%)
                                            0.0000  0.9785  0.0022 -0.0001  0.0000
                                            0.0000  0.0000  0.0000  0.0000  0.0000
                                            0.0000  0.0000  0.0000 -0.2056 -0.0021
                                            0.0041 -0.0007  0.0000  0.0000  0.0000
                                            0.0000 -0.0133
     5. (0.07798) LP*( 2) C   1           s(  0.00%)p 1.00( 99.89%)d 0.00(  0.11%)
                                            0.0000  0.0000  0.0000  0.0000  0.0000
                                            0.9992 -0.0191 -0.0097 -0.0005  0.0000
                                            0.0000  0.0000  0.0000  0.0000  0.0000
                                            0.0000  0.0000  0.0000  0.0338  0.0000
                                            0.0000  0.0000
     6. (0.07798) LP*( 3) C   1           s(  0.00%)p 1.00( 99.89%)d 0.00(  0.11%)
                                            0.0000  0.0000  0.0000  0.0000  0.0000
                                            0.0000  0.0000  0.0000  0.0000  0.9992
                                           -0.0191 -0.0097 -0.0005  0.0000  0.0000
                                            0.0000  0.0000  0.0000  0.0000  0.0338
                                            0.0000  0.0000
     7. (0.99990) LP ( 1) O   2           s( 99.51%)p 0.00(  0.49%)d 0.00(  0.01%)
                                           -0.0000  0.9975  0.0008 -0.0000 -0.0000
                                            0.0000  0.0000  0.0000  0.0000  0.0000
                                            0.0000  0.0000  0.0000  0.0695  0.0022
                                           -0.0038 -0.0002  0.0000  0.0000  0.0000
                                            0.0000  0.0081
     8. (0.92202) LP ( 2) O   2           s(  0.00%)p 1.00(100.00%)d 0.00(  0.00%)
                                            0.0000  0.0000  0.0000  0.0000  0.0000
                                            1.0000  0.0042  0.0004 -0.0000  0.0000
                                            0.0000  0.0000  0.0000  0.0000  0.0000
                                            0.0000  0.0000  0.0000 -0.0038  0.0000
                                            0.0000  0.0000
     9. (0.92202) LP ( 3) O   2           s(  0.00%)p 1.00(100.00%)d 0.00(  0.00%)
                                            0.0000  0.0000  0.0000  0.0000  0.0000
                                            0.0000  0.0000  0.0000  0.0000  1.0000
                                            0.0042  0.0004 -0.0000  0.0000  0.0000
                                            0.0000  0.0000  0.0000  0.0000 -0.0038
                                            0.0000  0.0000
    10. (0.00010) RY*( 1) C   1           s( 26.08%)p 2.50( 65.16%)d 0.34(  8.76%)
    11. (0.00000) RY*( 2) C   1           s( 97.82%)p 0.00(  0.00%)d 0.02(  2.18%)
    12. (0.00000) RY*( 3) C   1           s(  0.00%)p 1.00(100.00%)
    13. (0.00000) RY*( 4) C   1           s(  0.00%)p 1.00(100.00%)
    14. (0.00000) RY*( 5) C   1           s(  0.00%)p 1.00(100.00%)
    15. (0.00000) RY*( 6) C   1           s( 99.96%)p 0.00(  0.04%)d 0.00(  0.01%)
    16. (0.00000) RY*( 7) C   1           s(  0.00%)p 1.00(100.00%)
    17. (0.00000) RY*( 8) C   1           s(  0.00%)p 1.00(100.00%)
    18. (0.00000) RY*( 9) C   1           s(  0.00%)p 1.00(100.00%)
    19. (0.00000) RY*(10) C   1           s( 35.93%)p 1.45( 51.99%)d 0.34( 12.08%)
    20. (0.00000) RY*(11) C   1           s( 12.80%)p 6.48( 82.90%)d 0.34(  4.30%)
    21. (0.00000) RY*(12) C   1           s(  0.06%)p99.99( 99.92%)d 0.33(  0.02%)
    22. (0.00000) RY*(13) C   1           s(  0.00%)p 0.00(  0.00%)d 1.00(100.00%)
    23. (0.00000) RY*(14) C   1           s(  0.00%)p 1.00(  0.11%)d99.99( 99.89%)
    24. (0.00000) RY*(15) C   1           s(  0.00%)p 1.00(  0.11%)d99.99( 99.89%)
    25. (0.00000) RY*(16) C   1           s(  0.00%)p 0.00(  0.00%)d 1.00(100.00%)
    26. (0.00000) RY*(17) C   1           s( 27.33%)p 0.00(  0.04%)d 2.66( 72.63%)
    27. (0.00001) RY*( 1) O   2           s( 99.92%)p 0.00(  0.08%)d 0.00(  0.00%)
    28. (0.00000) RY*( 2) O   2           s(100.00%)
    29. (0.00000) RY*( 3) O   2           s(100.00%)
    30. (0.00000) RY*( 4) O   2           s(  0.00%)p 1.00(100.00%)
    31. (0.00000) RY*( 5) O   2           s(  0.00%)p 1.00(100.00%)
    32. (0.00000) RY*( 6) O   2           s(  0.00%)p 1.00(100.00%)
    33. (0.00000) RY*( 7) O   2           s(  0.00%)p 1.00(100.00%)
    34. (0.00000) RY*( 8) O   2           s(  0.00%)p 1.00(100.00%)
    35. (0.00000) RY*( 9) O   2           s(  0.00%)p 1.00(100.00%)
    36. (0.00000) RY*(10) O   2           s(  0.00%)p 1.00(100.00%)d 0.00(  0.00%)
    37. (0.00000) RY*(11) O   2           s(  0.00%)p 1.00(100.00%)
    38. (0.00000) RY*(12) O   2           s(  0.00%)p 1.00(100.00%)
    39. (0.00000) RY*(13) O   2           s(  0.00%)p 0.00(  0.00%)d 1.00(100.00%)
    40. (0.00000) RY*(14) O   2           s(  0.00%)p 0.00(  0.00%)d 1.00(100.00%)
    41. (0.00000) RY*(15) O   2           s(  0.00%)p 0.00(  0.00%)d 1.00(100.00%)
    42. (0.00000) RY*(16) O   2           s(  0.00%)p 0.00(  0.00%)d 1.00(100.00%)
    43. (0.00000) RY*(17) O   2           s(  0.01%)p 1.00(  0.02%)d99.99( 99.97%)
    44. (0.00000) BD*( 1) C   1 - O   2  
                ( 42.88%)   0.6548* C   1 s(  4.27%)p22.42( 95.72%)d 0.00(  0.01%)
                ( 57.12%)  -0.7558* O   2 s(  0.56%)p99.99( 99.42%)d 0.03(  0.02%)


 NHO Directionality and "Bond Bending" (deviations from line of nuclear centers)

         [Thresholds for printing:  angular deviation  >  1.0 degree]
                                    hybrid p-character > 25.0%
                                    orbital occupancy  >  0.10e

                                Line of Centers        Hybrid 1              Hybrid 2
                                ---------------  -------------------   ------------------
                NBO               Theta   Phi    Theta   Phi    Dev    Theta   Phi    Dev
 ========================================================================================
     8. LP (   2) O   2             --     --     90.0    0.0   --       --     --    --
     9. LP (   3) O   2             --     --     90.0   90.0   --       --     --    --


 Second Order Perturbation Theory Analysis of Fock Matrix in NBO Basis

     Threshold for printing:   0.25 kcal/mol
                                                                              E(2)  E(j)-E(i) F(i,j)
         Donor NBO (i)                     Acceptor NBO (j)                 kcal/mol   a.u.    a.u. 
 ===================================================================================================

 within unit  1
   8. LP (   2) O   2                /  5. LP*(   2) C   1                    9.86    0.16    0.049
   9. LP (   3) O   2                /  6. LP*(   3) C   1                    9.86    0.16    0.049


 Natural Bond Orbitals (Summary):

                                                            Principal Delocalizations
           NBO                        Occupancy    Energy   (geminal,vicinal,remote)
 ====================================================================================
 Molecular unit  1  (CO)
     1. BD (   1) C   1 - O   2          1.00000    -0.40967   
     2. CR (   1) C   1                  1.00000   -10.82217   
     3. CR (   1) O   2                  1.00000   -19.62183   
     4. LP (   1) C   1                  0.99999    -0.72927   
     5. LP*(   2) C   1                  0.07798    -0.19227   
     6. LP*(   3) C   1                  0.07798    -0.19227   
     7. LP (   1) O   2                  0.99990    -1.04732   
     8. LP (   2) O   2                  0.92202    -0.34804  5(v)
     9. LP (   3) O   2                  0.92202    -0.34804  6(v)
    10. RY*(   1) C   1                  0.00010     0.64753   
    11. RY*(   2) C   1                  0.00000     0.83716   
    12. RY*(   3) C   1                  0.00000     1.18975   
    13. RY*(   4) C   1                  0.00000     0.18243   
    14. RY*(   5) C   1                  0.00000     1.78448   
    15. RY*(   6) C   1                  0.00000    22.85817   
    16. RY*(   7) C   1                  0.00000     1.18975   
    17. RY*(   8) C   1                  0.00000     0.18243   
    18. RY*(   9) C   1                  0.00000     1.78448   
    19. RY*(  10) C   1                  0.00000     0.76024   
    20. RY*(  11) C   1                  0.00000     0.58938   
    21. RY*(  12) C   1                  0.00000     1.79647   
    22. RY*(  13) C   1                  0.00000     1.23590   
    23. RY*(  14) C   1                  0.00000     1.26488   
    24. RY*(  15) C   1                  0.00000     1.26488   
    25. RY*(  16) C   1                  0.00000     1.23590   
    26. RY*(  17) C   1                  0.00000     1.00247   
    27. RY*(   1) O   2                  0.00001     0.41994   
    28. RY*(   2) O   2                  0.00000     1.80520   
    29. RY*(   3) O   2                  0.00000    49.29379   
    30. RY*(   4) O   2                  0.00000     0.34338   
    31. RY*(   5) O   2                  0.00000     1.04177   
    32. RY*(   6) O   2                  0.00000     5.00863   
    33. RY*(   7) O   2                  0.00000     0.34338   
    34. RY*(   8) O   2                  0.00000     1.04177   
    35. RY*(   9) O   2                  0.00000     5.00863   
    36. RY*(  10) O   2                  0.00000     0.34687   
    37. RY*(  11) O   2                  0.00000     1.05484   
    38. RY*(  12) O   2                  0.00000     5.02548   
    39. RY*(  13) O   2                  0.00000     2.92252   
    40. RY*(  14) O   2                  0.00000     2.90428   
    41. RY*(  15) O   2                  0.00000     2.90428   
    42. RY*(  16) O   2                  0.00000     2.92252   
    43. RY*(  17) O   2                  0.00000     2.90647   
    44. BD*(   1) C   1 - O   2          0.00000    -0.10681   
       -------------------------------
              Total Lewis    6.84394  ( 97.7705%)
        Valence non-Lewis    0.15595  (  2.2279%)
        Rydberg non-Lewis    0.00011  (  0.0016%)
       -------------------------------
            Total unit  1    7.00000  (100.0000%)
           Charge unit  1    0.00000
 Sorting of NBOs:                    3    2    7    4    1    9    8    5    6   44
 Sorting of NBOs:                   13   17   33   30   36   27   20   10   19   11
 Sorting of NBOs:                   26   31   34   37   12   16   25   22   24   23
 Sorting of NBOs:                   14   18   21   28   41   40   43   39   42   32
 Sorting of NBOs:                   35   38   15   29
 Reordering of NBOs for storage:     3    2    7    4    1    9    8    5    6   44
 Reordering of NBOs for storage:    13   17   33   30   36   27   20   10   19   11
 Reordering of NBOs for storage:    26   31   34   37   12   16   25   22   24   23
 Reordering of NBOs for storage:    14   18   21   28   41   40   43   39   42   32
 Reordering of NBOs for storage:    35   38   15   29
 Labels of output orbitals:  CR  CR  LP  LP  BD  LP  LP  LP* LP* BD* RY* RY* RY* RY* RY* RY* RY* RY* RY* RY* 
 Labels of output orbitals:  RY* RY* RY* RY* RY* RY* RY* RY* RY* RY* RY* RY* RY* RY* RY* RY* RY* RY* RY* RY* 
 Labels of output orbitals:  RY* RY* RY* RY* 
 GSVD:  LWork=       -1665 too small for GESVD, short by        7400 words or        7400 for optimal perf.


 ***************************************************
 *******         Beta  spin orbitals         *******
 ***************************************************


 NATURAL POPULATIONS:  Natural atomic orbital occupancies 
                                                          
   NAO  Atom  No  lang   Type(AO)    Occupancy      Energy
 ----------------------------------------------------------
     1    C    1  S      Cor( 1S)     1.00000     -10.82217
     2    C    1  S      Val( 2S)     0.98168      -0.73733
     3    C    1  S      Ryd( 3S)     0.00022       0.14689
     4    C    1  S      Ryd( 4S)     0.00000       0.89619
     5    C    1  S      Ryd( 5S)     0.00000      22.84485
     6    C    1  px     Val( 2p)     0.07785      -0.19423
     7    C    1  px     Ryd( 4p)     0.00003       1.19039
     8    C    1  px     Ryd( 3p)     0.00001       0.18209
     9    C    1  px     Ryd( 5p)     0.00000       1.78449
    10    C    1  py     Val( 2p)     0.07785      -0.19423
    11    C    1  py     Ryd( 4p)     0.00003       1.19039
    12    C    1  py     Ryd( 3p)     0.00001       0.18209
    13    C    1  py     Ryd( 5p)     0.00000       1.78449
    14    C    1  pz     Val( 2p)     0.58900      -0.27157
    15    C    1  pz     Ryd( 4p)     0.00005       1.26568
    16    C    1  pz     Ryd( 3p)     0.00006       0.21384
    17    C    1  pz     Ryd( 5p)     0.00000       1.76225
    18    C    1  dxy    Ryd( 3d)     0.00000       1.23590
    19    C    1  dxz    Ryd( 3d)     0.00009       1.26653
    20    C    1  dyz    Ryd( 3d)     0.00009       1.26653
    21    C    1  dx2y2  Ryd( 3d)     0.00000       1.23590
    22    C    1  dz2    Ryd( 3d)     0.00025       1.36155
 
    23    O    2  S      Cor( 1S)     1.00000     -19.62183
    24    O    2  S      Val( 2S)     0.99705      -1.05094
    25    O    2  S      Ryd( 3S)     0.00033       0.42050
    26    O    2  S      Ryd( 4S)     0.00000       1.80520
    27    O    2  S      Ryd( 5S)     0.00000      49.29379
    28    O    2  px     Val( 2p)     0.92199      -0.34799
    29    O    2  px     Ryd( 3p)     0.00002       0.34336
    30    O    2  px     Ryd( 4p)     0.00000       1.04177
    31    O    2  px     Ryd( 5p)     0.00000       5.00863
    32    O    2  py     Val( 2p)     0.92199      -0.34799
    33    O    2  py     Ryd( 3p)     0.00002       0.34336
    34    O    2  py     Ryd( 4p)     0.00000       1.04177
    35    O    2  py     Ryd( 5p)     0.00000       5.00863
    36    O    2  pz     Val( 2p)     0.43104      -0.23363
    37    O    2  pz     Ryd( 3p)     0.00015       0.34694
    38    O    2  pz     Ryd( 4p)     0.00002       1.05489
    39    O    2  pz     Ryd( 5p)     0.00000       5.02548
    40    O    2  dxy    Ryd( 3d)     0.00000       2.92252
    41    O    2  dxz    Ryd( 3d)     0.00001       2.90425
    42    O    2  dyz    Ryd( 3d)     0.00001       2.90425
    43    O    2  dx2y2  Ryd( 3d)     0.00000       2.92252
    44    O    2  dz2    Ryd( 3d)     0.00015       2.90637

 WARNING:  Population inversion found on atom  C    1


 Summary of Natural Population Analysis:                  
                                                          
                                       Natural Population 
                Natural  -----------------------------------------------
    Atom  No    Charge         Core      Valence    Rydberg      Total
 -----------------------------------------------------------------------
      C    1    0.27278      1.00000     1.72639    0.00083     2.72722
      O    2   -0.27278      1.00000     3.27208    0.00071     4.27278
 =======================================================================
   * Total *    0.00000      2.00000     4.99846    0.00154     7.00000

                                 Natural Population      
 --------------------------------------------------------
   Core                       2.00000 ( 99.9998% of   2)
   Valence                    4.99846 ( 99.9693% of   5)
   Natural Minimal Basis      6.99846 ( 99.9780% of   7)
   Natural Rydberg Basis      0.00154 (  0.0220% of   7)
 --------------------------------------------------------

    Atom  No          Natural Electron Configuration
 ----------------------------------------------------------------------------
      C    1      [core]2S( 0.98)2p( 0.74)
      O    2      [core]2S( 1.00)2p( 2.28)


 NATURAL BOND ORBITAL ANALYSIS, beta spin orbitals:

                       Occupancies       Lewis Structure    Low   High
           Occ.    -------------------  -----------------   occ   occ
  Cycle   Thresh.   Lewis   Non-Lewis     CR  BD  3C  LP    (L)   (NL)   Dev
 =============================================================================
   1(1)    0.90     6.84394   0.15606      2   1   0   4     0      0    0.00
 -----------------------------------------------------------------------------

 Structure accepted: No low occupancy Lewis orbitals

 --------------------------------------------------------
   Core                      2.00000 (100.000% of   2)
   Valence Lewis             4.84394 ( 96.879% of   5)
  ==================       ============================
   Total Lewis               6.84394 ( 97.771% of   7)
  -----------------------------------------------------
   Valence non-Lewis         0.15595 (  2.228% of   7)
   Rydberg non-Lewis         0.00011 (  0.002% of   7)
  ==================       ============================
   Total non-Lewis           0.15606 (  2.229% of   7)
 --------------------------------------------------------


       (Occupancy)   Bond orbital/ Coefficients/ Hybrids
 ---------------------------------------------------------------------------------
     1. (1.00000) BD ( 1) C   1 - O   2  
                ( 57.12%)   0.7558* C   1 s(  4.27%)p22.42( 95.72%)d 0.00(  0.01%)
                                           -0.0000  0.2058 -0.0186  0.0007 -0.0001
                                            0.0000  0.0000  0.0000  0.0000  0.0000
                                            0.0000  0.0000  0.0000  0.9783  0.0045
                                            0.0042 -0.0001  0.0000  0.0000  0.0000
                                            0.0000  0.0107
                ( 42.88%)   0.6548* O   2 s(  0.56%)p99.99( 99.42%)d 0.03(  0.02%)
                                            0.0000  0.0694 -0.0274  0.0001  0.0000
                                            0.0000  0.0000  0.0000  0.0000  0.0000
                                            0.0000  0.0000  0.0000 -0.9969  0.0183
                                            0.0010 -0.0000  0.0000  0.0000  0.0000
                                            0.0000  0.0139
     2. (1.00000) CR ( 1) C   1           s(100.00%)
                                            1.0000 -0.0000 -0.0000  0.0000 -0.0000
                                            0.0000  0.0000  0.0000  0.0000  0.0000
                                            0.0000  0.0000  0.0000  0.0000  0.0000
                                           -0.0000  0.0000  0.0000  0.0000  0.0000
                                            0.0000  0.0000
     3. (1.00000) CR ( 1) O   2           s(100.00%)
                                            1.0000  0.0000  0.0000 -0.0000 -0.0000
                                            0.0000  0.0000  0.0000  0.0000  0.0000
                                            0.0000  0.0000  0.0000  0.0000  0.0000
                                           -0.0000 -0.0000  0.0000  0.0000  0.0000
                                            0.0000  0.0000
     4. (0.99999) LP ( 1) C   1           s( 95.75%)p 0.04(  4.23%)d 0.00(  0.02%)
                                            0.0000  0.9785  0.0022 -0.0001  0.0000
                                            0.0000  0.0000  0.0000  0.0000  0.0000
                                            0.0000  0.0000  0.0000 -0.2056 -0.0021
                                            0.0041 -0.0007  0.0000  0.0000  0.0000
                                            0.0000 -0.0133
     5. (0.07798) LP*( 2) C   1           s(  0.00%)p 1.00( 99.89%)d 0.00(  0.11%)
                                            0.0000  0.0000  0.0000  0.0000  0.0000
                                            0.9992 -0.0191 -0.0097 -0.0005  0.0000
                                            0.0000  0.0000  0.0000  0.0000  0.0000
                                            0.0000  0.0000  0.0000  0.0338  0.0000
                                            0.0000  0.0000
     6. (0.07798) LP*( 3) C   1           s(  0.00%)p 1.00( 99.89%)d 0.00(  0.11%)
                                            0.0000  0.0000  0.0000  0.0000  0.0000
                                            0.0000  0.0000  0.0000  0.0000  0.9992
                                           -0.0191 -0.0097 -0.0005  0.0000  0.0000
                                            0.0000  0.0000  0.0000  0.0000  0.0338
                                            0.0000  0.0000
     7. (0.99990) LP ( 1) O   2           s( 99.51%)p 0.00(  0.49%)d 0.00(  0.01%)
                                           -0.0000  0.9975  0.0008 -0.0000 -0.0000
                                            0.0000  0.0000  0.0000  0.0000  0.0000
                                            0.0000  0.0000  0.0000  0.0695  0.0022
                                           -0.0038 -0.0002  0.0000  0.0000  0.0000
                                            0.0000  0.0081
     8. (0.92202) LP ( 2) O   2           s(  0.00%)p 1.00(100.00%)d 0.00(  0.00%)
                                            0.0000  0.0000  0.0000  0.0000  0.0000
                                            1.0000  0.0042  0.0004 -0.0000  0.0000
                                            0.0000  0.0000  0.0000  0.0000  0.0000
                                            0.0000  0.0000  0.0000 -0.0038  0.0000
                                            0.0000  0.0000
     9. (0.92202) LP ( 3) O   2           s(  0.00%)p 1.00(100.00%)d 0.00(  0.00%)
                                            0.0000  0.0000  0.0000  0.0000  0.0000
                                            0.0000  0.0000  0.0000  0.0000  1.0000
                                            0.0042  0.0004 -0.0000  0.0000  0.0000
                                            0.0000  0.0000  0.0000  0.0000 -0.0038
                                            0.0000  0.0000
    10. (0.00010) RY*( 1) C   1           s( 26.08%)p 2.50( 65.16%)d 0.34(  8.76%)
    11. (0.00000) RY*( 2) C   1           s( 97.82%)p 0.00(  0.00%)d 0.02(  2.18%)
    12. (0.00000) RY*( 3) C   1           s(  0.00%)p 1.00(100.00%)
    13. (0.00000) RY*( 4) C   1           s(  0.00%)p 1.00(100.00%)
    14. (0.00000) RY*( 5) C   1           s(  0.00%)p 1.00(100.00%)
    15. (0.00000) RY*( 6) C   1           s( 99.96%)p 0.00(  0.04%)d 0.00(  0.01%)
    16. (0.00000) RY*( 7) C   1           s(  0.00%)p 1.00(100.00%)
    17. (0.00000) RY*( 8) C   1           s(  0.00%)p 1.00(100.00%)
    18. (0.00000) RY*( 9) C   1           s(  0.00%)p 1.00(100.00%)
    19. (0.00000) RY*(10) C   1           s( 35.93%)p 1.45( 51.99%)d 0.34( 12.08%)
    20. (0.00000) RY*(11) C   1           s( 12.80%)p 6.48( 82.90%)d 0.34(  4.30%)
    21. (0.00000) RY*(12) C   1           s(  0.06%)p99.99( 99.92%)d 0.33(  0.02%)
    22. (0.00000) RY*(13) C   1           s(  0.00%)p 0.00(  0.00%)d 1.00(100.00%)
    23. (0.00000) RY*(14) C   1           s(  0.00%)p 1.00(  0.11%)d99.99( 99.89%)
    24. (0.00000) RY*(15) C   1           s(  0.00%)p 1.00(  0.11%)d99.99( 99.89%)
    25. (0.00000) RY*(16) C   1           s(  0.00%)p 0.00(  0.00%)d 1.00(100.00%)
    26. (0.00000) RY*(17) C   1           s( 27.33%)p 0.00(  0.04%)d 2.66( 72.63%)
    27. (0.00001) RY*( 1) O   2           s( 99.92%)p 0.00(  0.08%)d 0.00(  0.00%)
    28. (0.00000) RY*( 2) O   2           s(100.00%)
    29. (0.00000) RY*( 3) O   2           s(100.00%)
    30. (0.00000) RY*( 4) O   2           s(  0.00%)p 1.00(100.00%)
    31. (0.00000) RY*( 5) O   2           s(  0.00%)p 1.00(100.00%)
    32. (0.00000) RY*( 6) O   2           s(  0.00%)p 1.00(100.00%)
    33. (0.00000) RY*( 7) O   2           s(  0.00%)p 1.00(100.00%)
    34. (0.00000) RY*( 8) O   2           s(  0.00%)p 1.00(100.00%)
    35. (0.00000) RY*( 9) O   2           s(  0.00%)p 1.00(100.00%)
    36. (0.00000) RY*(10) O   2           s(  0.00%)p 1.00(100.00%)d 0.00(  0.00%)
    37. (0.00000) RY*(11) O   2           s(  0.00%)p 1.00(100.00%)
    38. (0.00000) RY*(12) O   2           s(  0.00%)p 1.00(100.00%)
    39. (0.00000) RY*(13) O   2           s(  0.00%)p 0.00(  0.00%)d 1.00(100.00%)
    40. (0.00000) RY*(14) O   2           s(  0.00%)p 0.00(  0.00%)d 1.00(100.00%)
    41. (0.00000) RY*(15) O   2           s(  0.00%)p 0.00(  0.00%)d 1.00(100.00%)
    42. (0.00000) RY*(16) O   2           s(  0.00%)p 0.00(  0.00%)d 1.00(100.00%)
    43. (0.00000) RY*(17) O   2           s(  0.01%)p 1.00(  0.02%)d99.99( 99.97%)
    44. (0.00000) BD*( 1) C   1 - O   2  
                ( 42.88%)   0.6548* C   1 s(  4.27%)p22.42( 95.72%)d 0.00(  0.01%)
                ( 57.12%)  -0.7558* O   2 s(  0.56%)p99.99( 99.42%)d 0.03(  0.02%)


 NHO Directionality and "Bond Bending" (deviations from line of nuclear centers)

         [Thresholds for printing:  angular deviation  >  1.0 degree]
                                    hybrid p-character > 25.0%
                                    orbital occupancy  >  0.10e

                                Line of Centers        Hybrid 1              Hybrid 2
                                ---------------  -------------------   ------------------
                NBO               Theta   Phi    Theta   Phi    Dev    Theta   Phi    Dev
 ========================================================================================
     8. LP (   2) O   2             --     --     90.0    0.0   --       --     --    --
     9. LP (   3) O   2             --     --     90.0   90.0   --       --     --    --


 Second Order Perturbation Theory Analysis of Fock Matrix in NBO Basis

     Threshold for printing:   0.25 kcal/mol
                                                                              E(2)  E(j)-E(i) F(i,j)
         Donor NBO (i)                     Acceptor NBO (j)                 kcal/mol   a.u.    a.u. 
 ===================================================================================================

 within unit  1
   8. LP (   2) O   2                /  5. LP*(   2) C   1                    9.86    0.16    0.049
   9. LP (   3) O   2                /  6. LP*(   3) C   1                    9.86    0.16    0.049


 Natural Bond Orbitals (Summary):

                                                            Principal Delocalizations
           NBO                        Occupancy    Energy   (geminal,vicinal,remote)
 ====================================================================================
 Molecular unit  1  (CO)
     1. BD (   1) C   1 - O   2          1.00000    -0.40967   
     2. CR (   1) C   1                  1.00000   -10.82217   
     3. CR (   1) O   2                  1.00000   -19.62183   
     4. LP (   1) C   1                  0.99999    -0.72927   
     5. LP*(   2) C   1                  0.07798    -0.19227   
     6. LP*(   3) C   1                  0.07798    -0.19227   
     7. LP (   1) O   2                  0.99990    -1.04732   
     8. LP (   2) O   2                  0.92202    -0.34804  5(v)
     9. LP (   3) O   2                  0.92202    -0.34804  6(v)
    10. RY*(   1) C   1                  0.00010     0.64753   
    11. RY*(   2) C   1                  0.00000     0.83716   
    12. RY*(   3) C   1                  0.00000     1.18975   
    13. RY*(   4) C   1                  0.00000     0.18243   
    14. RY*(   5) C   1                  0.00000     1.78448   
    15. RY*(   6) C   1                  0.00000    22.85817   
    16. RY*(   7) C   1                  0.00000     1.18975   
    17. RY*(   8) C   1                  0.00000     0.18243   
    18. RY*(   9) C   1                  0.00000     1.78448   
    19. RY*(  10) C   1                  0.00000     0.76024   
    20. RY*(  11) C   1                  0.00000     0.58938   
    21. RY*(  12) C   1                  0.00000     1.79647   
    22. RY*(  13) C   1                  0.00000     1.23590   
    23. RY*(  14) C   1                  0.00000     1.26488   
    24. RY*(  15) C   1                  0.00000     1.26488   
    25. RY*(  16) C   1                  0.00000     1.23590   
    26. RY*(  17) C   1                  0.00000     1.00247   
    27. RY*(   1) O   2                  0.00001     0.41994   
    28. RY*(   2) O   2                  0.00000     1.80520   
    29. RY*(   3) O   2                  0.00000    49.29379   
    30. RY*(   4) O   2                  0.00000     0.34338   
    31. RY*(   5) O   2                  0.00000     1.04177   
    32. RY*(   6) O   2                  0.00000     5.00863   
    33. RY*(   7) O   2                  0.00000     0.34338   
    34. RY*(   8) O   2                  0.00000     1.04177   
    35. RY*(   9) O   2                  0.00000     5.00863   
    36. RY*(  10) O   2                  0.00000     0.34687   
    37. RY*(  11) O   2                  0.00000     1.05484   
    38. RY*(  12) O   2                  0.00000     5.02548   
    39. RY*(  13) O   2                  0.00000     2.92252   
    40. RY*(  14) O   2                  0.00000     2.90428   
    41. RY*(  15) O   2                  0.00000     2.90428   
    42. RY*(  16) O   2                  0.00000     2.92252   
    43. RY*(  17) O   2                  0.00000     2.90647   
    44. BD*(   1) C   1 - O   2          0.00000    -0.10681   
       -------------------------------
              Total Lewis    6.84394  ( 97.7705%)
        Valence non-Lewis    0.15595  (  2.2279%)
        Rydberg non-Lewis    0.00011  (  0.0016%)
       -------------------------------
            Total unit  1    7.00000  (100.0000%)
           Charge unit  1    0.00000
 Sorting of NBOs:                    3    2    7    4    1    8    9    6    5   44
 Sorting of NBOs:                   13   17   33   30   36   27   20   10   19   11
 Sorting of NBOs:                   26   34   31   37   12   16   25   22   24   23
 Sorting of NBOs:                   14   18   21   28   41   40   43   39   42   32
 Sorting of NBOs:                   35   38   15   29
 Reordering of NBOs for storage:     3    2    7    4    1    8    9    6    5   44
 Reordering of NBOs for storage:    13   17   33   30   36   27   20   10   19   11
 Reordering of NBOs for storage:    26   34   31   37   12   16   25   22   24   23
 Reordering of NBOs for storage:    14   18   21   28   41   40   43   39   42   32
 Reordering of NBOs for storage:    35   38   15   29
 Labels of output orbitals:  CR  CR  LP  LP  BD  LP  LP  LP* LP* BD* RY* RY* RY* RY* RY* RY* RY* RY* RY* RY* 
 Labels of output orbitals:  RY* RY* RY* RY* RY* RY* RY* RY* RY* RY* RY* RY* RY* RY* RY* RY* RY* RY* RY* RY* 
 Labels of output orbitals:  RY* RY* RY* RY* 
 GSVD:  LWork=       -1665 too small for GESVD, short by        7400 words or        7400 for optimal perf.
 Leave Link  607 at Mon Apr 21 19:30:44 2025, MaxMem=   536870912 cpu:               6.4 elap:               1.0
 (Enter /home/szhao/Apps/g16/l701.exe)
 ... and contract with generalized density number  0.
 Compute integral first derivatives.
 Leave Link  701 at Mon Apr 21 19:30:45 2025, MaxMem=   536870912 cpu:               1.3 elap:               0.2
 (Enter /home/szhao/Apps/g16/l702.exe)
 L702 exits ... SP integral derivatives will be done elsewhere.
 Leave Link  702 at Mon Apr 21 19:30:45 2025, MaxMem=   536870912 cpu:               0.5 elap:               0.1
 (Enter /home/szhao/Apps/g16/l703.exe)
 Integral derivatives from FoFJK, PRISM(SPDF).
 Compute integral first derivatives, UseDBF=F ICtDFT=           0.
 Calling FoFJK, ICntrl=      2127 FMM=F ISym2X=1 I1Cent= 0 IOpClX= 1 NMat=1 NMatS=1 NMatT=0.
 FoFJK:  IHMeth= 1 ICntrl=    2127 DoSepK=F KAlg= 0 I1Cent=           0 FoldK=F
 IRaf=         0 NMat=       1 IRICut=       1 DoRegI=T DoRafI=F ISym2E= 1 IDoP0=0 IntGTp=1.
 FoFCou: FMM=F IPFlag=           0 FMFlag=      100000 FMFlg1=         800
         NFxFlg=           0 DoJE=F BraDBF=F KetDBF=F FulRan=T
         wScrn=  0.000000 ICntrl=      2127 IOpCl=  1 I1Cent=           0 NGrid=           0
         NMat0=    1 NMatS0=      1 NMatT0=    0 NMatD0=    1 NMtDS0=    0 NMtDT0=    0
 Petite list used in FoFCou.
 Leave Link  703 at Mon Apr 21 19:30:46 2025, MaxMem=   536870912 cpu:               1.9 elap:               0.3
 (Enter /home/szhao/Apps/g16/l716.exe)
 Dipole        = 0.00000000D+00 0.00000000D+00-1.50414700D+00
 ***** Axes restored to original set *****
 -------------------------------------------------------------------
 Center     Atomic                   Forces (Hartrees/Bohr)
 Number     Number              X              Y              Z
 -------------------------------------------------------------------
      1        6           0.120857265   -0.000000000   -0.000000000
      2        8          -0.120857265   -0.000000000   -0.000000000
 -------------------------------------------------------------------
 Cartesian Forces:  Max     0.120857265 RMS     0.069776975
 Z-matrix is all fixed cartesians, so copy forces.
 Force constants in Cartesian coordinates: 
                1             2             3             4             5 
      1  0.100000D+01
      2  0.000000D+00  0.100000D+01
      3  0.000000D+00  0.000000D+00  0.100000D+01
      4  0.000000D+00  0.000000D+00  0.000000D+00  0.100000D+01
      5  0.000000D+00  0.000000D+00  0.000000D+00  0.000000D+00  0.100000D+01
      6  0.000000D+00  0.000000D+00  0.000000D+00  0.000000D+00  0.000000D+00
                6 
      6  0.100000D+01
 Leave Link  716 at Mon Apr 21 19:30:46 2025, MaxMem=   536870912 cpu:               0.5 elap:               0.1
 (Enter /home/szhao/Apps/g16/l103.exe)

 GradGradGradGradGradGradGradGradGradGradGradGradGradGradGradGradGradGrad
 Berny optimization.
 Search for a local minimum.
 Step number   1 out of a maximum of    2
 All quantities printed in internal units (Hartrees-Bohrs-Radians)
 Second derivative matrix not updated -- first step.
 The second derivative matrix:
                          X1        Y1        Z1        X2        Y2
           X1           1.00000
           Y1           0.00000   1.00000
           Z1           0.00000   0.00000   1.00000
           X2           0.00000   0.00000   0.00000   1.00000
           Y2           0.00000   0.00000   0.00000   0.00000   1.00000
           Z2           0.00000   0.00000   0.00000   0.00000   0.00000
                          Z2
           Z2           1.00000
 ITU=  0
     Eigenvalues ---    1.00000   1.00000   1.00000   1.00000   1.00000
     Eigenvalues ---    1.00000
 Angle between quadratic step and forces=   0.00 degrees.
 ClnCor:  largest displacement from symmetrization is 0.00D+00 for atom     0.
 Linear search not attempted -- first point.
 ClnCor:  largest displacement from symmetrization is 0.00D+00 for atom     0.
 B after Tr=     0.000000    0.000000    0.000000
         Rot=    1.000000    0.000000    0.000000    0.000000 Ang=   0.00 deg.
 Variable       Old X    -DE/DX   Delta X   Delta X   Delta X     New X
                                 (Linear)    (Quad)   (Total)
    X1       -2.14688   0.12086   0.00000   0.12086   0.12086  -2.02603
    Y1        0.00000  -0.00000   0.00000   0.00000   0.00000   0.00000
    Z1        0.00000  -0.00000   0.00000   0.00000   0.00000   0.00000
    X2        2.14688  -0.12086   0.00000  -0.12086  -0.12086   2.02603
    Y2        0.00000  -0.00000   0.00000   0.00000   0.00000   0.00000
    Z2        0.00000  -0.00000   0.00000   0.00000   0.00000   0.00000
         Item               Value     Threshold  Converged?
 Maximum Force            0.120857     0.000450     NO 
 RMS     Force            0.069777     0.000300     NO 
 Maximum Displacement     0.120857     0.001800     NO 
 RMS     Displacement     0.069777     0.001200     NO 
 Predicted change in Energy=-1.460648D-02
 GradGradGradGradGradGradGradGradGradGradGradGradGradGradGradGradGradGrad

 Leave Link  103 at Mon Apr 21 19:30:46 2025, MaxMem=   536870912 cpu:               0.4 elap:               0.1
 (Enter /home/szhao/Apps/g16/l9999.exe)
 1\1\GINC-NODE06\Force\UM062X\6-311+G(d,p)\C1O1\SZHAO\21-Apr-2025\0\\#p
  UM062X/6-311+G** force int=superfine pop=saveNBO\\Title Card Required
 \\0,1\C,-1.136082,0.,0.\O,1.136082,0.,0.\\Version=ES64L-G16RevA.03\Sta
 te=1-SG\HF=-112.8344542\S2=0.\S2-1=0.\S2A=0.\RMSD=2.425e-09\RMSF=6.978
 e-02\Dipole=-1.504147,0.,0.\Quadrupole=0.4334228,-0.2167114,-0.2167114
 ,0.,0.,0.\PG=C*V [C*(C1O1)]\\@


 ALL PAPERS THAT YOU SAVE WILL NEVER BE NEEDED UNTIL
 SUCH TIME AS THEY ARE DISPOSED OF, WHEN THEY BECOME
 ESSENTIAL.

           -- JOHN CORCORAN IN
              PAUL DICKSON'S "THE OFFICIAL RULES"
 Job cpu time:       0 days  0 hours  0 minutes 38.7 seconds.
 Elapsed time:       0 days  0 hours  0 minutes  7.6 seconds.
 File lengths (MBytes):  RWF=     17 Int=      0 D2E=      0 Chk=      2 Scr=      2
 Normal termination of Gaussian 16 at Mon Apr 21 19:30:47 2025.
