 Entering Gaussian System, Link 0=g16
 Initial command:
 /home/szhao/Apps/g16/l1.exe "/home/szhao/tmp/Gau-23933.inp" -scrdir="/home/szhao/tmp/"
 Default is to use a total of  16 processors:
                               16 via shared-memory
                                1 via Linda
 Entering Link 1 = /home/szhao/Apps/g16/l1.exe PID=     23935.
  
 Copyright (c) 1988,1990,1992,1993,1995,1998,2003,2009,2016,
            Gaussian, Inc.  All Rights Reserved.
  
 This is part of the Gaussian(R) 16 program.  It is based on
 the Gaussian(R) 09 system (copyright 2009, Gaussian, Inc.),
 the Gaussian(R) 03 system (copyright 2003, Gaussian, Inc.),
 the Gaussian(R) 98 system (copyright 1998, Gaussian, Inc.),
 the Gaussian(R) 94 system (copyright 1995, Gaussian, Inc.),
 the Gaussian 92(TM) system (copyright 1992, Gaussian, Inc.),
 the Gaussian 90(TM) system (copyright 1990, Gaussian, Inc.),
 the Gaussian 88(TM) system (copyright 1988, Gaussian, Inc.),
 the Gaussian 86(TM) system (copyright 1986, Carnegie Mellon
 University), and the Gaussian 82(TM) system (copyright 1983,
 Carnegie Mellon University). Gaussian is a federally registered
 trademark of Gaussian, Inc.
  
 This software contains proprietary and confidential information,
 including trade secrets, belonging to Gaussian, Inc.
  
 This software is provided under written license and may be
 used, copied, transmitted, or stored only in accord with that
 written license.
  
 The following legend is applicable only to US Government
 contracts under FAR:
  
                    RESTRICTED RIGHTS LEGEND
  
 Use, reproduction and disclosure by the US Government is
 subject to restrictions as set forth in subparagraphs (a)
 and (c) of the Commercial Computer Software - Restricted
 Rights clause in FAR 52.227-19.
  
 Gaussian, Inc.
 340 Quinnipiac St., Bldg. 40, Wallingford CT 06492
  
  
 ---------------------------------------------------------------
 Warning -- This program may not be used in any manner that
 competes with the business of Gaussian, Inc. or will provide
 assistance to any competitor of Gaussian, Inc.  The licensee
 of this program is prohibited from giving any competitor of
 Gaussian, Inc. access to this program.  By using this program,
 the user acknowledges that Gaussian, Inc. is engaged in the
 business of creating and licensing software in the field of
 computational chemistry and represents and warrants to the
 licensee that it is not a competitor of Gaussian, Inc. and that
 it will not use this program in any manner prohibited above.
 ---------------------------------------------------------------
  

 Cite this work as:
 Gaussian 16, Revision A.03,
 M. J. Frisch, G. W. Trucks, H. B. Schlegel, G. E. Scuseria, 
 M. A. Robb, J. R. Cheeseman, G. Scalmani, V. Barone, 
 G. A. Petersson, H. Nakatsuji, X. Li, M. Caricato, A. V. Marenich, 
 J. Bloino, B. G. Janesko, R. Gomperts, B. Mennucci, H. P. Hratchian, 
 J. V. Ortiz, A. F. Izmaylov, J. L. Sonnenberg, D. Williams-Young, 
 F. Ding, F. Lipparini, F. Egidi, J. Goings, B. Peng, A. Petrone, 
 T. Henderson, D. Ranasinghe, V. G. Zakrzewski, J. Gao, N. Rega, 
 G. Zheng, W. Liang, M. Hada, M. Ehara, K. Toyota, R. Fukuda, 
 J. Hasegawa, M. Ishida, T. Nakajima, Y. Honda, O. Kitao, H. Nakai, 
 T. Vreven, K. Throssell, J. A. Montgomery, Jr., J. E. Peralta, 
 F. Ogliaro, M. J. Bearpark, J. J. Heyd, E. N. Brothers, K. N. Kudin, 
 V. N. Staroverov, T. A. Keith, R. Kobayashi, J. Normand, 
 K. Raghavachari, A. P. Rendell, J. C. Burant, S. S. Iyengar, 
 J. Tomasi, M. Cossi, J. M. Millam, M. Klene, C. Adamo, R. Cammi, 
 J. W. Ochterski, R. L. Martin, K. Morokuma, O. Farkas, 
 J. B. Foresman, and D. J. Fox, Gaussian, Inc., Wallingford CT, 2016.
 
 ******************************************
 Gaussian 16:  ES64L-G16RevA.03 25-Dec-2016
                19-Nov-2024 
 ******************************************
 %chk=opt.chk
 %mem=4GB
 %nprocshared=8
 Will use up to    8 processors via shared memory.
 ---------------------------------------
 #p UM062X/6-311+G** force int=superfine
 ---------------------------------------
 1/10=7,30=1,38=1/1,3;
 2/12=2,17=6,18=5,40=1/2;
 3/5=4,6=6,7=111,11=2,25=1,30=1,71=1,74=-55,75=-7,116=2/1,2,3;
 4//1;
 5/5=2,38=5/2;
 6/7=2,8=2,9=2,10=2,28=1/1;
 7/29=1/1,2,3,16;
 1/10=7,30=1/3;
 99//99;
 Leave Link    1 at Tue Nov 19 11:39:47 2024, MaxMem=   536870912 cpu:               1.2 elap:               0.2
 (Enter /home/szhao/Apps/g16/l101.exe)
 -------------------
 Title Card Required
 -------------------
 Symbolic Z-matrix:
 Charge =  0 Multiplicity = 1
 C                    -0.40435   0.        0. 
 C                     0.40435   0.        0. 
 H                    -1.11439  -0.85431   0. 
 H                    -1.11435   0.85442   0. 
 H                     1.11439   0.85431   0. 
 H                     1.11435  -0.85442   0. 
 
 ITRead=  0  0  0  0  0  0
 MicOpt= -1 -1 -1 -1 -1 -1
 NAtoms=      6 NQM=        6 NQMF=       0 NMMI=      0 NMMIF=      0
                NMic=       0 NMicF=      0.
                    Isotopes and Nuclear Properties:
 (Nuclear quadrupole moments (NQMom) in fm**2, nuclear magnetic moments (NMagM)
  in nuclear magnetons)

  Atom         1           2           3           4           5           6
 IAtWgt=          12          12           1           1           1           1
 AtmWgt=  12.0000000  12.0000000   1.0078250   1.0078250   1.0078250   1.0078250
 NucSpn=           0           0           1           1           1           1
 AtZEff=  -0.0000000  -0.0000000  -0.0000000  -0.0000000  -0.0000000  -0.0000000
 NQMom=    0.0000000   0.0000000   0.0000000   0.0000000   0.0000000   0.0000000
 NMagM=    0.0000000   0.0000000   2.7928460   2.7928460   2.7928460   2.7928460
 AtZNuc=   6.0000000   6.0000000   1.0000000   1.0000000   1.0000000   1.0000000
 Leave Link  101 at Tue Nov 19 11:39:47 2024, MaxMem=   536870912 cpu:               1.7 elap:               0.3
 (Enter /home/szhao/Apps/g16/l103.exe)

 GradGradGradGradGradGradGradGradGradGradGradGradGradGradGradGradGradGrad
 Berny optimization.
 Initialization pass.
 Trust Radius=3.00D-01 FncErr=1.00D-07 GrdErr=1.00D-07 EigMax=2.50D+02 EigMin=1.00D-04
 Number of steps in this run=      2 maximum allowed number of steps=      2.
 GradGradGradGradGradGradGradGradGradGradGradGradGradGradGradGradGradGrad

 Leave Link  103 at Tue Nov 19 11:39:47 2024, MaxMem=   536870912 cpu:               0.5 elap:               0.1
 (Enter /home/szhao/Apps/g16/l202.exe)
                          Input orientation:                          
 ---------------------------------------------------------------------
 Center     Atomic      Atomic             Coordinates (Angstroms)
 Number     Number       Type             X           Y           Z
 ---------------------------------------------------------------------
      1          6           0       -0.404352    0.000000    0.000000
      2          6           0        0.404352    0.000000    0.000000
      3          1           0       -1.114394   -0.854305    0.000000
      4          1           0       -1.114352    0.854416    0.000000
      5          1           0        1.114394    0.854305    0.000000
      6          1           0        1.114352   -0.854416    0.000000
 ---------------------------------------------------------------------
                    Distance matrix (angstroms):
                    1          2          3          4          5
     1  C    0.000000
     2  C    0.808704   0.000000
     3  H    1.110854   1.742534   0.000000
     4  H    1.110913   1.742552   1.708721   0.000000
     5  H    1.742534   1.110854   2.808353   2.228746   0.000000
     6  H    1.742552   1.110913   2.228746   2.808421   1.708721
                    6
     6  H    0.000000
 Stoichiometry    C2H4
 Framework group  C2H[SGH(C2H4)]
 Deg. of freedom     5
 Full point group                 C2H     NOp   4
 Largest Abelian subgroup         C2H     NOp   4
 Largest concise Abelian subgroup C2      NOp   2
                         Standard orientation:                         
 ---------------------------------------------------------------------
 Center     Atomic      Atomic             Coordinates (Angstroms)
 Number     Number       Type             X           Y           Z
 ---------------------------------------------------------------------
      1          6           0        0.000000    0.404352    0.000000
      2          6           0       -0.000000   -0.404352    0.000000
      3          1           0       -0.854305    1.114394    0.000000
      4          1           0        0.854416    1.114352    0.000000
      5          1           0        0.854305   -1.114394    0.000000
      6          1           0       -0.854416   -1.114352    0.000000
 ---------------------------------------------------------------------
 Rotational constants (GHZ):         171.7472301          56.5921832          42.5662419
 Leave Link  202 at Tue Nov 19 11:39:47 2024, MaxMem=   536870912 cpu:               0.5 elap:               0.1
 (Enter /home/szhao/Apps/g16/l301.exe)
 Standard basis: 6-311+G(d,p) (5D, 7F)
 Ernie: Thresh=  0.10000D-02 Tol=  0.10000D-05 Strict=F.
 There are    27 symmetry adapted cartesian basis functions of AG  symmetry.
 There are     8 symmetry adapted cartesian basis functions of BG  symmetry.
 There are     8 symmetry adapted cartesian basis functions of AU  symmetry.
 There are    27 symmetry adapted cartesian basis functions of BU  symmetry.
 There are    26 symmetry adapted basis functions of AG  symmetry.
 There are     8 symmetry adapted basis functions of BG  symmetry.
 There are     8 symmetry adapted basis functions of AU  symmetry.
 There are    26 symmetry adapted basis functions of BU  symmetry.
    68 basis functions,   104 primitive gaussians,    70 cartesian basis functions
     8 alpha electrons        8 beta electrons
       nuclear repulsion energy        43.7486965360 Hartrees.
 IExCor= 4336 DFT=T Ex+Corr=M062X ExCW=0 ScaHFX=  0.540000
 ScaDFX=  1.000000  1.000000  1.000000  1.000000 ScalE2=  1.000000  1.000000
 IRadAn=      7 IRanWt=     -1 IRanGd=            0 ICorTp=0 IEmpDi=  4
 NAtoms=    6 NActive=    6 NUniq=    3 SFac= 4.00D+00 NAtFMM=   60 NAOKFM=F Big=F
 Integral buffers will be    131072 words long.
 Raffenetti 2 integral format.
 Two-electron integral symmetry is turned on.
 Leave Link  301 at Tue Nov 19 11:39:48 2024, MaxMem=   536870912 cpu:               0.6 elap:               0.1
 (Enter /home/szhao/Apps/g16/l302.exe)
 NPDir=0 NMtPBC=     1 NCelOv=     1 NCel=       1 NClECP=     1 NCelD=      1
         NCelK=      1 NCelE2=     1 NClLst=     1 CellRange=     0.0.
 One-electron integrals computed using PRISM.
 One-electron integral symmetry used in STVInt
 NBasis=    68 RedAO= T EigKep=  8.43D-06  NBF=    26     8     8    26
 NBsUse=    68 1.00D-06 EigRej= -1.00D+00 NBFU=    26     8     8    26
 Precomputing XC quadrature grid using
 IXCGrd= 4 IRadAn=           7 IRanWt=          -1 IRanGd=           0 AccXCQ= 0.00D+00.
 Generated NRdTot=       0 NPtTot=           0 NUsed=           0 NTot=          32
 NSgBfM=    70    70    70    70    70 MxSgAt=     6 MxSgA2=     6.
 Leave Link  302 at Tue Nov 19 11:39:48 2024, MaxMem=   536870912 cpu:               1.7 elap:               0.3
 (Enter /home/szhao/Apps/g16/l303.exe)
 DipDrv:  MaxL=1.
 Leave Link  303 at Tue Nov 19 11:39:48 2024, MaxMem=   536870912 cpu:               0.8 elap:               0.2
 (Enter /home/szhao/Apps/g16/l401.exe)
 ExpMin= 4.38D-02 ExpMax= 4.56D+03 ExpMxC= 6.82D+02 IAcc=3 IRadAn=         7 AccDes= 0.00D+00
 Harris functional with IExCor= 1009 and IRadAn=       7 diagonalized for initial guess.
 HarFok:  IExCor= 1009 AccDes= 0.00D+00 IRadAn=         7 IDoV= 1 UseB2=F ITyADJ=14
 ICtDFT=  3500011 ScaDFX=  1.000000  1.000000  1.000000  1.000000
 FoFCou: FMM=F IPFlag=           0 FMFlag=      100000 FMFlg1=           0
         NFxFlg=           0 DoJE=T BraDBF=F KetDBF=T FulRan=T
         wScrn=  0.000000 ICntrl=       500 IOpCl=  0 I1Cent=   200000004 NGrid=           0
         NMat0=    1 NMatS0=      1 NMatT0=    0 NMatD0=    1 NMtDS0=    0 NMtDT0=    0
 Petite list used in FoFCou.
 Harris En= -78.0034875977812    
 JPrj=0 DoOrth=F DoCkMO=F.
 Initial guess orbital symmetries:
 Alpha Orbitals:
       Occupied  (AG) (BU) (AG) (BU) (AU) (AG) (BU) (AG)
       Virtual   (BU) (BG) (AG) (BU) (AU) (AG) (AG) (AG) (BU) (BG)
                 (BU) (BU) (AG) (AG) (BU) (AU) (BU) (AG) (BU) (BU)
                 (BG) (AG) (AG) (BU) (BG) (AG) (AG) (AU) (AU) (BU)
                 (AG) (BU) (AG) (BG) (BG) (BU) (BU) (AU) (BU) (AG)
                 (AG) (AG) (AU) (AU) (BU) (BU) (BG) (BU) (AG) (AG)
                 (BU) (BG) (BU) (AG) (BU) (AG) (AG) (BU) (AG) (BU)
 Beta  Orbitals:
       Occupied  (AG) (BU) (AG) (BU) (AU) (AG) (BU) (AG)
       Virtual   (BU) (BG) (AG) (BU) (AU) (AG) (AG) (AG) (BU) (BG)
                 (BU) (BU) (AG) (AG) (BU) (AU) (BU) (AG) (BU) (BU)
                 (BG) (AG) (AG) (BU) (BG) (AG) (AG) (AU) (AU) (BU)
                 (AG) (BU) (AG) (BG) (BG) (BU) (BU) (AU) (BU) (AG)
                 (AG) (AG) (AU) (AU) (BU) (BU) (BG) (BU) (AG) (AG)
                 (BU) (BG) (BU) (AG) (BU) (AG) (AG) (BU) (AG) (BU)
 The electronic state of the initial guess is 1-AG.
 Initial guess <Sx>= 0.0000 <Sy>= 0.0000 <Sz>= 0.0000 <S**2>= 0.0000 S= 0.0000
 Leave Link  401 at Tue Nov 19 11:39:49 2024, MaxMem=   536870912 cpu:               2.6 elap:               0.4
 (Enter /home/szhao/Apps/g16/l502.exe)
 Keep R1 and R2 ints in memory in symmetry-blocked form, NReq=9935231.
 FoFCou: FMM=F IPFlag=           0 FMFlag=           0 FMFlg1=           0
         NFxFlg=           0 DoJE=F BraDBF=F KetDBF=F FulRan=T
         wScrn=  0.000000 ICntrl=       600 IOpCl=  0 I1Cent=           0 NGrid=           0
         NMat0=    1 NMatS0=   2346 NMatT0=    0 NMatD0=    1 NMtDS0=    0 NMtDT0=    0
 Petite list used in FoFCou.
 UHF open shell SCF:
 Using DIIS extrapolation, IDIIS=  1040.
 NGot=   536870912 LenX=   535358062 LenY=   535352721
 Requested convergence on RMS density matrix=1.00D-08 within 128 cycles.
 Requested convergence on MAX density matrix=1.00D-06.
 Requested convergence on             energy=1.00D-06.
 No special actions if energy rises.

 Cycle   1  Pass 1  IDiag  1:
 E= -77.0789618389041    
 DIIS: error= 1.30D-01 at cycle   1 NSaved=   1.
 NSaved= 1 IEnMin= 1 EnMin= -77.0789618389041     IErMin= 1 ErrMin= 1.30D-01
 ErrMax= 1.30D-01  0.00D+00 EMaxC= 1.00D-01 BMatC= 2.77D+00 BMatP= 2.77D+00
 IDIUse=3 WtCom= 0.00D+00 WtEn= 1.00D+00
 Coeff-Com:  0.100D+01
 Coeff-En:   0.100D+01
 Coeff:      0.100D+01
 Gap=     0.141 Goal=   None    Shift=    0.000
 Gap=     0.141 Goal=   None    Shift=    0.000
 GapD=    0.141 DampG=1.000 DampE=0.250 DampFc=0.2500 IDamp=-1.
 Damping current iteration by 2.50D-01
 RMSDP=1.53D-02 MaxDP=2.01D-01              OVMax= 4.15D-01

 Cycle   2  Pass 1  IDiag  1:
 E= -77.2777626959032     Delta-E=       -0.198800856999 Rises=F Damp=T
 DIIS: error= 6.49D-02 at cycle   2 NSaved=   2.
 NSaved= 2 IEnMin= 2 EnMin= -77.2777626959032     IErMin= 2 ErrMin= 6.49D-02
 ErrMax= 6.49D-02  0.00D+00 EMaxC= 1.00D-01 BMatC= 7.39D-01 BMatP= 2.77D+00
 IDIUse=3 WtCom= 3.51D-01 WtEn= 6.49D-01
 Coeff-Com: -0.103D+01 0.203D+01
 Coeff-En:   0.000D+00 0.100D+01
 Coeff:     -0.362D+00 0.136D+01
 Gap=     0.408 Goal=   None    Shift=    0.000
 Gap=     0.408 Goal=   None    Shift=    0.000
 RMSDP=8.60D-03 MaxDP=1.69D-01 DE=-1.99D-01 OVMax= 1.99D-01

 Cycle   3  Pass 1  IDiag  1:
 E= -77.6040449779356     Delta-E=       -0.326282282032 Rises=F Damp=F
 DIIS: error= 3.70D-02 at cycle   3 NSaved=   3.
 NSaved= 3 IEnMin= 3 EnMin= -77.6040449779356     IErMin= 3 ErrMin= 3.70D-02
 ErrMax= 3.70D-02  0.00D+00 EMaxC= 1.00D-01 BMatC= 1.76D-01 BMatP= 7.39D-01
 IDIUse=3 WtCom= 6.30D-01 WtEn= 3.70D-01
 Coeff-Com:  0.476D+00-0.462D+00 0.987D+00
 Coeff-En:   0.000D+00 0.000D+00 0.100D+01
 Coeff:      0.300D+00-0.291D+00 0.992D+00
 Gap=     0.337 Goal=   None    Shift=    0.000
 Gap=     0.337 Goal=   None    Shift=    0.000
 RMSDP=5.01D-03 MaxDP=1.18D-01 DE=-3.26D-01 OVMax= 7.07D-02

 Cycle   4  Pass 1  IDiag  1:
 E= -77.6370129817391     Delta-E=       -0.032968003803 Rises=F Damp=F
 DIIS: error= 1.38D-02 at cycle   4 NSaved=   4.
 NSaved= 4 IEnMin= 4 EnMin= -77.6370129817391     IErMin= 4 ErrMin= 1.38D-02
 ErrMax= 1.38D-02  0.00D+00 EMaxC= 1.00D-01 BMatC= 2.35D-02 BMatP= 1.76D-01
 IDIUse=3 WtCom= 8.62D-01 WtEn= 1.38D-01
 Coeff-Com: -0.788D-01 0.755D-01 0.153D+00 0.850D+00
 Coeff-En:   0.000D+00 0.000D+00 0.190D-01 0.981D+00
 Coeff:     -0.680D-01 0.651D-01 0.135D+00 0.868D+00
 Gap=     0.327 Goal=   None    Shift=    0.000
 Gap=     0.327 Goal=   None    Shift=    0.000
 RMSDP=1.08D-03 MaxDP=2.15D-02 DE=-3.30D-02 OVMax= 2.18D-02

 Cycle   5  Pass 1  IDiag  1:
 E= -77.6419118220327     Delta-E=       -0.004898840294 Rises=F Damp=F
 DIIS: error= 1.26D-03 at cycle   5 NSaved=   5.
 NSaved= 5 IEnMin= 5 EnMin= -77.6419118220327     IErMin= 5 ErrMin= 1.26D-03
 ErrMax= 1.26D-03  0.00D+00 EMaxC= 1.00D-01 BMatC= 2.01D-04 BMatP= 2.35D-02
 IDIUse=3 WtCom= 9.87D-01 WtEn= 1.26D-02
 Coeff-Com: -0.116D-01 0.172D-01-0.304D-01 0.385D-01 0.986D+00
 Coeff-En:   0.000D+00 0.000D+00 0.000D+00 0.000D+00 0.100D+01
 Coeff:     -0.114D-01 0.169D-01-0.300D-01 0.380D-01 0.987D+00
 Gap=     0.328 Goal=   None    Shift=    0.000
 Gap=     0.328 Goal=   None    Shift=    0.000
 RMSDP=2.59D-04 MaxDP=6.51D-03 DE=-4.90D-03 OVMax= 2.24D-03

 Cycle   6  Pass 1  IDiag  1:
 E= -77.6419570499569     Delta-E=       -0.000045227924 Rises=F Damp=F
 DIIS: error= 1.42D-04 at cycle   6 NSaved=   6.
 NSaved= 6 IEnMin= 6 EnMin= -77.6419570499569     IErMin= 6 ErrMin= 1.42D-04
 ErrMax= 1.42D-04  0.00D+00 EMaxC= 1.00D-01 BMatC= 1.68D-06 BMatP= 2.01D-04
 IDIUse=3 WtCom= 9.99D-01 WtEn= 1.42D-03
 Coeff-Com: -0.213D-02 0.378D-02-0.111D-02-0.181D-01-0.955D-01 0.111D+01
 Coeff-En:   0.000D+00 0.000D+00 0.000D+00 0.000D+00 0.000D+00 0.100D+01
 Coeff:     -0.212D-02 0.378D-02-0.110D-02-0.181D-01-0.954D-01 0.111D+01
 Gap=     0.328 Goal=   None    Shift=    0.000
 Gap=     0.328 Goal=   None    Shift=    0.000
 RMSDP=6.20D-05 MaxDP=1.56D-03 DE=-4.52D-05 OVMax= 2.33D-04

 Cycle   7  Pass 1  IDiag  1:
 E= -77.6419574696507     Delta-E=       -0.000000419694 Rises=F Damp=F
 DIIS: error= 1.61D-05 at cycle   7 NSaved=   7.
 NSaved= 7 IEnMin= 7 EnMin= -77.6419574696507     IErMin= 7 ErrMin= 1.61D-05
 ErrMax= 1.61D-05  0.00D+00 EMaxC= 1.00D-01 BMatC= 1.96D-08 BMatP= 1.68D-06
 IDIUse=1 WtCom= 1.00D+00 WtEn= 0.00D+00
 Coeff-Com:  0.202D-04-0.357D-04 0.403D-03-0.431D-03-0.199D-01-0.145D+00
 Coeff-Com:  0.117D+01
 Coeff:      0.202D-04-0.357D-04 0.403D-03-0.431D-03-0.199D-01-0.145D+00
 Coeff:      0.117D+01
 Gap=     0.328 Goal=   None    Shift=    0.000
 Gap=     0.328 Goal=   None    Shift=    0.000
 RMSDP=1.60D-05 MaxDP=4.07D-04 DE=-4.20D-07 OVMax= 3.62D-05

 Cycle   8  Pass 1  IDiag  1:
 E= -77.6419574755266     Delta-E=       -0.000000005876 Rises=F Damp=F
 DIIS: error= 4.67D-07 at cycle   8 NSaved=   8.
 NSaved= 8 IEnMin= 8 EnMin= -77.6419574755266     IErMin= 8 ErrMin= 4.67D-07
 ErrMax= 4.67D-07  0.00D+00 EMaxC= 1.00D-01 BMatC= 3.83D-11 BMatP= 1.96D-08
 IDIUse=1 WtCom= 1.00D+00 WtEn= 0.00D+00
 Coeff-Com:  0.779D-05-0.129D-04-0.965D-05 0.742D-04 0.725D-03-0.636D-02
 Coeff-Com:  0.389D-01 0.967D+00
 Coeff:      0.779D-05-0.129D-04-0.965D-05 0.742D-04 0.725D-03-0.636D-02
 Coeff:      0.389D-01 0.967D+00
 Gap=     0.328 Goal=   None    Shift=    0.000
 Gap=     0.328 Goal=   None    Shift=    0.000
 RMSDP=1.56D-07 MaxDP=3.35D-06 DE=-5.88D-09 OVMax= 8.08D-07

 Cycle   9  Pass 1  IDiag  1:
 E= -77.6419574755349     Delta-E=       -0.000000000008 Rises=F Damp=F
 DIIS: error= 9.96D-08 at cycle   9 NSaved=   9.
 NSaved= 9 IEnMin= 9 EnMin= -77.6419574755349     IErMin= 9 ErrMin= 9.96D-08
 ErrMax= 9.96D-08  0.00D+00 EMaxC= 1.00D-01 BMatC= 7.60D-13 BMatP= 3.83D-11
 IDIUse=1 WtCom= 1.00D+00 WtEn= 0.00D+00
 Coeff-Com:  0.697D-06-0.119D-05-0.398D-05 0.285D-05 0.206D-03 0.262D-02
 Coeff-Com: -0.181D-01-0.242D-01 0.104D+01
 Coeff:      0.697D-06-0.119D-05-0.398D-05 0.285D-05 0.206D-03 0.262D-02
 Coeff:     -0.181D-01-0.242D-01 0.104D+01
 Gap=     0.328 Goal=   None    Shift=    0.000
 Gap=     0.328 Goal=   None    Shift=    0.000
 RMSDP=3.23D-08 MaxDP=7.38D-07 DE=-8.28D-12 OVMax= 2.34D-07

 Cycle  10  Pass 1  IDiag  1:
 E= -77.6419574755351     Delta-E=       -0.000000000000 Rises=F Damp=F
 DIIS: error= 1.42D-08 at cycle  10 NSaved=  10.
 NSaved=10 IEnMin=10 EnMin= -77.6419574755351     IErMin=10 ErrMin= 1.42D-08
 ErrMax= 1.42D-08  0.00D+00 EMaxC= 1.00D-01 BMatC= 6.36D-15 BMatP= 7.60D-13
 IDIUse=1 WtCom= 1.00D+00 WtEn= 0.00D+00
 Coeff-Com: -0.254D-07 0.524D-07 0.411D-06-0.603D-06-0.244D-04-0.273D-03
 Coeff-Com:  0.178D-02-0.986D-02-0.911D-01 0.110D+01
 Coeff:     -0.254D-07 0.524D-07 0.411D-06-0.603D-06-0.244D-04-0.273D-03
 Coeff:      0.178D-02-0.986D-02-0.911D-01 0.110D+01
 Gap=     0.328 Goal=   None    Shift=    0.000
 Gap=     0.328 Goal=   None    Shift=    0.000
 RMSDP=9.39D-09 MaxDP=2.35D-07 DE=-2.27D-13 OVMax= 3.91D-08

 SCF Done:  E(UM062X) =  -77.6419574755     A.U. after   10 cycles
            NFock= 10  Conv=0.94D-08     -V/T= 1.9471
 <Sx>= 0.0000 <Sy>= 0.0000 <Sz>= 0.0000 <S**2>=-0.0000 S=-0.0000
 <L.S>=  0.00000000000    
 KE= 8.197753608198D+01 PE=-2.706983986294D+02 EE= 6.733020853593D+01
 Annihilation of the first spin contaminant:
 S**2 before annihilation    -0.0000,   after    -0.0000
 Leave Link  502 at Tue Nov 19 11:39:51 2024, MaxMem=   536870912 cpu:              18.1 elap:               2.4
 (Enter /home/szhao/Apps/g16/l601.exe)
 Copying SCF densities to generalized density rwf, IOpCl= 1 IROHF=0.

 **********************************************************************

            Population analysis using the SCF density.

 **********************************************************************

 Orbital symmetries:
 Alpha Orbitals:
       Occupied  (AG) (BU) (AG) (BU) (BU) (AG) (AU) (AG)
       Virtual   (AG) (BU) (BU) (AU) (BG) (AG) (AG) (BU) (BU) (AG)
                 (BG) (BU) (AG) (AG) (BU) (BU) (AU) (AG) (BU) (BU)
                 (AG) (BU) (BG) (AG) (AG) (BG) (AU) (AG) (AU) (BU)
                 (AG) (BU) (AG) (BG) (BG) (BU) (BU) (AU) (AG) (BU)
                 (AG) (AG) (AU) (BU) (AG) (BU) (BG) (BU) (AG) (AU)
                 (BU) (BG) (BU) (AG) (BU) (AG) (AG) (BU) (AG) (BU)
 Beta  Orbitals:
       Occupied  (AG) (BU) (AG) (BU) (BU) (AG) (AU) (AG)
       Virtual   (AG) (BU) (BU) (AU) (BG) (AG) (AG) (BU) (BU) (AG)
                 (BG) (BU) (AG) (AG) (BU) (BU) (AU) (AG) (BU) (BU)
                 (AG) (BU) (BG) (AG) (AG) (BG) (AU) (AG) (AU) (BU)
                 (AG) (BU) (AG) (BG) (BG) (BU) (BU) (AU) (AG) (BU)
                 (AG) (AG) (AU) (BU) (AG) (BU) (BG) (BU) (AG) (AU)
                 (BU) (BG) (BU) (AG) (BU) (AG) (AG) (BU) (AG) (BU)
 The electronic state is 1-AG.
 Alpha  occ. eigenvalues --  -10.52963 -10.45867  -0.94590  -0.62224  -0.60903
 Alpha  occ. eigenvalues --   -0.53476  -0.49642  -0.29736
 Alpha virt. eigenvalues --    0.03043   0.03390   0.04225   0.06002   0.07955
 Alpha virt. eigenvalues --    0.09232   0.09853   0.15659   0.16010   0.18658
 Alpha virt. eigenvalues --    0.24007   0.25328   0.36325   0.41964   0.43391
 Alpha virt. eigenvalues --    0.48271   0.48856   0.51230   0.56562   0.63785
 Alpha virt. eigenvalues --    0.75278   0.76943   0.77632   0.81674   0.91681
 Alpha virt. eigenvalues --    1.01190   1.26642   1.32837   1.34201   1.42484
 Alpha virt. eigenvalues --    1.62462   1.63668   1.67006   1.74784   1.76392
 Alpha virt. eigenvalues --    1.78353   1.89182   2.03332   2.16226   2.18142
 Alpha virt. eigenvalues --    2.27053   2.36154   2.41359   2.54732   2.58650
 Alpha virt. eigenvalues --    2.60294   2.60866   2.61356   2.64270   2.76640
 Alpha virt. eigenvalues --    2.83910   2.99645   3.42334   3.52503   3.58546
 Alpha virt. eigenvalues --    3.84794   4.31439   4.53994  24.88047  25.22559
  Beta  occ. eigenvalues --  -10.52963 -10.45867  -0.94590  -0.62224  -0.60903
  Beta  occ. eigenvalues --   -0.53476  -0.49642  -0.29736
  Beta virt. eigenvalues --    0.03043   0.03390   0.04225   0.06002   0.07955
  Beta virt. eigenvalues --    0.09232   0.09853   0.15659   0.16010   0.18658
  Beta virt. eigenvalues --    0.24007   0.25328   0.36325   0.41964   0.43391
  Beta virt. eigenvalues --    0.48271   0.48856   0.51230   0.56562   0.63785
  Beta virt. eigenvalues --    0.75278   0.76943   0.77632   0.81674   0.91681
  Beta virt. eigenvalues --    1.01190   1.26642   1.32837   1.34201   1.42484
  Beta virt. eigenvalues --    1.62462   1.63668   1.67006   1.74784   1.76392
  Beta virt. eigenvalues --    1.78353   1.89182   2.03332   2.16226   2.18142
  Beta virt. eigenvalues --    2.27053   2.36154   2.41359   2.54732   2.58650
  Beta virt. eigenvalues --    2.60294   2.60866   2.61356   2.64270   2.76640
  Beta virt. eigenvalues --    2.83910   2.99645   3.42334   3.52503   3.58546
  Beta virt. eigenvalues --    3.84794   4.31439   4.53994  24.88047  25.22559
          Condensed to atoms (all electrons):
               1          2          3          4          5          6
     1  C    4.998979   0.509230   0.400035   0.400022  -0.032386  -0.032404
     2  C    0.509230   4.998979  -0.032386  -0.032404   0.400035   0.400022
     3  H    0.400035  -0.032386   0.603737  -0.067774   0.021688  -0.047049
     4  H    0.400022  -0.032404  -0.067774   0.603784  -0.047049   0.021692
     5  H   -0.032386   0.400035   0.021688  -0.047049   0.603737  -0.067774
     6  H   -0.032404   0.400022  -0.047049   0.021692  -0.067774   0.603784
          Atomic-Atomic Spin Densities.
               1          2          3          4          5          6
     1  C    0.000000  -0.000000  -0.000000   0.000000   0.000000  -0.000000
     2  C   -0.000000   0.000000   0.000000  -0.000000  -0.000000   0.000000
     3  H   -0.000000   0.000000   0.000000   0.000000  -0.000000  -0.000000
     4  H    0.000000  -0.000000   0.000000   0.000000  -0.000000  -0.000000
     5  H    0.000000  -0.000000  -0.000000  -0.000000   0.000000   0.000000
     6  H   -0.000000   0.000000  -0.000000  -0.000000   0.000000   0.000000
 Mulliken charges and spin densities:
               1          2
     1  C   -0.243476  -0.000000
     2  C   -0.243476  -0.000000
     3  H    0.121748   0.000000
     4  H    0.121728   0.000000
     5  H    0.121748   0.000000
     6  H    0.121728   0.000000
 Sum of Mulliken charges =  -0.00000   0.00000
 Mulliken charges and spin densities with hydrogens summed into heavy atoms:
               1          2
     1  C   -0.000000   0.000000
     2  C   -0.000000   0.000000
 Electronic spatial extent (au):  <R**2>=             63.8578
 Charge=              0.0000 electrons
 Dipole moment (field-independent basis, Debye):
    X=              0.0000    Y=             -0.0000    Z=              0.0000  Tot=              0.0000
 Quadrupole moment (field-independent basis, Debye-Ang):
   XX=            -12.5336   YY=            -12.6582   ZZ=            -13.3921
   XY=             -0.0003   XZ=              0.0000   YZ=              0.0000
 Traceless Quadrupole moment (field-independent basis, Debye-Ang):
   XX=              0.3277   YY=              0.2031   ZZ=             -0.5308
   XY=             -0.0003   XZ=              0.0000   YZ=              0.0000
 Octapole moment (field-independent basis, Debye-Ang**2):
  XXX=              0.0000  YYY=             -0.0000  ZZZ=              0.0000  XYY=              0.0000
  XXY=              0.0000  XXZ=              0.0000  XZZ=              0.0000  YZZ=             -0.0000
  YYZ=              0.0000  XYZ=              0.0000
 Hexadecapole moment (field-independent basis, Debye-Ang**3):
 XXXX=            -28.3099 YYYY=            -49.8492 ZZZZ=            -12.9148 XXXY=             -0.0013
 XXXZ=              0.0000 YYYX=             -0.0017 YYYZ=              0.0000 ZZZX=              0.0000
 ZZZY=              0.0000 XXYY=            -12.9543 XXZZ=             -7.2698 YYZZ=            -10.9094
 XXYZ=              0.0000 YYXZ=              0.0000 ZZXY=             -0.0004
 N-N= 4.374869653597D+01 E-N=-2.706983988037D+02  KE= 8.197753608198D+01
 Symmetry AG   KE= 4.222217555924D+01
 Symmetry BG   KE= 1.922289526804D-30
 Symmetry AU   KE= 2.838127019902D+00
 Symmetry BU   KE= 3.691723350284D+01
 Symmetry AG   SP= 7.167870666222D-16
 Symmetry BG   SP=-7.846193140116D-48
 Symmetry AU   SP= 1.375989861647D-15
 Symmetry BU   SP= 1.375323917052D-15
                          Isotropic Fermi Contact Couplings
        Atom                 a.u.       MegaHertz       Gauss      10(-4) cm-1
     1  C(13)              0.00000       0.00000       0.00000       0.00000
     2  C(13)              0.00000       0.00000       0.00000       0.00000
     3  H(1)               0.00000       0.00000       0.00000       0.00000
     4  H(1)               0.00000       0.00000       0.00000       0.00000
     5  H(1)               0.00000       0.00000       0.00000       0.00000
     6  H(1)               0.00000       0.00000       0.00000       0.00000
 --------------------------------------------------------
       Center         ----  Spin Dipole Couplings  ----
                      3XX-RR        3YY-RR        3ZZ-RR
 --------------------------------------------------------
     1   Atom        0.000000     -0.000000      0.000000
     2   Atom        0.000000     -0.000000      0.000000
     3   Atom       -0.000000      0.000000     -0.000000
     4   Atom       -0.000000      0.000000     -0.000000
     5   Atom       -0.000000      0.000000     -0.000000
     6   Atom       -0.000000      0.000000     -0.000000
 --------------------------------------------------------
                        XY            XZ            YZ
 --------------------------------------------------------
     1   Atom        0.000000      0.000000      0.000000
     2   Atom        0.000000      0.000000      0.000000
     3   Atom       -0.000000      0.000000      0.000000
     4   Atom        0.000000      0.000000      0.000000
     5   Atom       -0.000000      0.000000      0.000000
     6   Atom        0.000000      0.000000      0.000000
 --------------------------------------------------------


 ---------------------------------------------------------------------------------
              Anisotropic Spin Dipole Couplings in Principal Axis System
 ---------------------------------------------------------------------------------

       Atom             a.u.   MegaHertz   Gauss  10(-4) cm-1        Axes

              Baa    -0.0000    -0.000    -0.000    -0.000 -0.3767  0.9263  0.0000
     1 C(13)  Bbb     0.0000     0.000     0.000     0.000  0.0000  0.0000  1.0000
              Bcc     0.0000     0.000     0.000     0.000  0.9263  0.3767  0.0000
 
              Baa    -0.0000    -0.000    -0.000    -0.000 -0.3767  0.9263  0.0000
     2 C(13)  Bbb     0.0000     0.000     0.000     0.000  0.0000  0.0000  1.0000
              Bcc     0.0000     0.000     0.000     0.000  0.9263  0.3767  0.0000
 
              Baa    -0.0000    -0.000    -0.000    -0.000  0.9835  0.1809  0.0000
     3 H(1)   Bbb    -0.0000    -0.000    -0.000    -0.000  0.0000  0.0000  1.0000
              Bcc     0.0000     0.000     0.000     0.000 -0.1809  0.9835  0.0000
 
              Baa    -0.0000    -0.000    -0.000    -0.000  0.9293 -0.3694 -0.0000
     4 H(1)   Bbb    -0.0000    -0.000    -0.000    -0.000  0.0000  0.0000  1.0000
              Bcc     0.0000     0.000     0.000     0.000  0.3694  0.9293  0.0000
 
              Baa    -0.0000    -0.000    -0.000    -0.000  0.9835  0.1809  0.0000
     5 H(1)   Bbb    -0.0000    -0.000    -0.000    -0.000  0.0000  0.0000  1.0000
              Bcc     0.0000     0.000     0.000     0.000 -0.1809  0.9835  0.0000
 
              Baa    -0.0000    -0.000    -0.000    -0.000  0.9293 -0.3694 -0.0000
     6 H(1)   Bbb    -0.0000    -0.000    -0.000    -0.000  0.0000  0.0000  1.0000
              Bcc     0.0000     0.000     0.000     0.000  0.3694  0.9293  0.0000
 

 ---------------------------------------------------------------------------------

 No NMR shielding tensors so no spin-rotation constants.
 Leave Link  601 at Tue Nov 19 11:39:52 2024, MaxMem=   536870912 cpu:               1.5 elap:               0.2
 (Enter /home/szhao/Apps/g16/l701.exe)
 ... and contract with generalized density number  0.
 Compute integral first derivatives.
 Leave Link  701 at Tue Nov 19 11:39:52 2024, MaxMem=   536870912 cpu:               1.7 elap:               0.3
 (Enter /home/szhao/Apps/g16/l702.exe)
 L702 exits ... SP integral derivatives will be done elsewhere.
 Leave Link  702 at Tue Nov 19 11:39:52 2024, MaxMem=   536870912 cpu:               0.4 elap:               0.1
 (Enter /home/szhao/Apps/g16/l703.exe)
 Integral derivatives from FoFJK, PRISM(SPDF).
 Compute integral first derivatives, UseDBF=F ICtDFT=           0.
 Calling FoFJK, ICntrl=      2127 FMM=F ISym2X=1 I1Cent= 0 IOpClX= 1 NMat=1 NMatS=1 NMatT=0.
 FoFJK:  IHMeth= 1 ICntrl=    2127 DoSepK=F KAlg= 0 I1Cent=           0 FoldK=F
 IRaf=         0 NMat=       1 IRICut=       1 DoRegI=T DoRafI=F ISym2E= 1 IDoP0=0 IntGTp=1.
 FoFCou: FMM=F IPFlag=           0 FMFlag=      100000 FMFlg1=         800
         NFxFlg=           0 DoJE=F BraDBF=F KetDBF=F FulRan=T
         wScrn=  0.000000 ICntrl=      2127 IOpCl=  1 I1Cent=           0 NGrid=           0
         NMat0=    1 NMatS0=      1 NMatT0=    0 NMatD0=    1 NMtDS0=    0 NMtDT0=    0
 Petite list used in FoFCou.
 Leave Link  703 at Tue Nov 19 11:39:53 2024, MaxMem=   536870912 cpu:               3.8 elap:               0.5
 (Enter /home/szhao/Apps/g16/l716.exe)
 Dipole        = 2.22044605D-16 0.00000000D+00 0.00000000D+00
 ***** Axes restored to original set *****
 -------------------------------------------------------------------
 Center     Atomic                   Forces (Hartrees/Bohr)
 Number     Number              X              Y              Z
 -------------------------------------------------------------------
      1        6          -3.114839337    0.000029458   -0.000000000
      2        6           3.114839337   -0.000029458   -0.000000000
      3        1           0.000069018    0.000122446   -0.000000000
      4        1           0.000081882   -0.000143003   -0.000000000
      5        1          -0.000069018   -0.000122446   -0.000000000
      6        1          -0.000081882    0.000143003   -0.000000000
 -------------------------------------------------------------------
 Cartesian Forces:  Max     3.114839337 RMS     1.038279781
 Z-matrix is all fixed cartesians, so copy forces.
 Force constants in Cartesian coordinates: 
                1             2             3             4             5 
      1  0.177344D+02
      2  0.284418D-04  0.815747D+00
      3  0.000000D+00  0.000000D+00  0.789073D+00
      4 -0.173400D+02  0.000000D+00  0.000000D+00  0.177344D+02
      5  0.000000D+00 -0.401538D+00  0.000000D+00  0.284418D-04  0.815747D+00
      6  0.000000D+00  0.000000D+00 -0.596148D+00  0.000000D+00  0.000000D+00
      7 -0.197245D+00 -0.103601D+00  0.000000D+00  0.000000D+00 -0.383559D-01
      8 -0.106263D+00 -0.238992D+00  0.000000D+00  0.000000D+00  0.318789D-01
      9  0.000000D+00  0.000000D+00 -0.177266D+00  0.000000D+00  0.000000D+00
     10 -0.197192D+00  0.103572D+00  0.000000D+00  0.000000D+00  0.383568D-01
     11  0.106235D+00 -0.238970D+00  0.000000D+00  0.000000D+00  0.318736D-01
     12  0.000000D+00  0.000000D+00 -0.177236D+00  0.000000D+00  0.000000D+00
     13  0.000000D+00 -0.383559D-01  0.000000D+00 -0.197245D+00 -0.103601D+00
     14  0.000000D+00  0.318789D-01  0.000000D+00 -0.106263D+00 -0.238992D+00
     15  0.000000D+00  0.000000D+00  0.807880D-01  0.000000D+00  0.000000D+00
     16  0.000000D+00  0.383568D-01  0.000000D+00 -0.197192D+00  0.103572D+00
     17  0.000000D+00  0.318736D-01  0.000000D+00  0.106235D+00 -0.238970D+00
     18  0.000000D+00  0.000000D+00  0.807884D-01  0.000000D+00  0.000000D+00
                6             7             8             9            10 
      6  0.789073D+00
      7  0.000000D+00  0.175770D+00
      8  0.000000D+00  0.124111D+00  0.221945D+00
      9  0.807880D-01  0.000000D+00  0.000000D+00  0.862620D-01
     10  0.000000D+00  0.214749D-01 -0.178485D-01  0.000000D+00  0.175717D+00
     11  0.000000D+00  0.178451D-01 -0.148317D-01  0.000000D+00 -0.124080D+00
     12  0.807884D-01  0.000000D+00  0.000000D+00  0.102112D-01  0.000000D+00
     13  0.000000D+00  0.000000D+00  0.000000D+00  0.000000D+00  0.000000D+00
     14  0.000000D+00  0.000000D+00  0.000000D+00  0.000000D+00  0.000000D+00
     15 -0.177266D+00  0.000000D+00  0.000000D+00  0.380251D-01  0.000000D+00
     16  0.000000D+00  0.000000D+00  0.000000D+00  0.000000D+00  0.000000D+00
     17  0.000000D+00  0.000000D+00  0.000000D+00  0.000000D+00  0.000000D+00
     18 -0.177236D+00  0.000000D+00  0.000000D+00 -0.380202D-01  0.000000D+00
               11            12            13            14            15 
     11  0.221928D+00
     12  0.000000D+00  0.862412D-01
     13  0.000000D+00  0.000000D+00  0.175770D+00
     14  0.000000D+00  0.000000D+00  0.124111D+00  0.221945D+00
     15  0.000000D+00 -0.380202D-01  0.000000D+00  0.000000D+00  0.862620D-01
     16  0.000000D+00  0.000000D+00  0.214749D-01 -0.178485D-01  0.000000D+00
     17  0.000000D+00  0.000000D+00  0.178451D-01 -0.148317D-01  0.000000D+00
     18  0.000000D+00  0.380152D-01  0.000000D+00  0.000000D+00  0.102112D-01
               16            17            18 
     16  0.175717D+00
     17 -0.124080D+00  0.221928D+00
     18  0.000000D+00  0.000000D+00  0.862412D-01
 Leave Link  716 at Tue Nov 19 11:39:53 2024, MaxMem=   536870912 cpu:               0.3 elap:               0.1
 (Enter /home/szhao/Apps/g16/l103.exe)

 GradGradGradGradGradGradGradGradGradGradGradGradGradGradGradGradGradGrad
 Berny optimization.
 Search for a local minimum.
 Step number   1 out of a maximum of    2
 All quantities printed in internal units (Hartrees-Bohrs-Radians)
 Second derivative matrix not updated -- first step.
 The second derivative matrix:
                          X1        Y1        Z1        X2        Y2
           X1          17.73444
           Y1           0.00003   0.81575
           Z1           0.00000   0.00000   0.78907
           X2         -17.34000  -0.00000   0.00000  17.73444
           Y2          -0.00000  -0.40154   0.00000   0.00003   0.81575
           Z2           0.00000   0.00000  -0.59615   0.00000   0.00000
           X3          -0.19724  -0.10360   0.00000   0.00000  -0.03836
           Y3          -0.10626  -0.23899   0.00000  -0.00000   0.03188
           Z3           0.00000   0.00000  -0.17727   0.00000   0.00000
           X4          -0.19719   0.10357   0.00000  -0.00000   0.03836
           Y4           0.10624  -0.23897   0.00000  -0.00000   0.03187
           Z4           0.00000   0.00000  -0.17724   0.00000   0.00000
           X5           0.00000  -0.03836   0.00000  -0.19724  -0.10360
           Y5          -0.00000   0.03188   0.00000  -0.10626  -0.23899
           Z5           0.00000   0.00000   0.08079   0.00000   0.00000
           X6          -0.00000   0.03836   0.00000  -0.19719   0.10357
           Y6          -0.00000   0.03187   0.00000   0.10624  -0.23897
           Z6           0.00000   0.00000   0.08079   0.00000   0.00000
                          Z2        X3        Y3        Z3        X4
           Z2           0.78907
           X3           0.00000   0.17577
           Y3           0.00000   0.12411   0.22194
           Z3           0.08079   0.00000   0.00000   0.08626
           X4           0.00000   0.02147  -0.01785   0.00000   0.17572
           Y4           0.00000   0.01785  -0.01483   0.00000  -0.12408
           Z4           0.08079   0.00000   0.00000   0.01021   0.00000
           X5           0.00000   0.00000   0.00000   0.00000   0.00000
           Y5           0.00000   0.00000   0.00000   0.00000   0.00000
           Z5          -0.17727   0.00000   0.00000   0.03803   0.00000
           X6           0.00000   0.00000   0.00000   0.00000   0.00000
           Y6           0.00000   0.00000   0.00000   0.00000   0.00000
           Z6          -0.17724   0.00000   0.00000  -0.03802   0.00000
                          Y4        Z4        X5        Y5        Z5
           Y4           0.22193
           Z4           0.00000   0.08624
           X5           0.00000   0.00000   0.17577
           Y5           0.00000   0.00000   0.12411   0.22194
           Z5           0.00000  -0.03802   0.00000   0.00000   0.08626
           X6           0.00000   0.00000   0.02147  -0.01785   0.00000
           Y6           0.00000   0.00000   0.01785  -0.01483   0.00000
           Z6           0.00000   0.03802   0.00000   0.00000   0.01021
                          X6        Y6        Z6
           X6           0.17572
           Y6          -0.12408   0.22193
           Z6           0.00000   0.00000   0.08624
 ITU=  0
     Eigenvalues ---    0.04713   0.10851   0.15208   0.15331   0.21657
     Eigenvalues ---    0.23872   0.32259   0.57152   0.61967   1.27717
     Eigenvalues ---    1.34913  35.07732
 Angle between quadratic step and forces=  54.71 degrees.
 ClnCor:  largest displacement from symmetrization is 2.75D-14 for atom     5.
 Linear search not attempted -- first point.
 ClnCor:  largest displacement from symmetrization is 2.22D-16 for atom     6.
 B after Tr=     0.000000   -0.000000    0.000000
         Rot=    1.000000    0.000000    0.000000    0.000001 Ang=   0.00 deg.
 Variable       Old X    -DE/DX   Delta X   Delta X   Delta X     New X
                                 (Linear)    (Quad)   (Total)
    X1       -0.76411  -3.11484   0.00000  -0.08981  -0.08981  -0.85393
    Y1       -0.00000   0.00003   0.00000   0.00001   0.00002   0.00002
    Z1        0.00000  -0.00000   0.00000   0.00000   0.00000   0.00000
    X2        0.76411   3.11484   0.00000   0.08981   0.08981   0.85393
    Y2       -0.00000  -0.00003   0.00000  -0.00001  -0.00002  -0.00002
    Z2        0.00000  -0.00000   0.00000   0.00000   0.00000   0.00000
    X3       -2.10590   0.00007   0.00000  -0.08973  -0.08973  -2.19563
    Y3       -1.61440   0.00012   0.00000   0.00050   0.00050  -1.61390
    Z3        0.00000  -0.00000   0.00000   0.00000   0.00000   0.00000
    X4       -2.10582   0.00008   0.00000  -0.08969  -0.08968  -2.19550
    Y4        1.61461  -0.00014   0.00000  -0.00053  -0.00053   1.61408
    Z4        0.00000  -0.00000   0.00000   0.00000   0.00000   0.00000
    X5        2.10590  -0.00007   0.00000   0.08973   0.08973   2.19563
    Y5        1.61440  -0.00012   0.00000  -0.00050  -0.00050   1.61390
    Z5        0.00000  -0.00000   0.00000   0.00000   0.00000   0.00000
    X6        2.10582  -0.00008   0.00000   0.08969   0.08968   2.19550
    Y6       -1.61461   0.00014   0.00000   0.00053   0.00053  -1.61408
    Z6        0.00000  -0.00000   0.00000   0.00000   0.00000   0.00000
         Item               Value     Threshold  Converged?
 Maximum Force            3.114839     0.000450     NO 
 RMS     Force            1.038280     0.000300     NO 
 Maximum Displacement     0.089812     0.001800     NO 
 RMS     Displacement     0.051813     0.001200     NO 
 Predicted change in Energy=-2.797373D-01
 GradGradGradGradGradGradGradGradGradGradGradGradGradGradGradGradGradGrad

 Leave Link  103 at Tue Nov 19 11:39:53 2024, MaxMem=   536870912 cpu:               0.8 elap:               0.1
 (Enter /home/szhao/Apps/g16/l9999.exe)
 1\1\GINC-NODE02\Force\UM062X\6-311+G(d,p)\C2H4\SZHAO\19-Nov-2024\0\\#p
  UM062X/6-311+G** force int=superfine\\Title Card Required\\0,1\C,-0.4
 04352,0.,0.\C,0.404352,0.,0.\H,-1.114394,-0.854305,0.\H,-1.114352,0.85
 4416,0.\H,1.114394,0.854305,0.\H,1.114352,-0.854416,0.\\Version=ES64L-
 G16RevA.03\State=1-AG\HF=-77.6419575\S2=0.\S2-1=0.\S2A=0.\RMSD=9.388e-
 09\RMSF=1.038e+00\Dipole=0.,0.,0.\Quadrupole=0.1510238,0.2436272,-0.39
 46509,0.0002298,0.,0.\PG=C02H [SGH(C2H4)]\\@


 KNOWING HOW CONTENTED, FREE, AND JOYFUL IS LIFE IN
 THE REALMS OF SCIENCE, ONE FERVENTLY WISHES THAT
 MANY WOULD ENTER HER PORTALS.
   --  DMITRI IVANOVICH MENDELEEV
 "FIRST PRINCIPLES OF CHEMISTRY", LONGMANS, GREEN,
 AND CO.  LONDON, 1891
 Job cpu time:       0 days  0 hours  0 minutes 37.1 seconds.
 Elapsed time:       0 days  0 hours  0 minutes  5.4 seconds.
 File lengths (MBytes):  RWF=     22 Int=      0 D2E=      0 Chk=      2 Scr=      2
 Normal termination of Gaussian 16 at Tue Nov 19 11:39:53 2024.
