Title Card Required                                                     
Force     UM062X                                                      6-311+G(d,p)        
Number of atoms                            I                6
Info1-9                                    I   N=           9
          15          15           0           0           0         100
           5          18        -502
Full Title                                 C   N=           2
Title Card Required     
Route                                      C   N=           4
#p UM062X/6-311+G** force int=superfine         
Charge                                     I                0
Multiplicity                               I                1
Number of electrons                        I               16
Number of alpha electrons                  I                8
Number of beta electrons                   I                8
Number of basis functions                  I               68
Number of independent functions            I               68
Number of point charges in /Mol/           I                0
Number of translation vectors              I                0
Atomic numbers                             I   N=           6
           6           6           1           1           1           1
Nuclear charges                            R   N=           6
  6.00000000E+00  6.00000000E+00  1.00000000E+00  1.00000000E+00  1.00000000E+00
  1.00000000E+00
Current cartesian coordinates              R   N=          18
 -1.92125263E-22  1.31527962E+00  0.00000000E+00 -1.61074977E-16 -1.31527962E+00
  0.00000000E+00  1.75583147E+00  2.36631883E+00  0.00000000E+00 -1.75575399E+00
  2.36641899E+00  0.00000000E+00 -1.75583147E+00 -2.36631883E+00  0.00000000E+00
  1.75575399E+00 -2.36641899E+00  0.00000000E+00
Number of symbols in /Mol/                 I                0
Force Field                                I                0
Atom Types                                 C   N=           6
                                                            
            
Int Atom Types                             I   N=           6
           0           0           0           0           0           0
MM charges                                 R   N=           6
  0.00000000E+00  0.00000000E+00  0.00000000E+00  0.00000000E+00  0.00000000E+00
  0.00000000E+00
Integer atomic weights                     I   N=           6
          12          12           1           1           1           1
Real atomic weights                        R   N=           6
  1.20000000E+01  1.20000000E+01  1.00782504E+00  1.00782504E+00  1.00782504E+00
  1.00782504E+00
Atom fragment info                         I   N=           6
           0           0           0           0           0           0
Atom residue num                           I   N=           6
           0           0           0           0           0           0
Nuclear spins                              I   N=           6
           0           0           1           1           1           1
Nuclear ZEff                               R   N=           6
 -3.60000000E+00 -3.60000000E+00 -1.00000000E+00 -1.00000000E+00 -1.00000000E+00
 -1.00000000E+00
Nuclear ZNuc                               R   N=           6
  6.00000000E+00  6.00000000E+00  1.00000000E+00  1.00000000E+00  1.00000000E+00
  1.00000000E+00
Nuclear QMom                               R   N=           6
  0.00000000E+00  0.00000000E+00  0.00000000E+00  0.00000000E+00  0.00000000E+00
  0.00000000E+00
Nuclear GFac                               R   N=           6
  0.00000000E+00  0.00000000E+00  2.79284600E+00  2.79284600E+00  2.79284600E+00
  2.79284600E+00
MicOpt                                     I   N=           6
          -1          -1          -1          -1          -1          -1
Number of residues                         I                0
Number of secondary structures             I                0
SymInf integers                            I   N=          26
           2           4           1           1           1          -1
          -1           1           1           1          -1          -1
          -1          -1           0           0           0           0
           0           0           0           0           0           0
           0           0
RotTr to input orientation                 R   N=          12
  6.29027027E-17 -1.00000000E+00 -5.95186128E-23 -1.00000000E+00 -6.29026540E-17
 -1.22464680E-16  1.22464680E-16  5.95186128E-23 -1.00000000E+00 -2.77555756E-17
  0.00000000E+00  0.00000000E+00
Number of contracted shells                I               28
Number of primitive shells                 I               50
Pure/Cartesian d shells                    I                0
Pure/Cartesian f shells                    I                0
Highest angular momentum                   I                2
Largest degree of contraction              I                6
Shell types                                I   N=          28
           0          -1          -1          -1          -1          -2
           0          -1          -1          -1          -1          -2
           0           0           0           1           0           0
           0           1           0           0           0           1
           0           0           0           1
Number of primitives per shell             I   N=          28
           6           3           1           1           1           1
           6           3           1           1           1           1
           3           1           1           1           3           1
           1           1           3           1           1           1
           3           1           1           1
Shell to atom map                          I   N=          28
           1           1           1           1           1           1
           2           2           2           2           2           2
           3           3           3           3           4           4
           4           4           5           5           5           5
           6           6           6           6
Primitive exponents                        R   N=          50
  4.56324000E+03  6.82024000E+02  1.54973000E+02  4.44553000E+01  1.30290000E+01
  1.82773000E+00  2.09642000E+01  4.80331000E+00  1.45933000E+00  4.83456000E-01
  1.45585000E-01  4.38000000E-02  6.26000000E-01  4.56324000E+03  6.82024000E+02
  1.54973000E+02  4.44553000E+01  1.30290000E+01  1.82773000E+00  2.09642000E+01
  4.80331000E+00  1.45933000E+00  4.83456000E-01  1.45585000E-01  4.38000000E-02
  6.26000000E-01  3.38650000E+01  5.09479000E+00  1.15879000E+00  3.25840000E-01
  1.02741000E-01  7.50000000E-01  3.38650000E+01  5.09479000E+00  1.15879000E+00
  3.25840000E-01  1.02741000E-01  7.50000000E-01  3.38650000E+01  5.09479000E+00
  1.15879000E+00  3.25840000E-01  1.02741000E-01  7.50000000E-01  3.38650000E+01
  5.09479000E+00  1.15879000E+00  3.25840000E-01  1.02741000E-01  7.50000000E-01
Contraction coefficients                   R   N=          50
  1.96665025E-03  1.52306019E-02  7.61269097E-02  2.60801033E-01  6.16462078E-01
  2.21006028E-01  1.14660081E-01  9.19999648E-01 -3.03068213E-03  1.00000000E+00
  1.00000000E+00  1.00000000E+00  1.00000000E+00  1.96665025E-03  1.52306019E-02
  7.61269097E-02  2.60801033E-01  6.16462078E-01  2.21006028E-01  1.14660081E-01
  9.19999648E-01 -3.03068213E-03  1.00000000E+00  1.00000000E+00  1.00000000E+00
  1.00000000E+00  2.54938145E-02  1.90373109E-01  8.52161486E-01  1.00000000E+00
  1.00000000E+00  1.00000000E+00  2.54938145E-02  1.90373109E-01  8.52161486E-01
  1.00000000E+00  1.00000000E+00  1.00000000E+00  2.54938145E-02  1.90373109E-01
  8.52161486E-01  1.00000000E+00  1.00000000E+00  1.00000000E+00  2.54938145E-02
  1.90373109E-01  8.52161486E-01  1.00000000E+00  1.00000000E+00  1.00000000E+00
P(S=P) Contraction coefficients            R   N=          50
  0.00000000E+00  0.00000000E+00  0.00000000E+00  0.00000000E+00  0.00000000E+00
  0.00000000E+00  4.02486927E-02  2.37593957E-01  8.15853851E-01  1.00000000E+00
  1.00000000E+00  1.00000000E+00  0.00000000E+00  0.00000000E+00  0.00000000E+00
  0.00000000E+00  0.00000000E+00  0.00000000E+00  0.00000000E+00  4.02486927E-02
  2.37593957E-01  8.15853851E-01  1.00000000E+00  1.00000000E+00  1.00000000E+00
  0.00000000E+00  0.00000000E+00  0.00000000E+00  0.00000000E+00  0.00000000E+00
  0.00000000E+00  0.00000000E+00  0.00000000E+00  0.00000000E+00  0.00000000E+00
  0.00000000E+00  0.00000000E+00  0.00000000E+00  0.00000000E+00  0.00000000E+00
  0.00000000E+00  0.00000000E+00  0.00000000E+00  0.00000000E+00  0.00000000E+00
  0.00000000E+00  0.00000000E+00  0.00000000E+00  0.00000000E+00  0.00000000E+00
Coordinates of each shell                  R   N=          84
 -1.28083508E-22  1.31527962E+00  0.00000000E+00 -1.28083508E-22  1.31527962E+00
  0.00000000E+00 -1.28083508E-22  1.31527962E+00  0.00000000E+00 -1.28083508E-22
  1.31527962E+00  0.00000000E+00 -1.28083508E-22  1.31527962E+00  0.00000000E+00
 -1.28083508E-22  1.31527962E+00  0.00000000E+00 -1.61075041E-16 -1.31527962E+00
 -1.50561441E-60 -1.61075041E-16 -1.31527962E+00 -1.50561441E-60 -1.61075041E-16
 -1.31527962E+00 -1.50561441E-60 -1.61075041E-16 -1.31527962E+00 -1.50561441E-60
 -1.61075041E-16 -1.31527962E+00 -1.50561441E-60 -1.61075041E-16 -1.31527962E+00
 -1.50561441E-60  1.75583147E+00  2.36631883E+00  2.06396997E-38  1.75583147E+00
  2.36631883E+00  2.06396997E-38  1.75583147E+00  2.36631883E+00  2.06396997E-38
  1.75583147E+00  2.36631883E+00  2.06396997E-38 -1.75575399E+00  2.36641899E+00
 -2.06387890E-38 -1.75575399E+00  2.36641899E+00 -2.06387890E-38 -1.75575399E+00
  2.36641899E+00 -2.06387890E-38 -1.75575399E+00  2.36641899E+00 -2.06387890E-38
 -1.75583147E+00 -2.36631883E+00  4.12793995E-38 -1.75583147E+00 -2.36631883E+00
  4.12793995E-38 -1.75583147E+00 -2.36631883E+00  4.12793995E-38 -1.75583147E+00
 -2.36631883E+00  4.12793995E-38  1.75575399E+00 -2.36641899E+00 -4.12775780E-38
  1.75575399E+00 -2.36641899E+00 -4.12775780E-38  1.75575399E+00 -2.36641899E+00
 -4.12775780E-38  1.75575399E+00 -2.36641899E+00 -4.12775780E-38
Num ILSW                                   I              100
ILSW                                       I   N=         100
           1           0           0           0           2           0
           0           0           0           0        4336          -1
           7           0           0           0           2           0
           0           0           0           0           1           0
           1           0           0           0           0           0
           0           0      100000           0          -1           0
           0           0           0           0           0           0
           0           0           0           1           0           0
           0 -2000000000           1           0           0           0
           0           0           4          52           0           0
           0           0          55           0           0           0
           0           0           0           6           0           1
           0           0           0           0           0           0
           0           0           0           0           0           0
           0           0           0           0           0           0
           0           0           0           0           0           0
           0           0           0           0
Num RLSW                                   I               52
RLSW                                       R   N=          52
  1.00000000E+00  1.00000000E+00  1.00000000E+00  1.00000000E+00  5.40000000E-01
  0.00000000E+00  0.00000000E+00  1.00000000E+00  0.00000000E+00  0.00000000E+00
  0.00000000E+00  0.00000000E+00  1.00000000E+00  0.00000000E+00  0.00000000E+00
  0.00000000E+00  0.00000000E+00  1.00000000E+00  0.00000000E+00  0.00000000E+00
  0.00000000E+00  0.00000000E+00  1.00000000E+00  0.00000000E+00  0.00000000E+00
  0.00000000E+00  0.00000000E+00  1.00000000E+00  0.00000000E+00  0.00000000E+00
  0.00000000E+00  0.00000000E+00  1.00000000E+00  0.00000000E+00  0.00000000E+00
  0.00000000E+00  0.00000000E+00  0.00000000E+00  1.00000000E+00  1.00000000E+00
  0.00000000E+00  1.00000000E+00  0.00000000E+00  0.00000000E+00  0.00000000E+00
  0.00000000E+00  0.00000000E+00  0.00000000E+00  0.00000000E+00  0.00000000E+00
  0.00000000E+00  0.00000000E+00
MxBond                                     I                3
NBond                                      I   N=           6
           3           3           1           1           1           1
IBond                                      I   N=          18
           2           3           4           1           5           6
           1           0           0           1           0           0
           2           0           0           2           0           0
RBond                                      R   N=          18
  1.50000000E+00  1.00000000E+00  1.00000000E+00  1.50000000E+00  1.00000000E+00
  1.00000000E+00  1.00000000E+00  0.00000000E+00  0.00000000E+00  1.00000000E+00
  0.00000000E+00  0.00000000E+00  1.00000000E+00  0.00000000E+00  0.00000000E+00
  1.00000000E+00  0.00000000E+00  0.00000000E+00
Virial Ratio                               R      2.006723713925951E+00
SCF Energy                                 R     -7.855909563945991E+01
Total Energy                               R     -7.855909563945991E+01
S**2                                       R     -3.730349362740526E-14
S**2 after annihilation                    R      2.575717417130311E-13
RMS Force                                  R      2.240671074143075E-02
RMS Density                                R      5.061021505486145E-09
Job Status                                 I                1
Nuclear derivative order                   I                1
External E-field                           R   N=          35
  0.00000000E+00  0.00000000E+00  0.00000000E+00  0.00000000E+00  0.00000000E+00
  0.00000000E+00  0.00000000E+00  0.00000000E+00  0.00000000E+00  0.00000000E+00
  0.00000000E+00  0.00000000E+00  0.00000000E+00  0.00000000E+00  0.00000000E+00
  0.00000000E+00  0.00000000E+00  0.00000000E+00  0.00000000E+00  0.00000000E+00
  0.00000000E+00  0.00000000E+00  0.00000000E+00  0.00000000E+00  0.00000000E+00
  0.00000000E+00  0.00000000E+00  0.00000000E+00  0.00000000E+00  0.00000000E+00
  0.00000000E+00  0.00000000E+00  0.00000000E+00  0.00000000E+00  0.00000000E+00
IOpCl                                      I                1
IROHF                                      I                0
Alpha Orbital Energies                     R   N=          68
 -1.05488317E+01 -1.05480235E+01 -8.47193853E-01 -6.69115537E-01 -5.39634345E-01
 -4.76638951E-01 -4.29112843E-01 -3.24535830E-01  1.68102264E-02  3.39651845E-02
  4.01654203E-02  5.18803168E-02  7.88440979E-02  8.09264924E-02  9.71854210E-02
  1.29892861E-01  1.60091143E-01  1.72344427E-01  2.02334711E-01  2.27439081E-01
  3.09272270E-01  3.42120373E-01  4.34167768E-01  4.45414753E-01  5.46263716E-01
  5.57733190E-01  5.85221402E-01  6.37592377E-01  6.64657068E-01  7.34953951E-01
  7.40183470E-01  7.53762851E-01  7.94738315E-01  8.86005122E-01  1.05635304E+00
  1.13476301E+00  1.16092892E+00  1.43204109E+00  1.45742152E+00  1.46684877E+00
  1.60614990E+00  1.61523397E+00  1.63166406E+00  1.64716695E+00  1.78876128E+00
  1.84415846E+00  1.98552447E+00  2.04827145E+00  2.09152131E+00  2.15918951E+00
  2.16840202E+00  2.22373089E+00  2.41777303E+00  2.45642776E+00  2.56123382E+00
  2.58205353E+00  2.66293194E+00  2.69530331E+00  2.78148463E+00  2.82655827E+00
  2.93526818E+00  3.11348583E+00  3.36649818E+00  3.70880478E+00  3.85885171E+00
  4.18346738E+00  2.38604054E+01  2.41464261E+01
Beta Orbital Energies                      R   N=          68
 -1.05488317E+01 -1.05480235E+01 -8.47193853E-01 -6.69115537E-01 -5.39634345E-01
 -4.76638951E-01 -4.29112843E-01 -3.24535830E-01  1.68102264E-02  3.39651845E-02
  4.01654203E-02  5.18803168E-02  7.88440979E-02  8.09264924E-02  9.71854210E-02
  1.29892861E-01  1.60091143E-01  1.72344427E-01  2.02334711E-01  2.27439081E-01
  3.09272270E-01  3.42120373E-01  4.34167768E-01  4.45414753E-01  5.46263716E-01
  5.57733190E-01  5.85221402E-01  6.37592377E-01  6.64657068E-01  7.34953951E-01
  7.40183470E-01  7.53762851E-01  7.94738315E-01  8.86005122E-01  1.05635304E+00
  1.13476301E+00  1.16092892E+00  1.43204109E+00  1.45742152E+00  1.46684877E+00
  1.60614990E+00  1.61523397E+00  1.63166406E+00  1.64716695E+00  1.78876128E+00
  1.84415846E+00  1.98552447E+00  2.04827145E+00  2.09152131E+00  2.15918951E+00
  2.16840202E+00  2.22373089E+00  2.41777303E+00  2.45642776E+00  2.56123382E+00
  2.58205353E+00  2.66293194E+00  2.69530331E+00  2.78148463E+00  2.82655827E+00
  2.93526818E+00  3.11348583E+00  3.36649818E+00  3.70880478E+00  3.85885171E+00
  4.18346738E+00  2.38604054E+01  2.41464261E+01
Alpha MO coefficients                      R   N=        4624
  3.98846510E-01  3.27992647E-01 -5.69949223E-09 -3.22005424E-04  0.00000000E+00
  8.83315143E-03 -3.91064808E-08  1.65169798E-03  0.00000000E+00 -2.22832333E-03
 -1.21646601E-07  2.14753130E-04  0.00000000E+00 -6.24116819E-04  6.41936878E-08
 -7.21414338E-04  0.00000000E+00 -7.24628972E-04  0.00000000E+00  0.00000000E+00
  8.33977065E-04 -1.41027576E-07  3.98846510E-01  3.27992647E-01  5.69949223E-09
  3.22005424E-04  0.00000000E+00  8.83315143E-03  3.91064808E-08 -1.65169798E-03
  0.00000000E+00 -2.22832333E-03  1.21646601E-07 -2.14753130E-04  0.00000000E+00
 -6.24116819E-04 -6.41936878E-08  7.21414338E-04  0.00000000E+00 -7.24628972E-04
  0.00000000E+00  0.00000000E+00  8.33977065E-04 -1.41027576E-07  1.57465469E-04
 -2.44327712E-03  1.60296336E-03  1.29447342E-03  7.38684304E-04  0.00000000E+00
  1.57447068E-04 -2.44358546E-03  1.60306941E-03 -1.29452653E-03  7.38818859E-04
  0.00000000E+00  1.57465469E-04 -2.44327712E-03  1.60296336E-03 -1.29447342E-03
 -7.38684304E-04  0.00000000E+00  1.57447068E-04 -2.44358546E-03  1.60306941E-03
  1.29452653E-03 -7.38818859E-04  0.00000000E+00  3.98947954E-01  3.27916428E-01
  3.45891150E-09  7.24680524E-04  0.00000000E+00  8.83754497E-03 -4.13676369E-08
 -2.23157061E-03  0.00000000E+00 -3.03918155E-03  1.64704687E-08  1.10082523E-03
  0.00000000E+00  2.93777856E-03 -1.79567689E-09 -1.19157087E-03  0.00000000E+00
 -1.35706780E-03  0.00000000E+00  0.00000000E+00 -1.16250406E-03 -5.16858589E-08
 -3.98947954E-01 -3.27916428E-01  3.45891150E-09  7.24680524E-04  0.00000000E+00
 -8.83754497E-03 -4.13676369E-08 -2.23157061E-03  0.00000000E+00  3.03918155E-03
  1.64704687E-08  1.10082523E-03  0.00000000E+00 -2.93777856E-03 -1.79567689E-09
 -1.19157087E-03  0.00000000E+00  1.35706780E-03  0.00000000E+00  0.00000000E+00
  1.16250406E-03  5.16858589E-08  3.37081866E-04 -1.34533555E-03  9.27470385E-04
  7.84281689E-04  3.36729305E-04  0.00000000E+00  3.37050998E-04 -1.34541811E-03
  9.27526557E-04 -7.84333859E-04  3.36765965E-04  0.00000000E+00 -3.37081866E-04
  1.34533555E-03 -9.27470385E-04  7.84281689E-04  3.36729305E-04  0.00000000E+00
 -3.37050998E-04  1.34541811E-03 -9.27526557E-04 -7.84333859E-04  3.36765965E-04
  0.00000000E+00 -8.41855118E-02 -1.34954481E-01  1.26508538E-07 -4.11951947E-02
  0.00000000E+00  3.50428154E-01 -1.03993635E-07 -5.71525613E-02  0.00000000E+00
  1.98167091E-01 -8.33695725E-07 -1.42368740E-02  0.00000000E+00  1.10787939E-03
 -3.92076875E-07  7.32097606E-03  0.00000000E+00 -1.05359470E-02  0.00000000E+00
  0.00000000E+00 -7.15591454E-03 -5.10441377E-07 -8.41855118E-02 -1.34954481E-01
 -1.26508538E-07  4.11951947E-02  0.00000000E+00  3.50428154E-01  1.03993635E-07
  5.71525613E-02  0.00000000E+00  1.98167091E-01  8.33695725E-07  1.42368740E-02
  0.00000000E+00  1.10787939E-03  3.92076875E-07 -7.32097606E-03  0.00000000E+00
 -1.05359470E-02  0.00000000E+00  0.00000000E+00 -7.15591454E-03 -5.10441377E-07
  5.54279458E-02  6.14714315E-02 -2.46194422E-05 -7.90949199E-03 -6.24003714E-03
  0.00000000E+00  5.54278735E-02  6.14706412E-02 -2.55870545E-05  7.90874529E-03
 -6.24025424E-03  0.00000000E+00  5.54279458E-02  6.14714315E-02 -2.46194422E-05
  7.90949199E-03  6.24003714E-03  0.00000000E+00  5.54278735E-02  6.14706412E-02
 -2.55870545E-05 -7.90874529E-03  6.24025424E-03  0.00000000E+00 -6.70860885E-02
 -1.08833867E-01 -1.02967761E-06  7.18777891E-02  0.00000000E+00  2.88149003E-01
 -1.11189095E-06  1.05689891E-01  0.00000000E+00  2.22447875E-01 -5.45174975E-07
  4.95516408E-02  0.00000000E+00 -6.62855647E-02 -6.02372934E-08  2.14792089E-02
  0.00000000E+00 -5.43218120E-03  0.00000000E+00  0.00000000E+00  9.16290407E-03
 -5.64253750E-07  6.70860885E-02  1.08833867E-01 -1.02967761E-06  7.18777891E-02
  0.00000000E+00 -2.88149003E-01 -1.11189095E-06  1.05689891E-01  0.00000000E+00
 -2.22447875E-01 -5.45174975E-07  4.95516408E-02  0.00000000E+00  6.62855647E-02
 -6.02372934E-08  2.14792089E-02  0.00000000E+00  5.43218120E-03  0.00000000E+00
  0.00000000E+00 -9.16290407E-03  5.64253750E-07  9.04888809E-02  1.12010241E-01
  1.66747375E-02 -1.26959725E-02 -4.06258497E-03  0.00000000E+00  9.04936846E-02
  1.12015967E-01  1.66751713E-02  1.26962543E-02 -4.06376162E-03  0.00000000E+00
 -9.04888809E-02 -1.12010241E-01 -1.66747375E-02 -1.26959725E-02 -4.06258497E-03
  0.00000000E+00 -9.04936846E-02 -1.12015967E-01 -1.66751713E-02  1.26962543E-02
 -4.06376162E-03  0.00000000E+00 -5.88666111E-07 -9.81127156E-07  1.48080492E-01
 -1.02339867E-06  0.00000000E+00  2.74248494E-06  2.11175076E-01 -8.15096545E-08
  0.00000000E+00  3.49417114E-06  1.24525317E-01 -1.98217067E-07  0.00000000E+00
  5.76992503E-06  5.65451387E-03 -1.52874262E-06  0.00000000E+00 -1.14119739E-07
  0.00000000E+00  0.00000000E+00  1.21105847E-06 -1.83423304E-03  5.88666111E-07
  9.81127156E-07  1.48080492E-01 -1.02339867E-06  0.00000000E+00 -2.74248494E-06
  2.11175076E-01 -8.15096545E-08  0.00000000E+00 -3.49417114E-06  1.24525317E-01
 -1.98217067E-07  0.00000000E+00 -5.76992503E-06  5.65451387E-03 -1.52874262E-06
  0.00000000E+00  1.14119739E-07  0.00000000E+00  0.00000000E+00 -1.21105847E-06
  1.83423304E-03  9.84885496E-02  1.33930458E-01  3.24684471E-02 -9.06313913E-03
 -9.10916355E-03  0.00000000E+00 -9.84850429E-02 -1.33925975E-01 -3.24675382E-02
 -9.06246109E-03  9.10999006E-03  0.00000000E+00 -9.84885496E-02 -1.33930458E-01
 -3.24684471E-02 -9.06313913E-03 -9.10916355E-03  0.00000000E+00  9.84850429E-02
  1.33925975E-01  3.24675382E-02 -9.06246109E-03  9.10999006E-03  0.00000000E+00
  7.73631687E-03  1.27639997E-02 -1.51667829E-05  1.90224246E-01  0.00000000E+00
 -4.00066534E-02 -2.03041038E-05  2.70395400E-01  0.00000000E+00  1.14735420E-02
 -1.50566576E-05  1.56266694E-01  0.00000000E+00  5.52715016E-03 -3.03882347E-06
  2.69035737E-03  0.00000000E+00  1.08985050E-03  0.00000000E+00  0.00000000E+00
  1.63211018E-02 -3.49389360E-06  7.73631687E-03  1.27639997E-02  1.51667829E-05
 -1.90224246E-01  0.00000000E+00 -4.00066534E-02  2.03041038E-05 -2.70395400E-01
  0.00000000E+00  1.14735420E-02  1.50566576E-05 -1.56266694E-01  0.00000000E+00
  5.52715016E-03  3.03882347E-06 -2.69035737E-03  0.00000000E+00  1.08985050E-03
  0.00000000E+00  0.00000000E+00  1.63211018E-02 -3.49389360E-06  7.53936123E-02
  1.08092491E-01  4.08808053E-02 -1.10101980E-02  3.72122211E-03  0.00000000E+00
  7.54240764E-02  1.08135845E-01  4.08937585E-02  1.10127569E-02  3.71803921E-03
  0.00000000E+00  7.53936123E-02  1.08092491E-01  4.08808053E-02  1.10101980E-02
 -3.72122211E-03  0.00000000E+00  7.54240764E-02  1.08135845E-01  4.08937585E-02
 -1.10127569E-02 -3.71803921E-03  0.00000000E+00  1.62889599E-06  2.67910218E-06
  1.42145540E-01  2.15006938E-05  0.00000000E+00 -8.12416990E-06  2.03745678E-01
  3.10125105E-05  0.00000000E+00 -2.20957812E-06  1.58692978E-01  1.94684606E-05
  0.00000000E+00  7.84017538E-07  2.09156831E-02  3.56634483E-07  0.00000000E+00
  4.48597669E-08  0.00000000E+00  0.00000000E+00  3.23006383E-06  3.14025349E-02
  1.62889599E-06  2.67910218E-06 -1.42145540E-01 -2.15006938E-05  0.00000000E+00
 -8.12416990E-06 -2.03745678E-01 -3.10125105E-05  0.00000000E+00 -2.20957812E-06
 -1.58692978E-01 -1.94684606E-05  0.00000000E+00  7.84017538E-07 -2.09156831E-02
 -3.56634483E-07  0.00000000E+00  4.48597669E-08  0.00000000E+00  0.00000000E+00
  3.23006383E-06  3.14025349E-02  1.16922539E-01  1.69985294E-01  7.51545658E-02
 -5.41646247E-03 -7.59949627E-03  0.00000000E+00 -1.16903347E-01 -1.69956226E-01
 -7.51407276E-02 -5.41289445E-03  7.60110286E-03  0.00000000E+00  1.16922539E-01
  1.69985294E-01  7.51545658E-02  5.41646247E-03  7.59949627E-03  0.00000000E+00
 -1.16903347E-01 -1.69956226E-01 -7.51407276E-02  5.41289445E-03 -7.60110286E-03
  0.00000000E+00  0.00000000E+00  0.00000000E+00  0.00000000E+00  0.00000000E+00
  1.75161050E-01  0.00000000E+00  0.00000000E+00  0.00000000E+00  2.80705549E-01
  0.00000000E+00  0.00000000E+00  0.00000000E+00  2.52463115E-01  0.00000000E+00
  0.00000000E+00  0.00000000E+00  3.06990113E-02  0.00000000E+00  6.62651326E-08
 -2.09982947E-02  0.00000000E+00  0.00000000E+00  0.00000000E+00  0.00000000E+00
  0.00000000E+00  0.00000000E+00  1.75161050E-01  0.00000000E+00  0.00000000E+00
  0.00000000E+00  2.80705549E-01  0.00000000E+00  0.00000000E+00  0.00000000E+00
  2.52463115E-01  0.00000000E+00  0.00000000E+00  0.00000000E+00  3.06990113E-02
  0.00000000E+00 -6.62651326E-08  2.09982947E-02  0.00000000E+00  0.00000000E+00
  0.00000000E+00  0.00000000E+00  0.00000000E+00  0.00000000E+00  0.00000000E+00
  1.27921521E-02  0.00000000E+00  0.00000000E+00  0.00000000E+00  0.00000000E+00
  0.00000000E+00  1.27923349E-02  0.00000000E+00  0.00000000E+00  0.00000000E+00
  0.00000000E+00  0.00000000E+00  1.27921521E-02  0.00000000E+00  0.00000000E+00
  0.00000000E+00  0.00000000E+00  0.00000000E+00  1.27923349E-02  0.00000000E+00
  0.00000000E+00  0.00000000E+00  0.00000000E+00  1.54871968E-01  0.00000000E+00
  0.00000000E+00  0.00000000E+00  2.47991176E-01  0.00000000E+00  0.00000000E+00
  0.00000000E+00  3.92712289E-01  0.00000000E+00  0.00000000E+00  0.00000000E+00
  8.18410191E-01  0.00000000E+00  9.09884652E-08  2.72223290E-02  0.00000000E+00
  0.00000000E+00  0.00000000E+00  0.00000000E+00  0.00000000E+00  0.00000000E+00
 -1.54871968E-01  0.00000000E+00  0.00000000E+00  0.00000000E+00 -2.47991176E-01
  0.00000000E+00  0.00000000E+00  0.00000000E+00 -3.92712289E-01  0.00000000E+00
  0.00000000E+00  0.00000000E+00 -8.18410191E-01  0.00000000E+00  9.09884652E-08
  2.72223290E-02  0.00000000E+00  0.00000000E+00  0.00000000E+00  0.00000000E+00
  0.00000000E+00  0.00000000E+00  0.00000000E+00  2.01000165E-02  0.00000000E+00
  0.00000000E+00  0.00000000E+00  0.00000000E+00  0.00000000E+00  2.01007873E-02
  0.00000000E+00  0.00000000E+00  0.00000000E+00  0.00000000E+00  0.00000000E+00
 -2.01000165E-02  0.00000000E+00  0.00000000E+00  0.00000000E+00  0.00000000E+00
  0.00000000E+00 -2.01007873E-02  1.79496531E-02  3.06115146E-02 -5.62217213E-07
 -3.94904682E-02  0.00000000E+00 -8.51532101E-02  1.77761258E-06 -6.07597963E-02
  0.00000000E+00 -3.05481653E-01 -2.72824565E-05 -1.40584458E-01  0.00000000E+00
  1.19924659E+00 -8.83799083E-05  6.53665739E-01  0.00000000E+00  1.29702559E-02
  0.00000000E+00  0.00000000E+00 -7.07936558E-03  1.22781975E-06  1.79496531E-02
  3.06115146E-02  5.62217213E-07  3.94904682E-02  0.00000000E+00 -8.51532101E-02
 -1.77761258E-06  6.07597963E-02  0.00000000E+00 -3.05481653E-01  2.72824565E-05
  1.40584458E-01  0.00000000E+00  1.19924659E+00  8.83799083E-05 -6.53665739E-01
  0.00000000E+00  1.29702559E-02  0.00000000E+00  0.00000000E+00 -7.07936558E-03
  1.22781975E-06 -2.15985456E-02  8.31819647E-02 -3.85275814E-01  1.64621689E-03
  1.69334715E-03  0.00000000E+00 -2.15997082E-02  8.31834860E-02 -3.85367056E-01
 -1.64598861E-03  1.69393997E-03  0.00000000E+00 -2.15985456E-02  8.31819647E-02
 -3.85275814E-01 -1.64621689E-03 -1.69334715E-03  0.00000000E+00 -2.15997082E-02
  8.31834860E-02 -3.85367056E-01  1.64598861E-03 -1.69393997E-03  0.00000000E+00
 -2.04588484E-02 -3.52203284E-02 -1.64826459E-06  1.37615609E-02  0.00000000E+00
  1.18901920E-01 -3.97409913E-06  2.09191329E-02  0.00000000E+00 -3.05730121E-02
 -4.35335664E-06  1.88980952E-01  0.00000000E+00  9.00445727E+00  2.06203885E-05
 -3.37398756E+00  0.00000000E+00  2.33494980E-03  0.00000000E+00  0.00000000E+00
  1.43615708E-02 -6.57626619E-07  2.04588484E-02  3.52203284E-02 -1.64826459E-06
  1.37615609E-02  0.00000000E+00 -1.18901920E-01 -3.97409913E-06  2.09191329E-02
  0.00000000E+00  3.05730121E-02 -4.35335664E-06  1.88980952E-01  0.00000000E+00
 -9.00445727E+00  2.06203885E-05 -3.37398756E+00  0.00000000E+00 -2.33494980E-03
  0.00000000E+00  0.00000000E+00 -1.43615708E-02  6.57626619E-07  1.03299899E-02
 -5.06880278E-02  1.75498436E-01 -2.08726824E-03 -1.01507418E-02  0.00000000E+00
  1.03307000E-02 -5.07005090E-02  1.75535257E-01  2.08688343E-03 -1.01510314E-02
  0.00000000E+00 -1.03299899E-02  5.06880278E-02 -1.75498436E-01 -2.08726824E-03
 -1.01507418E-02  0.00000000E+00 -1.03307000E-02  5.07005090E-02 -1.75535257E-01
  2.08688343E-03 -1.01510314E-02  0.00000000E+00  6.14709151E-07  1.07212756E-06
 -5.55896794E-02 -4.83158253E-08  0.00000000E+00 -3.40542160E-06 -9.51384598E-02
  3.80678903E-08  0.00000000E+00 -7.83915513E-07 -1.62221201E-01 -3.38977577E-07
  0.00000000E+00  2.36029209E-04  8.36796041E-01 -4.01832362E-05  0.00000000E+00
  2.45213372E-07  0.00000000E+00  0.00000000E+00 -1.77286365E-06 -5.97080851E-03
 -6.14709151E-07 -1.07212756E-06 -5.55896794E-02 -4.83158253E-08  0.00000000E+00
  3.40542160E-06 -9.51384598E-02  3.80678903E-08  0.00000000E+00  7.83915513E-07
 -1.62221201E-01 -3.38977577E-07  0.00000000E+00 -2.36029209E-04  8.36796041E-01
 -4.01832362E-05  0.00000000E+00 -2.45213372E-07  0.00000000E+00  0.00000000E+00