 Entering Gaussian System, Link 0=g16
 Initial command:
 /home/szhao/Apps/g16/l1.exe "/home/szhao/tmp/Gau-64334.inp" -scrdir="/home/szhao/tmp/"
 Default is to use a total of  16 processors:
                               16 via shared-memory
                                1 via Linda
 Entering Link 1 = /home/szhao/Apps/g16/l1.exe PID=     64336.
  
 Copyright (c) 1988,1990,1992,1993,1995,1998,2003,2009,2016,
            Gaussian, Inc.  All Rights Reserved.
  
 This is part of the Gaussian(R) 16 program.  It is based on
 the Gaussian(R) 09 system (copyright 2009, Gaussian, Inc.),
 the Gaussian(R) 03 system (copyright 2003, Gaussian, Inc.),
 the Gaussian(R) 98 system (copyright 1998, Gaussian, Inc.),
 the Gaussian(R) 94 system (copyright 1995, Gaussian, Inc.),
 the Gaussian 92(TM) system (copyright 1992, Gaussian, Inc.),
 the Gaussian 90(TM) system (copyright 1990, Gaussian, Inc.),
 the Gaussian 88(TM) system (copyright 1988, Gaussian, Inc.),
 the Gaussian 86(TM) system (copyright 1986, Carnegie Mellon
 University), and the Gaussian 82(TM) system (copyright 1983,
 Carnegie Mellon University). Gaussian is a federally registered
 trademark of Gaussian, Inc.
  
 This software contains proprietary and confidential information,
 including trade secrets, belonging to Gaussian, Inc.
  
 This software is provided under written license and may be
 used, copied, transmitted, or stored only in accord with that
 written license.
  
 The following legend is applicable only to US Government
 contracts under FAR:
  
                    RESTRICTED RIGHTS LEGEND
  
 Use, reproduction and disclosure by the US Government is
 subject to restrictions as set forth in subparagraphs (a)
 and (c) of the Commercial Computer Software - Restricted
 Rights clause in FAR 52.227-19.
  
 Gaussian, Inc.
 340 Quinnipiac St., Bldg. 40, Wallingford CT 06492
  
  
 ---------------------------------------------------------------
 Warning -- This program may not be used in any manner that
 competes with the business of Gaussian, Inc. or will provide
 assistance to any competitor of Gaussian, Inc.  The licensee
 of this program is prohibited from giving any competitor of
 Gaussian, Inc. access to this program.  By using this program,
 the user acknowledges that Gaussian, Inc. is engaged in the
 business of creating and licensing software in the field of
 computational chemistry and represents and warrants to the
 licensee that it is not a competitor of Gaussian, Inc. and that
 it will not use this program in any manner prohibited above.
 ---------------------------------------------------------------
  

 Cite this work as:
 Gaussian 16, Revision A.03,
 M. J. Frisch, G. W. Trucks, H. B. Schlegel, G. E. Scuseria, 
 M. A. Robb, J. R. Cheeseman, G. Scalmani, V. Barone, 
 G. A. Petersson, H. Nakatsuji, X. Li, M. Caricato, A. V. Marenich, 
 J. Bloino, B. G. Janesko, R. Gomperts, B. Mennucci, H. P. Hratchian, 
 J. V. Ortiz, A. F. Izmaylov, J. L. Sonnenberg, D. Williams-Young, 
 F. Ding, F. Lipparini, F. Egidi, J. Goings, B. Peng, A. Petrone, 
 T. Henderson, D. Ranasinghe, V. G. Zakrzewski, J. Gao, N. Rega, 
 G. Zheng, W. Liang, M. Hada, M. Ehara, K. Toyota, R. Fukuda, 
 J. Hasegawa, M. Ishida, T. Nakajima, Y. Honda, O. Kitao, H. Nakai, 
 T. Vreven, K. Throssell, J. A. Montgomery, Jr., J. E. Peralta, 
 F. Ogliaro, M. J. Bearpark, J. J. Heyd, E. N. Brothers, K. N. Kudin, 
 V. N. Staroverov, T. A. Keith, R. Kobayashi, J. Normand, 
 K. Raghavachari, A. P. Rendell, J. C. Burant, S. S. Iyengar, 
 J. Tomasi, M. Cossi, J. M. Millam, M. Klene, C. Adamo, R. Cammi, 
 J. W. Ochterski, R. L. Martin, K. Morokuma, O. Farkas, 
 J. B. Foresman, and D. J. Fox, Gaussian, Inc., Wallingford CT, 2016.
 
 ******************************************
 Gaussian 16:  ES64L-G16RevA.03 25-Dec-2016
                19-Nov-2024 
 ******************************************
 %chk=opt.chk
 %mem=8GB
 %nprocshared=24
 Will use up to   24 processors via shared memory.
 ---------------------------------------
 #p UM062X/6-311+G** force int=superfine
 ---------------------------------------
 1/10=7,30=1,38=1/1,3;
 2/12=2,17=6,18=5,40=1/2;
 3/5=4,6=6,7=111,11=2,25=1,30=1,71=1,74=-55,75=-7,116=2/1,2,3;
 4//1;
 5/5=2,38=5/2;
 6/7=2,8=2,9=2,10=2,28=1/1;
 7/29=1/1,2,3,16;
 1/10=7,30=1/3;
 99//99;
 Leave Link    1 at Tue Nov 19 12:44:06 2024, MaxMem=  1073741824 cpu:               2.2 elap:               0.1
 (Enter /home/szhao/Apps/g16/l101.exe)
 -------------------
 Title Card Required
 -------------------
 Symbolic Z-matrix:
 Charge =  0 Multiplicity = 1
 C                    -0.78645   0.        0. 
 C                     0.78653   0.        0. 
 H                     1.17148  -0.88342   0.51119 
 H                    -1.17139  -0.88442  -0.50946 
 H                     1.17147   0.88442   0.50946 
 H                     1.17145  -0.00099  -1.02067 
 H                    -1.1714    0.88342  -0.51119 
 H                    -1.17137   0.00099   1.02067 
 
 ITRead=  0  0  0  0  0  0  0  0
 MicOpt= -1 -1 -1 -1 -1 -1 -1 -1
 NAtoms=      8 NQM=        8 NQMF=       0 NMMI=      0 NMMIF=      0
                NMic=       0 NMicF=      0.
                    Isotopes and Nuclear Properties:
 (Nuclear quadrupole moments (NQMom) in fm**2, nuclear magnetic moments (NMagM)
  in nuclear magnetons)

  Atom         1           2           3           4           5           6           7           8
 IAtWgt=          12          12           1           1           1           1           1           1
 AtmWgt=  12.0000000  12.0000000   1.0078250   1.0078250   1.0078250   1.0078250   1.0078250   1.0078250
 NucSpn=           0           0           1           1           1           1           1           1
 AtZEff=  -0.0000000  -0.0000000  -0.0000000  -0.0000000  -0.0000000  -0.0000000  -0.0000000  -0.0000000
 NQMom=    0.0000000   0.0000000   0.0000000   0.0000000   0.0000000   0.0000000   0.0000000   0.0000000
 NMagM=    0.0000000   0.0000000   2.7928460   2.7928460   2.7928460   2.7928460   2.7928460   2.7928460
 AtZNuc=   6.0000000   6.0000000   1.0000000   1.0000000   1.0000000   1.0000000   1.0000000   1.0000000
 Leave Link  101 at Tue Nov 19 12:44:06 2024, MaxMem=  1073741824 cpu:               4.3 elap:               0.2
 (Enter /home/szhao/Apps/g16/l103.exe)

 GradGradGradGradGradGradGradGradGradGradGradGradGradGradGradGradGradGrad
 Berny optimization.
 Initialization pass.
 Trust Radius=3.00D-01 FncErr=1.00D-07 GrdErr=1.00D-07 EigMax=2.50D+02 EigMin=1.00D-04
 Number of steps in this run=      2 maximum allowed number of steps=      2.
 GradGradGradGradGradGradGradGradGradGradGradGradGradGradGradGradGradGrad

 Leave Link  103 at Tue Nov 19 12:44:06 2024, MaxMem=  1073741824 cpu:               0.9 elap:               0.1
 (Enter /home/szhao/Apps/g16/l202.exe)
                          Input orientation:                          
 ---------------------------------------------------------------------
 Center     Atomic      Atomic             Coordinates (Angstroms)
 Number     Number       Type             X           Y           Z
 ---------------------------------------------------------------------
      1          6           0       -0.786453    0.000000    0.000000
      2          6           0        0.786534    0.000000    0.000000
      3          1           0        1.171478   -0.883423    0.511187
      4          1           0       -1.171393   -0.884421   -0.509461
      5          1           0        1.171474    0.884421    0.509460
      6          1           0        1.171448   -0.000994   -1.020671
      7          1           0       -1.171398    0.883423   -0.511187
      8          1           0       -1.171368    0.000993    1.020671
 ---------------------------------------------------------------------
                    Distance matrix (angstroms):
                    1          2          3          4          5
     1  C    0.000000
     2  C    1.572987   0.000000
     3  H    2.207995   1.090839   0.000000
     4  H    1.090839   2.207992   2.555537   0.000000
     5  H    2.207992   1.090839   1.767845   3.107415   0.000000
     6  H    2.207973   1.090839   1.767843   2.555520   1.767841
     7  H    1.090840   2.207996   3.107420   1.767845   2.555537
     8  H    1.090839   2.207974   2.555522   1.767841   2.555522
                    6          7          8
     6  H    0.000000
     7  H    2.555522   0.000000
     8  H    3.107389   1.767844   0.000000
 This structure is nearly, but not quite of a higher symmetry.
 Consider Symm=Loose if the higher symmetry is desired.
 Stoichiometry    C2H6
 Framework group  CI[X(C2H6)]
 Deg. of freedom     9
 Full point group                 CI      NOp   2
 Largest Abelian subgroup         CI      NOp   2
 Largest concise Abelian subgroup CI      NOp   2
                         Standard orientation:                         
 ---------------------------------------------------------------------
 Center     Atomic      Atomic             Coordinates (Angstroms)
 Number     Number       Type             X           Y           Z
 ---------------------------------------------------------------------
      1          6           0       -0.786493    0.000000    0.000000
      2          6           0        0.786493   -0.000000   -0.000000
      3          1           0        1.171438   -0.883423    0.511187
      4          1           0       -1.171433   -0.884421   -0.509461
      5          1           0        1.171433    0.884421    0.509461
      6          1           0        1.171408   -0.000994   -1.020671
      7          1           0       -1.171438    0.883423   -0.511187
      8          1           0       -1.171408    0.000994    1.020671
 ---------------------------------------------------------------------
 Rotational constants (GHZ):          80.2259024          19.2208247          19.2208145
 Leave Link  202 at Tue Nov 19 12:44:06 2024, MaxMem=  1073741824 cpu:               0.1 elap:               0.0
 (Enter /home/szhao/Apps/g16/l301.exe)
 Standard basis: 6-311+G(d,p) (5D, 7F)
 Ernie: Thresh=  0.10000D-02 Tol=  0.10000D-05 Strict=F.
 There are    41 symmetry adapted cartesian basis functions of AG  symmetry.
 There are    41 symmetry adapted cartesian basis functions of AU  symmetry.
 There are    40 symmetry adapted basis functions of AG  symmetry.
 There are    40 symmetry adapted basis functions of AU  symmetry.
    80 basis functions,   120 primitive gaussians,    82 cartesian basis functions
     9 alpha electrons        9 beta electrons
       nuclear repulsion energy        41.7521970061 Hartrees.
 IExCor= 4336 DFT=T Ex+Corr=M062X ExCW=0 ScaHFX=  0.540000
 ScaDFX=  1.000000  1.000000  1.000000  1.000000 ScalE2=  1.000000  1.000000
 IRadAn=      7 IRanWt=     -1 IRanGd=            0 ICorTp=0 IEmpDi=  4
 NAtoms=    8 NActive=    8 NUniq=    4 SFac= 4.00D+00 NAtFMM=   60 NAOKFM=F Big=F
 Integral buffers will be    131072 words long.
 Raffenetti 2 integral format.
 Two-electron integral symmetry is turned on.
 Leave Link  301 at Tue Nov 19 12:44:07 2024, MaxMem=  1073741824 cpu:               1.3 elap:               0.1
 (Enter /home/szhao/Apps/g16/l302.exe)
 NPDir=0 NMtPBC=     1 NCelOv=     1 NCel=       1 NClECP=     1 NCelD=      1
         NCelK=      1 NCelE2=     1 NClLst=     1 CellRange=     0.0.
 One-electron integrals computed using PRISM.
 One-electron integral symmetry used in STVInt
 NBasis=    80 RedAO= T EigKep=  2.11D-04  NBF=    40    40
 NBsUse=    80 1.00D-06 EigRej= -1.00D+00 NBFU=    40    40
 Precomputing XC quadrature grid using
 IXCGrd= 4 IRadAn=           7 IRanWt=          -1 IRanGd=           0 AccXCQ= 0.00D+00.
 Generated NRdTot=       0 NPtTot=           0 NUsed=           0 NTot=          32
 NSgBfM=    82    82    82    82    82 MxSgAt=     8 MxSgA2=     8.
 Leave Link  302 at Tue Nov 19 12:44:07 2024, MaxMem=  1073741824 cpu:              14.9 elap:               0.8
 (Enter /home/szhao/Apps/g16/l303.exe)
 DipDrv:  MaxL=1.
 Leave Link  303 at Tue Nov 19 12:44:08 2024, MaxMem=  1073741824 cpu:               3.2 elap:               0.2
 (Enter /home/szhao/Apps/g16/l401.exe)
 ExpMin= 4.38D-02 ExpMax= 4.56D+03 ExpMxC= 6.82D+02 IAcc=3 IRadAn=         7 AccDes= 0.00D+00
 Harris functional with IExCor= 1009 and IRadAn=       7 diagonalized for initial guess.
 HarFok:  IExCor= 1009 AccDes= 0.00D+00 IRadAn=         7 IDoV= 1 UseB2=F ITyADJ=14
 ICtDFT=  3500011 ScaDFX=  1.000000  1.000000  1.000000  1.000000
 FoFCou: FMM=F IPFlag=           0 FMFlag=      100000 FMFlg1=           0
         NFxFlg=           0 DoJE=T BraDBF=F KetDBF=T FulRan=T
         wScrn=  0.000000 ICntrl=       500 IOpCl=  0 I1Cent=   200000004 NGrid=           0
         NMat0=    1 NMatS0=      1 NMatT0=    0 NMatD0=    1 NMtDS0=    0 NMtDT0=    0
 Petite list used in FoFCou.
 Harris En= -79.8258679569560    
 JPrj=0 DoOrth=F DoCkMO=F.
 Initial guess orbital symmetries:
 Alpha Orbitals:
       Occupied  (AG) (AU) (AG) (AU) (AU) (AU) (AG) (AG) (AG)
       Virtual   (AG) (AU) (AU) (AU) (AG) (AU) (AG) (AG) (AG) (AG)
                 (AU) (AU) (AU) (AG) (AU) (AU) (AU) (AG) (AG) (AG)
                 (AU) (AG) (AG) (AU) (AU) (AG) (AU) (AG) (AU) (AU)
                 (AU) (AG) (AG) (AU) (AG) (AG) (AU) (AU) (AG) (AG)
                 (AU) (AU) (AU) (AG) (AG) (AU) (AG) (AU) (AU) (AG)
                 (AG) (AG) (AU) (AG) (AG) (AU) (AU) (AG) (AG) (AU)
                 (AU) (AG) (AU) (AG) (AG) (AG) (AU) (AU) (AU) (AU)
                 (AG)
 Beta  Orbitals:
       Occupied  (AG) (AU) (AG) (AU) (AU) (AU) (AG) (AG) (AG)
       Virtual   (AG) (AU) (AU) (AU) (AG) (AU) (AG) (AG) (AG) (AG)
                 (AU) (AU) (AU) (AG) (AU) (AU) (AU) (AG) (AG) (AG)
                 (AU) (AG) (AG) (AU) (AU) (AG) (AU) (AG) (AU) (AU)
                 (AU) (AG) (AG) (AU) (AG) (AG) (AU) (AU) (AG) (AG)
                 (AU) (AU) (AU) (AG) (AG) (AU) (AG) (AU) (AU) (AG)
                 (AG) (AG) (AU) (AG) (AG) (AU) (AU) (AG) (AG) (AU)
                 (AU) (AG) (AU) (AG) (AG) (AG) (AU) (AU) (AU) (AU)
                 (AG)
 The electronic state of the initial guess is 1-AG.
 Initial guess <Sx>= 0.0000 <Sy>= 0.0000 <Sz>= 0.0000 <S**2>= 0.0000 S= 0.0000
 Leave Link  401 at Tue Nov 19 12:44:09 2024, MaxMem=  1073741824 cpu:              14.9 elap:               0.8
 (Enter /home/szhao/Apps/g16/l502.exe)
 Keep R1 and R2 ints in memory in symmetry-blocked form, NReq=27086242.
 FoFCou: FMM=F IPFlag=           0 FMFlag=           0 FMFlg1=           0
         NFxFlg=           0 DoJE=F BraDBF=F KetDBF=F FulRan=T
         wScrn=  0.000000 ICntrl=       600 IOpCl=  0 I1Cent=           0 NGrid=           0
         NMat0=    1 NMatS0=   3240 NMatT0=    0 NMatD0=    1 NMtDS0=    0 NMtDT0=    0
 Petite list used in FoFCou.
 UHF open shell SCF:
 Using DIIS extrapolation, IDIIS=  1040.
 NGot=  1073741824 LenX=  1068465298 LenY=  1068458133
 Requested convergence on RMS density matrix=1.00D-08 within 128 cycles.
 Requested convergence on MAX density matrix=1.00D-06.
 Requested convergence on             energy=1.00D-06.
 No special actions if energy rises.

 Cycle   1  Pass 1  IDiag  1:
 E= -79.6699697516820    
 DIIS: error= 5.45D-02 at cycle   1 NSaved=   1.
 NSaved= 1 IEnMin= 1 EnMin= -79.6699697516820     IErMin= 1 ErrMin= 5.45D-02
 ErrMax= 5.45D-02  0.00D+00 EMaxC= 1.00D-01 BMatC= 5.20D-01 BMatP= 5.20D-01
 IDIUse=3 WtCom= 4.55D-01 WtEn= 5.45D-01
 Coeff-Com:  0.100D+01
 Coeff-En:   0.100D+01
 Coeff:      0.100D+01
 Gap=     0.366 Goal=   None    Shift=    0.000
 Gap=     0.366 Goal=   None    Shift=    0.000
 GapD=    0.366 DampG=1.000 DampE=0.500 DampFc=0.5000 IDamp=-1.
 Damping current iteration by 5.00D-01
 RMSDP=5.03D-03 MaxDP=1.07D-01              OVMax= 1.58D-01

 Cycle   2  Pass 1  IDiag  1:
 E= -79.7351017221442     Delta-E=       -0.065131970462 Rises=F Damp=T
 DIIS: error= 1.12D-02 at cycle   2 NSaved=   2.
 NSaved= 2 IEnMin= 2 EnMin= -79.7351017221442     IErMin= 2 ErrMin= 1.12D-02
 ErrMax= 1.12D-02  0.00D+00 EMaxC= 1.00D-01 BMatC= 1.93D-02 BMatP= 5.20D-01
 IDIUse=3 WtCom= 8.88D-01 WtEn= 1.12D-01
 Coeff-Com: -0.833D-01 0.108D+01
 Coeff-En:   0.000D+00 0.100D+01
 Coeff:     -0.740D-01 0.107D+01
 Gap=     0.442 Goal=   None    Shift=    0.000
 Gap=     0.442 Goal=   None    Shift=    0.000
 RMSDP=1.14D-03 MaxDP=1.53D-02 DE=-6.51D-02 OVMax= 8.36D-02

 Cycle   3  Pass 1  IDiag  1:
 E= -79.7958776795203     Delta-E=       -0.060775957376 Rises=F Damp=F
 DIIS: error= 2.73D-03 at cycle   3 NSaved=   3.
 NSaved= 3 IEnMin= 3 EnMin= -79.7958776795203     IErMin= 3 ErrMin= 2.73D-03
 ErrMax= 2.73D-03  0.00D+00 EMaxC= 1.00D-01 BMatC= 9.78D-04 BMatP= 1.93D-02
 IDIUse=3 WtCom= 9.73D-01 WtEn= 2.73D-02
 Coeff-Com: -0.317D-01 0.152D+00 0.879D+00
 Coeff-En:   0.000D+00 0.000D+00 0.100D+01
 Coeff:     -0.308D-01 0.148D+00 0.883D+00
 Gap=     0.429 Goal=   None    Shift=    0.000
 Gap=     0.429 Goal=   None    Shift=    0.000
 RMSDP=1.28D-04 MaxDP=1.20D-03 DE=-6.08D-02 OVMax= 4.71D-03

 Cycle   4  Pass 1  IDiag  1:
 E= -79.7960957392696     Delta-E=       -0.000218059749 Rises=F Damp=F
 DIIS: error= 7.05D-04 at cycle   4 NSaved=   4.
 NSaved= 4 IEnMin= 4 EnMin= -79.7960957392696     IErMin= 4 ErrMin= 7.05D-04
 ErrMax= 7.05D-04  0.00D+00 EMaxC= 1.00D-01 BMatC= 2.65D-05 BMatP= 9.78D-04
 IDIUse=3 WtCom= 9.93D-01 WtEn= 7.05D-03
 Coeff-Com: -0.130D-02 0.866D-03 0.141D+00 0.860D+00
 Coeff-En:   0.000D+00 0.000D+00 0.000D+00 0.100D+01
 Coeff:     -0.129D-02 0.860D-03 0.140D+00 0.861D+00
 Gap=     0.430 Goal=   None    Shift=    0.000
 Gap=     0.430 Goal=   None    Shift=    0.000
 RMSDP=2.51D-05 MaxDP=3.23D-04 DE=-2.18D-04 OVMax= 1.24D-03

 Cycle   5  Pass 1  IDiag  1:
 E= -79.7961025210919     Delta-E=       -0.000006781822 Rises=F Damp=F
 DIIS: error= 4.31D-05 at cycle   5 NSaved=   5.
 NSaved= 5 IEnMin= 5 EnMin= -79.7961025210919     IErMin= 5 ErrMin= 4.31D-05
 ErrMax= 4.31D-05  0.00D+00 EMaxC= 1.00D-01 BMatC= 2.97D-07 BMatP= 2.65D-05
 IDIUse=1 WtCom= 1.00D+00 WtEn= 0.00D+00
 Coeff-Com:  0.108D-02-0.270D-02-0.310D-01-0.824D-01 0.112D+01
 Coeff:      0.108D-02-0.270D-02-0.310D-01-0.824D-01 0.112D+01
 Gap=     0.430 Goal=   None    Shift=    0.000
 Gap=     0.430 Goal=   None    Shift=    0.000
 RMSDP=5.16D-06 MaxDP=5.86D-05 DE=-6.78D-06 OVMax= 2.34D-04

 Cycle   6  Pass 1  IDiag  1:
 E= -79.7961026456816     Delta-E=       -0.000000124590 Rises=F Damp=F
 DIIS: error= 4.13D-06 at cycle   6 NSaved=   6.
 NSaved= 6 IEnMin= 6 EnMin= -79.7961026456816     IErMin= 6 ErrMin= 4.13D-06
 ErrMax= 4.13D-06  0.00D+00 EMaxC= 1.00D-01 BMatC= 2.99D-09 BMatP= 2.97D-07
 IDIUse=1 WtCom= 1.00D+00 WtEn= 0.00D+00
 Coeff-Com: -0.141D-03 0.268D-03 0.114D-02 0.187D-03-0.113D+00 0.111D+01
 Coeff:     -0.141D-03 0.268D-03 0.114D-02 0.187D-03-0.113D+00 0.111D+01
 Gap=     0.430 Goal=   None    Shift=    0.000
 Gap=     0.430 Goal=   None    Shift=    0.000
 RMSDP=6.73D-07 MaxDP=6.19D-06 DE=-1.25D-07 OVMax= 2.57D-05

 Cycle   7  Pass 1  IDiag  1:
 E= -79.7961026472368     Delta-E=       -0.000000001555 Rises=F Damp=F
 DIIS: error= 2.67D-07 at cycle   7 NSaved=   7.
 NSaved= 7 IEnMin= 7 EnMin= -79.7961026472368     IErMin= 7 ErrMin= 2.67D-07
 ErrMax= 2.67D-07  0.00D+00 EMaxC= 1.00D-01 BMatC= 1.09D-11 BMatP= 2.99D-09
 IDIUse=1 WtCom= 1.00D+00 WtEn= 0.00D+00
 Coeff-Com:  0.162D-04-0.234D-04-0.742D-04 0.457D-04 0.107D-01-0.156D+00
 Coeff-Com:  0.115D+01
 Coeff:      0.162D-04-0.234D-04-0.742D-04 0.457D-04 0.107D-01-0.156D+00
 Coeff:      0.115D+01
 Gap=     0.430 Goal=   None    Shift=    0.000
 Gap=     0.430 Goal=   None    Shift=    0.000
 RMSDP=6.03D-08 MaxDP=6.12D-07 DE=-1.56D-09 OVMax= 2.40D-06

 Cycle   8  Pass 1  IDiag  1:
 E= -79.7961026472449     Delta-E=       -0.000000000008 Rises=F Damp=F
 DIIS: error= 3.12D-08 at cycle   8 NSaved=   8.
 NSaved= 8 IEnMin= 8 EnMin= -79.7961026472449     IErMin= 8 ErrMin= 3.12D-08
 ErrMax= 3.12D-08  0.00D+00 EMaxC= 1.00D-01 BMatC= 1.87D-13 BMatP= 1.09D-11
 IDIUse=1 WtCom= 1.00D+00 WtEn= 0.00D+00
 Coeff-Com:  0.143D-05-0.273D-05-0.540D-05 0.245D-04 0.581D-03-0.738D-02
 Coeff-Com:  0.149D-01 0.992D+00
 Coeff:      0.143D-05-0.273D-05-0.540D-05 0.245D-04 0.581D-03-0.738D-02
 Coeff:      0.149D-01 0.992D+00
 Gap=     0.430 Goal=   None    Shift=    0.000
 Gap=     0.430 Goal=   None    Shift=    0.000
 RMSDP=3.90D-09 MaxDP=6.93D-08 DE=-8.16D-12 OVMax= 1.61D-07

 SCF Done:  E(UM062X) =  -79.7961026472     A.U. after    8 cycles
            NFock=  8  Conv=0.39D-08     -V/T= 2.0058
 <Sx>= 0.0000 <Sy>= 0.0000 <Sz>= 0.0000 <S**2>=-0.0000 S=-0.0000
 <L.S>=  0.00000000000    
 KE= 7.933752428001D+01 PE=-2.676369951459D+02 EE= 6.675117121253D+01
 Annihilation of the first spin contaminant:
 S**2 before annihilation    -0.0000,   after     0.0000
 Leave Link  502 at Tue Nov 19 12:44:15 2024, MaxMem=  1073741824 cpu:             112.0 elap:               6.2
 (Enter /home/szhao/Apps/g16/l601.exe)
 Copying SCF densities to generalized density rwf, IOpCl= 1 IROHF=0.

 **********************************************************************

            Population analysis using the SCF density.

 **********************************************************************

 Orbital symmetries:
 Alpha Orbitals:
       Occupied  (AG) (AU) (AG) (AU) (AU) (AU) (AG) (AG) (AG)
       Virtual   (AG) (AU) (AU) (AU) (AG) (AG) (AG) (AU) (AG) (AG)
                 (AU) (AU) (AG) (AU) (AU) (AU) (AU) (AG) (AG) (AG)
                 (AU) (AG) (AG) (AU) (AU) (AG) (AU) (AG) (AU) (AU)
                 (AU) (AG) (AG) (AU) (AG) (AU) (AU) (AG) (AG) (AG)
                 (AU) (AU) (AU) (AG) (AG) (AU) (AG) (AU) (AU) (AG)
                 (AG) (AG) (AG) (AG) (AU) (AU) (AU) (AU) (AU) (AG)
                 (AG) (AU) (AG) (AG) (AU) (AU) (AG) (AG) (AU) (AU)
                 (AG)
 Beta  Orbitals:
       Occupied  (AG) (AU) (AG) (AU) (AU) (AU) (AG) (AG) (AG)
       Virtual   (AG) (AU) (AU) (AU) (AG) (AG) (AG) (AU) (AG) (AG)
                 (AU) (AU) (AG) (AU) (AU) (AU) (AU) (AG) (AG) (AG)
                 (AU) (AG) (AG) (AU) (AU) (AG) (AU) (AG) (AU) (AU)
                 (AU) (AG) (AG) (AU) (AG) (AU) (AU) (AG) (AG) (AG)
                 (AU) (AU) (AU) (AG) (AG) (AU) (AG) (AU) (AU) (AG)
                 (AG) (AG) (AG) (AG) (AU) (AU) (AU) (AU) (AU) (AG)
                 (AG) (AU) (AG) (AG) (AU) (AU) (AG) (AG) (AU) (AU)
                 (AG)
 The electronic state is 1-AG.
 Alpha  occ. eigenvalues --  -10.52445 -10.52414  -0.84023  -0.70284  -0.49940
 Alpha  occ. eigenvalues --   -0.49940  -0.41695  -0.40768  -0.40768
 Alpha virt. eigenvalues --    0.02193   0.04051   0.05519   0.05519   0.08749
 Alpha virt. eigenvalues --    0.08749   0.08969   0.13870   0.18663   0.18664
 Alpha virt. eigenvalues --    0.21227   0.21227   0.24151   0.26219   0.28311
 Alpha virt. eigenvalues --    0.42821   0.42821   0.48188   0.48189   0.48731
 Alpha virt. eigenvalues --    0.62275   0.65322   0.65323   0.67839   0.67839
 Alpha virt. eigenvalues --    0.69774   0.77922   0.88997   0.93590   1.01637
 Alpha virt. eigenvalues --    1.01638   1.30411   1.30412   1.51326   1.51948
 Alpha virt. eigenvalues --    1.57657   1.57658   1.57934   1.58190   1.58190
 Alpha virt. eigenvalues --    1.73124   1.73125   1.77073   1.86309   1.86310
 Alpha virt. eigenvalues --    2.07383   2.12940   2.15665   2.15666   2.35740
 Alpha virt. eigenvalues --    2.35741   2.41584   2.49873   2.49874   2.52914
 Alpha virt. eigenvalues --    2.60964   2.60964   2.64855   2.64855   2.67091
 Alpha virt. eigenvalues --    2.67093   2.81424   2.84720   3.14046   3.84584
 Alpha virt. eigenvalues --    3.84584   3.84681   3.84683   4.21095  23.96902
 Alpha virt. eigenvalues --   24.08292
  Beta  occ. eigenvalues --  -10.52445 -10.52414  -0.84023  -0.70284  -0.49940
  Beta  occ. eigenvalues --   -0.49940  -0.41695  -0.40768  -0.40768
  Beta virt. eigenvalues --    0.02193   0.04051   0.05519   0.05519   0.08749
  Beta virt. eigenvalues --    0.08749   0.08969   0.13870   0.18663   0.18664
  Beta virt. eigenvalues --    0.21227   0.21227   0.24151   0.26219   0.28311
  Beta virt. eigenvalues --    0.42821   0.42821   0.48188   0.48189   0.48731
  Beta virt. eigenvalues --    0.62275   0.65322   0.65323   0.67839   0.67839
  Beta virt. eigenvalues --    0.69774   0.77922   0.88997   0.93590   1.01637
  Beta virt. eigenvalues --    1.01638   1.30411   1.30412   1.51326   1.51948
  Beta virt. eigenvalues --    1.57657   1.57658   1.57934   1.58190   1.58190
  Beta virt. eigenvalues --    1.73124   1.73125   1.77073   1.86309   1.86310
  Beta virt. eigenvalues --    2.07383   2.12940   2.15665   2.15666   2.35740
  Beta virt. eigenvalues --    2.35741   2.41584   2.49873   2.49874   2.52914
  Beta virt. eigenvalues --    2.60964   2.60964   2.64855   2.64855   2.67091
  Beta virt. eigenvalues --    2.67093   2.81424   2.84720   3.14046   3.84584
  Beta virt. eigenvalues --    3.84584   3.84681   3.84683   4.21095  23.96902
  Beta virt. eigenvalues --   24.08292
          Condensed to atoms (all electrons):
               1          2          3          4          5          6
     1  C    5.134803   0.226252  -0.042026   0.412912  -0.042027  -0.042031
     2  C    0.226252   5.134803   0.412912  -0.042027   0.412912   0.412914
     3  H   -0.042026   0.412912   0.535962  -0.005875  -0.030056  -0.030056
     4  H    0.412912  -0.042027  -0.005875   0.535962   0.007112  -0.005875
     5  H   -0.042027   0.412912  -0.030056   0.007112   0.535962  -0.030056
     6  H   -0.042031   0.412914  -0.030056  -0.005875  -0.030056   0.535965
     7  H    0.412912  -0.042026   0.007111  -0.030056  -0.005875  -0.005875
     8  H    0.412914  -0.042031  -0.005875  -0.030056  -0.005875   0.007112
               7          8
     1  C    0.412912   0.412914
     2  C   -0.042026  -0.042031
     3  H    0.007111  -0.005875
     4  H   -0.030056  -0.030056
     5  H   -0.005875  -0.005875
     6  H   -0.005875   0.007112
     7  H    0.535962  -0.030056
     8  H   -0.030056   0.535965
          Atomic-Atomic Spin Densities.
               1          2          3          4          5          6
     1  C   -0.000000   0.000000   0.000000  -0.000000   0.000000  -0.000000
     2  C    0.000000  -0.000000  -0.000000   0.000000  -0.000000   0.000000
     3  H    0.000000  -0.000000   0.000000  -0.000000   0.000000   0.000000
     4  H   -0.000000   0.000000  -0.000000   0.000000   0.000000   0.000000
     5  H    0.000000  -0.000000   0.000000   0.000000   0.000000   0.000000
     6  H   -0.000000   0.000000   0.000000   0.000000   0.000000  -0.000000
     7  H   -0.000000   0.000000  -0.000000   0.000000  -0.000000  -0.000000
     8  H    0.000000  -0.000000  -0.000000   0.000000   0.000000  -0.000000
               7          8
     1  C   -0.000000   0.000000
     2  C    0.000000  -0.000000
     3  H   -0.000000  -0.000000
     4  H    0.000000   0.000000
     5  H   -0.000000   0.000000
     6  H   -0.000000  -0.000000
     7  H    0.000000   0.000000
     8  H    0.000000  -0.000000
 Mulliken charges and spin densities:
               1          2
     1  C   -0.473710  -0.000000
     2  C   -0.473710  -0.000000
     3  H    0.157903   0.000000
     4  H    0.157903   0.000000
     5  H    0.157903   0.000000
     6  H    0.157904  -0.000000
     7  H    0.157903   0.000000
     8  H    0.157904  -0.000000
 Sum of Mulliken charges =  -0.00000   0.00000
 Mulliken charges and spin densities with hydrogens summed into heavy atoms:
               1          2
     1  C   -0.000000   0.000000
     2  C   -0.000000   0.000000
 Electronic spatial extent (au):  <R**2>=            112.1011
 Charge=              0.0000 electrons
 Dipole moment (field-independent basis, Debye):
    X=             -0.0000    Y=              0.0000    Z=              0.0000  Tot=              0.0000
 Quadrupole moment (field-independent basis, Debye-Ang):
   XX=            -15.6289   YY=            -14.9639   ZZ=            -14.9640
   XY=             -0.0000   XZ=              0.0001   YZ=             -0.0000
 Traceless Quadrupole moment (field-independent basis, Debye-Ang):
   XX=             -0.4433   YY=              0.2217   ZZ=              0.2216
   XY=             -0.0000   XZ=              0.0001   YZ=             -0.0000
 Octapole moment (field-independent basis, Debye-Ang**2):
  XXX=              0.0000  YYY=              0.0000  ZZZ=              0.0000  XYY=             -0.0000
  XXY=              0.0000  XXZ=              0.0000  XZZ=             -0.0000  YZZ=             -0.0000
  YYZ=              0.0000  XYZ=              0.0000
 Hexadecapole moment (field-independent basis, Debye-Ang**3):
 XXXX=            -99.8235 YYYY=            -30.2442 ZZZZ=            -30.2442 XXXY=             -0.0000
 XXXZ=              0.0003 YYYX=              0.0047 YYYZ=              0.0000 ZZZX=             -1.6221
 ZZZY=             -0.0000 XXYY=            -20.2805 XXZZ=            -20.2807 YYZZ=            -10.0814
 XXYZ=             -0.0000 YYXZ=              1.6222 ZZXY=             -0.0048
 N-N= 4.175219700614D+01 E-N=-2.676369965478D+02  KE= 7.933752428001D+01
 Symmetry AG   KE= 4.114974303443D+01
 Symmetry AU   KE= 3.818778124558D+01
 Symmetry AG   SP= 1.565253556831D-14
 Symmetry AU   SP=-1.364799303219D-14
                          Isotropic Fermi Contact Couplings
        Atom                 a.u.       MegaHertz       Gauss      10(-4) cm-1
     1  C(13)              0.00000       0.00000       0.00000       0.00000
     2  C(13)              0.00000       0.00000       0.00000       0.00000
     3  H(1)               0.00000       0.00000       0.00000       0.00000
     4  H(1)               0.00000       0.00000       0.00000       0.00000
     5  H(1)               0.00000       0.00000       0.00000       0.00000
     6  H(1)              -0.00000      -0.00000      -0.00000      -0.00000
     7  H(1)               0.00000       0.00000       0.00000       0.00000
     8  H(1)              -0.00000      -0.00000      -0.00000      -0.00000
 --------------------------------------------------------
       Center         ----  Spin Dipole Couplings  ----
                      3XX-RR        3YY-RR        3ZZ-RR
 --------------------------------------------------------
     1   Atom        0.000000      0.000000      0.000000
     2   Atom        0.000000      0.000000      0.000000
     3   Atom        0.000000      0.000000      0.000000
     4   Atom        0.000000      0.000000      0.000000
     5   Atom        0.000000      0.000000      0.000000
     6   Atom        0.000000      0.000000      0.000000
     7   Atom        0.000000      0.000000      0.000000
     8   Atom        0.000000      0.000000      0.000000
 --------------------------------------------------------
                        XY            XZ            YZ
 --------------------------------------------------------
     1   Atom        0.000000      0.000000      0.000000
     2   Atom        0.000000      0.000000      0.000000
     3   Atom        0.000000      0.000000      0.000000
     4   Atom        0.000000      0.000000      0.000000
     5   Atom        0.000000      0.000000      0.000000
     6   Atom        0.000000      0.000000      0.000000
     7   Atom        0.000000      0.000000      0.000000
     8   Atom        0.000000      0.000000      0.000000
 --------------------------------------------------------


 ---------------------------------------------------------------------------------
              Anisotropic Spin Dipole Couplings in Principal Axis System
 ---------------------------------------------------------------------------------

       Atom             a.u.   MegaHertz   Gauss  10(-4) cm-1        Axes

              Baa     0.0000     0.000     0.000     0.000  1.0000  0.0000  0.0000
     1 C(13)  Bbb     0.0000     0.000     0.000     0.000 -0.0000  1.0000  0.0000
              Bcc     0.0000     0.000     0.000     0.000  0.0000  0.0000  1.0000
 
              Baa     0.0000     0.000     0.000     0.000  1.0000  0.0000  0.0000
     2 C(13)  Bbb     0.0000     0.000     0.000     0.000 -0.0000  1.0000  0.0000
              Bcc     0.0000     0.000     0.000     0.000  0.0000  0.0000  1.0000
 
              Baa     0.0000     0.000     0.000     0.000  1.0000  0.0000  0.0000
     3 H(1)   Bbb     0.0000     0.000     0.000     0.000 -0.0000  1.0000  0.0000
              Bcc     0.0000     0.000     0.000     0.000  0.0000  0.0000  1.0000
 
              Baa     0.0000     0.000     0.000     0.000  1.0000  0.0000  0.0000
     4 H(1)   Bbb     0.0000     0.000     0.000     0.000 -0.0000  1.0000  0.0000
              Bcc     0.0000     0.000     0.000     0.000  0.0000  0.0000  1.0000
 
              Baa     0.0000     0.000     0.000     0.000  1.0000  0.0000  0.0000
     5 H(1)   Bbb     0.0000     0.000     0.000     0.000 -0.0000  1.0000  0.0000
              Bcc     0.0000     0.000     0.000     0.000  0.0000  0.0000  1.0000
 
              Baa     0.0000     0.000     0.000     0.000  1.0000  0.0000  0.0000
     6 H(1)   Bbb     0.0000     0.000     0.000     0.000 -0.0000  1.0000  0.0000
              Bcc     0.0000     0.000     0.000     0.000  0.0000  0.0000  1.0000
 
              Baa     0.0000     0.000     0.000     0.000  1.0000  0.0000  0.0000
     7 H(1)   Bbb     0.0000     0.000     0.000     0.000 -0.0000  1.0000  0.0000
              Bcc     0.0000     0.000     0.000     0.000  0.0000  0.0000  1.0000
 
              Baa     0.0000     0.000     0.000     0.000  1.0000  0.0000  0.0000
     8 H(1)   Bbb     0.0000     0.000     0.000     0.000 -0.0000  1.0000  0.0000
              Bcc     0.0000     0.000     0.000     0.000  0.0000  0.0000  1.0000
 

 ---------------------------------------------------------------------------------

 No NMR shielding tensors so no spin-rotation constants.
 Leave Link  601 at Tue Nov 19 12:44:16 2024, MaxMem=  1073741824 cpu:              10.2 elap:               0.6
 (Enter /home/szhao/Apps/g16/l701.exe)
 ... and contract with generalized density number  0.
 Compute integral first derivatives.
 Leave Link  701 at Tue Nov 19 12:44:16 2024, MaxMem=  1073741824 cpu:               5.5 elap:               0.3
 (Enter /home/szhao/Apps/g16/l702.exe)
 L702 exits ... SP integral derivatives will be done elsewhere.
 Leave Link  702 at Tue Nov 19 12:44:16 2024, MaxMem=  1073741824 cpu:               1.5 elap:               0.1
 (Enter /home/szhao/Apps/g16/l703.exe)
 Integral derivatives from FoFJK, PRISM(SPDF).
 Compute integral first derivatives, UseDBF=F ICtDFT=           0.
 Calling FoFJK, ICntrl=      2127 FMM=F ISym2X=1 I1Cent= 0 IOpClX= 1 NMat=1 NMatS=1 NMatT=0.
 FoFJK:  IHMeth= 1 ICntrl=    2127 DoSepK=F KAlg= 0 I1Cent=           0 FoldK=F
 IRaf=         0 NMat=       1 IRICut=       1 DoRegI=T DoRafI=F ISym2E= 1 IDoP0=0 IntGTp=1.
 FoFCou: FMM=F IPFlag=           0 FMFlag=      100000 FMFlg1=         800
         NFxFlg=           0 DoJE=F BraDBF=F KetDBF=F FulRan=T
         wScrn=  0.000000 ICntrl=      2127 IOpCl=  1 I1Cent=           0 NGrid=           0
         NMat0=    1 NMatS0=      1 NMatT0=    0 NMatD0=    1 NMtDS0=    0 NMtDT0=    0
 Petite list used in FoFCou.
 Leave Link  703 at Tue Nov 19 12:44:17 2024, MaxMem=  1073741824 cpu:              18.8 elap:               1.1
 (Enter /home/szhao/Apps/g16/l716.exe)
 Dipole        =-1.77635684D-15 1.59377719D-16 2.22044605D-16
 ***** Axes restored to original set *****
 -------------------------------------------------------------------
 Center     Atomic                   Forces (Hartrees/Bohr)
 Number     Number              X              Y              Z
 -------------------------------------------------------------------
      1        6           0.021131517   -0.000000498    0.000002249
      2        6          -0.021131517    0.000000498   -0.000002249
      3        1          -0.000000406    0.000005354   -0.000003141
      4        1           0.000000057    0.000005246    0.000002907
      5        1          -0.000000057   -0.000005246   -0.000002907
      6        1           0.000000765   -0.000000152    0.000005040
      7        1           0.000000406   -0.000005354    0.000003141
      8        1          -0.000000765    0.000000152   -0.000005040
 -------------------------------------------------------------------
 Cartesian Forces:  Max     0.021131517 RMS     0.006100144
 Z-matrix is all fixed cartesians, so copy forces.
 Force constants in Cartesian coordinates: 
                1             2             3             4             5 
      1  0.596051D+00
      2  0.000000D+00  0.647175D+00
      3  0.507966D-05  0.000000D+00  0.647171D+00
      4 -0.257857D+00  0.000000D+00  0.000000D+00  0.596051D+00
      5  0.000000D+00 -0.853948D-01  0.000000D+00  0.000000D+00  0.647175D+00
      6  0.000000D+00  0.000000D+00 -0.853925D-01  0.507966D-05  0.000000D+00
      7  0.000000D+00  0.212316D-01 -0.122856D-01 -0.112734D+00  0.875867D-01
      8  0.000000D+00  0.713849D-02 -0.365164D-02  0.765254D-01 -0.250450D+00
      9  0.000000D+00 -0.365167D-02  0.294083D-02 -0.442814D-01  0.101173D+00
     10 -0.112733D+00 -0.876848D-01 -0.505108D-01  0.000000D+00 -0.212556D-01
     11 -0.766111D-01 -0.250846D+00 -0.100946D+00  0.000000D+00  0.715266D-02
     12 -0.441316D-01 -0.100946D+00 -0.133752D+00  0.000000D+00  0.364341D-02
     13  0.000000D+00 -0.212556D-01 -0.122441D-01 -0.112733D+00 -0.876848D-01
     14  0.000000D+00  0.715266D-02  0.364338D-02 -0.766111D-01 -0.250846D+00
     15  0.000000D+00  0.364341D-02  0.292654D-02 -0.441316D-01 -0.100946D+00
     16  0.000000D+00  0.238902D-04  0.245302D-01 -0.112728D+00  0.987011D-04
     17  0.000000D+00  0.827736D-03  0.820551D-05  0.862021D-04 -0.756032D-01
     18  0.000000D+00  0.820341D-05  0.925079D-02  0.884084D-01 -0.227208D-03
     19 -0.112734D+00  0.875867D-01 -0.506822D-01  0.000000D+00  0.212316D-01
     20  0.765254D-01 -0.250450D+00  0.101174D+00  0.000000D+00  0.713849D-02
     21 -0.442814D-01  0.101173D+00 -0.134146D+00  0.000000D+00 -0.365167D-02
     22 -0.112728D+00  0.987011D-04  0.101188D+00  0.000000D+00  0.238902D-04
     23  0.862021D-04 -0.756032D-01 -0.227071D-03  0.000000D+00  0.827736D-03
     24  0.884084D-01 -0.227208D-03 -0.308999D+00  0.000000D+00  0.820341D-05
                6             7             8             9            10 
      6  0.647171D+00
      7 -0.506822D-01  0.943903D-01
      8  0.101174D+00 -0.825134D-01  0.247500D+00
      9 -0.134146D+00  0.477464D-01 -0.110092D+00  0.120944D+00
     10 -0.122441D-01  0.000000D+00  0.000000D+00  0.000000D+00  0.943896D-01
     11  0.364338D-02  0.000000D+00  0.154559D-03  0.267106D-03  0.826058D-01
     12  0.292654D-02  0.000000D+00 -0.268313D-03 -0.463694D-03  0.475848D-01
     13 -0.505108D-01  0.917207D-02  0.107821D-01  0.117265D-01  0.000000D+00
     14 -0.100946D+00 -0.107591D-01 -0.129802D-01 -0.143301D-01  0.000000D+00
     15 -0.133752D+00  0.117475D-01  0.143867D-01  0.160165D-01  0.000000D+00
     16  0.101188D+00  0.917143D-02 -0.479412D-02 -0.151916D-01  0.000000D+00
     17 -0.227071D-03 -0.155458D-01  0.879204D-02  0.269008D-01  0.000000D+00
     18 -0.308999D+00  0.347386D-02 -0.181652D-02 -0.575522D-02  0.000000D+00
     19 -0.122856D-01  0.000000D+00  0.000000D+00  0.000000D+00  0.917207D-02
     20 -0.365164D-02  0.000000D+00  0.155083D-03  0.268011D-03  0.107821D-01
     21  0.294083D-02  0.000000D+00  0.268011D-03  0.463171D-03  0.117265D-01
     22  0.245302D-01  0.000000D+00  0.000000D+00  0.000000D+00  0.917128D-02
     23  0.820551D-05  0.000000D+00 -0.309643D-03 -0.535118D-03  0.155525D-01
     24  0.925079D-02  0.000000D+00  0.000000D+00  0.000000D+00  0.344352D-02
               11            12            13            14            15 
     11  0.247930D+00
     12  0.109845D+00  0.120515D+00
     13  0.000000D+00  0.000000D+00  0.943896D-01
     14  0.154037D-03 -0.267407D-03  0.826058D-01  0.247930D+00
     15 -0.267407D-03  0.464216D-03  0.475848D-01  0.109845D+00  0.120515D+00
     16  0.000000D+00  0.000000D+00  0.917128D-02  0.476446D-02 -0.152007D-01
     17 -0.308596D-03  0.535721D-03  0.155525D-01  0.874312D-02 -0.269292D-01
     18  0.000000D+00  0.000000D+00  0.344352D-02  0.178825D-02 -0.570626D-02
     19 -0.107591D-01  0.117475D-01  0.000000D+00  0.000000D+00  0.000000D+00
     20 -0.129802D-01  0.143867D-01  0.000000D+00  0.154559D-03 -0.268313D-03
     21 -0.143301D-01  0.160165D-01  0.000000D+00  0.267106D-03 -0.463694D-03
     22  0.476446D-02 -0.152007D-01  0.000000D+00  0.000000D+00  0.000000D+00
     23  0.874312D-02 -0.269292D-01  0.000000D+00 -0.308596D-03  0.535721D-03
     24  0.178825D-02 -0.570626D-02  0.000000D+00  0.000000D+00  0.000000D+00
               16            17            18            19            20 
     16  0.943848D-01
     17 -0.929287D-04  0.572403D-01
     18 -0.953258D-01  0.247266D-03  0.311210D+00
     19  0.000000D+00  0.000000D+00  0.000000D+00  0.943903D-01
     20  0.000000D+00 -0.309643D-03  0.000000D+00 -0.825134D-01  0.247500D+00
     21  0.000000D+00 -0.535118D-03  0.000000D+00  0.477464D-01 -0.110092D+00
     22  0.000000D+00  0.000000D+00  0.000000D+00  0.917143D-02 -0.479412D-02
     23  0.000000D+00  0.618241D-03  0.000000D+00 -0.155458D-01  0.879204D-02
     24  0.000000D+00  0.000000D+00  0.000000D+00  0.347386D-02 -0.181652D-02
               21            22            23            24 
     21  0.120944D+00
     22 -0.151916D-01  0.943848D-01
     23  0.269008D-01 -0.929287D-04  0.572403D-01
     24 -0.575522D-02 -0.953258D-01  0.247266D-03  0.311210D+00
 Leave Link  716 at Tue Nov 19 12:44:18 2024, MaxMem=  1073741824 cpu:               1.3 elap:               0.1
 (Enter /home/szhao/Apps/g16/l103.exe)

 GradGradGradGradGradGradGradGradGradGradGradGradGradGradGradGradGradGrad
 Berny optimization.
 Search for a local minimum.
 Step number   1 out of a maximum of    2
 All quantities printed in internal units (Hartrees-Bohrs-Radians)
 Second derivative matrix not updated -- first step.
 ITU=  0
     Eigenvalues ---    0.00371   0.03971   0.03971   0.05379   0.08292
     Eigenvalues ---    0.08292   0.12559   0.12559   0.13562   0.13562
     Eigenvalues ---    0.17968   0.27875   0.50611   0.74539   0.74539
     Eigenvalues ---    0.89268   0.89269   0.94791
 Angle between quadratic step and forces=  59.99 degrees.
 ClnCor:  largest displacement from symmetrization is 2.65D-13 for atom     5.
 Linear search not attempted -- first point.
 ClnCor:  largest displacement from symmetrization is 0.00D+00 for atom     0.
 B after Tr=     0.000000   -0.000000    0.000000
         Rot=    1.000000   -0.000000   -0.000000   -0.000000 Ang=  -0.00 deg.
 Variable       Old X    -DE/DX   Delta X   Delta X   Delta X     New X
                                 (Linear)    (Quad)   (Total)
    X1       -1.48618   0.02113   0.00000   0.04097   0.04097  -1.44521
    Y1        0.00000  -0.00000   0.00000  -0.00000  -0.00000  -0.00000
    Z1        0.00000   0.00000   0.00000   0.00001   0.00001   0.00001
    X2        1.48633  -0.02113   0.00000  -0.04097  -0.04097   1.44536
    Y2       -0.00000   0.00000   0.00000   0.00000   0.00000   0.00000
    Z2       -0.00000  -0.00000   0.00000  -0.00001  -0.00001  -0.00001
    X3        2.21377  -0.00000   0.00000  -0.04096  -0.04096   2.17281
    Y3       -1.66943   0.00001   0.00000   0.00002   0.00002  -1.66940
    Z3        0.96600  -0.00000   0.00000  -0.00001  -0.00001   0.96599
    X4       -2.21361   0.00000   0.00000   0.04096   0.04096  -2.17265
    Y4       -1.67131   0.00001   0.00000   0.00002   0.00002  -1.67129
    Z4       -0.96274   0.00000   0.00000   0.00001   0.00001  -0.96273
    X5        2.21376  -0.00000   0.00000  -0.04096  -0.04096   2.17281
    Y5        1.67131  -0.00001   0.00000  -0.00002  -0.00002   1.67129
    Z5        0.96274  -0.00000   0.00000  -0.00001  -0.00001   0.96273
    X6        2.21372   0.00000   0.00000  -0.04094  -0.04094   2.17277
    Y6       -0.00188  -0.00000   0.00000  -0.00000  -0.00000  -0.00188
    Z6       -1.92879   0.00001   0.00000   0.00002   0.00002  -1.92877
    X7       -2.21362   0.00000   0.00000   0.04096   0.04096  -2.17266
    Y7        1.66943  -0.00001   0.00000  -0.00002  -0.00002   1.66940
    Z7       -0.96600   0.00000   0.00000   0.00001   0.00001  -0.96599
    X8       -2.21356  -0.00000   0.00000   0.04094   0.04094  -2.17262
    Y8        0.00188   0.00000   0.00000   0.00000   0.00000   0.00188
    Z8        1.92879  -0.00001   0.00000  -0.00002  -0.00002   1.92877
         Item               Value     Threshold  Converged?
 Maximum Force            0.021132     0.000450     NO 
 RMS     Force            0.006100     0.000300     NO 
 Maximum Displacement     0.040975     0.001800     NO 
 RMS     Displacement     0.023648     0.001200     NO 
 Predicted change in Energy=-8.658461D-04
 GradGradGradGradGradGradGradGradGradGradGradGradGradGradGradGradGradGrad

 Leave Link  103 at Tue Nov 19 12:44:18 2024, MaxMem=  1073741824 cpu:               1.4 elap:               0.1
 (Enter /home/szhao/Apps/g16/l9999.exe)
 1\1\GINC-NODE02\Force\UM062X\6-311+G(d,p)\C2H6\SZHAO\19-Nov-2024\0\\#p
  UM062X/6-311+G** force int=superfine\\Title Card Required\\0,1\C,-0.7
 86453,0.,0.\C,0.7865337778,-0.0000001111,-0.0000001111\H,1.171478,-0.8
 83423,0.511187\H,-1.171393,-0.884421,-0.509461\H,1.1714737778,0.884420
 8889,0.5094608889\H,1.171448,-0.000994,-1.020671\H,-1.1713972222,0.883
 4228889,-0.5111871111\H,-1.1713672222,0.0009938889,1.0206708889\\Versi
 on=ES64L-G16RevA.03\State=1-AG\HF=-79.7961026\S2=0.\S2-1=0.\S2A=0.\RMS
 D=3.899e-09\RMSF=6.100e-03\Dipole=0.,0.,0.\Quadrupole=-0.3295795,0.164
 7975,0.164782,-0.0000045,0.0000388,-0.0000049\PG=CI [X(C2H6)]\\@


 YOU ARE IN A MAZE OF TWISTY LITTLE PASSAGES.
 Job cpu time:       0 days  0 hours  3 minutes 13.9 seconds.
 Elapsed time:       0 days  0 hours  0 minutes 10.8 seconds.
 File lengths (MBytes):  RWF=     22 Int=      0 D2E=      0 Chk=      2 Scr=      2
 Normal termination of Gaussian 16 at Tue Nov 19 12:44:18 2024.
