Title Card Required                                                     
Force     UM062X                                                      6-311+G(d,p)        
Number of atoms                            I                6
Info1-9                                    I   N=           9
          15          15           0           0           0         100
           5          18        -502
Full Title                                 C   N=           2
Title Card Required     
Route                                      C   N=           4
#p UM062X/6-311+G** force int=superfine         
Charge                                     I                1
Multiplicity                               I                2
Number of electrons                        I               15
Number of alpha electrons                  I                8
Number of beta electrons                   I                7
Number of basis functions                  I               68
Number of independent functions            I               68
Number of point charges in /Mol/           I                0
Number of translation vectors              I                0
Atomic numbers                             I   N=           6
           6           6           1           1           1           1
Nuclear charges                            R   N=           6
  6.00000000E+00  6.00000000E+00  1.00000000E+00  1.00000000E+00  1.00000000E+00
  1.00000000E+00
Current cartesian coordinates              R   N=          18
  2.69902529E-21  1.32247381E+00  0.00000000E+00 -1.61960830E-16 -1.32247381E+00
  0.00000000E+00  1.76459413E+00  2.37296500E+00  0.00000000E+00 -1.76430689E+00
  2.37322011E+00 -4.93038066E-32 -1.76459413E+00 -2.37296500E+00  9.86076132E-32
  1.76430689E+00 -2.37322011E+00  4.93038066E-32
Number of symbols in /Mol/                 I                0
Force Field                                I                0
Atom Types                                 C   N=           6
                                                            
            
Int Atom Types                             I   N=           6
           0           0           0           0           0           0
MM charges                                 R   N=           6
  0.00000000E+00  0.00000000E+00  0.00000000E+00  0.00000000E+00  0.00000000E+00
  0.00000000E+00
Integer atomic weights                     I   N=           6
          12          12           1           1           1           1
Real atomic weights                        R   N=           6
  1.20000000E+01  1.20000000E+01  1.00782504E+00  1.00782504E+00  1.00782504E+00
  1.00782504E+00
Atom fragment info                         I   N=           6
           0           0           0           0           0           0
Atom residue num                           I   N=           6
           0           0           0           0           0           0
Nuclear spins                              I   N=           6
           0           0           1           1           1           1
Nuclear ZEff                               R   N=           6
 -3.60000000E+00 -3.60000000E+00 -1.00000000E+00 -1.00000000E+00 -1.00000000E+00
 -1.00000000E+00
Nuclear ZNuc                               R   N=           6
  6.00000000E+00  6.00000000E+00  1.00000000E+00  1.00000000E+00  1.00000000E+00
  1.00000000E+00
Nuclear QMom                               R   N=           6
  0.00000000E+00  0.00000000E+00  0.00000000E+00  0.00000000E+00  0.00000000E+00
  0.00000000E+00
Nuclear GFac                               R   N=           6
  0.00000000E+00  0.00000000E+00  2.79284600E+00  2.79284600E+00  2.79284600E+00
  2.79284600E+00
MicOpt                                     I   N=           6
          -1          -1          -1          -1          -1          -1
Number of residues                         I                0
Number of secondary structures             I                0
SymInf integers                            I   N=          26
           2           4           1           1           1          -1
          -1           1           1           1          -1          -1
          -1          -1           0           0           0           0
           0           0           0           0           0           0
           0           0
RotTr to input orientation                 R   N=          12
  2.73876232E-17 -1.00000000E+00 -1.82558437E-21 -1.00000000E+00 -2.73883035E-17
 -1.22464680E-16  1.22464680E-16  1.82558437E-21 -1.00000000E+00  0.00000000E+00
  0.00000000E+00  0.00000000E+00
Number of contracted shells                I               28
Number of primitive shells                 I               50
Pure/Cartesian d shells                    I                0
Pure/Cartesian f shells                    I                0
Highest angular momentum                   I                2
Largest degree of contraction              I                6
Shell types                                I   N=          28
           0          -1          -1          -1          -1          -2
           0          -1          -1          -1          -1          -2
           0           0           0           1           0           0
           0           1           0           0           0           1
           0           0           0           1
Number of primitives per shell             I   N=          28
           6           3           1           1           1           1
           6           3           1           1           1           1
           3           1           1           1           3           1
           1           1           3           1           1           1
           3           1           1           1
Shell to atom map                          I   N=          28
           1           1           1           1           1           1
           2           2           2           2           2           2
           3           3           3           3           4           4
           4           4           5           5           5           5
           6           6           6           6
Primitive exponents                        R   N=          50
  4.56324000E+03  6.82024000E+02  1.54973000E+02  4.44553000E+01  1.30290000E+01
  1.82773000E+00  2.09642000E+01  4.80331000E+00  1.45933000E+00  4.83456000E-01
  1.45585000E-01  4.38000000E-02  6.26000000E-01  4.56324000E+03  6.82024000E+02
  1.54973000E+02  4.44553000E+01  1.30290000E+01  1.82773000E+00  2.09642000E+01
  4.80331000E+00  1.45933000E+00  4.83456000E-01  1.45585000E-01  4.38000000E-02
  6.26000000E-01  3.38650000E+01  5.09479000E+00  1.15879000E+00  3.25840000E-01
  1.02741000E-01  7.50000000E-01  3.38650000E+01  5.09479000E+00  1.15879000E+00
  3.25840000E-01  1.02741000E-01  7.50000000E-01  3.38650000E+01  5.09479000E+00
  1.15879000E+00  3.25840000E-01  1.02741000E-01  7.50000000E-01  3.38650000E+01
  5.09479000E+00  1.15879000E+00  3.25840000E-01  1.02741000E-01  7.50000000E-01
Contraction coefficients                   R   N=          50
  1.96665025E-03  1.52306019E-02  7.61269097E-02  2.60801033E-01  6.16462078E-01
  2.21006028E-01  1.14660081E-01  9.19999648E-01 -3.03068213E-03  1.00000000E+00
  1.00000000E+00  1.00000000E+00  1.00000000E+00  1.96665025E-03  1.52306019E-02
  7.61269097E-02  2.60801033E-01  6.16462078E-01  2.21006028E-01  1.14660081E-01
  9.19999648E-01 -3.03068213E-03  1.00000000E+00  1.00000000E+00  1.00000000E+00
  1.00000000E+00  2.54938145E-02  1.90373109E-01  8.52161486E-01  1.00000000E+00
  1.00000000E+00  1.00000000E+00  2.54938145E-02  1.90373109E-01  8.52161486E-01
  1.00000000E+00  1.00000000E+00  1.00000000E+00  2.54938145E-02  1.90373109E-01
  8.52161486E-01  1.00000000E+00  1.00000000E+00  1.00000000E+00  2.54938145E-02
  1.90373109E-01  8.52161486E-01  1.00000000E+00  1.00000000E+00  1.00000000E+00
P(S=P) Contraction coefficients            R   N=          50
  0.00000000E+00  0.00000000E+00  0.00000000E+00  0.00000000E+00  0.00000000E+00
  0.00000000E+00  4.02486927E-02  2.37593957E-01  8.15853851E-01  1.00000000E+00
  1.00000000E+00  1.00000000E+00  0.00000000E+00  0.00000000E+00  0.00000000E+00
  0.00000000E+00  0.00000000E+00  0.00000000E+00  0.00000000E+00  4.02486927E-02
  2.37593957E-01  8.15853851E-01  1.00000000E+00  1.00000000E+00  1.00000000E+00
  0.00000000E+00  0.00000000E+00  0.00000000E+00  0.00000000E+00  0.00000000E+00
  0.00000000E+00  0.00000000E+00  0.00000000E+00  0.00000000E+00  0.00000000E+00
  0.00000000E+00  0.00000000E+00  0.00000000E+00  0.00000000E+00  0.00000000E+00
  0.00000000E+00  0.00000000E+00  0.00000000E+00  0.00000000E+00  0.00000000E+00
  0.00000000E+00  0.00000000E+00  0.00000000E+00  0.00000000E+00  0.00000000E+00
Coordinates of each shell                  R   N=          84
  1.79935019E-21  1.32247381E+00 -1.63007482E-32  1.79935019E-21  1.32247381E+00
 -1.63007482E-32  1.79935019E-21  1.32247381E+00 -1.63007482E-32  1.79935019E-21
  1.32247381E+00 -1.63007482E-32  1.79935019E-21  1.32247381E+00 -1.63007482E-32
  1.79935019E-21  1.32247381E+00 -1.63007482E-32 -1.61959930E-16 -1.32247381E+00
  4.89022445E-32 -1.61959930E-16 -1.32247381E+00  4.89022445E-32 -1.61959930E-16
 -1.32247381E+00  4.89022445E-32 -1.61959930E-16 -1.32247381E+00  4.89022445E-32
 -1.61959930E-16 -1.32247381E+00  4.89022445E-32 -1.61959930E-16 -1.32247381E+00
  4.89022445E-32  1.76459413E+00  2.37296500E+00 -2.92487200E-32  1.76459413E+00
  2.37296500E+00 -2.92487200E-32  1.76459413E+00  2.37296500E+00 -2.92487200E-32
  1.76459413E+00  2.37296500E+00 -2.92487200E-32 -1.76430689E+00  2.37322011E+00
 -2.92525282E-32 -1.76430689E+00  2.37322011E+00 -2.92525282E-32 -1.76430689E+00
  2.37322011E+00 -2.92525282E-32 -1.76430689E+00  2.37322011E+00 -2.92525282E-32
 -1.76459413E+00 -2.37296500E+00  8.77481512E-32 -1.76459413E+00 -2.37296500E+00
  8.77481512E-32 -1.76459413E+00 -2.37296500E+00  8.77481512E-32 -1.76459413E+00
 -2.37296500E+00  8.77481512E-32  1.76430689E+00 -2.37322011E+00  8.77555936E-32
  1.76430689E+00 -2.37322011E+00  8.77555936E-32  1.76430689E+00 -2.37322011E+00
  8.77555936E-32  1.76430689E+00 -2.37322011E+00  8.77555936E-32
Num ILSW                                   I              100
ILSW                                       I   N=         100
           1           0           0           0           2           0
           0           0           0           0        4336          -1
           7           0           0           0           2           0
           0           0           0           0           1           0
           1           0           0           0           0           0
           0           0      100000           0          -1           0
           0           0           0           0           0           0
           0           0           0           1           0           0
           0 -2000000000           1           0           0           0
           0           0           4          52           0           0
           0           0          55           0           0           0
           0           0           0           6           0           1
           0           0           0           0           0           0
           0           0           0           0           0           0
           0           0           0           0           0           0
           0           0           0           0           0           0
           0           0           0           0
Num RLSW                                   I               52
RLSW                                       R   N=          52
  1.00000000E+00  1.00000000E+00  1.00000000E+00  1.00000000E+00  5.40000000E-01
  0.00000000E+00  0.00000000E+00  1.00000000E+00  0.00000000E+00  0.00000000E+00
  0.00000000E+00  0.00000000E+00  1.00000000E+00  0.00000000E+00  0.00000000E+00
  0.00000000E+00  0.00000000E+00  1.00000000E+00  0.00000000E+00  0.00000000E+00
  0.00000000E+00  0.00000000E+00  1.00000000E+00  0.00000000E+00  0.00000000E+00
  0.00000000E+00  0.00000000E+00  1.00000000E+00  0.00000000E+00  0.00000000E+00
  0.00000000E+00  0.00000000E+00  1.00000000E+00  0.00000000E+00  0.00000000E+00
  0.00000000E+00  0.00000000E+00  0.00000000E+00  1.00000000E+00  1.00000000E+00
  0.00000000E+00  1.00000000E+00  0.00000000E+00  0.00000000E+00  0.00000000E+00
  0.00000000E+00  0.00000000E+00  0.00000000E+00  0.00000000E+00  0.00000000E+00
  0.00000000E+00  0.00000000E+00
MxBond                                     I                3
NBond                                      I   N=           6
           3           3           1           1           1           1
IBond                                      I   N=          18
           2           3           4           1           5           6
           1           0           0           1           0           0
           2           0           0           2           0           0
RBond                                      R   N=          18
  1.50000000E+00  1.00000000E+00  1.00000000E+00  1.50000000E+00  1.00000000E+00
  1.00000000E+00  1.00000000E+00  0.00000000E+00  0.00000000E+00  1.00000000E+00
  0.00000000E+00  0.00000000E+00  1.00000000E+00  0.00000000E+00  0.00000000E+00
  1.00000000E+00  0.00000000E+00  0.00000000E+00
Virial Ratio                               R      2.003694549690507E+00
SCF Energy                                 R     -7.818400155724922E+01
Total Energy                               R     -7.818400155724922E+01
S**2                                       R      7.525268952010524E-01
S**2 after annihilation                    R      7.500051191748267E-01
RMS Force                                  R      4.366015471584172E-03
RMS Density                                R      1.627147740231464E-09
Job Status                                 I                1
Nuclear derivative order                   I                1
External E-field                           R   N=          35
  0.00000000E+00  0.00000000E+00  0.00000000E+00  0.00000000E+00  0.00000000E+00
  0.00000000E+00  0.00000000E+00  0.00000000E+00  0.00000000E+00  0.00000000E+00
  0.00000000E+00  0.00000000E+00  0.00000000E+00  0.00000000E+00  0.00000000E+00
  0.00000000E+00  0.00000000E+00  0.00000000E+00  0.00000000E+00  0.00000000E+00
  0.00000000E+00  0.00000000E+00  0.00000000E+00  0.00000000E+00  0.00000000E+00
  0.00000000E+00  0.00000000E+00  0.00000000E+00  0.00000000E+00  0.00000000E+00
  0.00000000E+00  0.00000000E+00  0.00000000E+00  0.00000000E+00  0.00000000E+00
IOpCl                                      I                1
IROHF                                      I                0
Alpha Orbital Energies                     R   N=          68
 -1.08950250E+01 -1.08941877E+01 -1.18929745E+00 -9.76653463E-01 -8.49208728E-01
 -7.97733251E-01 -7.26730753E-01 -6.70631524E-01 -2.92072653E-01 -1.47023005E-01
 -1.26007877E-01 -1.25237741E-01 -9.75997677E-02 -7.79150555E-02 -6.86397888E-02
 -4.83035309E-02 -4.45090230E-02 -2.55694861E-02 -5.06049341E-03  2.07881058E-02
  8.03674644E-02  1.08574998E-01  2.04266741E-01  2.27836498E-01  2.80676567E-01
  2.95191442E-01  3.12855571E-01  3.78513005E-01  3.99619808E-01  4.57569690E-01
  4.60492290E-01  4.87618820E-01  5.63526814E-01  6.02123287E-01  7.43324029E-01
  7.99533600E-01  8.61529074E-01  1.12696733E+00  1.16221644E+00  1.19475507E+00
  1.30599811E+00  1.31572375E+00  1.35795813E+00  1.36800371E+00  1.49793241E+00
  1.54614607E+00  1.69488355E+00  1.75916340E+00  1.76462341E+00  1.85347763E+00
  1.87349050E+00  1.92663376E+00  2.12827276E+00  2.17493230E+00  2.28222024E+00
  2.32144656E+00  2.40181939E+00  2.42616228E+00  2.43132892E+00  2.52798988E+00
  2.57565856E+00  2.78783506E+00  3.01185998E+00  3.39681022E+00  3.54313227E+00
  3.84473075E+00  2.35135891E+01  2.37779161E+01
Beta Orbital Energies                      R   N=          68
 -1.08927071E+01 -1.08920117E+01 -1.14918379E+00 -9.57462889E-01 -8.37929118E-01
 -7.88343785E-01 -7.23561857E-01 -4.23431084E-01 -2.21833238E-01 -1.64527426E-01
 -1.26344617E-01 -1.25562119E-01 -1.02748846E-01 -8.66763197E-02 -6.92491784E-02
 -4.78236976E-02 -3.63306686E-02 -2.07087664E-02 -8.11908846E-03  2.31720774E-02
  9.41210040E-02  1.13150372E-01  1.97449174E-01  2.21938701E-01  2.95780040E-01
  2.98314203E-01  3.04105821E-01  3.70232387E-01  4.10988338E-01  4.70722510E-01
  4.75456993E-01  5.00771668E-01  5.33461280E-01  5.92825705E-01  7.78380701E-01
  8.37290965E-01  8.85397485E-01  1.16749524E+00  1.17919212E+00  1.20342146E+00
  1.33622649E+00  1.34491392E+00  1.37152643E+00  1.37653489E+00  1.51345644E+00
  1.56776803E+00  1.72005630E+00  1.77961456E+00  1.79025322E+00  1.87495602E+00
  1.88977295E+00  1.96509365E+00  2.16150910E+00  2.20536442E+00  2.29157586E+00
  2.32736524E+00  2.41343384E+00  2.44286539E+00  2.46936247E+00  2.55170493E+00
  2.62221244E+00  2.82634827E+00  3.04081141E+00  3.44394148E+00  3.59002143E+00
  3.89923154E+00  2.35259799E+01  2.37940079E+01
Alpha MO coefficients                      R   N=        4624
  3.98907514E-01  3.27946656E-01  7.49090235E-09 -8.33214413E-04  0.00000000E+00
  8.76936834E-03 -5.39997821E-07  1.78233287E-03  0.00000000E+00 -2.29155977E-03
 -4.24845929E-07  1.05069657E-04  0.00000000E+00 -6.28990478E-04  3.90876877E-07
 -6.70221908E-04  0.00000000E+00 -6.77662367E-04  0.00000000E+00  0.00000000E+00
  8.16569860E-04 -5.91169143E-07  3.98907514E-01  3.27946656E-01 -7.49090235E-09
  8.33214413E-04  0.00000000E+00  8.76936834E-03  5.39997821E-07 -1.78233287E-03
  0.00000000E+00 -2.29155977E-03  4.24845929E-07 -1.05069657E-04  0.00000000E+00
 -6.28990478E-04 -3.90876877E-07  6.70221908E-04  0.00000000E+00 -6.77662367E-04
  0.00000000E+00  0.00000000E+00  8.16569860E-04 -5.91169143E-07  1.69102792E-04
 -2.39103461E-03  1.61615596E-03  1.27582025E-03  7.19930522E-04  0.00000000E+00
  1.68960174E-04 -2.39269069E-03  1.61695318E-03 -1.27627897E-03  7.20498950E-04
  0.00000000E+00  1.69102792E-04 -2.39103461E-03  1.61615596E-03 -1.27582025E-03
 -7.19930522E-04  0.00000000E+00  1.68960174E-04 -2.39269069E-03  1.61695318E-03
  1.27627897E-03 -7.20498950E-04  0.00000000E+00  3.99002452E-01  3.27910836E-01
  2.26456233E-08  1.83005780E-04  0.00000000E+00  8.62939343E-03 -4.05491123E-07
 -1.64103545E-03  0.00000000E+00 -3.48662055E-03  4.40817807E-08  1.09747570E-03
  0.00000000E+00  3.49182893E-03  4.00431185E-08 -1.35003928E-03  0.00000000E+00
 -1.22434247E-03  0.00000000E+00  0.00000000E+00 -1.01494446E-03 -2.76543988E-07
 -3.99002452E-01 -3.27910836E-01  2.26456233E-08  1.83005780E-04  0.00000000E+00
 -8.62939343E-03 -4.05491123E-07 -1.64103545E-03  0.00000000E+00  3.48662055E-03
  4.40817807E-08  1.09747570E-03  0.00000000E+00 -3.49182893E-03  4.00431185E-08
 -1.35003928E-03  0.00000000E+00  1.22434247E-03  0.00000000E+00  0.00000000E+00
  1.01494446E-03  2.76543988E-07  3.31745457E-04 -1.31716770E-03  9.78151715E-04
  7.96790164E-04  3.16959130E-04  0.00000000E+00  3.31613078E-04 -1.31790546E-03
  9.78609812E-04 -7.97162242E-04  3.17209081E-04  0.00000000E+00 -3.31745457E-04
  1.31716770E-03 -9.78151715E-04  7.96790164E-04  3.16959130E-04  0.00000000E+00
 -3.31613078E-04  1.31790546E-03 -9.78609812E-04 -7.97162242E-04  3.17209081E-04
  0.00000000E+00 -8.58283783E-02 -1.38956585E-01 -1.46971654E-06 -5.27163210E-02
  0.00000000E+00  3.71824349E-01 -1.71514626E-06 -7.88438717E-02  0.00000000E+00
  1.96689110E-01  1.36470332E-07 -2.06513144E-02  0.00000000E+00  1.56534575E-04
 -1.09418139E-06  1.08388208E-02  0.00000000E+00 -6.30749012E-03  0.00000000E+00
  0.00000000E+00 -1.09147420E-02 -1.35911813E-06 -8.58283783E-02 -1.38956585E-01
  1.46971654E-06  5.27163210E-02  0.00000000E+00  3.71824349E-01  1.71514626E-06
  7.88438717E-02  0.00000000E+00  1.96689110E-01 -1.36470332E-07  2.06513144E-02
  0.00000000E+00  1.56534575E-04  1.09418139E-06 -1.08388208E-02  0.00000000E+00
 -6.30749012E-03  0.00000000E+00  0.00000000E+00 -1.09147420E-02 -1.35911813E-06
  4.83187631E-02  5.12167734E-02 -1.00993020E-02 -8.43547504E-03 -6.68657340E-03
  0.00000000E+00  4.83219854E-02  5.12196995E-02 -1.01016585E-02  8.43370767E-03
 -6.68801629E-03  0.00000000E+00  4.83187631E-02  5.12167734E-02 -1.00993020E-02
  8.43547504E-03  6.68657340E-03  0.00000000E+00  4.83219854E-02  5.12196995E-02
 -1.01016585E-02 -8.43370767E-03  6.68801629E-03  0.00000000E+00 -7.11450363E-02
 -1.16875718E-01 -1.16432103E-05  7.37060820E-02  0.00000000E+00  3.22367380E-01
 -1.47852250E-05  1.10604833E-01  0.00000000E+00  2.73029629E-01 -5.76811471E-06
  2.65175338E-02  0.00000000E+00 -8.32456588E-02 -1.82124319E-07  2.61939500E-02
  0.00000000E+00 -5.22891912E-04  0.00000000E+00  0.00000000E+00  1.19535826E-02
 -1.76454909E-06  7.11450363E-02  1.16875718E-01 -1.16432103E-05  7.37060820E-02
  0.00000000E+00 -3.22367380E-01 -1.47852250E-05  1.10604833E-01  0.00000000E+00
 -2.73029629E-01 -5.76811471E-06  2.65175338E-02  0.00000000E+00  8.32456588E-02
 -1.82124319E-07  2.61939500E-02  0.00000000E+00  5.22891912E-04  0.00000000E+00
  0.00000000E+00 -1.19535826E-02  1.76454909E-06  8.69264619E-02  1.03080458E-01
 -2.72024925E-03 -1.35585252E-02 -5.06100067E-03  0.00000000E+00  8.69517936E-02
  1.03107326E-01 -2.72230180E-03  1.35605695E-02 -5.06530518E-03  0.00000000E+00
 -8.69264619E-02 -1.03080458E-01  2.72024925E-03 -1.35585252E-02 -5.06100067E-03
  0.00000000E+00 -8.69517936E-02 -1.03107326E-01  2.72230180E-03  1.35605695E-02
 -5.06530518E-03  0.00000000E+00 -4.81590048E-06 -8.11785930E-06  1.60139532E-01
 -8.79645535E-08  0.00000000E+00  2.31368910E-05  2.40562544E-01  4.68541213E-06
  0.00000000E+00  3.54352026E-05  1.39168350E-01 -5.03634989E-06  0.00000000E+00
  1.65464189E-05  4.34473433E-03 -4.41456089E-06  0.00000000E+00 -2.31560884E-07
  0.00000000E+00  0.00000000E+00  4.04988309E-06 -5.95629849E-03  4.81590048E-06
  8.11785930E-06  1.60139532E-01 -8.79645535E-08  0.00000000E+00 -2.31368910E-05
  2.40562544E-01  4.68541213E-06  0.00000000E+00 -3.54352026E-05  1.39168350E-01
 -5.03634989E-06  0.00000000E+00 -1.65464189E-05  4.34473433E-03 -4.41456089E-06
  0.00000000E+00  2.31560884E-07  0.00000000E+00  0.00000000E+00 -4.04988309E-06
  5.95629849E-03  9.40550860E-02  1.17195648E-01 -3.72046495E-03 -9.44372569E-03
 -9.30870839E-03  0.00000000E+00 -9.40396631E-02 -1.17171942E-01  3.72189776E-03
 -9.44051635E-03  9.31051110E-03  0.00000000E+00 -9.40550860E-02 -1.17195648E-01
  3.72046495E-03 -9.44372569E-03 -9.30870839E-03  0.00000000E+00  9.40396631E-02
  1.17171942E-01 -3.72189776E-03 -9.44051635E-03  9.31051110E-03  0.00000000E+00
 -1.33398615E-03 -2.23577703E-03 -4.06153538E-05  1.94843835E-01  0.00000000E+00
  7.87019510E-04 -5.56639475E-05  2.89119798E-01  0.00000000E+00  5.55300091E-02
 -4.53576888E-05  1.34766585E-01  0.00000000E+00  3.03598756E-03 -1.01771994E-05
 -9.42698423E-03  0.00000000E+00  1.37814868E-03  0.00000000E+00  0.00000000E+00
  2.17516526E-02 -9.27813935E-06 -1.33398615E-03 -2.23577703E-03  4.06153538E-05
 -1.94843835E-01  0.00000000E+00  7.87019510E-04  5.56639475E-05 -2.89119798E-01
  0.00000000E+00  5.55300091E-02  4.53576888E-05 -1.34766585E-01  0.00000000E+00
  3.03598756E-03  1.01771994E-05  9.42698423E-03  0.00000000E+00  1.37814868E-03
  0.00000000E+00  0.00000000E+00  2.17516526E-02 -9.27813935E-06  7.67319450E-02
  1.04741859E-01  1.73379827E-02 -1.14386021E-02  1.85316869E-03  0.00000000E+00
  7.68065883E-02  1.04834345E-01  1.73329789E-02  1.14453642E-02  1.84490498E-03
  0.00000000E+00  7.67319450E-02  1.04741859E-01  1.73379827E-02  1.14386021E-02
 -1.85316869E-03  0.00000000E+00  7.68065883E-02  1.04834345E-01  1.73329789E-02
 -1.14453642E-02 -1.84490498E-03  0.00000000E+00  1.44107948E-06  2.32429494E-06
  1.57230993E-01  5.09437501E-05  0.00000000E+00 -9.38920491E-06  2.36246177E-01
  7.85607418E-05  0.00000000E+00  9.94670754E-06  1.85040026E-01  3.71408787E-05
  0.00000000E+00  2.26867553E-07  1.74175169E-02 -5.39033202E-06  0.00000000E+00
  6.35214671E-08  0.00000000E+00  0.00000000E+00  9.91758792E-06  3.08781222E-02
  1.44107948E-06  2.32429494E-06 -1.57230993E-01 -5.09437501E-05  0.00000000E+00
 -9.38920491E-06 -2.36246177E-01 -7.85607418E-05  0.00000000E+00  9.94670754E-06
 -1.85040026E-01 -3.71408787E-05  0.00000000E+00  2.26867553E-07 -1.74175169E-02
  5.39033202E-06  0.00000000E+00  6.35214671E-08  0.00000000E+00  0.00000000E+00
  9.91758792E-06  3.08781222E-02  1.14299059E-01  1.55574156E-01  2.01627776E-02
 -6.23748785E-03 -8.98029067E-03  0.00000000E+00 -1.14252351E-01 -1.55499385E-01
 -2.01386439E-02 -6.22753662E-03  8.98333474E-03  0.00000000E+00  1.14299059E-01
  1.55574156E-01  2.01627776E-02  6.23748785E-03  8.98029067E-03  0.00000000E+00
 -1.14252351E-01 -1.55499385E-01 -2.01386439E-02  6.22753662E-03 -8.98333474E-03
  0.00000000E+00  0.00000000E+00  0.00000000E+00  0.00000000E+00  0.00000000E+00
  1.87767375E-01  0.00000000E+00  0.00000000E+00  0.00000000E+00  3.15562457E-01
  0.00000000E+00  0.00000000E+00  0.00000000E+00  2.32548135E-01  0.00000000E+00
  0.00000000E+00  0.00000000E+00 -5.13073848E-03  0.00000000E+00 -1.30367337E-07
 -3.15402917E-02  0.00000000E+00  0.00000000E+00  0.00000000E+00  0.00000000E+00
  0.00000000E+00  0.00000000E+00  1.87767375E-01  0.00000000E+00  0.00000000E+00
  0.00000000E+00  3.15562457E-01  0.00000000E+00  0.00000000E+00  0.00000000E+00
  2.32548135E-01  0.00000000E+00  0.00000000E+00  0.00000000E+00 -5.13073848E-03
  0.00000000E+00  1.30367337E-07  3.15402917E-02  0.00000000E+00  0.00000000E+00
  0.00000000E+00  0.00000000E+00  0.00000000E+00  0.00000000E+00  0.00000000E+00
  9.63261344E-03  0.00000000E+00  0.00000000E+00  0.00000000E+00  0.00000000E+00
  0.00000000E+00  9.63347385E-03  0.00000000E+00  0.00000000E+00  0.00000000E+00
  0.00000000E+00  0.00000000E+00  9.63261344E-03  0.00000000E+00  0.00000000E+00
  0.00000000E+00  0.00000000E+00  0.00000000E+00  9.63347385E-03  0.00000000E+00
  0.00000000E+00  0.00000000E+00  0.00000000E+00  2.04935564E-01  0.00000000E+00
  0.00000000E+00  0.00000000E+00  3.40311390E-01  0.00000000E+00  0.00000000E+00
  0.00000000E+00  4.69261338E-01  0.00000000E+00  0.00000000E+00  0.00000000E+00
  1.44599046E-01  0.00000000E+00 -1.21618300E-07  2.47207566E-02  0.00000000E+00
  0.00000000E+00  0.00000000E+00  0.00000000E+00  0.00000000E+00  0.00000000E+00
 -2.04935564E-01  0.00000000E+00  0.00000000E+00  0.00000000E+00 -3.40311390E-01
  0.00000000E+00  0.00000000E+00  0.00000000E+00 -4.69261338E-01  0.00000000E+00
  0.00000000E+00  0.00000000E+00 -1.44599046E-01  0.00000000E+00 -1.21618300E-07
  2.47207566E-02  0.00000000E+00  0.00000000E+00  0.00000000E+00  0.00000000E+00
  0.00000000E+00  0.00000000E+00  0.00000000E+00  1.86137552E-02  0.00000000E+00
  0.00000000E+00  0.00000000E+00  0.00000000E+00  0.00000000E+00  1.86160123E-02
  0.00000000E+00  0.00000000E+00  0.00000000E+00  0.00000000E+00  0.00000000E+00
 -1.86137552E-02  0.00000000E+00  0.00000000E+00  0.00000000E+00  0.00000000E+00
  0.00000000E+00 -1.86160123E-02  3.00945203E-02  5.21640368E-02 -1.09276682E-05
 -4.58263945E-02  0.00000000E+00 -1.65914407E-01 -1.08133050E-05 -6.92294808E-02
  0.00000000E+00 -6.53882118E-01 -8.36598771E-05 -2.14983797E-01  0.00000000E+00
  8.42929353E-01 -1.02362695E-04  1.34350567E-01  0.00000000E+00  1.04928495E-02
  0.00000000E+00  0.00000000E+00  5.57039859E-03  2.80848823E-06  3.00945203E-02
  5.21640368E-02  1.09276682E-05  4.58263945E-02  0.00000000E+00 -1.65914407E-01
  1.08133050E-05  6.92294808E-02  0.00000000E+00 -6.53882118E-01  8.36598771E-05
  2.14983797E-01  0.00000000E+00  8.42929353E-01  1.02362695E-04 -1.34350567E-01
  0.00000000E+00  1.04928495E-02  0.00000000E+00  0.00000000E+00  5.57039859E-03
  2.80848823E-06 -3.07644904E-03  9.53429649E-02 -5.68708525E-03  8.77187353E-03
 -1.05167105E-03  0.00000000E+00 -3.08235051E-03  9.53368120E-02 -5.84498990E-03
 -8.76953190E-03 -1.05188647E-03  0.00000000E+00 -3.07644904E-03  9.53429649E-02
 -5.68708525E-03 -8.77187353E-03  1.05167105E-03  0.00000000E+00 -3.08235051E-03
  9.53368120E-02 -5.84498990E-03  8.76953190E-03  1.05188647E-03  0.00000000E+00
 -3.48404270E-02 -6.05782682E-02  4.08953456E-05  1.06955239E-02  0.00000000E+00
  1.88280262E-01  6.38568158E-05  7.03271790E-03  0.00000000E+00  6.66456515E-01
  1.46037300E-04 -1.27739196E-02  0.00000000E+00  4.24919417E+00 -2.45086074E-04
 -1.82752826E+00  0.00000000E+00  7.59843999E-03  0.00000000E+00  0.00000000E+00
  1.22037156E-02 -1.07381214E-05  3.48404270E-02  6.05782682E-02  4.08953456E-05
  1.06955239E-02  0.00000000E+00 -1.88280262E-01  6.38568158E-05  7.03271790E-03
  0.00000000E+00 -6.66456515E-01  1.46037300E-04 -1.27739196E-02  0.00000000E+00
 -4.24919417E+00 -2.45086074E-04 -1.82752826E+00  0.00000000E+00 -7.59843999E-03
  0.00000000E+00  0.00000000E+00 -1.22037156E-02  1.07381214E-05 -7.49342326E-03
 -7.83595493E-02 -9.04122539E-02 -5.20398736E-03 -1.19958662E-02  0.00000000E+00
 -7.48560628E-03 -7.82709114E-02 -9.03176855E-02  5.19243451E-03 -1.19915918E-02
  0.00000000E+00  7.49342326E-03  7.83595493E-02  9.04122539E-02 -5.20398736E-03
 -1.19958662E-02  0.00000000E+00  7.48560628E-03  7.82709114E-02  9.03176855E-02
  5.19243451E-03 -1.19915918E-02  0.00000000E+00 -1.49317800E-05 -2.59845479E-05
 -8.94240084E-02  1.28050323E-07  0.00000000E+00  8.26813343E-05 -1.46175679E-01
 -2.22437777E-06  0.00000000E+00  2.81336434E-04 -3.22219928E-01 -1.13251272E-05
  0.00000000E+00  2.61782413E-03  5.47386690E-01 -1.02379034E-03  0.00000000E+00
  3.84839447E-06  0.00000000E+00  0.00000000E+00  7.25426830E-06  2.27498674E-02
  1.49317800E-05  2.59845479E-05 -8.94240084E-02  1.28050323E-07  0.00000000E+00
 -8.26813343E-05 -1.46175679E-01 -2.22437777E-06  0.00000000E+00 -2.81336434E-04
 -3.22219928E-01 -1.13251272E-05  0.00000000E+00 -2.61782413E-03  5.47386690E-01
 -1.02379034E-03  0.00000000E+00 -3.84839447E-06  0.00000000E+00  0.00000000E+00