Title Card Required                                                     
FOpt      UM062X                                                      6-311+G(d,p)        
Number of atoms                            I                4
Info1-9                                    I   N=           9
          13          13           0           0           0         110
           2          18        -502
Full Title                                 C   N=           2
Title Card Required     
Route                                      C   N=           4
#p opt UM062X/6-311+G** nosymm int=superfine    
Charge                                     I                0
Multiplicity                               I                1
Number of electrons                        I               14
Number of alpha electrons                  I                7
Number of beta electrons                   I                7
Number of basis functions                  I               56
Number of independent functions            I               56
Number of point charges in /Mol/           I                0
Number of translation vectors              I                0
Atomic numbers                             I   N=           4
           6           6           1           1
Nuclear charges                            R   N=           4
  6.00000000E+00  6.00000000E+00  1.00000000E+00  1.00000000E+00
Current cartesian coordinates              R   N=          12
 -4.07732033E+00  0.00000000E+00  0.00000000E+00  4.07732033E+00  0.00000000E+00
  0.00000000E+00 -3.69718653E+00 -1.22749881E+00  1.67919786E+00  3.69721431E+00
  1.22855962E+00 -1.67842753E+00
Number of symbols in /Mol/                 I                0
Force Field                                I                0
Atom Types                                 C   N=           4
                                                
Int Atom Types                             I   N=           4
           0           0           0           0
MM charges                                 R   N=           4
  0.00000000E+00  0.00000000E+00  0.00000000E+00  0.00000000E+00
Integer atomic weights                     I   N=           4
          12          12           1           1
Real atomic weights                        R   N=           4
  1.20000000E+01  1.20000000E+01  1.00782504E+00  1.00782504E+00
Atom fragment info                         I   N=           4
           0           0           0           0
Atom residue num                           I   N=           4
           0           0           0           0
Nuclear spins                              I   N=           4
           0           0           1           1
Nuclear ZEff                               R   N=           4
 -3.60000000E+00 -3.60000000E+00 -1.00000000E+00 -1.00000000E+00
Nuclear ZNuc                               R   N=           4
  6.00000000E+00  6.00000000E+00  1.00000000E+00  1.00000000E+00
Nuclear QMom                               R   N=           4
  0.00000000E+00  0.00000000E+00  0.00000000E+00  0.00000000E+00
Nuclear GFac                               R   N=           4
  0.00000000E+00  0.00000000E+00  2.79284600E+00  2.79284600E+00
MicOpt                                     I   N=           4
          -2          -2          -1          -1
Number of residues                         I                0
Number of secondary structures             I                0
Redundant internal dimensions              I   N=           4
          11           8           2           1
Redundant internal coordinate indices      I   N=          44
           1          -1           0           0           1          -2
           0           0           1          -3           0           0
           2          -1           0           0           2          -2
           0           0           2          -3           0           0
           1           3           0           0           2           4
           0           0           2           1           3           0
           1           2           4           0           3           1
           2           4
Redundant internal coordinates             R   N=          11
 -4.07732033E+00  0.00000000E+00  0.00000000E+00  4.07732033E+00  0.00000000E+00
  0.00000000E+00  2.11446459E+00  2.11446407E+00  1.39003575E+00  1.39004907E+00
 -3.14096237E+00
ZRed-IntVec                                I   N=          11
          -1          -1          -1          -1          -1          -1
           0           0           0           0           0
ZRed-FPVec                                 R   N=          11
  0.00000000E+00  0.00000000E+00  0.00000000E+00  0.00000000E+00  0.00000000E+00
  0.00000000E+00  0.00000000E+00  0.00000000E+00  0.00000000E+00  0.00000000E+00
  0.00000000E+00
ZRed-Constraint1                           R   N=          11
 -4.07732033E+00  0.00000000E+00  0.00000000E+00  4.07732033E+00  0.00000000E+00
  0.00000000E+00  2.11079913E+00  2.11070705E+00  1.67217611E+00  1.67276462E+00
 -1.65242814E+00
ZRed-Constraint2                           R   N=          11
 -4.07732033E+00  0.00000000E+00  0.00000000E+00  4.07732033E+00  0.00000000E+00
  0.00000000E+00  0.00000000E+00  0.00000000E+00  0.00000000E+00  0.00000000E+00
  0.00000000E+00
Number of contracted shells                I               20
Number of primitive shells                 I               38
Pure/Cartesian d shells                    I                0
Pure/Cartesian f shells                    I                0
Highest angular momentum                   I                2
Largest degree of contraction              I                6
Shell types                                I   N=          20
           0          -1          -1          -1          -1          -2
           0          -1          -1          -1          -1          -2
           0           0           0           1           0           0
           0           1
Number of primitives per shell             I   N=          20
           6           3           1           1           1           1
           6           3           1           1           1           1
           3           1           1           1           3           1
           1           1
Shell to atom map                          I   N=          20
           1           1           1           1           1           1
           2           2           2           2           2           2
           3           3           3           3           4           4
           4           4
Primitive exponents                        R   N=          38
  4.56324000E+03  6.82024000E+02  1.54973000E+02  4.44553000E+01  1.30290000E+01
  1.82773000E+00  2.09642000E+01  4.80331000E+00  1.45933000E+00  4.83456000E-01
  1.45585000E-01  4.38000000E-02  6.26000000E-01  4.56324000E+03  6.82024000E+02
  1.54973000E+02  4.44553000E+01  1.30290000E+01  1.82773000E+00  2.09642000E+01
  4.80331000E+00  1.45933000E+00  4.83456000E-01  1.45585000E-01  4.38000000E-02
  6.26000000E-01  3.38650000E+01  5.09479000E+00  1.15879000E+00  3.25840000E-01
  1.02741000E-01  7.50000000E-01  3.38650000E+01  5.09479000E+00  1.15879000E+00
  3.25840000E-01  1.02741000E-01  7.50000000E-01
Contraction coefficients                   R   N=          38
  1.96665025E-03  1.52306019E-02  7.61269097E-02  2.60801033E-01  6.16462078E-01
  2.21006028E-01  1.14660081E-01  9.19999648E-01 -3.03068213E-03  1.00000000E+00
  1.00000000E+00  1.00000000E+00  1.00000000E+00  1.96665025E-03  1.52306019E-02
  7.61269097E-02  2.60801033E-01  6.16462078E-01  2.21006028E-01  1.14660081E-01
  9.19999648E-01 -3.03068213E-03  1.00000000E+00  1.00000000E+00  1.00000000E+00
  1.00000000E+00  2.54938145E-02  1.90373109E-01  8.52161486E-01  1.00000000E+00
  1.00000000E+00  1.00000000E+00  2.54938145E-02  1.90373109E-01  8.52161486E-01
  1.00000000E+00  1.00000000E+00  1.00000000E+00
P(S=P) Contraction coefficients            R   N=          38
  0.00000000E+00  0.00000000E+00  0.00000000E+00  0.00000000E+00  0.00000000E+00
  0.00000000E+00  4.02486927E-02  2.37593957E-01  8.15853851E-01  1.00000000E+00
  1.00000000E+00  1.00000000E+00  0.00000000E+00  0.00000000E+00  0.00000000E+00
  0.00000000E+00  0.00000000E+00  0.00000000E+00  0.00000000E+00  4.02486927E-02
  2.37593957E-01  8.15853851E-01  1.00000000E+00  1.00000000E+00  1.00000000E+00
  0.00000000E+00  0.00000000E+00  0.00000000E+00  0.00000000E+00  0.00000000E+00
  0.00000000E+00  0.00000000E+00  0.00000000E+00  0.00000000E+00  0.00000000E+00
  0.00000000E+00  0.00000000E+00  0.00000000E+00
Coordinates of each shell                  R   N=          60
 -4.07732033E+00  0.00000000E+00  0.00000000E+00 -4.07732033E+00  0.00000000E+00
  0.00000000E+00 -4.07732033E+00  0.00000000E+00  0.00000000E+00 -4.07732033E+00
  0.00000000E+00  0.00000000E+00 -4.07732033E+00  0.00000000E+00  0.00000000E+00
 -4.07732033E+00  0.00000000E+00  0.00000000E+00  4.07732033E+00  0.00000000E+00
  0.00000000E+00  4.07732033E+00  0.00000000E+00  0.00000000E+00  4.07732033E+00
  0.00000000E+00  0.00000000E+00  4.07732033E+00  0.00000000E+00  0.00000000E+00
  4.07732033E+00  0.00000000E+00  0.00000000E+00  4.07732033E+00  0.00000000E+00
  0.00000000E+00 -3.69718653E+00 -1.22749881E+00  1.67919786E+00 -3.69718653E+00
 -1.22749881E+00  1.67919786E+00 -3.69718653E+00 -1.22749881E+00  1.67919786E+00
 -3.69718653E+00 -1.22749881E+00  1.67919786E+00  3.69721431E+00  1.22855962E+00
 -1.67842753E+00  3.69721431E+00  1.22855962E+00 -1.67842753E+00  3.69721431E+00
  1.22855962E+00 -1.67842753E+00  3.69721431E+00  1.22855962E+00 -1.67842753E+00
Num ILSW                                   I              100
ILSW                                       I   N=         100
           1           0           0           1           2           0
           0           0           0           0        4336          -1
           7           0           0           0           2           0
           0           0           0           0           1           0
           1           1           0           0           0           0
           0           0      100000           0          -1           0
           0           0           0           0           0           0
           0           0           0           1           0           0
           0 -2000000000           1           0           0           0
           0           0           4          52           0           0
           0           0          55           0           0           0
           0           0           0           4           0           1
           0           0           0           0           0           0
           0           0           0           0           0           0
           0           0           0           0           0           0
           0           0           0           0           0           0
           0           0           0           0
Num RLSW                                   I               52
RLSW                                       R   N=          52
  1.00000000E+00  1.00000000E+00  1.00000000E+00  1.00000000E+00  5.40000000E-01
  0.00000000E+00  0.00000000E+00  1.00000000E+00  0.00000000E+00  0.00000000E+00
  0.00000000E+00  0.00000000E+00  1.00000000E+00  0.00000000E+00  0.00000000E+00
  0.00000000E+00  0.00000000E+00  1.00000000E+00  0.00000000E+00  0.00000000E+00
  0.00000000E+00  0.00000000E+00  1.00000000E+00  0.00000000E+00  0.00000000E+00
  0.00000000E+00  0.00000000E+00  1.00000000E+00  0.00000000E+00  0.00000000E+00
  0.00000000E+00  0.00000000E+00  1.00000000E+00  0.00000000E+00  0.00000000E+00
  0.00000000E+00  0.00000000E+00  0.00000000E+00  1.00000000E+00  1.00000000E+00
  0.00000000E+00  1.00000000E+00  0.00000000E+00  0.00000000E+00  0.00000000E+00
  0.00000000E+00  0.00000000E+00  0.00000000E+00  0.00000000E+00  0.00000000E+00
  0.00000000E+00  0.00000000E+00
MxBond                                     I                2
NBond                                      I   N=           4
           2           2           1           1
IBond                                      I   N=           8
           2           3           1           4           1           0
           2           0
RBond                                      R   N=           8
  1.00000000E-01  1.00000000E+00  1.00000000E-01  1.00000000E+00  1.00000000E+00
  0.00000000E+00  1.00000000E+00  0.00000000E+00
Virial Ratio                               R      2.004367424590136E+00
SCF Energy                                 R     -7.685447059710421E+01
Total Energy                               R     -7.685447059710421E+01
S**2                                       R      3.881339694089547E-13
S**2 after annihilation                    R     -8.437694987152880E-14
RMS Force                                  R      5.495411737999722E-07
RMS Density                                R      6.028088163173190E-10
Job Status                                 I                1
Nuclear derivative order                   I                1
External E-field                           R   N=          35
  0.00000000E+00  0.00000000E+00  0.00000000E+00  0.00000000E+00  0.00000000E+00
  0.00000000E+00  0.00000000E+00  0.00000000E+00  0.00000000E+00  0.00000000E+00
  0.00000000E+00  0.00000000E+00  0.00000000E+00  0.00000000E+00  0.00000000E+00
  0.00000000E+00  0.00000000E+00  0.00000000E+00  0.00000000E+00  0.00000000E+00
  0.00000000E+00  0.00000000E+00  0.00000000E+00  0.00000000E+00  0.00000000E+00
  0.00000000E+00  0.00000000E+00  0.00000000E+00  0.00000000E+00  0.00000000E+00
  0.00000000E+00  0.00000000E+00  0.00000000E+00  0.00000000E+00  0.00000000E+00
IOpCl                                      I                1
IROHF                                      I                0
Alpha Orbital Energies                     R   N=          56
 -1.06759431E+01 -1.06759339E+01 -7.30025719E-01 -7.27752637E-01 -3.91751942E-01
 -3.90908848E-01 -2.26387082E-01 -1.41684925E-01 -1.02873059E-01 -9.87128364E-02
  3.04592402E-02  4.36368633E-02  7.18537488E-02  7.23254287E-02  9.08106392E-02
  9.48688622E-02  1.03884602E-01  1.36680057E-01  1.79358470E-01  1.90016296E-01
  4.53201546E-01  4.61247007E-01  5.67630324E-01  5.74584290E-01  5.75744165E-01
  5.96015188E-01  6.19105636E-01  6.26403824E-01  6.79593220E-01  6.93093696E-01
  1.12366962E+00  1.12415101E+00  1.13456018E+00  1.13718892E+00  1.32913020E+00
  1.32979463E+00  1.34179948E+00  1.35058930E+00  1.57790062E+00  1.58141979E+00
  1.84714049E+00  1.84781860E+00  1.85365494E+00  1.86355911E+00  2.38675424E+00
  2.39750500E+00  2.48283009E+00  2.49819945E+00  2.69689449E+00  2.70161452E+00
  2.70393040E+00  2.72726121E+00  3.16826039E+00  3.17454560E+00  2.35027345E+01
  2.35046479E+01
Beta Orbital Energies                      R   N=          56
 -1.06759431E+01 -1.06759339E+01 -7.30025719E-01 -7.27752637E-01 -3.91751942E-01
 -3.90908848E-01 -2.26387082E-01 -1.41684925E-01 -1.02873059E-01 -9.87128364E-02
  3.04592402E-02  4.36368633E-02  7.18537488E-02  7.23254287E-02  9.08106392E-02
  9.48688622E-02  1.03884602E-01  1.36680057E-01  1.79358470E-01  1.90016296E-01
  4.53201546E-01  4.61247007E-01  5.67630324E-01  5.74584290E-01  5.75744165E-01
  5.96015188E-01  6.19105636E-01  6.26403824E-01  6.79593220E-01  6.93093696E-01
  1.12366962E+00  1.12415101E+00  1.13456018E+00  1.13718892E+00  1.32913020E+00
  1.32979463E+00  1.34179948E+00  1.35058930E+00  1.57790062E+00  1.58141979E+00
  1.84714049E+00  1.84781860E+00  1.85365494E+00  1.86355911E+00  2.38675424E+00
  2.39750500E+00  2.48283009E+00  2.49819945E+00  2.69689449E+00  2.70161452E+00
  2.70393040E+00  2.72726121E+00  3.16826039E+00  3.17454560E+00  2.35027345E+01
  2.35046479E+01
Alpha MO coefficients                      R   N=        3136
  4.01256155E-01  3.30572411E-01  4.04191039E-04 -7.10770948E-04  9.72391145E-04
  6.70985371E-03  1.19952361E-04 -5.81378450E-04  7.95263078E-04 -2.77258469E-03
  3.11244226E-05 -3.55930162E-05  4.87144373E-05  3.12186923E-04 -8.29706512E-05
  2.74576440E-04 -3.75601593E-04  3.54366886E-04  1.94349233E-04 -5.94391733E-04
 -2.35189021E-04 -1.42033372E-04  3.96369397E-01  3.26546507E-01 -3.99366057E-04
  7.02693083E-04 -9.60079943E-04  6.62782719E-03 -1.18708304E-04  5.74877835E-04
 -7.85317476E-04 -2.73711586E-03 -3.11659768E-05  3.51592215E-05 -4.80687552E-05
  3.04992833E-04  8.42795886E-05 -2.71856778E-04  3.71441397E-04  3.49476997E-04
  1.91903179E-04 -5.87458896E-04 -2.32770060E-04 -1.40426936E-04  2.31536236E-04
 -1.96532713E-03  1.51975208E-03  2.49127731E-04 -8.02839879E-04  1.09827920E-03
  2.28733306E-04 -1.94175142E-03  1.50180646E-03 -2.46034707E-04  7.93857392E-04
 -1.08455397E-03 -3.96369896E-01 -3.26545166E-01 -3.90179740E-04  7.04161173E-04
 -9.63347550E-04 -6.65356723E-03 -9.97078257E-05  5.68109482E-04 -7.77103490E-04
  2.87778999E-03  3.63373325E-06  3.71661139E-05 -5.08716160E-05 -5.85018524E-04
 -1.07702819E-04 -2.37401476E-04  3.24794063E-04 -3.44781192E-04 -1.90300068E-04
  5.81734757E-04  2.26648726E-04  1.39076398E-04  4.01256647E-01  3.30571086E-01
 -3.95088941E-04  7.13430897E-04 -9.74747761E-04  6.73528406E-03 -1.01156614E-04
  5.75688854E-04 -7.86428918E-04 -2.91154403E-03  3.25240372E-06  3.76366173E-05
 -5.14409198E-05  5.88799094E-04 -1.06683927E-04 -2.40980847E-04  3.29205718E-04
  3.48457091E-04  1.92569494E-04 -5.89214980E-04 -2.29890227E-04 -1.40911893E-04
 -2.27287080E-04  1.91225614E-03 -1.45562920E-03 -2.49502327E-04  7.84280072E-04
 -1.07288665E-03  2.30106857E-04 -1.93619864E-03  1.47414191E-03 -2.52518405E-04
  7.94744266E-04 -1.08576828E-03 -7.69058510E-02 -1.24450752E-01  1.06772498E-02
 -3.14172014E-02  4.29783396E-02  3.54946627E-01  1.62337280E-02 -4.74093365E-02
  6.48557411E-02  2.46194782E-01  7.31008182E-03 -1.87094677E-02  2.55953976E-02
 -4.43253731E-04  4.95155242E-04 -2.45463038E-04  3.36055831E-04  5.34725380E-03
  2.97430154E-03 -6.68905905E-03 -5.00059117E-03 -2.17482912E-03 -7.69070340E-02
 -1.24452666E-01 -1.06766846E-02  3.14451255E-02 -4.29591583E-02  3.54952062E-01
 -1.62328701E-02  4.74515256E-02 -6.48267506E-02  2.46198518E-01 -7.30972628E-03
  1.87266622E-02 -2.55835458E-02 -4.43301157E-04 -4.95119697E-04  2.46007272E-04
 -3.35675647E-04  5.33994127E-03  2.97295018E-03 -6.69195627E-03 -5.00505536E-03
 -2.17633666E-03  1.02009555E-01  1.28010725E-01  1.50415529E-02 -3.09059461E-03
  9.14757705E-03 -1.25135380E-02  1.02011189E-01  1.28012775E-01  1.50418084E-02
  3.09043789E-03 -9.15551220E-03  1.25080821E-02 -7.70196949E-02 -1.24663159E-01
  8.02584747E-03 -3.20330658E-02  4.38202316E-02  3.56124874E-01  1.22675570E-02
 -4.83346981E-02  6.61206595E-02  2.45642590E-01  1.82009536E-03 -1.87409861E-02
  2.56377093E-02 -5.36883858E-03 -2.77770443E-03 -3.09928335E-04  4.23865165E-04
  5.68686446E-03  2.82644602E-03 -6.65495750E-03 -5.61060900E-03 -2.06680842E-03
  7.70184905E-02  1.24661208E-01  8.02497803E-03 -3.20603568E-02  4.37994214E-02
 -3.56119279E-01  1.22662348E-02 -4.83758688E-02  6.60892529E-02 -2.45638675E-01
  1.81958971E-03 -1.87574534E-02  2.56250731E-02  5.36882703E-03 -2.77772079E-03
 -3.10077261E-04  4.23763373E-04 -5.67942750E-03 -2.82509999E-03  6.65762512E-03
  5.61487736E-03  2.06810295E-03  1.02558766E-01  1.29960761E-01  1.64134154E-02
 -3.37627149E-03  9.19954289E-03 -1.25846856E-02 -1.02557236E-01 -1.29958854E-01
 -1.64132098E-02 -3.37600692E-03  9.20726331E-03 -1.25788023E-02 -4.27972987E-02
 -7.06814217E-02 -3.06419734E-02  8.94367740E-02 -1.22347803E-01  2.08987013E-01
 -4.40214446E-02  1.28892275E-01 -1.76321899E-01  2.92274072E-01 -3.18611378E-02
  8.54336245E-02 -1.16871065E-01  4.22110735E-02 -1.56833436E-03  5.82046366E-03
 -7.96106190E-03 -1.00893266E-02 -6.32835790E-03  2.11325568E-02  4.01413090E-03
  4.62509028E-03  4.27954957E-02  7.06784449E-02 -3.06388104E-02  8.95097626E-02
 -1.22286844E-01 -2.08978214E-01 -4.40168769E-02  1.28997348E-01 -1.76234095E-01
 -2.92261713E-01 -3.18580961E-02  8.55028502E-02 -1.16813262E-01 -4.22092750E-02
 -1.56822027E-03  5.82399980E-03 -7.95819422E-03  1.00659489E-02  6.32470455E-03
 -2.11402128E-02 -4.02739306E-03 -4.62876126E-03 -9.45301186E-02 -1.71840960E-01
 -1.10664831E-01  1.32382691E-03 -4.16127515E-03  5.69230202E-03  9.45260597E-02
  1.71833579E-01  1.10659971E-01  1.32365135E-03 -4.16454264E-03  5.68954696E-03
 -4.23431891E-02 -6.99227735E-02 -2.64565734E-02  9.05169528E-02 -1.23825207E-01
  2.06293936E-01 -3.81337102E-02  1.30382539E-01 -1.78360276E-01  2.92148870E-01
 -2.41894213E-02  8.60981705E-02 -1.17779585E-01  4.24131475E-02  1.52540207E-05
  4.58663186E-03 -6.27556536E-03 -1.03085652E-02 -5.82910920E-03  2.11389701E-02
  4.38989083E-03  4.25993728E-03 -4.23450330E-02 -6.99258192E-02  2.64559259E-02
 -9.05988650E-02  1.23773650E-01  2.06302930E-01  3.81327653E-02 -1.30500473E-01
  1.78286015E-01  2.92161546E-01  2.41889644E-02 -8.61757198E-02  1.17730755E-01
  4.24150092E-02 -1.52763388E-05 -4.59178956E-03  6.27229988E-03 -1.02860362E-02
 -5.82598794E-03  2.11484151E-02  4.40348758E-03  4.26396164E-03 -9.54658313E-02
 -1.75042743E-01 -1.12011939E-01  1.99351223E-03 -4.33409872E-03  5.92874415E-03
 -9.54698236E-02 -1.75050022E-01 -1.12016806E-01 -1.99344997E-03  4.33784505E-03
 -5.92640568E-03  2.97125586E-03  5.05861559E-03  1.79380205E-01  1.88420972E-02
 -2.57327844E-02 -1.78822058E-02  2.73542866E-01  2.93717020E-02 -4.01144849E-02
 -1.48948996E-02  3.04803963E-01  2.63788201E-02 -3.60191164E-02  1.96039780E-02
  8.84597034E-02  1.05748547E-02 -1.44408895E-02 -4.15392778E-03  1.18046842E-02
  1.71194479E-03  6.10928067E-03 -8.62825862E-03  2.97127496E-03  5.05864773E-03
 -1.79380708E-01 -1.88457859E-02  2.57269713E-02 -1.78822802E-02 -2.73543648E-01
 -2.93771137E-02  4.01058402E-02 -1.48951669E-02 -3.04804626E-01 -2.63826096E-02
  3.60109701E-02  1.96052240E-02 -8.84607758E-02 -1.05708492E-02  1.44421803E-02
 -4.15277437E-03  1.17990415E-02  1.71208410E-03  6.10957557E-03 -8.63627231E-03
 -9.71682120E-04 -7.48028593E-03 -5.03335446E-03  1.70454913E-02  1.08112118E-03
 -1.47514656E-03 -9.71637284E-04 -7.48012026E-03 -5.03405710E-03 -1.70454948E-02
 -1.08084428E-03  1.47508754E-03 -3.57509726E-03 -5.97906385E-03  1.89425123E-01
  2.09926578E-02 -2.86552562E-02  2.09517504E-02  2.91328927E-01  3.17614434E-02
 -4.33547933E-02  1.27787834E-02  3.14759970E-01  3.98072265E-02 -5.43499549E-02
 -9.16526646E-03  1.04850251E-01  1.19257613E-02 -1.62858918E-02 -2.64915276E-03
  1.22976751E-02  3.47481688E-03  2.38205781E-03 -8.98875807E-03  3.57511045E-03
  5.97908199E-03  1.89425484E-01  2.09939099E-02 -2.86513469E-02 -2.09517675E-02
  2.91329445E-01  3.17637855E-02 -4.33485011E-02 -1.27790255E-02  3.14760734E-01
  3.98100923E-02 -5.43427560E-02  9.16516854E-03  1.04850508E-01  1.19318258E-02
 -1.62797646E-02  2.64646518E-03 -1.22918164E-02 -3.47554936E-03 -2.38324233E-03
  8.99701197E-03  1.40670755E-03  5.72753919E-03  5.20311859E-03  1.70113886E-02
  2.44825360E-03 -3.34365085E-03 -1.40660449E-03 -5.72743339E-03 -5.20287924E-03
  1.70114803E-02  2.44887392E-03 -3.34291621E-03  6.06758999E-07  1.06280968E-06
 -3.26373390E-05  1.39107562E-01  1.01693337E-01 -3.98964710E-06 -5.17059210E-05
  2.19541013E-01  1.60493035E-01 -2.37104651E-06 -5.75955904E-05  2.42360441E-01
  1.77179462E-01  1.07299783E-05 -2.41973674E-05  1.16402824E-01  8.51023392E-02
  1.16524517E-02  1.86647629E-03  4.28520376E-03  6.72678661E-03  2.55694505E-03
 -4.39903215E-07 -7.86012582E-07 -1.89607031E-05  1.39041693E-01  1.01780418E-01
  2.89026192E-06 -3.01720826E-05  2.19436810E-01  1.60630816E-01  2.10683088E-06
 -3.38177277E-05  2.42247740E-01  1.77328347E-01  6.92846427E-06 -1.76885057E-05
  1.16353789E-01  8.51672913E-02 -1.16570587E-02 -1.86852926E-03 -4.26761884E-03
 -6.72977965E-03 -2.55518875E-03 -1.17343154E-06 -1.23434742E-06 -6.69908123E-06
 -2.77419964E-06  1.34739548E-02  9.85052487E-03 -7.78564202E-07  1.62180107E-07
 -5.74647953E-06 -2.13827325E-06  1.34679044E-02  9.85852375E-03  3.82382372E-07
  6.80733671E-07 -2.39013265E-05  1.42924377E-01  1.04485766E-01 -2.50884915E-06
 -3.82886700E-05  2.25650491E-01  1.64963205E-01 -1.53372666E-06 -4.29835624E-05
  2.49549685E-01  1.82435598E-01  4.75449056E-06 -1.97648778E-05  1.18468465E-01
  8.66070709E-02  1.19800057E-02  1.38306693E-03  4.40517534E-03  6.91557447E-03
  1.89508809E-03 -6.77040578E-07 -1.08372672E-06  5.41426106E-06 -1.42863920E-01
 -1.04571209E-01  3.34019822E-06  9.28670191E-06 -2.25554732E-01 -1.65098495E-01
  4.88216817E-06  1.14812292E-05 -2.49444947E-01 -1.82583765E-01 -3.47611336E-06
  7.11052718E-06 -1.18416578E-01 -8.66804674E-02  1.19843701E-02  1.38561211E-03
  4.38844714E-03  6.91902614E-03  1.89303280E-03  8.86168688E-07  9.42157119E-07
 -1.42700106E-06 -2.78987448E-06  1.36514326E-02  9.97970078E-03 -5.12460027E-07
  2.38716115E-07  6.83626239E-07  4.12550017E-07 -1.36454914E-02 -9.98812204E-03
  2.58551334E-02  4.23179643E-02 -1.48109597E-02  1.34080146E-02 -1.83637088E-02
 -1.07789312E-01 -3.34307218E-02  3.79650654E-02 -5.19623315E-02 -4.89845903E-01
 -5.06284054E-03  2.66464012E-02 -3.65201071E-02  1.02490508E+00 -5.34466217E-02
 -2.32625960E-01  3.18313976E-01 -7.20143991E-03 -5.03265291E-03  9.98785795E-03
  6.10889182E-03  3.67981331E-03  2.58552636E-02  4.23181765E-02  1.48106279E-02
 -1.34393290E-02  1.83411134E-02 -1.07789815E-01  3.34298395E-02 -3.80225030E-02
  5.19212538E-02 -4.89848517E-01  5.06227573E-03 -2.67306390E-02  3.64586473E-02
  1.02490980E+00  5.34519999E-02  2.32903116E-01 -3.18113296E-01 -7.18901331E-03
 -5.03076243E-03  9.99258210E-03  6.11625470E-03  3.68188330E-03 -1.28636129E-02
  1.01784411E-01 -2.91198121E-01 -1.28314681E-03 -9.53411825E-05  1.30094475E-04
 -1.28636415E-02  1.01785013E-01 -2.91199604E-01  1.28317178E-03  9.51232890E-05
 -1.30207113E-04  1.44221046E-02  2.35476877E-02  3.05205725E-02  3.20422306E-02
 -4.38169661E-02 -5.35721473E-02  2.84497240E-02  5.75169115E-02 -7.86633955E-02
 -3.31001383E-01  9.84572801E-02  8.53554915E-02 -1.16715161E-01  1.06307718E+00
 -3.92319483E-03 -4.08229840E-01  5.58397624E-01 -8.39247272E-03 -1.23926313E-03
  1.53544175E-02  4.75727132E-03  9.05160181E-04 -1.44218784E-02 -2.35473268E-02
  3.05211837E-02  3.20535548E-02 -4.38083602E-02  5.35713400E-02  2.84508958E-02
  5.75465319E-02 -7.86409977E-02  3.30996559E-01  9.84589064E-02  8.53797708E-02
 -1.16697004E-01 -1.06307294E+00 -3.92969946E-03 -4.08535991E-01  5.58177257E-01
  8.37696651E-03  1.23760644E-03 -1.53601999E-02 -4.76630250E-03 -9.06716360E-04
 -2.10522075E-02  1.24270905E-01 -4.74844438E-01  1.71610240E-03 -1.03698907E-03
  1.41842204E-03  2.10524155E-02 -1.24270437E-01  4.74845891E-01  1.71610810E-03
 -1.03791107E-03  1.41778500E-03 -3.40399004E-06 -5.46058983E-06  1.09915134E-05
 -8.35625917E-02 -6.10984903E-02  1.26607089E-05  1.51128687E-05 -8.97961311E-02
 -6.56522615E-02  8.06905110E-05  3.51480344E-05 -3.19509115E-01 -2.33625828E-01
 -1.19070563E-04 -8.92340103E-05  6.14648697E-01  4.49496992E-01 -6.85638673E-03
  3.76997954E-04 -2.51896720E-03 -3.95727997E-03  5.14914368E-04 -1.09599497E-05
 -1.76276128E-05  1.07605488E-05 -8.35449693E-02 -6.11226915E-02  4.22025897E-05
  5.66331896E-06 -8.97683267E-02 -6.56903281E-02  2.38284499E-04  6.19098332E-05
 -3.19455916E-01 -2.33699198E-01 -2.13474525E-04 -1.98803459E-04  6.14679565E-01
  4.49456025E-01  6.85608262E-03 -3.77852601E-04  2.51608278E-03  3.95970612E-03
 -5.14418988E-04 -4.83200638E-06  6.00358978E-06 -4.35991053E-05  1.01596769E-06
 -1.27094270E-05 -8.23783893E-06 -1.27913239E-05  8.72183037E-06 -1.48940046E-04
 -1.66250830E-06 -1.04403348E-05 -1.14042292E-05 -1.85444400E-02 -2.99593250E-02
 -4.32622816E-02  1.89722530E-02 -2.59450923E-02  7.26448177E-02 -3.64452422E-02
  8.24650715E-03 -1.12724811E-02  3.92812984E-01 -1.94216984E-01  8.50352974E-02
 -1.16287918E-01 -2.85687903E-01  6.22176265E-01 -3.26699080E-01  4.46841953E-01
 -2.09493363E-03 -2.96361886E-03  6.61887640E-03 -5.86802887E-04  2.16621695E-03
  1.85443107E-02  2.99591152E-02 -4.32623761E-02  1.89456520E-02 -2.59645418E-02
 -7.26442465E-02 -3.64457311E-02  8.20846269E-03 -1.13003499E-02 -3.92810729E-01
 -1.94216549E-01  8.49393849E-02 -1.16357406E-01  2.85682984E-01  6.22172264E-01
 -3.26648216E-01  4.46878726E-01  2.09123449E-03  2.96213960E-03 -6.62021629E-03
  5.84591405E-04 -2.16806880E-03 -1.96294658E-02  2.42902198E-03 -2.36662239E-01
  2.47685138E-03 -3.08340089E-03  4.21800950E-03  1.96293512E-02 -2.42861785E-03
  2.36662386E-01  2.47677099E-03 -3.08595066E-03  4.21612018E-03  1.34656913E-02
  2.12592065E-02 -1.66026822E-02 -2.93654057E-02  4.01165057E-02 -4.42942982E-02
 -2.58001267E-02 -2.12785760E-02  2.90556202E-02 -3.61093958E-01 -4.21702213E-02
 -1.34294531E-01  1.83476427E-01  1.01015562E-01 -5.59397546E-03  6.34226110E-01
 -8.67061484E-01  6.01687990E-03  4.12330161E-03 -1.20719080E-02 -2.73761170E-03
 -3.01535592E-03  1.34657913E-02  2.12593721E-02  1.66021019E-02  2.93347288E-02
 -4.01390344E-02 -4.42947220E-02  2.57994389E-02  2.12421938E-02 -2.90819913E-02
 -3.61095459E-01  4.21679633E-02  1.34169814E-01 -1.83569623E-01  1.01028098E-01
  5.58871550E-03 -6.34213343E-01  8.67067405E-01  6.00837539E-03  4.12274581E-03
 -1.20750234E-02 -2.74255381E-03 -3.01571227E-03  2.76424237E-02 -4.25258166E-02
  4.71876530E-01  2.31173710E-03  3.52069500E-03 -4.81595898E-03  2.76422882E-02
 -4.25257558E-02  4.71868970E-01 -2.31172862E-03 -3.52355325E-03  4.81397894E-03
 -3.02718583E-06 -4.93872015E-06 -4.00190675E-06 -7.80347669E-02 -5.70543488E-02
  1.35947555E-05 -4.65856667E-08 -7.37428804E-02 -5.39169847E-02  6.17159054E-05
 -2.97008496E-05 -3.45633677E-01 -2.52695594E-01  1.50973301E-04  2.02729167E-04
  8.08430692E-01  5.91295429E-01 -6.28413910E-03 -2.78538374E-03 -2.30764386E-03
 -3.62769293E-03 -3.80612777E-03  3.08820931E-06  4.91410758E-06 -1.44160575E-05
  7.80107750E-02  5.70870764E-02 -1.20725888E-05 -1.14469181E-05  7.37203305E-02