Title Card Required                                                     
FOpt      UM062X                                                      6-311+G(d,p)        
Number of atoms                            I                4
Info1-9                                    I   N=           9
          13          13           0           0           0         110
           2          18        -502
Full Title                                 C   N=           2
Title Card Required     
Route                                      C   N=           5
#p opt UM062X/6-311+G** nosymm int=superfine SCF=NoVarAcc   
Charge                                     I                1
Multiplicity                               I                2
Number of electrons                        I               13
Number of alpha electrons                  I                7
Number of beta electrons                   I                6
Number of basis functions                  I               56
Number of independent functions            I               56
Number of point charges in /Mol/           I                0
Number of translation vectors              I                0
Atomic numbers                             I   N=           4
           6           6           1           1
Nuclear charges                            R   N=           4
  6.00000000E+00  6.00000000E+00  1.00000000E+00  1.00000000E+00
Current cartesian coordinates              R   N=          12
 -3.55676692E+00  0.00000000E+00  0.00000000E+00  3.55676692E+00  0.00000000E+00
  0.00000000E+00 -5.66884208E+00  1.89168906E-13 -7.52624353E-13  5.66884041E+00
 -2.25650046E-13 -8.28927613E-13
Number of symbols in /Mol/                 I                0
Force Field                                I                0
Atom Types                                 C   N=           4
                                                
Int Atom Types                             I   N=           4
           0           0           0           0
MM charges                                 R   N=           4
  0.00000000E+00  0.00000000E+00  0.00000000E+00  0.00000000E+00
Integer atomic weights                     I   N=           4
          12          12           1           1
Real atomic weights                        R   N=           4
  1.20000000E+01  1.20000000E+01  1.00782504E+00  1.00782504E+00
Atom fragment info                         I   N=           4
           0           0           0           0
Atom residue num                           I   N=           4
           0           0           0           0
Nuclear spins                              I   N=           4
           0           0           1           1
Nuclear ZEff                               R   N=           4
 -3.60000000E+00 -3.60000000E+00 -1.00000000E+00 -1.00000000E+00
Nuclear ZNuc                               R   N=           4
  6.00000000E+00  6.00000000E+00  1.00000000E+00  1.00000000E+00
Nuclear QMom                               R   N=           4
  0.00000000E+00  0.00000000E+00  0.00000000E+00  0.00000000E+00
Nuclear GFac                               R   N=           4
  0.00000000E+00  0.00000000E+00  2.79284600E+00  2.79284600E+00
MicOpt                                     I   N=           4
          -2          -2          -1          -1
Number of residues                         I                0
Number of secondary structures             I                0
Redundant internal dimensions              I   N=           4
          12           8           4           0
Redundant internal coordinate indices      I   N=          48
           1          -1           0           0           1          -2
           0           0           1          -3           0           0
           2          -1           0           0           2          -2
           0           0           2          -3           0           0
           1           3           0           0           2           4
           0           0           2           1           3          -4
           1           2           4          -4           2           1
           3          -8           1           2           4          -8
Redundant internal coordinates             R   N=          12
 -3.55676692E+00  0.00000000E+00  0.00000000E+00  3.55676692E+00  0.00000000E+00
  0.00000000E+00  2.11207515E+00  2.11207349E+00  3.14159265E+00  3.14159265E+00
  3.14159265E+00  3.14159265E+00
ZRed-IntVec                                I   N=          12
          -1          -1          -1          -1          -1          -1
           0           0           0           0           0           0
ZRed-FPVec                                 R   N=          12
  0.00000000E+00  0.00000000E+00  0.00000000E+00  0.00000000E+00  0.00000000E+00
  0.00000000E+00  0.00000000E+00  0.00000000E+00  0.00000000E+00  0.00000000E+00
  0.00000000E+00  0.00000000E+00
ZRed-Constraint1                           R   N=          12
 -3.55676692E+00  0.00000000E+00  0.00000000E+00  3.55676692E+00  0.00000000E+00
  0.00000000E+00  2.08057524E+00  2.08053366E+00  3.14159265E+00  3.14159265E+00
  3.14159265E+00  3.14159265E+00
ZRed-Constraint2                           R   N=          12
 -3.55676692E+00  0.00000000E+00  0.00000000E+00  3.55676692E+00  0.00000000E+00
  0.00000000E+00  0.00000000E+00  0.00000000E+00  0.00000000E+00  0.00000000E+00
  0.00000000E+00  0.00000000E+00
Number of contracted shells                I               20
Number of primitive shells                 I               38
Pure/Cartesian d shells                    I                0
Pure/Cartesian f shells                    I                0
Highest angular momentum                   I                2
Largest degree of contraction              I                6
Shell types                                I   N=          20
           0          -1          -1          -1          -1          -2
           0          -1          -1          -1          -1          -2
           0           0           0           1           0           0
           0           1
Number of primitives per shell             I   N=          20
           6           3           1           1           1           1
           6           3           1           1           1           1
           3           1           1           1           3           1
           1           1
Shell to atom map                          I   N=          20
           1           1           1           1           1           1
           2           2           2           2           2           2
           3           3           3           3           4           4
           4           4
Primitive exponents                        R   N=          38
  4.56324000E+03  6.82024000E+02  1.54973000E+02  4.44553000E+01  1.30290000E+01
  1.82773000E+00  2.09642000E+01  4.80331000E+00  1.45933000E+00  4.83456000E-01
  1.45585000E-01  4.38000000E-02  6.26000000E-01  4.56324000E+03  6.82024000E+02
  1.54973000E+02  4.44553000E+01  1.30290000E+01  1.82773000E+00  2.09642000E+01
  4.80331000E+00  1.45933000E+00  4.83456000E-01  1.45585000E-01  4.38000000E-02
  6.26000000E-01  3.38650000E+01  5.09479000E+00  1.15879000E+00  3.25840000E-01
  1.02741000E-01  7.50000000E-01  3.38650000E+01  5.09479000E+00  1.15879000E+00
  3.25840000E-01  1.02741000E-01  7.50000000E-01
Contraction coefficients                   R   N=          38
  1.96665025E-03  1.52306019E-02  7.61269097E-02  2.60801033E-01  6.16462078E-01
  2.21006028E-01  1.14660081E-01  9.19999648E-01 -3.03068213E-03  1.00000000E+00
  1.00000000E+00  1.00000000E+00  1.00000000E+00  1.96665025E-03  1.52306019E-02
  7.61269097E-02  2.60801033E-01  6.16462078E-01  2.21006028E-01  1.14660081E-01
  9.19999648E-01 -3.03068213E-03  1.00000000E+00  1.00000000E+00  1.00000000E+00
  1.00000000E+00  2.54938145E-02  1.90373109E-01  8.52161486E-01  1.00000000E+00
  1.00000000E+00  1.00000000E+00  2.54938145E-02  1.90373109E-01  8.52161486E-01
  1.00000000E+00  1.00000000E+00  1.00000000E+00
P(S=P) Contraction coefficients            R   N=          38
  0.00000000E+00  0.00000000E+00  0.00000000E+00  0.00000000E+00  0.00000000E+00
  0.00000000E+00  4.02486927E-02  2.37593957E-01  8.15853851E-01  1.00000000E+00
  1.00000000E+00  1.00000000E+00  0.00000000E+00  0.00000000E+00  0.00000000E+00
  0.00000000E+00  0.00000000E+00  0.00000000E+00  0.00000000E+00  4.02486927E-02
  2.37593957E-01  8.15853851E-01  1.00000000E+00  1.00000000E+00  1.00000000E+00
  0.00000000E+00  0.00000000E+00  0.00000000E+00  0.00000000E+00  0.00000000E+00
  0.00000000E+00  0.00000000E+00  0.00000000E+00  0.00000000E+00  0.00000000E+00
  0.00000000E+00  0.00000000E+00  0.00000000E+00
Coordinates of each shell                  R   N=          60
 -3.55676692E+00  0.00000000E+00  0.00000000E+00 -3.55676692E+00  0.00000000E+00
  0.00000000E+00 -3.55676692E+00  0.00000000E+00  0.00000000E+00 -3.55676692E+00
  0.00000000E+00  0.00000000E+00 -3.55676692E+00  0.00000000E+00  0.00000000E+00
 -3.55676692E+00  0.00000000E+00  0.00000000E+00  3.55676692E+00  0.00000000E+00
  0.00000000E+00  3.55676692E+00  0.00000000E+00  0.00000000E+00  3.55676692E+00
  0.00000000E+00  0.00000000E+00  3.55676692E+00  0.00000000E+00  0.00000000E+00
  3.55676692E+00  0.00000000E+00  0.00000000E+00  3.55676692E+00  0.00000000E+00
  0.00000000E+00 -5.66884208E+00  1.89168906E-13 -7.52624353E-13 -5.66884208E+00
  1.89168906E-13 -7.52624353E-13 -5.66884208E+00  1.89168906E-13 -7.52624353E-13
 -5.66884208E+00  1.89168906E-13 -7.52624353E-13  5.66884041E+00 -2.25650046E-13
 -8.28927613E-13  5.66884041E+00 -2.25650046E-13 -8.28927613E-13  5.66884041E+00
 -2.25650046E-13 -8.28927613E-13  5.66884041E+00 -2.25650046E-13 -8.28927613E-13
Num ILSW                                   I              100
ILSW                                       I   N=         100
           1           0           0           0           2           0
           0           0           0           0        4336          -1
           7           0           0           0           2           0
           0           0           0           0           1           0
           1           1           0           0           0           0
           0           0      100000           0          -1           0
           0           0           0           0           0           0
           0           0           0           1           0           0
           0 -2000000000           1           0           0           0
           0           0           4          52           0           0
           0           0          55           0           0           0
           0           0           0           4           0           1
           0           0           0           0           0           0
           0           0           0           0           0           0
           0           0           0           0           0           0
           0           0           0           0           0           0
           0           0           0           0
Num RLSW                                   I               52
RLSW                                       R   N=          52
  1.00000000E+00  1.00000000E+00  1.00000000E+00  1.00000000E+00  5.40000000E-01
  0.00000000E+00  0.00000000E+00  1.00000000E+00  0.00000000E+00  0.00000000E+00
  0.00000000E+00  0.00000000E+00  1.00000000E+00  0.00000000E+00  0.00000000E+00
  0.00000000E+00  0.00000000E+00  1.00000000E+00  0.00000000E+00  0.00000000E+00
  0.00000000E+00  0.00000000E+00  1.00000000E+00  0.00000000E+00  0.00000000E+00
  0.00000000E+00  0.00000000E+00  1.00000000E+00  0.00000000E+00  0.00000000E+00
  0.00000000E+00  0.00000000E+00  1.00000000E+00  0.00000000E+00  0.00000000E+00
  0.00000000E+00  0.00000000E+00  0.00000000E+00  1.00000000E+00  1.00000000E+00
  0.00000000E+00  1.00000000E+00  0.00000000E+00  0.00000000E+00  0.00000000E+00
  0.00000000E+00  0.00000000E+00  0.00000000E+00  0.00000000E+00  0.00000000E+00
  0.00000000E+00  0.00000000E+00
MxBond                                     I                2
NBond                                      I   N=           4
           2           2           1           1
IBond                                      I   N=           8
           2           3           1           4           1           0
           2           0
RBond                                      R   N=           8
  1.00000000E-01  1.00000000E+00  1.00000000E-01  1.00000000E+00  1.00000000E+00
  0.00000000E+00  1.00000000E+00  0.00000000E+00
Virial Ratio                               R      2.002954633058468E+00
SCF Energy                                 R     -7.658521446599286E+01
Total Energy                               R     -7.658521446599286E+01
S**2                                       R      7.513127609889105E-01
S**2 after annihilation                    R      7.500012347992295E-01
RMS Force                                  R      1.223876959968262E-04
RMS Density                                R      8.414181765229162E-09
Job Status                                 I                1
Nuclear derivative order                   I                1
External E-field                           R   N=          35
  0.00000000E+00  0.00000000E+00  0.00000000E+00  0.00000000E+00  0.00000000E+00
  0.00000000E+00  0.00000000E+00  0.00000000E+00  0.00000000E+00  0.00000000E+00
  0.00000000E+00  0.00000000E+00  0.00000000E+00  0.00000000E+00  0.00000000E+00
  0.00000000E+00  0.00000000E+00  0.00000000E+00  0.00000000E+00  0.00000000E+00
  0.00000000E+00  0.00000000E+00  0.00000000E+00  0.00000000E+00  0.00000000E+00
  0.00000000E+00  0.00000000E+00  0.00000000E+00  0.00000000E+00  0.00000000E+00
  0.00000000E+00  0.00000000E+00  0.00000000E+00  0.00000000E+00  0.00000000E+00
IOpCl                                      I                1
IROHF                                      I                0
Alpha Orbital Energies                     R   N=          56
 -1.09449826E+01 -1.09449759E+01 -9.81832220E-01 -9.80357855E-01 -6.41186156E-01
 -6.26957921E-01 -4.81505885E-01 -4.05615236E-01 -3.33723191E-01 -3.29948748E-01
 -1.23262112E-01 -1.13615108E-01 -7.71351820E-02 -7.26180652E-02 -5.38681261E-02
 -4.77134534E-02 -4.42148944E-02 -1.58530914E-02 -5.16799393E-03  5.87332023E-02
  2.52173038E-01  2.98493255E-01  3.55311671E-01  3.61743833E-01  3.70454594E-01
  3.80383766E-01  3.89236758E-01  4.99475723E-01  5.24563563E-01  5.95444012E-01
  8.95332892E-01  8.95669682E-01  8.96900659E-01  8.98293181E-01  1.07712941E+00
  1.07770819E+00  1.08767108E+00  1.08824195E+00  1.35213848E+00  1.36190212E+00
  1.62824829E+00  1.62909326E+00  1.63125442E+00  1.63188854E+00  2.16472651E+00
  2.17791190E+00  2.26876820E+00  2.32304200E+00  2.43206222E+00  2.44653257E+00
  2.45127678E+00  2.46551092E+00  2.90474964E+00  3.00367145E+00  2.32539356E+01
  2.32710147E+01
Beta Orbital Energies                      R   N=          56
 -1.09408680E+01 -1.09408654E+01 -9.57882333E-01 -9.57210648E-01 -6.27849421E-01
 -6.12828412E-01 -3.15489159E-01 -3.10714735E-01 -2.99610588E-01 -2.94164038E-01
 -1.28038463E-01 -1.12853194E-01 -7.11699179E-02 -6.34612127E-02 -6.07836626E-02
 -4.03490732E-02 -3.10520352E-02 -2.07984166E-02  1.05408770E-02  7.47829605E-02
  2.44184850E-01  3.01889182E-01  3.65774871E-01  3.68226355E-01  3.86240135E-01
  3.86582435E-01  3.88378367E-01  5.10738776E-01  5.49039325E-01  6.20598844E-01
  9.68203473E-01  9.68285825E-01  9.77259558E-01  9.77342793E-01  1.11008069E+00
  1.11008819E+00  1.11018861E+00  1.11019016E+00  1.35561809E+00  1.36643549E+00
  1.64596970E+00  1.64688522E+00  1.65262823E+00  1.65353072E+00  2.30728023E+00
  2.32781674E+00  2.32952461E+00  2.38554921E+00  2.45831333E+00  2.47698365E+00
  2.48186846E+00  2.49998860E+00  3.01135148E+00  3.09749168E+00  2.32671864E+01
  2.32843033E+01
Alpha MO coefficients                      R   N=        3136
  4.02718169E-01  3.31765650E-01 -1.40104477E-03 -9.42121048E-16 -5.86183930E-16
  6.79355829E-03 -8.82357164E-04  6.53397943E-17  1.38085236E-16 -3.23890229E-03
 -5.11392310E-05  2.72977258E-16  1.68509687E-16  1.58257912E-05  7.59749918E-04
 -4.02478625E-16  6.59667816E-17 -3.43061403E-04 -6.91805441E-17 -1.17901748E-05
  5.87234739E-04 -6.88566174E-17  3.94899022E-01  3.25324474E-01  1.37330337E-03
  1.63810981E-15 -1.03906593E-16  6.65833175E-03  8.67476369E-04 -1.35246514E-15
 -5.48337826E-16 -3.15993379E-03  5.36688128E-05  7.16218051E-16  5.50584189E-16
 -1.57584475E-05 -7.22407998E-04 -1.78978583E-17  4.59436140E-17 -3.36773157E-04
 -3.75769641E-16 -1.14804955E-05  5.76526192E-04 -2.82925697E-17  2.94265480E-04
 -2.01502640E-03  2.16340390E-03 -1.30342789E-03  4.44198919E-16 -1.65409150E-15
  2.88672749E-04 -1.97976110E-03  2.11454531E-03  1.27967366E-03 -4.79855736E-16
 -1.59110450E-15 -3.94899854E-01 -3.25306312E-01  1.40132914E-03  7.57635356E-16
  8.94336762E-17 -6.83154835E-03  7.50841821E-04 -7.00859311E-16  3.58106296E-16
  3.99628391E-03 -1.29552718E-04  6.27669884E-16 -4.64769592E-16 -1.61074441E-03
 -1.89734671E-03 -1.43440236E-16 -2.46541095E-16  3.17502636E-04  1.51050581E-16
  1.56793136E-05 -5.40664443E-04  5.46883598E-17  4.02718983E-01  3.31747839E-01
  1.42852644E-03  8.45815625E-16 -4.90584558E-16  6.96342575E-03  7.68003646E-04
 -4.19775881E-16  1.19518855E-16 -4.05901200E-03 -1.28525626E-04  5.28630803E-16
  1.12375908E-16  1.61074256E-03 -1.91187732E-03 -1.89334801E-16  3.96348941E-16
 -3.24169157E-04 -3.06033076E-16 -1.59074074E-05  5.52076450E-04  6.03600803E-17
 -2.82326484E-04  1.77968472E-03 -2.47134800E-03  1.19924036E-03 -4.05601619E-16
  1.56444820E-15  2.88039750E-04 -1.81885673E-03  2.51329138E-03  1.22456915E-03
 -6.06241907E-16 -1.64275797E-15 -8.00361854E-02 -1.30611812E-01 -5.52568733E-02
  6.45750654E-15 -1.41571234E-14  3.84510730E-01 -8.51637044E-02 -7.71693241E-14
 -1.10993552E-14  2.47107451E-01 -2.80695585E-02  1.32412992E-14  5.52787856E-15
 -2.55410234E-03 -4.89787597E-03 -1.35755811E-14 -3.44365189E-15 -4.03398348E-03
 -1.07222669E-14  4.73709053E-04  7.26731019E-03  3.88581699E-14 -8.00467862E-02
 -1.30629099E-01  5.52644654E-02 -8.71296442E-15 -1.59549583E-14  3.84561407E-01
  8.51753123E-02  9.27015663E-14 -1.38226668E-14  2.47141573E-01  2.80742172E-02
 -1.64313537E-14  8.94891925E-15 -2.55698946E-03  4.90079205E-03  1.49895518E-14
 -7.42144303E-15 -4.03457297E-03  6.82419282E-15  4.73743392E-04  7.26835153E-03
  4.74070267E-14  9.74843368E-02  1.22668772E-01 -7.15222129E-03  1.69005665E-02
  9.06568448E-14 -1.53473351E-14  9.74975270E-02  1.22684973E-01 -7.15439281E-03
 -1.69027494E-02 -1.07961306E-13 -1.62427438E-14 -7.99149810E-02 -1.30349946E-01
 -5.64567752E-02  7.73272770E-15 -1.35849620E-14  3.82466484E-01 -8.67095930E-02
 -7.74765787E-14 -1.15545961E-14  2.58331757E-01 -3.50458527E-02  1.63851503E-14
  5.38453981E-15 -2.19346685E-02 -2.21004181E-02 -9.84362323E-15 -7.58867940E-15
 -4.36331088E-03 -1.04214902E-14  2.42859499E-04  7.70114021E-03  3.90041715E-14
  7.99043277E-02  1.30332557E-01 -5.64495260E-02  8.39935820E-15  1.61321741E-14
 -3.82415246E-01 -8.66983710E-02 -9.27655555E-14  1.29051416E-14 -2.58298739E-01
 -3.50421357E-02  1.87458829E-14 -6.88669224E-15  2.19343256E-02 -2.20997618E-02
 -1.19208493E-14  8.46137471E-15  4.36278585E-03 -6.39613568E-15 -2.42798495E-04
 -7.70019473E-03 -4.73079644E-14  9.83351814E-02  1.21327792E-01 -1.63222172E-02
  1.63650887E-02  9.18563357E-14 -1.59785321E-14 -9.83223546E-02 -1.21311562E-01
  1.63212776E-02  1.63628495E-02  1.09095368E-13  1.68342738E-14 -4.03849448E-02
 -6.72621587E-02  1.65270749E-01  4.09231908E-14  1.91914244E-14  2.07220716E-01
  2.45625818E-01  1.80081107E-13  1.92413972E-14  2.49657167E-01  1.45986688E-01
  4.35483034E-14 -1.21743597E-14  1.83171637E-02 -1.17746902E-03  5.84625820E-15
  4.68846582E-15  1.41684781E-02  1.27738471E-15  1.35610591E-04 -2.44603551E-02
 -5.48377735E-14 -4.03850322E-02 -6.72623057E-02 -1.65270998E-01 -4.54849318E-14
  7.08530357E-14  2.07221160E-01 -2.45626140E-01 -2.10312304E-13  9.90857230E-14
  2.49657833E-01 -1.45986816E-01 -4.71191693E-14  3.41396719E-14  1.83171996E-02
  1.17748951E-03 -6.11834188E-15  3.66022841E-17  1.41685038E-02 -4.08434761E-15
  1.35611068E-04 -2.44603994E-02 -6.47576167E-14 -9.47616826E-02 -1.65654932E-01
 -6.90624608E-02 -8.16456451E-03 -3.44317307E-14  1.42822188E-14 -9.47617899E-02
 -1.65655092E-01 -6.90625710E-02  8.16456419E-03  3.98668545E-14  1.59253387E-14
 -4.35601604E-02 -7.26716647E-02  1.69190963E-01  3.95132841E-14  1.40094668E-14
  2.26626121E-01  2.47611303E-01  1.81445718E-13  9.44420316E-15  2.56954273E-01
  1.53122764E-01  3.98610535E-14 -1.75576353E-14  2.04158381E-02  5.86934584E-03
  3.26375138E-15  7.67712177E-16  1.54758751E-02  1.17046552E-15 -1.49069837E-04
 -2.68932692E-02 -5.54394842E-14  4.35601277E-02  7.26716119E-02  1.69190749E-01
  4.48232607E-14 -8.21644315E-14 -2.26625947E-01  2.47610939E-01  2.13373587E-13
 -1.16021177E-13 -2.56954193E-01  1.53122498E-01  4.28721395E-14 -5.01982307E-14
 -2.04158381E-02  5.86934301E-03  5.35858850E-15 -2.09521874E-15 -1.54758602E-02
  3.49204484E-15  1.49069097E-04  2.68932429E-02  6.56189532E-14 -9.61777108E-02
 -1.70184586E-01 -6.38809546E-02 -7.60985510E-03 -3.25290602E-14  1.46759157E-14
  9.61775514E-02  1.70184266E-01  6.38808436E-02 -7.60983239E-03 -3.76176335E-14
 -1.72152155E-14 -6.33747161E-17  1.37688234E-14 -1.13827400E-13  1.24052751E-01
  1.66065126E-01 -2.54644812E-13  2.46206154E-14  1.94924445E-01  2.60938290E-01
  1.51979891E-12 -9.35628925E-13  1.77945308E-01  2.38209065E-01 -2.98178717E-14
 -1.55671606E-12  1.31200940E-02  1.75635111E-02 -6.80809247E-15 -1.28953840E-02
 -8.53509440E-15  1.32664614E-14 -9.63299559E-03  2.58194205E-15 -3.89482454E-15
 -4.15912340E-14  1.24052767E-01  1.66065150E-01  2.75631479E-13 -5.30950011E-14
  1.94924477E-01  2.60938336E-01 -2.24133688E-12 -1.28116257E-12  1.77945340E-01
  2.38209110E-01 -4.01797715E-13 -1.80208191E-12  1.31200968E-02  1.75635151E-02
  6.17458794E-14  1.28953994E-02  5.12833639E-15 -1.20962357E-13  9.63300692E-03
 -1.12773085E-14  5.40274441E-14 -2.60336849E-12  3.47407635E-14  9.13374785E-03
  1.22270119E-02  5.51191213E-15  3.63717436E-13  3.58110954E-12 -1.50268777E-13
  9.13375692E-03  1.22270242E-02 -1.46357020E-15  6.48408688E-15 -1.10460354E-13
  1.25013245E-01  1.67351135E-01 -1.19737348E-13 -4.05552384E-14  1.97009602E-01
  2.63729983E-01  6.55445923E-13 -5.66194043E-13  1.77252377E-01  2.37281827E-01
  1.16873237E-12 -3.24369210E-13  1.79392669E-02  2.40147274E-02  1.07553964E-14
 -1.59952676E-02 -8.20081812E-15 -1.70908498E-14 -1.19486374E-02 -5.47168257E-15
 -3.91446718E-15  3.82860070E-14 -1.25013216E-01 -1.67351098E-01 -1.85310419E-13
  1.00136227E-13 -1.97009561E-01 -2.63729932E-01  1.76009065E-12  1.05799523E-12
 -1.77252344E-01 -2.37281785E-01  1.17522019E-12  1.07860353E-12 -1.79392633E-02
 -2.40147228E-02 -5.14302104E-14 -1.59952772E-02 -5.08608209E-15  1.03164094E-13
 -1.19486444E-02 -1.13971334E-14  1.66803639E-13 -1.85377505E-12  7.03231531E-14
  9.98595092E-03  1.33678442E-02 -6.69190882E-15 -2.98516460E-13 -3.20127367E-12
  1.31377964E-13 -9.98595622E-03 -1.33678515E-02  7.64667799E-15  2.57994623E-14
 -1.05630394E-13  1.55417914E-01 -1.16099303E-01 -4.09418857E-13 -7.73791934E-14
  2.50635096E-01 -1.87227609E-01  2.68437381E-12 -1.59043687E-12  2.41481609E-01
 -1.80389936E-01  2.99055401E-13 -2.58201530E-12  4.30129085E-02 -3.21313207E-02
 -6.08344379E-14  9.65339347E-03  1.59438146E-15  1.22715991E-13 -1.29226271E-02
 -8.29521080E-15 -3.39170022E-14 -1.82456495E-13  1.55416519E-01 -1.16098260E-01
  4.47718252E-13 -3.07188141E-14  2.50632843E-01 -1.87225923E-01 -2.57066503E-12
 -1.63072202E-12  2.41479491E-01 -1.80388351E-01 -4.00623435E-13 -2.66758549E-12
  4.30124819E-02 -3.21310015E-02  2.48489965E-14 -9.65330764E-03 -6.77775161E-15
 -5.45582647E-14  1.29225124E-02  4.08897080E-15 -2.20632505E-13 -4.57066010E-12
 -1.30694351E-13  1.32883474E-02 -9.92656155E-03  3.84276646E-15 -8.59233251E-14
  4.75648731E-12  3.33778451E-17  1.32882366E-02 -9.92647864E-03  2.04095595E-15
 -3.39518634E-15  8.38720120E-14 -1.57945813E-01  1.17987523E-01  2.04570660E-13
  1.17656533E-13 -2.55488240E-01  1.90852723E-01 -1.73257643E-12  1.20234956E-12
 -2.42404207E-01  1.81078921E-01 -1.75985080E-12  1.03151069E-12 -4.99981542E-02
  3.73492657E-02  3.84925395E-14 -1.05168860E-02 -1.37174099E-15 -8.39737897E-14
  1.40785765E-02 -1.55098573E-15 -1.64425459E-14 -1.67950859E-13  1.57947166E-01
 -1.17988532E-01  2.58458447E-13 -7.84383400E-14  2.55490424E-01 -1.90854352E-01
 -1.58733232E-12 -1.24972744E-12  2.42406333E-01 -1.81080506E-01 -1.83457023E-12
 -1.11327098E-12  4.99985426E-02 -3.73495554E-02  3.13498266E-15 -1.05169769E-02
 -7.19798162E-15 -1.71492691E-14  1.40786984E-02  5.39842938E-15  1.51679799E-13
  3.68252589E-12  9.45740045E-14 -1.37326456E-02  1.02584445E-02  9.11386619E-15
 -1.61224320E-13  3.84086471E-12  3.83292846E-14  1.37327716E-02 -1.02585385E-02
  2.98821752E-02  5.05976190E-02  3.29914330E-02  2.75100763E-14  1.91708840E-14
 -1.58614502E-01  8.10359182E-02 -1.07062485E-13  4.90442339E-14 -5.14484216E-01
  9.76912411E-02  3.08670212E-13  7.66754279E-14  9.64573115E-01 -3.02327473E-01
 -3.05123822E-13 -1.24027445E-13  4.38882819E-03 -2.40476500E-14  1.99664988E-03
 -6.42029789E-03  1.51645849E-14  2.98820709E-02  5.05974449E-02 -3.29909866E-02
 -4.00482716E-14  1.17586312E-14 -1.58613938E-01 -8.10352781E-02  1.15511551E-13
  3.99809669E-14 -5.14482729E-01 -9.76900468E-02 -3.86614491E-13  6.51072818E-14
  9.64571783E-01  3.02323993E-01  3.88011368E-13 -1.17831383E-13  4.38882787E-03
  2.61910443E-14  1.99664423E-03 -6.42030063E-03  1.70642018E-14  5.68215390E-03
  1.52470558E-01 -1.15512165E-01 -3.71971807E-03 -8.89470554E-14 -7.97595001E-14
  5.68205138E-03  1.52469913E-01 -1.15512321E-01  3.71960824E-03  1.05992332E-13
 -8.61926301E-14 -2.09110791E-02 -3.62337419E-02 -6.28785666E-02 -3.79771471E-14
 -1.32665404E-14  1.30558443E-01 -1.11073518E-01  1.19577524E-13 -3.61033505E-14
  2.49627098E-01 -1.48848348E-01 -5.28029363E-13 -4.76045399E-14 -4.66016229E-01
  8.76545935E-01  7.00574439E-13  1.16418613E-13 -5.39280814E-03  1.94616474E-14
 -1.31940282E-03  8.55998413E-03  2.17409677E-15  2.09111916E-02  3.62339365E-02
 -6.28785288E-02 -4.29140532E-14  1.64356228E-14 -1.30559108E-01 -1.11073682E-01
  1.42713506E-13  3.94020072E-14 -2.49628691E-01 -1.48847958E-01 -6.23223095E-13
  6.85109542E-14  4.66021388E-01  8.76547516E-01  8.56898112E-13 -2.63686563E-13
  5.39284803E-03  2.24353528E-14  1.31941235E-03 -8.56004756E-03 -1.78927773E-15
  4.44647542E-03 -1.23799696E-01  2.45190833E-01  1.24901607E-02  8.48210019E-14
  8.58474394E-14 -4.44659580E-03  1.23800061E-01 -2.45192856E-01  1.24901362E-02
  1.03229168E-13 -9.38326000E-14  3.36685705E-14  4.24918987E-14  3.48308936E-13
 -7.20168082E-02  5.37983745E-02  1.58859358E-13  3.19465436E-13 -8.45003953E-02
  6.31239532E-02 -3.44701501E-12  2.46316423E-12 -2.39655114E-01  1.79027740E-01
 -2.45600964E-12  2.63581755E-12  5.84644698E-01 -4.36743865E-01 -1.03283823E-15
 -6.31938131E-03 -9.75893305E-16 -5.62440441E-15  8.45935512E-03 -5.12727216E-14
 -6.62968721E-14  4.75796186E-13 -7.20167768E-02  5.37983509E-02 -1.37703167E-13
  3.45413284E-13 -8.45003607E-02  6.31239271E-02  4.27854125E-12  3.27399157E-12
 -2.39655022E-01  1.79027671E-01  3.52085708E-12  2.99784867E-12  5.84644339E-01
 -4.36743596E-01  2.92389280E-14  6.31938603E-03  4.03737540E-15 -4.64275827E-14
 -8.45936144E-03  1.86737700E-13  9.36461112E-14  7.86591386E-12 -1.27856980E-14
 -1.63962073E-05  1.22494630E-05 -2.63135569E-13  6.40099356E-15 -1.02281922E-11
 -1.00480576E-13 -1.64080546E-05  1.22583068E-05  3.06430059E-14  3.83012406E-14
  2.85874944E-13 -4.94258822E-02 -6.61637093E-02  9.62234929E-14  1.90944205E-13
 -5.04355687E-02 -6.75153873E-02 -2.58883968E-12  1.89957644E-12 -1.69847043E-01
 -2.27363981E-01 -2.20096948E-12  1.97961335E-12  4.38127089E-01  5.86495895E-01
 -2.32210947E-14  7.94134165E-03  1.81174878E-15  4.03391584E-14  5.93234454E-03
 -2.71020091E-14 -3.49809079E-14  3.16530361E-13 -4.94258583E-02 -6.61636771E-02
 -1.21087031E-13  2.94160573E-13 -5.04355464E-02 -6.75153572E-02  2.82185974E-12
  2.26385838E-12 -1.69846971E-01 -2.27363884E-01  2.71484289E-12  2.00377479E-12
  4.38126835E-01  5.86495553E-01  5.08280160E-15 -7.94134813E-03  1.39728195E-16
 -2.93017626E-15 -5.93234939E-03  1.71102542E-13 -8.28526056E-14  6.30583544E-12
 -7.77016755E-14  9.06566490E-04  1.21356597E-03 -1.76596988E-13 -1.54297347E-13
 -6.93053777E-12 -9.38307430E-15  9.06557878E-04  1.21355445E-03  1.00202025E-02
  1.70196824E-02 -9.85830165E-02  7.64617040E-13 -1.94980884E-13 -6.18162076E-02
 -9.61780005E-02  7.56791299E-13 -2.56827160E-13 -9.92298130E-03 -5.02440868E-01
  3.57573687E-12 -7.75195919E-13  3.09386545E-01  6.41851165E-01 -1.12959714E-11
  2.18540104E-12 -4.72686235E-03  9.83886597E-15  1.10915269E-03  8.84350429E-03
 -2.66401702E-14  1.00202016E-02  1.70196807E-02  9.85828098E-02 -6.83457910E-13
  2.04805005E-13 -6.18161815E-02  9.61777371E-02 -6.55230817E-13  2.87780052E-13
 -9.92294020E-03  5.02440071E-01 -3.41842803E-12  6.34637166E-13  3.09384048E-01
 -6.41851351E-01  1.08394485E-11 -2.17709154E-12 -4.72688979E-03  6.11460727E-16
  1.10914930E-03  8.84354985E-03 -2.29928312E-14  4.29492299E-03 -8.06110363E-02
 -4.14543121E-01  1.22423070E-02 -4.23952998E-14  6.63741086E-15  4.29510882E-03
 -8.06107928E-02 -4.14541177E-01 -1.22422869E-02  3.46672375E-14 -1.34296865E-14
  2.32057359E-13  3.81878573E-13 -6.03152126E-13 -6.83706312E-02  5.10743951E-02
 -1.05489834E-12 -6.91323759E-13 -7.58733084E-02  5.66790227E-02 -5.51705066E-12
 -1.14492682E-12 -2.59953703E-01  1.94190834E-01 -3.87639758E-12  1.15737173E-11
  8.35206904E-01 -6.23917860E-01 -1.42836085E-13 -5.90876533E-04  9.23759333E-15