Title Card Required                                                     
FOpt      UM062X                                                      6-311+G(d,p)        
Number of atoms                            I                6
Info1-9                                    I   N=           9
          15          15           0           0           0         110
           2          18        -502
Full Title                                 C   N=           2
Title Card Required     
Route                                      C   N=           4
#p opt UM062X/6-311+G** nosymm int=superfine    
Charge                                     I                0
Multiplicity                               I                1
Number of electrons                        I               16
Number of alpha electrons                  I                8
Number of beta electrons                   I                8
Number of basis functions                  I               68
Number of independent functions            I               68
Number of point charges in /Mol/           I                0
Number of translation vectors              I                0
Atomic numbers                             I   N=           6
           6           6           1           1           1           1
Nuclear charges                            R   N=           6
  6.00000000E+00  6.00000000E+00  1.00000000E+00  1.00000000E+00  1.00000000E+00
  1.00000000E+00
Current cartesian coordinates              R   N=          18
 -3.65774444E+00  0.00000000E+00  0.00000000E+00  3.65774444E+00  0.00000000E+00
  0.00000000E+00 -4.99327412E+00 -1.62158421E+00  4.62766228E-09 -4.99321271E+00
  1.62163735E+00  4.75028506E-09  4.99327412E+00  1.62158421E+00 -4.76001041E-09
  4.99321271E+00 -1.62163735E+00 -4.63836210E-09
Number of symbols in /Mol/                 I                0
Force Field                                I                0
Atom Types                                 C   N=           6
                                                            
            
Int Atom Types                             I   N=           6
           0           0           0           0           0           0
MM charges                                 R   N=           6
  0.00000000E+00  0.00000000E+00  0.00000000E+00  0.00000000E+00  0.00000000E+00
  0.00000000E+00
Integer atomic weights                     I   N=           6
          12          12           1           1           1           1
Real atomic weights                        R   N=           6
  1.20000000E+01  1.20000000E+01  1.00782504E+00  1.00782504E+00  1.00782504E+00
  1.00782504E+00
Atom fragment info                         I   N=           6
           0           0           0           0           0           0
Atom residue num                           I   N=           6
           0           0           0           0           0           0
Nuclear spins                              I   N=           6
           0           0           1           1           1           1
Nuclear ZEff                               R   N=           6
 -3.60000000E+00 -3.60000000E+00 -1.00000000E+00 -1.00000000E+00 -1.00000000E+00
 -1.00000000E+00
Nuclear ZNuc                               R   N=           6
  6.00000000E+00  6.00000000E+00  1.00000000E+00  1.00000000E+00  1.00000000E+00
  1.00000000E+00
Nuclear QMom                               R   N=           6
  0.00000000E+00  0.00000000E+00  0.00000000E+00  0.00000000E+00  0.00000000E+00
  0.00000000E+00
Nuclear GFac                               R   N=           6
  0.00000000E+00  0.00000000E+00  2.79284600E+00  2.79284600E+00  2.79284600E+00
  2.79284600E+00
MicOpt                                     I   N=           6
          -2          -2          -1          -1          -1          -1
Number of residues                         I                0
Number of secondary structures             I                0
Redundant internal dimensions              I   N=           4
          20          10           6           4
Redundant internal coordinate indices      I   N=          80
           1          -1           0           0           1          -2
           0           0           1          -3           0           0
           2          -1           0           0           2          -2
           0           0           2          -3           0           0
           1           3           0           0           1           4
           0           0           2           5           0           0
           2           6           0           0           2           1
           3           0           2           1           4           0
           3           1           4           0           1           2
           5           0           1           2           6           0
           5           2           6           0           3           1
           2           5           3           1           2           6
           4           1           2           5           4           1
           2           6
Redundant internal coordinates             R   N=          20
 -3.65774444E+00  0.00000000E+00  0.00000000E+00  3.65774444E+00  0.00000000E+00
  0.00000000E+00  2.10075579E+00  2.10075777E+00  2.10075579E+00  2.10075777E+00
  2.25976018E+00  2.25972153E+00  1.76370360E+00  2.25976018E+00  2.25972153E+00
  1.76370360E+00  3.14159265E+00  0.00000000E+00 -0.00000000E+00  3.14159265E+00
ZRed-IntVec                                I   N=          20
          -1          -1          -1          -1          -1          -1
           0           0           0           0           0           0
           0           0           0           0           0           0
           0           0
ZRed-FPVec                                 R   N=          20
  0.00000000E+00  0.00000000E+00  0.00000000E+00  0.00000000E+00  0.00000000E+00
  0.00000000E+00  0.00000000E+00  0.00000000E+00  0.00000000E+00  0.00000000E+00
  0.00000000E+00  0.00000000E+00  0.00000000E+00  0.00000000E+00  0.00000000E+00
  0.00000000E+00  0.00000000E+00  0.00000000E+00  0.00000000E+00  0.00000000E+00
ZRed-Constraint1                           R   N=          20
 -3.65774444E+00  0.00000000E+00  0.00000000E+00  3.65774444E+00  0.00000000E+00
  0.00000000E+00  2.03694512E+00  2.03669844E+00  2.03694512E+00  2.03669844E+00
  2.00316847E+00  2.00313852E+00  2.27687832E+00  2.00316847E+00  2.00313852E+00
  2.27687832E+00  3.14159265E+00  0.00000000E+00  0.00000000E+00  3.14159265E+00
ZRed-Constraint2                           R   N=          20
 -3.65774444E+00  0.00000000E+00  0.00000000E+00  3.65774444E+00  0.00000000E+00
  0.00000000E+00  0.00000000E+00  0.00000000E+00  0.00000000E+00  0.00000000E+00
  0.00000000E+00  0.00000000E+00  0.00000000E+00  0.00000000E+00  0.00000000E+00
  0.00000000E+00  0.00000000E+00  0.00000000E+00  0.00000000E+00  0.00000000E+00
Number of contracted shells                I               28
Number of primitive shells                 I               50
Pure/Cartesian d shells                    I                0
Pure/Cartesian f shells                    I                0
Highest angular momentum                   I                2
Largest degree of contraction              I                6
Shell types                                I   N=          28
           0          -1          -1          -1          -1          -2
           0          -1          -1          -1          -1          -2
           0           0           0           1           0           0
           0           1           0           0           0           1
           0           0           0           1
Number of primitives per shell             I   N=          28
           6           3           1           1           1           1
           6           3           1           1           1           1
           3           1           1           1           3           1
           1           1           3           1           1           1
           3           1           1           1
Shell to atom map                          I   N=          28
           1           1           1           1           1           1
           2           2           2           2           2           2
           3           3           3           3           4           4
           4           4           5           5           5           5
           6           6           6           6
Primitive exponents                        R   N=          50
  4.56324000E+03  6.82024000E+02  1.54973000E+02  4.44553000E+01  1.30290000E+01
  1.82773000E+00  2.09642000E+01  4.80331000E+00  1.45933000E+00  4.83456000E-01
  1.45585000E-01  4.38000000E-02  6.26000000E-01  4.56324000E+03  6.82024000E+02
  1.54973000E+02  4.44553000E+01  1.30290000E+01  1.82773000E+00  2.09642000E+01
  4.80331000E+00  1.45933000E+00  4.83456000E-01  1.45585000E-01  4.38000000E-02
  6.26000000E-01  3.38650000E+01  5.09479000E+00  1.15879000E+00  3.25840000E-01
  1.02741000E-01  7.50000000E-01  3.38650000E+01  5.09479000E+00  1.15879000E+00
  3.25840000E-01  1.02741000E-01  7.50000000E-01  3.38650000E+01  5.09479000E+00
  1.15879000E+00  3.25840000E-01  1.02741000E-01  7.50000000E-01  3.38650000E+01
  5.09479000E+00  1.15879000E+00  3.25840000E-01  1.02741000E-01  7.50000000E-01
Contraction coefficients                   R   N=          50
  1.96665025E-03  1.52306019E-02  7.61269097E-02  2.60801033E-01  6.16462078E-01
  2.21006028E-01  1.14660081E-01  9.19999648E-01 -3.03068213E-03  1.00000000E+00
  1.00000000E+00  1.00000000E+00  1.00000000E+00  1.96665025E-03  1.52306019E-02
  7.61269097E-02  2.60801033E-01  6.16462078E-01  2.21006028E-01  1.14660081E-01
  9.19999648E-01 -3.03068213E-03  1.00000000E+00  1.00000000E+00  1.00000000E+00
  1.00000000E+00  2.54938145E-02  1.90373109E-01  8.52161486E-01  1.00000000E+00
  1.00000000E+00  1.00000000E+00  2.54938145E-02  1.90373109E-01  8.52161486E-01
  1.00000000E+00  1.00000000E+00  1.00000000E+00  2.54938145E-02  1.90373109E-01
  8.52161486E-01  1.00000000E+00  1.00000000E+00  1.00000000E+00  2.54938145E-02
  1.90373109E-01  8.52161486E-01  1.00000000E+00  1.00000000E+00  1.00000000E+00
P(S=P) Contraction coefficients            R   N=          50
  0.00000000E+00  0.00000000E+00  0.00000000E+00  0.00000000E+00  0.00000000E+00
  0.00000000E+00  4.02486927E-02  2.37593957E-01  8.15853851E-01  1.00000000E+00
  1.00000000E+00  1.00000000E+00  0.00000000E+00  0.00000000E+00  0.00000000E+00
  0.00000000E+00  0.00000000E+00  0.00000000E+00  0.00000000E+00  4.02486927E-02
  2.37593957E-01  8.15853851E-01  1.00000000E+00  1.00000000E+00  1.00000000E+00
  0.00000000E+00  0.00000000E+00  0.00000000E+00  0.00000000E+00  0.00000000E+00
  0.00000000E+00  0.00000000E+00  0.00000000E+00  0.00000000E+00  0.00000000E+00
  0.00000000E+00  0.00000000E+00  0.00000000E+00  0.00000000E+00  0.00000000E+00
  0.00000000E+00  0.00000000E+00  0.00000000E+00  0.00000000E+00  0.00000000E+00
  0.00000000E+00  0.00000000E+00  0.00000000E+00  0.00000000E+00  0.00000000E+00
Coordinates of each shell                  R   N=          84
 -3.65774444E+00  0.00000000E+00  0.00000000E+00 -3.65774444E+00  0.00000000E+00
  0.00000000E+00 -3.65774444E+00  0.00000000E+00  0.00000000E+00 -3.65774444E+00
  0.00000000E+00  0.00000000E+00 -3.65774444E+00  0.00000000E+00  0.00000000E+00
 -3.65774444E+00  0.00000000E+00  0.00000000E+00  3.65774444E+00  0.00000000E+00
  0.00000000E+00  3.65774444E+00  0.00000000E+00  0.00000000E+00  3.65774444E+00
  0.00000000E+00  0.00000000E+00  3.65774444E+00  0.00000000E+00  0.00000000E+00
  3.65774444E+00  0.00000000E+00  0.00000000E+00  3.65774444E+00  0.00000000E+00
  0.00000000E+00 -4.99327412E+00 -1.62158421E+00  4.62766228E-09 -4.99327412E+00
 -1.62158421E+00  4.62766228E-09 -4.99327412E+00 -1.62158421E+00  4.62766228E-09
 -4.99327412E+00 -1.62158421E+00  4.62766228E-09 -4.99321271E+00  1.62163735E+00
  4.75028506E-09 -4.99321271E+00  1.62163735E+00  4.75028506E-09 -4.99321271E+00
  1.62163735E+00  4.75028506E-09 -4.99321271E+00  1.62163735E+00  4.75028506E-09
  4.99327412E+00  1.62158421E+00 -4.76001041E-09  4.99327412E+00  1.62158421E+00
 -4.76001041E-09  4.99327412E+00  1.62158421E+00 -4.76001041E-09  4.99327412E+00
  1.62158421E+00 -4.76001041E-09  4.99321271E+00 -1.62163735E+00 -4.63836210E-09
  4.99321271E+00 -1.62163735E+00 -4.63836210E-09  4.99321271E+00 -1.62163735E+00
 -4.63836210E-09  4.99321271E+00 -1.62163735E+00 -4.63836210E-09
Num ILSW                                   I              100
ILSW                                       I   N=         100
           1           0           0           1           2           0
           0           0           0           0        4336          -1
           7           0           0           0           2           0
           0           0           0           0           1           0
           1           1           0           0           0           0
           0           0      100000           0          -1           0
           0           0           0           0           0           0
           0           0           0           1           0           0
           0 -2000000000           1           0           0           0
           0           0           4          52           0           0
           0           0          55           0           0           0
           0           0           0           6           0           1
           0           0           0           0           0           0
           0           0           0           0           0           0
           0           0           0           0           0           0
           0           0           0           0           0           0
           0           0           0           0
Num RLSW                                   I               52
RLSW                                       R   N=          52
  1.00000000E+00  1.00000000E+00  1.00000000E+00  1.00000000E+00  5.40000000E-01
  0.00000000E+00  0.00000000E+00  1.00000000E+00  0.00000000E+00  0.00000000E+00
  0.00000000E+00  0.00000000E+00  1.00000000E+00  0.00000000E+00  0.00000000E+00
  0.00000000E+00  0.00000000E+00  1.00000000E+00  0.00000000E+00  0.00000000E+00
  0.00000000E+00  0.00000000E+00  1.00000000E+00  0.00000000E+00  0.00000000E+00
  0.00000000E+00  0.00000000E+00  1.00000000E+00  0.00000000E+00  0.00000000E+00
  0.00000000E+00  0.00000000E+00  1.00000000E+00  0.00000000E+00  0.00000000E+00
  0.00000000E+00  0.00000000E+00  0.00000000E+00  1.00000000E+00  1.00000000E+00
  0.00000000E+00  1.00000000E+00  0.00000000E+00  0.00000000E+00  0.00000000E+00
  0.00000000E+00  0.00000000E+00  0.00000000E+00  0.00000000E+00  0.00000000E+00
  0.00000000E+00  0.00000000E+00
MxBond                                     I                3
NBond                                      I   N=           6
           3           3           1           1           1           1
IBond                                      I   N=          18
           2           3           4           1           5           6
           1           0           0           1           0           0
           2           0           0           2           0           0
RBond                                      R   N=          18
  1.00000000E-01  1.00000000E+00  1.00000000E+00  1.00000000E-01  1.00000000E+00
  1.00000000E+00  1.00000000E+00  0.00000000E+00  0.00000000E+00  1.00000000E+00
  0.00000000E+00  0.00000000E+00  1.00000000E+00  0.00000000E+00  0.00000000E+00
  1.00000000E+00  0.00000000E+00  0.00000000E+00
Virial Ratio                               R      2.003313754666097E+00
SCF Energy                                 R     -7.823273996820062E+01
Total Energy                               R     -7.823273996820062E+01
S**2                                       R     -7.105427357601002E-14
S**2 after annihilation                    R     -3.730349362740404E-14
RMS Force                                  R      1.361638239065611E-05
RMS Density                                R      1.617071085007654E-09
Job Status                                 I                1
Nuclear derivative order                   I                1
External E-field                           R   N=          35
  0.00000000E+00  0.00000000E+00  0.00000000E+00  0.00000000E+00  0.00000000E+00
  0.00000000E+00  0.00000000E+00  0.00000000E+00  0.00000000E+00  0.00000000E+00
  0.00000000E+00  0.00000000E+00  0.00000000E+00  0.00000000E+00  0.00000000E+00
  0.00000000E+00  0.00000000E+00  0.00000000E+00  0.00000000E+00  0.00000000E+00
  0.00000000E+00  0.00000000E+00  0.00000000E+00  0.00000000E+00  0.00000000E+00
  0.00000000E+00  0.00000000E+00  0.00000000E+00  0.00000000E+00  0.00000000E+00
  0.00000000E+00  0.00000000E+00  0.00000000E+00  0.00000000E+00  0.00000000E+00
IOpCl                                      I                1
IROHF                                      I                0
Alpha Orbital Energies                     R   N=          68
 -1.05938719E+01 -1.05938706E+01 -7.44008973E-01 -7.43477754E-01 -4.60935365E-01
 -4.60448185E-01 -3.08192461E-01 -2.88430721E-01 -7.21890045E-02 -6.69008292E-02
  2.52596846E-02  3.24583223E-02  6.62774526E-02  8.62190362E-02  8.72636982E-02
  1.04179975E-01  1.24120902E-01  1.54586213E-01  1.75489869E-01  1.99484770E-01
  2.08491982E-01  2.20922888E-01  4.55410245E-01  4.68098608E-01  4.78551734E-01
  5.09531992E-01  5.93926246E-01  6.10334364E-01  6.21178477E-01  6.21228589E-01
  6.67662772E-01  6.98415867E-01  7.57893407E-01  7.78887404E-01  1.08979292E+00
  1.11817345E+00  1.11817350E+00  1.13586566E+00  1.20465385E+00  1.20487159E+00
  1.56589329E+00  1.57000225E+00  1.58315321E+00  1.58691525E+00  1.63662288E+00
  1.65457173E+00  1.87382484E+00  1.87382510E+00  1.89309896E+00  1.89372027E+00
  2.14011223E+00  2.15133518E+00  2.36904066E+00  2.37769305E+00  2.46962681E+00
  2.50335133E+00  2.50772528E+00  2.52120056E+00  2.55527747E+00  2.57795893E+00
  2.75871481E+00  2.77441138E+00  3.07413428E+00  3.14936820E+00  3.58961228E+00
  3.59346731E+00  2.37806434E+01  2.37821375E+01
Beta Orbital Energies                      R   N=          68
 -1.05938719E+01 -1.05938706E+01 -7.44008973E-01 -7.43477754E-01 -4.60935365E-01
 -4.60448185E-01 -3.08192461E-01 -2.88430721E-01 -7.21890045E-02 -6.69008292E-02
  2.52596846E-02  3.24583223E-02  6.62774526E-02  8.62190362E-02  8.72636982E-02
  1.04179975E-01  1.24120902E-01  1.54586213E-01  1.75489869E-01  1.99484770E-01
  2.08491982E-01  2.20922888E-01  4.55410245E-01  4.68098608E-01  4.78551734E-01
  5.09531992E-01  5.93926246E-01  6.10334364E-01  6.21178477E-01  6.21228589E-01
  6.67662772E-01  6.98415867E-01  7.57893407E-01  7.78887404E-01  1.08979292E+00
  1.11817345E+00  1.11817350E+00  1.13586566E+00  1.20465385E+00  1.20487159E+00
  1.56589329E+00  1.57000225E+00  1.58315321E+00  1.58691525E+00  1.63662288E+00
  1.65457173E+00  1.87382484E+00  1.87382510E+00  1.89309896E+00  1.89372027E+00
  2.14011223E+00  2.15133518E+00  2.36904066E+00  2.37769305E+00  2.46962681E+00
  2.50335133E+00  2.50772528E+00  2.52120056E+00  2.55527747E+00  2.57795893E+00
  2.75871481E+00  2.77441138E+00  3.07413428E+00  3.14936820E+00  3.58961228E+00
  3.59346731E+00  2.37806434E+01  2.37821375E+01
Alpha MO coefficients                      R   N=        4624
  3.98863419E-01  3.28264005E-01 -1.60173658E-03  3.07938885E-08  5.96314801E-12
  7.75107228E-03 -1.03961527E-03  1.15613584E-08  3.81823336E-12 -2.88083414E-03
 -2.09133537E-04  5.21355425E-09  1.93908034E-13  1.97472756E-04  1.01520241E-03
 -7.73902771E-09 -1.69938041E-12 -6.91337582E-04 -3.33351588E-12  6.44656302E-14
 -2.21222995E-04  1.37027741E-08 -3.98863421E-01 -3.28264007E-01 -1.60173659E-03
  3.07938892E-08  5.97743408E-12 -7.75107231E-03 -1.03961528E-03  1.15613555E-08
  3.82552182E-12  2.88083415E-03 -2.09133537E-04  5.21356019E-09  1.95010787E-13
 -1.97472754E-04  1.01520241E-03 -7.73901558E-09 -1.70509946E-12  6.91337585E-04
  3.34056438E-12  6.34584348E-14  2.21222996E-04 -1.37027742E-08  2.51263710E-04
 -1.88856573E-03  1.53130580E-03 -7.74117983E-04 -9.80170217E-04  2.68273433E-12
  2.51265051E-04 -1.88854816E-03  1.53128478E-03 -7.74073961E-04  9.80193551E-04
  2.75050499E-12 -2.51263711E-04  1.88856574E-03 -1.53130581E-03 -7.74117986E-04
 -9.80170221E-04  2.75669282E-12 -2.51265052E-04  1.88854816E-03 -1.53128479E-03
 -7.74073964E-04  9.80193555E-04  2.68899835E-12  3.98863854E-01  3.28267034E-01
 -1.57181447E-03  3.10854076E-08  5.98853222E-12  7.74964962E-03 -1.13251333E-03
  1.01466471E-08  3.75887867E-12 -2.97131661E-03 -5.11165075E-05  4.77547160E-09
  1.05693267E-13 -5.74471571E-04  6.91454042E-04 -1.63083059E-09 -2.82714693E-12
 -6.71521636E-04 -3.29345500E-12  6.22058219E-14 -2.29388562E-04  1.42440514E-08
  3.98863852E-01  3.28267033E-01  1.57181447E-03 -3.10854082E-08 -6.00151240E-12
  7.74964959E-03  1.13251332E-03 -1.01466425E-08 -3.76827318E-12 -2.97131660E-03
  5.11165066E-05 -4.77547718E-09 -1.04098026E-13 -5.74471572E-04 -6.91454038E-04
  1.63082780E-09  2.83044760E-12 -6.71521633E-04 -3.30032414E-12 -6.24210781E-14
 -2.29388561E-04  1.42440520E-08  2.42615485E-04 -1.85287064E-03  1.70147846E-03
 -7.75514206E-04 -9.78574791E-04  2.72537595E-12  2.42615571E-04 -1.85284469E-03
  1.70143473E-03 -7.75470404E-04  9.78597595E-04  2.79357010E-12  2.42615484E-04
 -1.85287063E-03  1.70147846E-03  7.75514203E-04  9.78574787E-04 -2.79931046E-12
  2.42615570E-04 -1.85284469E-03  1.70143472E-03  7.75470401E-04 -9.78597591E-04
 -2.73206230E-12 -7.38717678E-02 -1.18868082E-01 -4.82484015E-02  8.11983157E-07
  1.68750286E-10  3.24225455E-01 -7.26317435E-02  1.25915170E-06  2.55382164E-10
  2.22442944E-01 -3.18802885E-02  5.29050366E-07  1.02706125E-10  5.05823553E-03
 -3.22316293E-03  6.27149439E-08  1.97737759E-11 -5.22199391E-03 -3.34245056E-11
  9.41522142E-14  1.81943773E-04  1.42646125E-08 -7.38717677E-02 -1.18868082E-01
  4.82484015E-02 -8.11983148E-07 -1.69131512E-10  3.24225455E-01  7.26317435E-02
 -1.25915169E-06 -2.55960632E-10  2.22442944E-01  3.18802885E-02 -5.29050343E-07
 -1.02980294E-10  5.05823553E-03  3.22316293E-03 -6.27149379E-08 -1.97826482E-11
 -5.22199391E-03 -3.34934137E-11 -9.28628857E-14  1.81943773E-04  1.42646136E-08
  8.06861084E-02  9.77434163E-02  6.21286197E-03  6.64383204E-03  1.16422733E-02
 -2.28973748E-11  8.06858838E-02  9.77431885E-02  6.21287698E-03  6.64336240E-03
 -1.16425182E-02 -2.36488575E-11  8.06861084E-02  9.77434163E-02  6.21286197E-03
 -6.64383204E-03 -1.16422733E-02  2.36954061E-11  8.06858838E-02  9.77431885E-02
  6.21287698E-03 -6.64336240E-03  1.16425182E-02  2.29501773E-11 -7.38610336E-02
 -1.18854534E-01 -4.87083710E-02  8.09716177E-07  1.69322369E-10  3.23997402E-01
 -7.35212546E-02  1.28178511E-06  2.55546454E-10  2.25197127E-01 -3.32425022E-02
  4.20107710E-07  1.09642604E-10 -5.22548195E-03 -9.09257383E-03 -4.11537063E-08
  3.25634295E-13 -5.27665902E-03 -3.47196301E-11  1.03454083E-13  1.82677268E-05
  2.22542850E-08  7.38610336E-02  1.18854534E-01 -4.87083710E-02  8.09716169E-07
  1.69704806E-10 -3.23997402E-01 -7.35212546E-02  1.28178511E-06  2.56128868E-10
 -2.25197127E-01 -3.32425022E-02  4.20107692E-07  1.09902878E-10  5.22548195E-03
 -9.09257383E-03 -4.11537328E-08  3.65525776E-13  5.27665902E-03  3.47911335E-11
  1.02684445E-13 -1.82677268E-05 -2.22542813E-08  8.09671142E-02  9.71388556E-02
  7.27811666E-03  6.68397998E-03  1.14800771E-02 -2.26072499E-11  8.09668812E-02
  9.71386328E-02  7.27852746E-03  6.68352668E-03 -1.14803229E-02 -2.33464920E-11
 -8.09671142E-02 -9.71388556E-02 -7.27811666E-03  6.68397998E-03  1.14800771E-02
 -2.33928747E-11 -8.09668812E-02 -9.71386328E-02 -7.27852746E-03  6.68352668E-03
 -1.14803229E-02 -2.26594282E-11 -3.84090517E-08 -6.47071973E-08  2.75085111E-06
  1.45529653E-01  5.34687661E-12  2.14261691E-07  4.05350607E-06  2.17343590E-01
  7.80576716E-12  1.59716120E-07  2.13424455E-06  1.17215190E-01  3.89455185E-12
  1.01803507E-07  1.09822050E-08 -1.64571760E-03 -6.25057675E-14  1.39064461E-08
 -1.09102271E-12  1.14824069E-10 -1.25041756E-06 -3.27216119E-02  3.84090513E-08
  6.47071953E-08  2.75085109E-06  1.45529653E-01 -5.30479517E-12 -2.14261681E-07
  4.05350603E-06  2.17343590E-01 -7.74494001E-12 -1.59716178E-07  2.13424451E-06
  1.17215190E-01 -3.86520327E-12 -1.01803552E-07  1.09821873E-08 -1.64571760E-03
  6.39261104E-14 -1.39064426E-08 -1.08663830E-12 -1.15087256E-10  1.25041755E-06
  3.27216119E-02 -1.03626930E-01 -1.60150490E-01 -8.56706167E-02 -8.16065252E-03
 -3.01133204E-03  2.89755350E-11  1.03627067E-01  1.60150816E-01  8.56706358E-02
  8.16053379E-03 -3.01170079E-03 -2.90936266E-11  1.03626930E-01  1.60150490E-01
  8.56706167E-02 -8.16065252E-03 -3.01133204E-03  2.91555704E-11 -1.03627067E-01
 -1.60150816E-01 -8.56706358E-02  8.16053378E-03 -3.01170079E-03 -2.90394093E-11
 -5.58352866E-08 -9.36947869E-08  2.87408748E-06  1.45749326E-01  5.36741759E-12
  2.69277994E-07  4.30158389E-06  2.17177445E-01  7.83168406E-12  6.02493453E-07
  2.07795091E-06  1.17149325E-01  3.92742317E-12  1.25245337E-07 -4.53262560E-08
  4.70901435E-04  2.02070178E-14  7.32430227E-09 -1.08091270E-12  1.14344026E-10
 -1.24826481E-06 -3.27898062E-02 -5.58352862E-08 -9.36947845E-08 -2.87408745E-06
 -1.45749326E-01  5.32620543E-12  2.69277983E-07 -4.30158386E-06 -2.17177445E-01
  7.77102394E-12  6.02493510E-07 -2.07795086E-06 -1.17149325E-01  3.89877017E-12
  1.25245389E-07  4.53262701E-08 -4.70901435E-04  2.03615874E-14  7.32429922E-09
  1.07705015E-12  1.14606337E-10 -1.24826480E-06 -3.27898062E-02 -1.03692315E-01
 -1.61575826E-01 -8.29542795E-02 -8.23741836E-03 -3.04671615E-03  2.92268192E-11
  1.03692368E-01  1.61575830E-01  8.29539543E-02  8.23730569E-03 -3.04704764E-03
 -2.93470466E-11 -1.03692315E-01 -1.61575826E-01 -8.29542795E-02  8.23741836E-03
  3.04671615E-03 -2.94100844E-11  1.03692368E-01  1.61575830E-01  8.29539543E-02
 -8.23730569E-03  3.04704764E-03  2.92905370E-11 -3.80814558E-02 -6.32702825E-02
  1.57822853E-01 -3.13795644E-06 -5.48897347E-10  1.83998379E-01  2.30358147E-01
 -4.49755287E-06 -7.90824441E-10  2.93436801E-01  1.93167084E-01 -4.30311761E-06
 -6.88532835E-10  3.53334158E-02  3.57618618E-02 -1.55891580E-06 -1.78993252E-10
  1.69414459E-02  1.62457659E-10 -6.08269644E-13 -1.64419398E-02  6.59416925E-07
 -3.80814558E-02 -6.32702825E-02 -1.57822853E-01  3.13795641E-06  5.50130861E-10
  1.83998379E-01 -2.30358147E-01  4.49755282E-06  7.92596989E-10  2.93436801E-01
 -1.93167084E-01  4.30311760E-06  6.90091935E-10  3.53334158E-02 -3.57618618E-02
  1.55891581E-06  1.79188048E-10  1.69414459E-02  1.62838894E-10  5.96447231E-13
 -1.64419398E-02  6.59416920E-07 -4.83048543E-02 -9.34017721E-02 -6.38871660E-02
  7.21787680E-03 -1.02212017E-02 -2.40497853E-11 -4.83049808E-02 -9.34021362E-02
 -6.38854748E-02  7.21827857E-03  1.02209290E-02 -2.32640145E-11 -4.83048543E-02
 -9.34017721E-02 -6.38871660E-02 -7.21787680E-03  1.02212017E-02  2.33243318E-11
 -4.83049808E-02 -9.34021362E-02 -6.38854748E-02 -7.21827857E-03 -1.02209290E-02
  2.41035841E-11 -4.20014163E-02 -6.99588663E-02  1.64583529E-01 -3.02249165E-06
 -6.22634961E-10  2.08811731E-01  2.38290020E-01 -4.53267746E-06 -9.01441736E-10
  2.92887625E-01  2.07695177E-01 -3.99384360E-06 -8.62428236E-10  1.11453962E-01
  8.94363353E-02 -3.27834965E-07 -1.47580290E-10  2.00363403E-02  1.80136336E-10
 -7.29383437E-13 -1.89390283E-02  6.41848743E-07  4.20014163E-02  6.99588663E-02
  1.64583529E-01 -3.02249163E-06 -6.24015390E-10 -2.08811731E-01  2.38290020E-01
 -4.53267741E-06 -9.03466973E-10 -2.92887625E-01  2.07695177E-01 -3.99384360E-06
 -8.64213502E-10 -1.11453962E-01  8.94363353E-02 -3.27835024E-07 -1.48098452E-10
 -2.00363403E-02 -1.80562964E-10 -7.16108283E-13  1.89390283E-02 -6.41848740E-07
 -4.97138178E-02 -8.97670030E-02 -7.26191916E-02  8.42508014E-03 -9.45110700E-03
 -3.14610836E-11 -4.97136130E-02 -8.97659513E-02 -7.26209837E-02  8.42547654E-03
  9.45076541E-03 -3.07313727E-11  4.97138178E-02  8.97670030E-02  7.26191916E-02
  8.42508014E-03 -9.45110700E-03 -3.08098992E-11  4.97136130E-02  8.97659513E-02
  7.26209837E-02  8.42547654E-03  9.45076541E-03 -3.15337088E-11 -3.61689697E-11
 -6.23166617E-11  6.35079624E-10 -5.93091171E-12  1.58303417E-01  2.38220072E-10
  1.00703738E-09 -1.01254635E-11  2.50362094E-01 -3.49006699E-11  1.11765086E-09
 -1.57502239E-11  2.94314568E-01  5.99379796E-10  1.40654367E-09 -1.37075038E-11
  1.75312399E-01  1.29309452E-10 -1.69455162E-02  3.13169430E-07 -7.82369171E-11
  1.54263079E-12  3.61349960E-11  6.22598698E-11  6.36233391E-10  5.86136107E-12
  1.58303417E-01 -2.38044181E-10  1.00893971E-09  1.00034046E-11  2.50362094E-01
  3.51286971E-11  1.11961349E-09  1.55725261E-11  2.94314568E-01 -5.99542515E-10
  1.40784119E-09  1.36319416E-11  1.75312399E-01 -1.29541251E-10  1.69455162E-02
 -3.13169428E-07  7.83533431E-11  1.52220808E-12 -2.44632351E-11 -1.99654599E-11
  5.11922778E-12  7.06720639E-11  3.23541104E-12  1.59696178E-02 -2.39514747E-11
 -1.82921699E-11  2.38496472E-11  7.16852110E-11 -5.35646702E-12  1.59696095E-02
  2.39542503E-11  1.83389063E-11 -2.37054790E-11  7.18007033E-11  5.34357764E-12
  1.59696178E-02  2.44598966E-11  1.99567589E-11 -5.03313050E-12  7.07989384E-11
 -3.24753319E-12  1.59696095E-02  8.84542773E-12  1.45674050E-11  5.40237395E-10
 -5.96917427E-12  1.63159508E-01 -4.01054669E-11  8.85618571E-10 -1.06952540E-11
  2.59845764E-01 -6.18575518E-11  9.59034779E-10 -1.58748207E-11  2.95978902E-01
 -2.09718355E-10  6.10343764E-10 -8.06150617E-12  2.20222600E-01  1.01394683E-10
 -1.89442906E-02  3.21825651E-07 -5.61435900E-11  1.65928637E-12  8.78213035E-12
  1.44592329E-11 -5.41639241E-10 -5.90163977E-12 -1.63159508E-01 -3.97125267E-11
 -8.87846179E-10 -1.05788890E-11 -2.59845764E-01 -6.17942033E-11 -9.61441939E-10