 Entering Gaussian System, Link 0=g16
 Initial command:
 /home/szhao/Apps/g16/l1.exe "/home/szhao/tmp/Gau-73146.inp" -scrdir="/home/szhao/tmp/"
 Default is to use a total of  16 processors:
                               16 via shared-memory
                                1 via Linda
 Entering Link 1 = /home/szhao/Apps/g16/l1.exe PID=     73148.
  
 Copyright (c) 1988,1990,1992,1993,1995,1998,2003,2009,2016,
            Gaussian, Inc.  All Rights Reserved.
  
 This is part of the Gaussian(R) 16 program.  It is based on
 the Gaussian(R) 09 system (copyright 2009, Gaussian, Inc.),
 the Gaussian(R) 03 system (copyright 2003, Gaussian, Inc.),
 the Gaussian(R) 98 system (copyright 1998, Gaussian, Inc.),
 the Gaussian(R) 94 system (copyright 1995, Gaussian, Inc.),
 the Gaussian 92(TM) system (copyright 1992, Gaussian, Inc.),
 the Gaussian 90(TM) system (copyright 1990, Gaussian, Inc.),
 the Gaussian 88(TM) system (copyright 1988, Gaussian, Inc.),
 the Gaussian 86(TM) system (copyright 1986, Carnegie Mellon
 University), and the Gaussian 82(TM) system (copyright 1983,
 Carnegie Mellon University). Gaussian is a federally registered
 trademark of Gaussian, Inc.
  
 This software contains proprietary and confidential information,
 including trade secrets, belonging to Gaussian, Inc.
  
 This software is provided under written license and may be
 used, copied, transmitted, or stored only in accord with that
 written license.
  
 The following legend is applicable only to US Government
 contracts under FAR:
  
                    RESTRICTED RIGHTS LEGEND
  
 Use, reproduction and disclosure by the US Government is
 subject to restrictions as set forth in subparagraphs (a)
 and (c) of the Commercial Computer Software - Restricted
 Rights clause in FAR 52.227-19.
  
 Gaussian, Inc.
 340 Quinnipiac St., Bldg. 40, Wallingford CT 06492
  
  
 ---------------------------------------------------------------
 Warning -- This program may not be used in any manner that
 competes with the business of Gaussian, Inc. or will provide
 assistance to any competitor of Gaussian, Inc.  The licensee
 of this program is prohibited from giving any competitor of
 Gaussian, Inc. access to this program.  By using this program,
 the user acknowledges that Gaussian, Inc. is engaged in the
 business of creating and licensing software in the field of
 computational chemistry and represents and warrants to the
 licensee that it is not a competitor of Gaussian, Inc. and that
 it will not use this program in any manner prohibited above.
 ---------------------------------------------------------------
  

 Cite this work as:
 Gaussian 16, Revision A.03,
 M. J. Frisch, G. W. Trucks, H. B. Schlegel, G. E. Scuseria, 
 M. A. Robb, J. R. Cheeseman, G. Scalmani, V. Barone, 
 G. A. Petersson, H. Nakatsuji, X. Li, M. Caricato, A. V. Marenich, 
 J. Bloino, B. G. Janesko, R. Gomperts, B. Mennucci, H. P. Hratchian, 
 J. V. Ortiz, A. F. Izmaylov, J. L. Sonnenberg, D. Williams-Young, 
 F. Ding, F. Lipparini, F. Egidi, J. Goings, B. Peng, A. Petrone, 
 T. Henderson, D. Ranasinghe, V. G. Zakrzewski, J. Gao, N. Rega, 
 G. Zheng, W. Liang, M. Hada, M. Ehara, K. Toyota, R. Fukuda, 
 J. Hasegawa, M. Ishida, T. Nakajima, Y. Honda, O. Kitao, H. Nakai, 
 T. Vreven, K. Throssell, J. A. Montgomery, Jr., J. E. Peralta, 
 F. Ogliaro, M. J. Bearpark, J. J. Heyd, E. N. Brothers, K. N. Kudin, 
 V. N. Staroverov, T. A. Keith, R. Kobayashi, J. Normand, 
 K. Raghavachari, A. P. Rendell, J. C. Burant, S. S. Iyengar, 
 J. Tomasi, M. Cossi, J. M. Millam, M. Klene, C. Adamo, R. Cammi, 
 J. W. Ochterski, R. L. Martin, K. Morokuma, O. Farkas, 
 J. B. Foresman, and D. J. Fox, Gaussian, Inc., Wallingford CT, 2016.
 
 ******************************************
 Gaussian 16:  ES64L-G16RevA.03 25-Dec-2016
                19-Nov-2024 
 ******************************************
 %chk=opt.chk
 %mem=8GB
 %nprocshared=24
 Will use up to   24 processors via shared memory.
 --------------------------------------------
 #p opt UM062X/6-311+G** nosymm int=superfine
 --------------------------------------------
 1/18=20,19=15,26=5,38=1/1,3;
 2/9=110,12=2,15=1,17=6,18=5,40=1/2;
 3/5=4,6=6,7=111,11=2,25=1,30=1,71=1,74=-55,75=-7,116=2/1,2,3;
 4//1;
 5/5=2,38=5/2;
 6/7=2,8=2,9=2,10=2,28=1/1;
 7/30=1/1,2,3,16;
 1/18=20,19=15,26=5/3(2);
 2/9=110,15=1/2;
 99//99;
 2/9=110,15=1/2;
 3/5=4,6=6,7=111,11=2,25=1,30=1,71=1,74=-55,75=-7,116=2/1,2,3;
 4/5=5,16=3,69=1/1;
 5/5=2,38=5/2;
 7/30=1/1,2,3,16;
 1/18=20,19=15,26=5/3(-5);
 2/9=110,15=1/2;
 6/7=2,8=2,9=2,10=2,19=2,28=1/1;
 99/9=1/99;
 Leave Link    1 at Tue Nov 19 11:54:14 2024, MaxMem=  1073741824 cpu:               1.3 elap:               0.1
 (Enter /home/szhao/Apps/g16/l101.exe)
 -------------------
 Title Card Required
 -------------------
 Symbolic Z-matrix:
 Charge =  0 Multiplicity = 1
 C                    -1   -0.78645   0.        0. 
 C                    -1    0.78653   0.        0. 
 H                    0     1.19369  -0.88075   0.50965 
 H                    0    -1.1934   -0.88202  -0.50795 
 H                    0     1.19348   0.88201   0.50792 
 H                    0     1.19349  -0.00087  -1.01782 
 H                    0    -1.19361   0.88074  -0.50968 
 H                    0    -1.19341   0.00086   1.01779 
 
 ITRead=  2  2  0  0  0  0  0  0
 MicOpt= -2 -2 -1 -1 -1 -1 -1 -1
 NAtoms=      8 NQM=        6 NQMF=       2 NMMI=      0 NMMIF=      0
                NMic=       0 NMicF=      0.
                    Isotopes and Nuclear Properties:
 (Nuclear quadrupole moments (NQMom) in fm**2, nuclear magnetic moments (NMagM)
  in nuclear magnetons)

  Atom         1           2           3           4           5           6           7           8
 IAtWgt=          12          12           1           1           1           1           1           1
 AtmWgt=  12.0000000  12.0000000   1.0078250   1.0078250   1.0078250   1.0078250   1.0078250   1.0078250
 NucSpn=           0           0           1           1           1           1           1           1
 AtZEff=  -0.0000000  -0.0000000  -0.0000000  -0.0000000  -0.0000000  -0.0000000  -0.0000000  -0.0000000
 NQMom=    0.0000000   0.0000000   0.0000000   0.0000000   0.0000000   0.0000000   0.0000000   0.0000000
 NMagM=    0.0000000   0.0000000   2.7928460   2.7928460   2.7928460   2.7928460   2.7928460   2.7928460
 AtZNuc=   6.0000000   6.0000000   1.0000000   1.0000000   1.0000000   1.0000000   1.0000000   1.0000000
 Leave Link  101 at Tue Nov 19 11:54:14 2024, MaxMem=  1073741824 cpu:              11.5 elap:               0.5
 (Enter /home/szhao/Apps/g16/l103.exe)

 GradGradGradGradGradGradGradGradGradGradGradGradGradGradGradGradGradGrad
 Berny optimization.
 Initialization pass.
                           ----------------------------
                           !    Initial Parameters    !
                           ! (Angstroms and Degrees)  !
 --------------------------                            --------------------------
 ! Name  Definition              Value          Derivative Info.                !
 --------------------------------------------------------------------------------
 ! X1    R(1,-1)                -0.7865         Frozen                          !
 ! Y1    R(1,-2)                 0.0            Frozen                          !
 ! Z1    R(1,-3)                 0.0            Frozen                          !
 ! X2    R(2,-1)                 0.7865         Frozen                          !
 ! Y2    R(2,-2)                 0.0            Frozen                          !
 ! Z2    R(2,-3)                 0.0            Frozen                          !
 ! R1    R(1,4)                  1.0962         estimate D2E/DX2                !
 ! R2    R(1,7)                  1.096          estimate D2E/DX2                !
 ! R3    R(1,8)                  1.0961         estimate D2E/DX2                !
 ! R4    R(2,3)                  1.096          estimate D2E/DX2                !
 ! R5    R(2,5)                  1.0961         estimate D2E/DX2                !
 ! R6    R(2,6)                  1.0962         estimate D2E/DX2                !
 ! A1    A(2,1,4)              111.7924         estimate D2E/DX2                !
 ! A2    A(2,1,7)              111.8072         estimate D2E/DX2                !
 ! A3    A(2,1,8)              111.7935         estimate D2E/DX2                !
 ! A4    A(4,1,7)              107.0494         estimate D2E/DX2                !
 ! A5    A(4,1,8)              107.0419         estimate D2E/DX2                !
 ! A6    A(7,1,8)              107.0523         estimate D2E/DX2                !
 ! A7    A(1,2,3)              111.8073         estimate D2E/DX2                !
 ! A8    A(1,2,5)              111.7928         estimate D2E/DX2                !
 ! A9    A(1,2,6)              111.7929         estimate D2E/DX2                !
 ! A10   A(3,2,5)              107.0517         estimate D2E/DX2                !
 ! A11   A(3,2,6)              107.0505         estimate D2E/DX2                !
 ! A12   A(5,2,6)              107.0415         estimate D2E/DX2                !
 ! D1    D(4,1,2,3)            -59.9932         estimate D2E/DX2                !
 ! D2    D(4,1,2,5)            179.9987         estimate D2E/DX2                !
 ! D3    D(4,1,2,6)             60.0135         estimate D2E/DX2                !
 ! D4    D(7,1,2,3)           -179.9981         estimate D2E/DX2                !
 ! D5    D(7,1,2,5)             59.9938         estimate D2E/DX2                !
 ! D6    D(7,1,2,6)            -59.9914         estimate D2E/DX2                !
 ! D7    D(8,1,2,3)             59.9926         estimate D2E/DX2                !
 ! D8    D(8,1,2,5)            -60.0156         estimate D2E/DX2                !
 ! D9    D(8,1,2,6)            179.9993         estimate D2E/DX2                !
 --------------------------------------------------------------------------------
 Trust Radius=3.00D-01 FncErr=1.00D-07 GrdErr=1.00D-07 EigMax=2.50D+02 EigMin=1.00D-04
 Number of steps in this run=     43 maximum allowed number of steps=    100.
 GradGradGradGradGradGradGradGradGradGradGradGradGradGradGradGradGradGrad

 Leave Link  103 at Tue Nov 19 11:54:14 2024, MaxMem=  1073741824 cpu:               0.4 elap:               0.0
 (Enter /home/szhao/Apps/g16/l202.exe)
                          Input orientation:                          
 ---------------------------------------------------------------------
 Center     Atomic      Atomic             Coordinates (Angstroms)
 Number     Number       Type             X           Y           Z
 ---------------------------------------------------------------------
      1          6           0       -0.786453    0.000000    0.000000
      2          6           0        0.786534    0.000000    0.000000
      3          1           0        1.193687   -0.880754    0.509649
      4          1           0       -1.193399   -0.882021   -0.507950
      5          1           0        1.193477    0.882009    0.507916
      6          1           0        1.193487   -0.000873   -1.017819
      7          1           0       -1.193607    0.880742   -0.509681
      8          1           0       -1.193406    0.000860    1.017787
 ---------------------------------------------------------------------
                    Distance matrix (angstroms):
                    1          2          3          4          5
     1  C    0.000000
     2  C    1.572987   0.000000
     3  H    2.226303   1.096012   0.000000
     4  H    1.096166   2.226232   2.594935   0.000000
     5  H    2.226218   1.096139   1.762764   3.137031   0.000000
     6  H    2.226234   1.096160   1.762767   2.594921   1.762767
     7  H    1.096018   2.226306   3.137049   1.762764   2.594933
     8  H    1.096130   2.226220   2.594930   1.762768   2.594919
                    6          7          8
     6  H    0.000000
     7  H    2.594931   0.000000
     8  H    3.137029   1.762768   0.000000
 Symmetry turned off by external request.
 This structure is nearly, but not quite of a higher symmetry.
 Consider Symm=Loose if the higher symmetry is desired.
 Stoichiometry    C2H6
 Framework group  C1[X(C2H6)]
 Deg. of freedom    18
 Full point group                 C1      NOp   1
 Rotational constants (GHZ):          80.6886616          19.0055929          19.0055799
 Leave Link  202 at Tue Nov 19 11:54:14 2024, MaxMem=  1073741824 cpu:               0.1 elap:               0.0
 (Enter /home/szhao/Apps/g16/l301.exe)
 Standard basis: 6-311+G(d,p) (5D, 7F)
 Ernie: Thresh=  0.10000D-02 Tol=  0.10000D-05 Strict=F.
    80 basis functions,   120 primitive gaussians,    82 cartesian basis functions
     9 alpha electrons        9 beta electrons
       nuclear repulsion energy        41.5789963970 Hartrees.
 IExCor= 4336 DFT=T Ex+Corr=M062X ExCW=0 ScaHFX=  0.540000
 ScaDFX=  1.000000  1.000000  1.000000  1.000000 ScalE2=  1.000000  1.000000
 IRadAn=      7 IRanWt=     -1 IRanGd=            0 ICorTp=0 IEmpDi=  4
 NAtoms=    8 NActive=    8 NUniq=    8 SFac= 1.00D+00 NAtFMM=   60 NAOKFM=F Big=F
 Integral buffers will be    131072 words long.
 Raffenetti 2 integral format.
 Two-electron integral symmetry is turned off.
 Leave Link  301 at Tue Nov 19 11:54:15 2024, MaxMem=  1073741824 cpu:               1.2 elap:               0.1
 (Enter /home/szhao/Apps/g16/l302.exe)
 NPDir=0 NMtPBC=     1 NCelOv=     1 NCel=       1 NClECP=     1 NCelD=      1
         NCelK=      1 NCelE2=     1 NClLst=     1 CellRange=     0.0.
 One-electron integrals computed using PRISM.
 NBasis=    80 RedAO= T EigKep=  2.14D-04  NBF=    80
 NBsUse=    80 1.00D-06 EigRej= -1.00D+00 NBFU=    80
 Precomputing XC quadrature grid using
 IXCGrd= 4 IRadAn=           7 IRanWt=          -1 IRanGd=           0 AccXCQ= 0.00D+00.
 Generated NRdTot=       0 NPtTot=           0 NUsed=           0 NTot=          32
 NSgBfM=    82    82    82    82    82 MxSgAt=     8 MxSgA2=     8.
 Leave Link  302 at Tue Nov 19 11:54:15 2024, MaxMem=  1073741824 cpu:               4.8 elap:               0.2
 (Enter /home/szhao/Apps/g16/l303.exe)
 DipDrv:  MaxL=1.
 Leave Link  303 at Tue Nov 19 11:54:15 2024, MaxMem=  1073741824 cpu:               1.0 elap:               0.1
 (Enter /home/szhao/Apps/g16/l401.exe)
 ExpMin= 4.38D-02 ExpMax= 4.56D+03 ExpMxC= 6.82D+02 IAcc=3 IRadAn=         7 AccDes= 0.00D+00
 Harris functional with IExCor= 1009 and IRadAn=       7 diagonalized for initial guess.
 HarFok:  IExCor= 1009 AccDes= 0.00D+00 IRadAn=         7 IDoV= 1 UseB2=F ITyADJ=14
 ICtDFT=  3500011 ScaDFX=  1.000000  1.000000  1.000000  1.000000
 FoFCou: FMM=F IPFlag=           0 FMFlag=      100000 FMFlg1=           0
         NFxFlg=           0 DoJE=T BraDBF=F KetDBF=T FulRan=T
         wScrn=  0.000000 ICntrl=       500 IOpCl=  0 I1Cent=   200000004 NGrid=           0
         NMat0=    1 NMatS0=      1 NMatT0=    0 NMatD0=    1 NMtDS0=    0 NMtDT0=    0
 Symmetry not used in FoFCou.
 Harris En= -79.8231462624914    
 JPrj=0 DoOrth=F DoCkMO=F.
 Initial guess <Sx>= 0.0000 <Sy>= 0.0000 <Sz>= 0.0000 <S**2>=-0.0000 S=-0.0000
 Leave Link  401 at Tue Nov 19 11:54:15 2024, MaxMem=  1073741824 cpu:               6.8 elap:               0.3
 (Enter /home/szhao/Apps/g16/l502.exe)
 Keep R1 and R2 ints in memory in canonical form, NReq=32326806.
 FoFCou: FMM=F IPFlag=           0 FMFlag=           0 FMFlg1=           0
         NFxFlg=           0 DoJE=F BraDBF=F KetDBF=F FulRan=T
         wScrn=  0.000000 ICntrl=       600 IOpCl=  0 I1Cent=           0 NGrid=           0
         NMat0=    1 NMatS0=   3240 NMatT0=    0 NMatD0=    1 NMtDS0=    0 NMtDT0=    0
 Symmetry not used in FoFCou.
 Two-electron integral symmetry not used.
 UHF open shell SCF:
 Using DIIS extrapolation, IDIIS=  1040.
 NGot=  1073741824 LenX=  1063224738 LenY=  1063217573
 Requested convergence on RMS density matrix=1.00D-08 within 128 cycles.
 Requested convergence on MAX density matrix=1.00D-06.
 Requested convergence on             energy=1.00D-06.
 No special actions if energy rises.

 Cycle   1  Pass 1  IDiag  1:
 E= -79.6720883297661    
 DIIS: error= 5.38D-02 at cycle   1 NSaved=   1.
 NSaved= 1 IEnMin= 1 EnMin= -79.6720883297661     IErMin= 1 ErrMin= 5.38D-02
 ErrMax= 5.38D-02  0.00D+00 EMaxC= 1.00D-01 BMatC= 5.08D-01 BMatP= 5.08D-01
 IDIUse=3 WtCom= 4.62D-01 WtEn= 5.38D-01
 Coeff-Com:  0.100D+01
 Coeff-En:   0.100D+01
 Coeff:      0.100D+01
 Gap=     0.364 Goal=   None    Shift=    0.000
 Gap=     0.364 Goal=   None    Shift=    0.000
 GapD=    0.364 DampG=1.000 DampE=0.500 DampFc=0.5000 IDamp=-1.
 Damping current iteration by 5.00D-01
 RMSDP=4.98D-03 MaxDP=1.05D-01              OVMax= 1.57D-01

 Cycle   2  Pass 1  IDiag  1:
 E= -79.7357686473725     Delta-E=       -0.063680317606 Rises=F Damp=T
 DIIS: error= 1.13D-02 at cycle   2 NSaved=   2.
 NSaved= 2 IEnMin= 2 EnMin= -79.7357686473725     IErMin= 2 ErrMin= 1.13D-02
 ErrMax= 1.13D-02  0.00D+00 EMaxC= 1.00D-01 BMatC= 1.91D-02 BMatP= 5.08D-01
 IDIUse=3 WtCom= 8.87D-01 WtEn= 1.13D-01
 Coeff-Com: -0.802D-01 0.108D+01
 Coeff-En:   0.000D+00 0.100D+01
 Coeff:     -0.712D-01 0.107D+01
 Gap=     0.448 Goal=   None    Shift=    0.000
 Gap=     0.448 Goal=   None    Shift=    0.000
 RMSDP=1.12D-03 MaxDP=1.48D-02 DE=-6.37D-02 OVMax= 8.22D-02

 Cycle   3  Pass 1  IDiag  1:
 E= -79.7954482666630     Delta-E=       -0.059679619291 Rises=F Damp=F
 DIIS: error= 2.80D-03 at cycle   3 NSaved=   3.
 NSaved= 3 IEnMin= 3 EnMin= -79.7954482666630     IErMin= 3 ErrMin= 2.80D-03
 ErrMax= 2.80D-03  0.00D+00 EMaxC= 1.00D-01 BMatC= 1.02D-03 BMatP= 1.91D-02
 IDIUse=3 WtCom= 9.72D-01 WtEn= 2.80D-02
 Coeff-Com: -0.324D-01 0.156D+00 0.876D+00
 Coeff-En:   0.000D+00 0.000D+00 0.100D+01
 Coeff:     -0.315D-01 0.152D+00 0.880D+00
 Gap=     0.427 Goal=   None    Shift=    0.000
 Gap=     0.427 Goal=   None    Shift=    0.000
 RMSDP=1.30D-04 MaxDP=1.22D-03 DE=-5.97D-02 OVMax= 4.87D-03

 Cycle   4  Pass 1  IDiag  1:
 E= -79.7956777410922     Delta-E=       -0.000229474429 Rises=F Damp=F
 DIIS: error= 7.10D-04 at cycle   4 NSaved=   4.
 NSaved= 4 IEnMin= 4 EnMin= -79.7956777410922     IErMin= 4 ErrMin= 7.10D-04
 ErrMax= 7.10D-04  0.00D+00 EMaxC= 1.00D-01 BMatC= 2.71D-05 BMatP= 1.02D-03
 IDIUse=3 WtCom= 9.93D-01 WtEn= 7.10D-03
 Coeff-Com: -0.125D-02 0.686D-03 0.139D+00 0.861D+00
 Coeff-En:   0.000D+00 0.000D+00 0.000D+00 0.100D+01
 Coeff:     -0.124D-02 0.681D-03 0.138D+00 0.862D+00
 Gap=     0.427 Goal=   None    Shift=    0.000
 Gap=     0.427 Goal=   None    Shift=    0.000
 RMSDP=2.50D-05 MaxDP=3.32D-04 DE=-2.29D-04 OVMax= 1.22D-03

 Cycle   5  Pass 1  IDiag  1:
 E= -79.7956846486484     Delta-E=       -0.000006907556 Rises=F Damp=F
 DIIS: error= 4.13D-05 at cycle   5 NSaved=   5.
 NSaved= 5 IEnMin= 5 EnMin= -79.7956846486484     IErMin= 5 ErrMin= 4.13D-05
 ErrMax= 4.13D-05  0.00D+00 EMaxC= 1.00D-01 BMatC= 2.90D-07 BMatP= 2.71D-05
 IDIUse=1 WtCom= 1.00D+00 WtEn= 0.00D+00
 Coeff-Com:  0.108D-02-0.272D-02-0.304D-01-0.840D-01 0.112D+01
 Coeff:      0.108D-02-0.272D-02-0.304D-01-0.840D-01 0.112D+01
 Gap=     0.427 Goal=   None    Shift=    0.000
 Gap=     0.427 Goal=   None    Shift=    0.000
 RMSDP=5.05D-06 MaxDP=5.69D-05 DE=-6.91D-06 OVMax= 2.29D-04

 Cycle   6  Pass 1  IDiag  1:
 E= -79.7956847698768     Delta-E=       -0.000000121228 Rises=F Damp=F
 DIIS: error= 4.35D-06 at cycle   6 NSaved=   6.
 NSaved= 6 IEnMin= 6 EnMin= -79.7956847698768     IErMin= 6 ErrMin= 4.35D-06
 ErrMax= 4.35D-06  0.00D+00 EMaxC= 1.00D-01 BMatC= 2.84D-09 BMatP= 2.90D-07
 IDIUse=1 WtCom= 1.00D+00 WtEn= 0.00D+00
 Coeff-Com: -0.140D-03 0.268D-03 0.110D-02 0.207D-03-0.112D+00 0.111D+01
 Coeff:     -0.140D-03 0.268D-03 0.110D-02 0.207D-03-0.112D+00 0.111D+01
 Gap=     0.427 Goal=   None    Shift=    0.000
 Gap=     0.427 Goal=   None    Shift=    0.000
 RMSDP=6.57D-07 MaxDP=6.19D-06 DE=-1.21D-07 OVMax= 2.48D-05

 Cycle   7  Pass 1  IDiag  1:
 E= -79.7956847713623     Delta-E=       -0.000000001486 Rises=F Damp=F
 DIIS: error= 2.51D-07 at cycle   7 NSaved=   7.
 NSaved= 7 IEnMin= 7 EnMin= -79.7956847713623     IErMin= 7 ErrMin= 2.51D-07
 ErrMax= 2.51D-07  0.00D+00 EMaxC= 1.00D-01 BMatC= 1.05D-11 BMatP= 2.84D-09
 IDIUse=1 WtCom= 1.00D+00 WtEn= 0.00D+00
 Coeff-Com:  0.160D-04-0.233D-04-0.686D-04 0.173D-04 0.105D-01-0.155D+00
 Coeff-Com:  0.114D+01
 Coeff:      0.160D-04-0.233D-04-0.686D-04 0.173D-04 0.105D-01-0.155D+00
 Coeff:      0.114D+01
 Gap=     0.427 Goal=   None    Shift=    0.000
 Gap=     0.427 Goal=   None    Shift=    0.000
 RMSDP=5.85D-08 MaxDP=5.94D-07 DE=-1.49D-09 OVMax= 2.28D-06

 Cycle   8  Pass 1  IDiag  1:
 E= -79.7956847713697     Delta-E=       -0.000000000007 Rises=F Damp=F
 DIIS: error= 3.05D-08 at cycle   8 NSaved=   8.
 NSaved= 8 IEnMin= 8 EnMin= -79.7956847713697     IErMin= 8 ErrMin= 3.05D-08
 ErrMax= 3.05D-08  0.00D+00 EMaxC= 1.00D-01 BMatC= 1.87D-13 BMatP= 1.05D-11
 IDIUse=1 WtCom= 1.00D+00 WtEn= 0.00D+00
 Coeff-Com:  0.155D-05-0.289D-05-0.578D-05 0.208D-04 0.668D-03-0.870D-02
 Coeff-Com:  0.252D-01 0.983D+00
 Coeff:      0.155D-05-0.289D-05-0.578D-05 0.208D-04 0.668D-03-0.870D-02
 Coeff:      0.252D-01 0.983D+00
 Gap=     0.427 Goal=   None    Shift=    0.000
 Gap=     0.427 Goal=   None    Shift=    0.000
 RMSDP=3.66D-09 MaxDP=8.26D-08 DE=-7.42D-12 OVMax= 1.45D-07

 SCF Done:  E(UM062X) =  -79.7956847714     A.U. after    8 cycles
            NFock=  8  Conv=0.37D-08     -V/T= 2.0064
 <Sx>= 0.0000 <Sy>= 0.0000 <Sz>= 0.0000 <S**2>=-0.0000 S=-0.0000
 <L.S>=  0.00000000000    
 KE= 7.928940290763D+01 PE=-2.672499485024D+02 EE= 6.658586442649D+01
 Annihilation of the first spin contaminant:
 S**2 before annihilation    -0.0000,   after     0.0000
 Leave Link  502 at Tue Nov 19 11:54:20 2024, MaxMem=  1073741824 cpu:              95.4 elap:               4.1
 (Enter /home/szhao/Apps/g16/l601.exe)
 Copying SCF densities to generalized density rwf, IOpCl= 1 IROHF=0.

 **********************************************************************

            Population analysis using the SCF density.

 **********************************************************************

 Alpha  occ. eigenvalues --  -10.52696 -10.52665  -0.83824  -0.70401  -0.49577
 Alpha  occ. eigenvalues --   -0.49573  -0.42255  -0.40563  -0.40557
 Alpha virt. eigenvalues --    0.02183   0.03945   0.05597   0.05597   0.08739
 Alpha virt. eigenvalues --    0.08740   0.09003   0.13851   0.18807   0.18812
 Alpha virt. eigenvalues --    0.20783   0.20785   0.24188   0.25911   0.28501
 Alpha virt. eigenvalues --    0.42684   0.42686   0.48760   0.48763   0.48960
 Alpha virt. eigenvalues --    0.61898   0.64921   0.64929   0.67361   0.67365
 Alpha virt. eigenvalues --    0.69328   0.78111   0.88618   0.94191   1.01663
 Alpha virt. eigenvalues --    1.01667   1.29395   1.29403   1.51785   1.52277
 Alpha virt. eigenvalues --    1.57061   1.57066   1.57274   1.59190   1.59192
 Alpha virt. eigenvalues --    1.72287   1.72288   1.77603   1.85246   1.85256
 Alpha virt. eigenvalues --    2.09969   2.13896   2.15494   2.15499   2.33524
 Alpha virt. eigenvalues --    2.33532   2.39999   2.50590   2.50595   2.51078
 Alpha virt. eigenvalues --    2.60577   2.60582   2.62626   2.62630   2.68293
 Alpha virt. eigenvalues --    2.68329   2.81069   2.82983   3.14247   3.82045
 Alpha virt. eigenvalues --    3.82059   3.83812   3.83843   4.21613  23.95649
 Alpha virt. eigenvalues --   24.07067
  Beta  occ. eigenvalues --  -10.52696 -10.52665  -0.83824  -0.70401  -0.49577
  Beta  occ. eigenvalues --   -0.49573  -0.42255  -0.40563  -0.40557
  Beta virt. eigenvalues --    0.02183   0.03945   0.05597   0.05597   0.08739
  Beta virt. eigenvalues --    0.08740   0.09003   0.13851   0.18807   0.18812
  Beta virt. eigenvalues --    0.20783   0.20785   0.24188   0.25911   0.28501
  Beta virt. eigenvalues --    0.42684   0.42686   0.48760   0.48763   0.48960
  Beta virt. eigenvalues --    0.61898   0.64921   0.64929   0.67361   0.67365
  Beta virt. eigenvalues --    0.69328   0.78111   0.88618   0.94191   1.01663
  Beta virt. eigenvalues --    1.01667   1.29395   1.29403   1.51785   1.52277
  Beta virt. eigenvalues --    1.57061   1.57066   1.57274   1.59190   1.59192
  Beta virt. eigenvalues --    1.72287   1.72288   1.77603   1.85246   1.85256
  Beta virt. eigenvalues --    2.09969   2.13896   2.15494   2.15499   2.33524
  Beta virt. eigenvalues --    2.33532   2.39999   2.50590   2.50595   2.51078
  Beta virt. eigenvalues --    2.60577   2.60582   2.62626   2.62630   2.68293
  Beta virt. eigenvalues --    2.68329   2.81069   2.82983   3.14247   3.82045
  Beta virt. eigenvalues --    3.82059   3.83812   3.83843   4.21613  23.95649
  Beta virt. eigenvalues --   24.07067
          Condensed to atoms (all electrons):
               1          2          3          4          5          6
     1  C    5.136572   0.225119  -0.040650   0.411790  -0.040695  -0.040698
     2  C    0.225119   5.136572   0.411770  -0.040699   0.411786   0.411790
     3  H   -0.040650   0.411770   0.536697  -0.005534  -0.030910  -0.030911
     4  H    0.411790  -0.040699  -0.005534   0.536764   0.006731  -0.005537
     5  H   -0.040695   0.411786  -0.030910   0.006731   0.536758  -0.030925
     6  H   -0.040698   0.411790  -0.030911  -0.005537  -0.030925   0.536760
     7  H    0.411771  -0.040651   0.006726  -0.030913  -0.005534  -0.005534
     8  H    0.411785  -0.040692  -0.005533  -0.030924  -0.005537   0.006731
               7          8
     1  C    0.411771   0.411785
     2  C   -0.040651  -0.040692
     3  H    0.006726  -0.005533
     4  H   -0.030913  -0.030924
     5  H   -0.005534  -0.005537
     6  H   -0.005534   0.006731
     7  H    0.536699  -0.030909
     8  H   -0.030909   0.536753
          Atomic-Atomic Spin Densities.
               1          2          3          4          5          6
     1  C   -0.000000  -0.000000  -0.000000  -0.000000  -0.000000   0.000000
     2  C   -0.000000   0.000000   0.000000   0.000000  -0.000000  -0.000000
     3  H   -0.000000   0.000000  -0.000000   0.000000  -0.000000  -0.000000
     4  H   -0.000000   0.000000   0.000000   0.000000  -0.000000  -0.000000
     5  H   -0.000000  -0.000000  -0.000000  -0.000000  -0.000000   0.000000
     6  H    0.000000  -0.000000  -0.000000  -0.000000   0.000000  -0.000000
     7  H   -0.000000   0.000000   0.000000   0.000000  -0.000000  -0.000000
     8  H    0.000000  -0.000000   0.000000   0.000000   0.000000   0.000000
               7          8
     1  C   -0.000000   0.000000
     2  C    0.000000  -0.000000
     3  H    0.000000   0.000000
     4  H    0.000000   0.000000
     5  H   -0.000000   0.000000
     6  H   -0.000000   0.000000
     7  H   -0.000000  -0.000000
     8  H   -0.000000  -0.000000
 Mulliken charges and spin densities:
               1          2
     1  C   -0.474995  -0.000000
     2  C   -0.474994   0.000000
     3  H    0.158345  -0.000000
     4  H    0.158322   0.000000
     5  H    0.158325  -0.000000
     6  H    0.158324  -0.000000
     7  H    0.158344   0.000000
     8  H    0.158328   0.000000
 Sum of Mulliken charges =  -0.00000  -0.00000
 Mulliken charges and spin densities with hydrogens summed into heavy atoms:
               1          2
     1  C   -0.000000  -0.000000
     2  C    0.000000   0.000000
 Electronic spatial extent (au):  <R**2>=            113.0686
 Charge=              0.0000 electrons
 Dipole moment (field-independent basis, Debye):
    X=              0.0000    Y=              0.0000    Z=              0.0000  Tot=              0.0000
 Quadrupole moment (field-independent basis, Debye-Ang):
   XX=            -15.4035   YY=            -15.0606   ZZ=            -15.0610
   XY=             -0.0005   XZ=              0.0002   YZ=             -0.0004
 Traceless Quadrupole moment (field-independent basis, Debye-Ang):
   XX=             -0.2285   YY=              0.1144   ZZ=              0.1141
   XY=             -0.0005   XZ=              0.0002   YZ=             -0.0004
 Octapole moment (field-independent basis, Debye-Ang**2):
  XXX=             -0.0018  YYY=              0.0001  ZZZ=              0.0003  XYY=             -0.0005
  XXY=              0.0000  XXZ=              0.0001  XZZ=             -0.0007  YZZ=              0.0000
  YYZ=              0.0001  XYZ=              0.0000
 Hexadecapole moment (field-independent basis, Debye-Ang**3):
 XXXX=           -100.4536 YYYY=            -30.4788 ZZZZ=            -30.4801 XXXY=             -0.0045
 XXXZ=              0.0023 YYYX=              0.0024 YYYZ=             -0.0001 ZZZX=             -1.6365
 ZZZY=             -0.0011 XXYY=            -20.4347 XXZZ=            -20.4360 YYZZ=            -10.1601
 XXYZ=             -0.0013 YYXZ=              1.6381 ZZXY=             -0.0056
 N-N= 4.157899639695D+01 E-N=-2.672499499188D+02  KE= 7.928940290763D+01
                          Isotropic Fermi Contact Couplings
        Atom                 a.u.       MegaHertz       Gauss      10(-4) cm-1
     1  C(13)             -0.00000      -0.00000      -0.00000      -0.00000
     2  C(13)             -0.00000      -0.00000      -0.00000      -0.00000
     3  H(1)              -0.00000      -0.00000      -0.00000      -0.00000
     4  H(1)              -0.00000      -0.00000      -0.00000      -0.00000
     5  H(1)              -0.00000      -0.00000      -0.00000      -0.00000
     6  H(1)              -0.00000      -0.00000      -0.00000      -0.00000
     7  H(1)               0.00000       0.00000       0.00000       0.00000
     8  H(1)              -0.00000      -0.00000      -0.00000      -0.00000
 --------------------------------------------------------
       Center         ----  Spin Dipole Couplings  ----
                      3XX-RR        3YY-RR        3ZZ-RR
 --------------------------------------------------------
     1   Atom        0.000000      0.000000      0.000000
     2   Atom        0.000000      0.000000      0.000000
     3   Atom        0.000000      0.000000      0.000000
     4   Atom        0.000000      0.000000      0.000000
     5   Atom        0.000000      0.000000      0.000000
     6   Atom        0.000000      0.000000      0.000000
     7   Atom        0.000000      0.000000      0.000000
     8   Atom        0.000000      0.000000      0.000000
 --------------------------------------------------------
                        XY            XZ            YZ
 --------------------------------------------------------
     1   Atom        0.000000      0.000000      0.000000
     2   Atom        0.000000      0.000000      0.000000
     3   Atom        0.000000      0.000000      0.000000
     4   Atom        0.000000      0.000000      0.000000
     5   Atom        0.000000      0.000000      0.000000
     6   Atom        0.000000      0.000000      0.000000
     7   Atom        0.000000      0.000000      0.000000
     8   Atom        0.000000      0.000000      0.000000
 --------------------------------------------------------


 ---------------------------------------------------------------------------------
              Anisotropic Spin Dipole Couplings in Principal Axis System
 ---------------------------------------------------------------------------------

       Atom             a.u.   MegaHertz   Gauss  10(-4) cm-1        Axes

              Baa     0.0000     0.000     0.000     0.000  1.0000  0.0000  0.0000
     1 C(13)  Bbb     0.0000     0.000     0.000     0.000 -0.0000  1.0000  0.0000
              Bcc     0.0000     0.000     0.000     0.000  0.0000  0.0000  1.0000
 
              Baa     0.0000     0.000     0.000     0.000  1.0000  0.0000  0.0000
     2 C(13)  Bbb     0.0000     0.000     0.000     0.000 -0.0000  1.0000  0.0000
              Bcc     0.0000     0.000     0.000     0.000  0.0000  0.0000  1.0000
 
              Baa     0.0000     0.000     0.000     0.000  1.0000  0.0000  0.0000
     3 H(1)   Bbb     0.0000     0.000     0.000     0.000 -0.0000  1.0000  0.0000
              Bcc     0.0000     0.000     0.000     0.000  0.0000  0.0000  1.0000
 
              Baa     0.0000     0.000     0.000     0.000  1.0000  0.0000  0.0000
     4 H(1)   Bbb     0.0000     0.000     0.000     0.000 -0.0000  1.0000  0.0000
              Bcc     0.0000     0.000     0.000     0.000  0.0000  0.0000  1.0000
 
              Baa     0.0000     0.000     0.000     0.000  1.0000  0.0000  0.0000
     5 H(1)   Bbb     0.0000     0.000     0.000     0.000 -0.0000  1.0000  0.0000
              Bcc     0.0000     0.000     0.000     0.000  0.0000  0.0000  1.0000
 
              Baa     0.0000     0.000     0.000     0.000  1.0000  0.0000  0.0000
     6 H(1)   Bbb     0.0000     0.000     0.000     0.000 -0.0000  1.0000  0.0000
              Bcc     0.0000     0.000     0.000     0.000  0.0000  0.0000  1.0000
 
              Baa     0.0000     0.000     0.000     0.000  1.0000  0.0000  0.0000
     7 H(1)   Bbb     0.0000     0.000     0.000     0.000 -0.0000  1.0000  0.0000
              Bcc     0.0000     0.000     0.000     0.000  0.0000  0.0000  1.0000
 
              Baa     0.0000     0.000     0.000     0.000  1.0000  0.0000  0.0000
     8 H(1)   Bbb     0.0000     0.000     0.000     0.000 -0.0000  1.0000  0.0000
              Bcc     0.0000     0.000     0.000     0.000  0.0000  0.0000  1.0000
 

 ---------------------------------------------------------------------------------

 No NMR shielding tensors so no spin-rotation constants.
 Leave Link  601 at Tue Nov 19 11:54:20 2024, MaxMem=  1073741824 cpu:               3.1 elap:               0.1
 (Enter /home/szhao/Apps/g16/l701.exe)
 ... and contract with generalized density number  0.
 Compute integral first derivatives.
 Leave Link  701 at Tue Nov 19 11:54:20 2024, MaxMem=  1073741824 cpu:               2.5 elap:               0.1
 (Enter /home/szhao/Apps/g16/l702.exe)
 L702 exits ... SP integral derivatives will be done elsewhere.
 Leave Link  702 at Tue Nov 19 11:54:20 2024, MaxMem=  1073741824 cpu:               0.8 elap:               0.1
 (Enter /home/szhao/Apps/g16/l703.exe)
 Integral derivatives from FoFJK, PRISM(SPDF).
 Compute integral first derivatives, UseDBF=F ICtDFT=           0.
 Calling FoFJK, ICntrl=      2127 FMM=F ISym2X=0 I1Cent= 0 IOpClX= 1 NMat=1 NMatS=1 NMatT=0.
 FoFJK:  IHMeth= 1 ICntrl=    2127 DoSepK=F KAlg= 0 I1Cent=           0 FoldK=F
 IRaf=         0 NMat=       1 IRICut=       1 DoRegI=T DoRafI=F ISym2E= 0 IDoP0=0 IntGTp=1.
 FoFCou: FMM=F IPFlag=           0 FMFlag=      100000 FMFlg1=         800
         NFxFlg=           0 DoJE=F BraDBF=F KetDBF=F FulRan=T
         wScrn=  0.000000 ICntrl=      2127 IOpCl=  1 I1Cent=           0 NGrid=           0
         NMat0=    1 NMatS0=      1 NMatT0=    0 NMatD0=    1 NMtDS0=    0 NMtDT0=    0
 Symmetry not used in FoFCou.
 Leave Link  703 at Tue Nov 19 11:54:21 2024, MaxMem=  1073741824 cpu:              20.2 elap:               0.8
 (Enter /home/szhao/Apps/g16/l716.exe)
 Dipole        = 2.93755874D-07 1.62148308D-06 3.66087704D-06
 -------------------------------------------------------------------
 Center     Atomic                   Forces (Hartrees/Bohr)
 Number     Number              X              Y              Z
 -------------------------------------------------------------------
      1        6          -0.000000000   -0.000000000   -0.000000000
      2        6          -0.000000000   -0.000000000   -0.000000000
      3        1          -0.003593959    0.001564197   -0.000903655
      4        1           0.003612048    0.001645210    0.000939951
      5        1          -0.003605655   -0.001633675   -0.000930828
      6        1          -0.003610607   -0.000005648    0.001890210
      7        1           0.003595394   -0.001565235    0.000908011
      8        1           0.003603459    0.000006786   -0.001873664
 -------------------------------------------------------------------
 Cartesian Forces:  Max     0.003612048 RMS     0.002027512
 Leave Link  716 at Tue Nov 19 11:54:21 2024, MaxMem=  1073741824 cpu:               0.9 elap:               0.1
 (Enter /home/szhao/Apps/g16/l103.exe)

 GradGradGradGradGradGradGradGradGradGradGradGradGradGradGradGradGradGrad
 Berny optimization.
 FormGI is forming the generalized inverse of G from B-inverse, IUseBI=4.
 Internal  Forces:  Max     0.010810902 RMS     0.003365383
 Search for a local minimum.
 Step number   1 out of a maximum of   43
 All quantities printed in internal units (Hartrees-Bohrs-Radians)
 RMS Force = .22770D-02 SwitMx=.10000D-02 MixMth= 1
 Mixed Optimization -- RFO/linear search
 Second derivative matrix not updated -- first step.
 ITU=  0
     Eigenvalues ---    0.00230   0.05284   0.05284   0.05286   0.05286
     Eigenvalues ---    0.16000   0.16000   0.16000   0.16000   0.16000
     Eigenvalues ---    0.16000   0.34110   0.34110   0.34113   0.34114
     Eigenvalues ---    0.34126   0.341271000.000001000.000001000.00000
     Eigenvalues --- 1000.000001000.000001000.000001000.000001000.00000
     Eigenvalues --- 1000.000001000.000001000.000001000.000001000.00000
     Eigenvalues --- 1000.000001000.000001000.00000
 RFO step:  Lambda=-6.85342104D-04 EMin= 2.30000000D-03
 Linear search not attempted -- first point.
 Iteration  1 RMS(Cart)=  0.01444516 RMS(Int)=  0.00013525
 Iteration  2 RMS(Cart)=  0.00011988 RMS(Int)=  0.00007093
 Iteration  3 RMS(Cart)=  0.00000001 RMS(Int)=  0.00007093
 ITry= 1 IFail=0 DXMaxC= 3.41D-02 DCOld= 1.00D+10 DXMaxT= 3.00D-01 DXLimC= 3.00D+00 Rises=F
 Variable       Old X    -DE/DX   Delta X   Delta X   Delta X     New X
                                 (Linear)    (Quad)   (Total)
    X1       -1.48618   0.01081   0.00000   0.00000   0.00000  -1.48618
    Y1        0.00000   0.00011   0.00000   0.00000   0.00000   0.00000
    Z1        0.00000  -0.00004   0.00000   0.00000   0.00000   0.00000
    X2        1.48633  -0.01081   0.00000   0.00000   0.00000   1.48633
    Y2        0.00000  -0.00010   0.00000   0.00000   0.00000   0.00000
    Z2        0.00000   0.00007   0.00000   0.00000   0.00000   0.00000
    R1        2.07145  -0.00310   0.00000  -0.00907  -0.00907   2.06238
    R2        2.07117  -0.00302   0.00000  -0.00882  -0.00882   2.06235
    R3        2.07139  -0.00308   0.00000  -0.00900  -0.00900   2.06238
    R4        2.07116  -0.00301   0.00000  -0.00881  -0.00881   2.06235
    R5        2.07140  -0.00308   0.00000  -0.00902  -0.00902   2.06238
    R6        2.07144  -0.00310   0.00000  -0.00906  -0.00906   2.06239
    A1        1.95115  -0.00252   0.00000  -0.01568  -0.01580   1.93534
    A2        1.95140  -0.00255   0.00000  -0.01594  -0.01606   1.93534
    A3        1.95117  -0.00252   0.00000  -0.01569  -0.01581   1.93535
    A4        1.86836   0.00274   0.00000   0.01704   0.01693   1.88529
    A5        1.86823   0.00274   0.00000   0.01713   0.01702   1.88525
    A6        1.86841   0.00274   0.00000   0.01702   0.01690   1.88531
    A7        1.95140  -0.00255   0.00000  -0.01594  -0.01606   1.93534
    A8        1.95115  -0.00252   0.00000  -0.01569  -0.01581   1.93535
    A9        1.95115  -0.00253   0.00000  -0.01569  -0.01581   1.93535
   A10        1.86840   0.00274   0.00000   0.01702   0.01690   1.88530
   A11        1.86838   0.00274   0.00000   0.01704   0.01692   1.88530
   A12        1.86823   0.00274   0.00000   0.01714   0.01702   1.88525
    D1       -1.04708  -0.00001   0.00000  -0.00010  -0.00010  -1.04718
    D2        3.14157   0.00000   0.00000   0.00002   0.00002   3.14158
    D3        1.04743  -0.00001   0.00000  -0.00020  -0.00020   1.04723
    D4       -3.14156  -0.00000   0.00000  -0.00002  -0.00002  -3.14158
    D5        1.04709   0.00001   0.00000   0.00010   0.00010   1.04719
    D6       -1.04705  -0.00001   0.00000  -0.00012  -0.00012  -1.04716
    D7        1.04707   0.00001   0.00000   0.00010   0.00010   1.04717
    D8       -1.04747   0.00001   0.00000   0.00023   0.00022  -1.04725
    D9        3.14158   0.00000   0.00000   0.00001   0.00001   3.14159
         Item               Value     Threshold  Converged?
 Maximum Force            0.003100     0.000450     NO 
 RMS     Force            0.002277     0.000300     NO 
 Maximum Displacement     0.034125     0.001800     NO 
 RMS     Displacement     0.014518     0.001200     NO 
 Predicted change in Energy=-3.439374D-04
 Lowest energy point so far.  Saving SCF results.
 GradGradGradGradGradGradGradGradGradGradGradGradGradGradGradGradGradGrad

 Leave Link  103 at Tue Nov 19 11:54:21 2024, MaxMem=  1073741824 cpu:               1.4 elap:               0.1
 (Enter /home/szhao/Apps/g16/l202.exe)
                          Input orientation:                          
 ---------------------------------------------------------------------
 Center     Atomic      Atomic             Coordinates (Angstroms)
 Number     Number       Type             X           Y           Z
 ---------------------------------------------------------------------
      1          6           0       -0.786453    0.000000    0.000000
      2          6           0        0.786534    0.000000    0.000000
      3          1           0        1.175630   -0.882530    0.510678
      4          1           0       -1.175553   -0.883545   -0.508948
      5          1           0        1.175637    0.883547    0.508940
      6          1           0        1.175638   -0.000973   -1.019647
      7          1           0       -1.175549    0.882524   -0.510688
      8          1           0       -1.175563    0.000969    1.019644
 ---------------------------------------------------------------------
                    Distance matrix (angstroms):
                    1          2          3          4          5
     1  C    0.000000
     2  C    1.572987   0.000000
     3  H    2.211204   1.091351   0.000000
     4  H    1.091365   2.211213   2.562753   0.000000
     5  H    2.211215   1.091364   1.766077   3.112363   0.000000
     6  H    2.211218   1.091367   1.766079   2.562781   1.766056
     7  H    1.091351   2.211204   3.112338   1.766070   2.562756
     8  H    1.091366   2.211220   2.562757   1.766057   2.562792
                    6          7          8
     6  H    0.000000
     7  H    2.562750   0.000000
     8  H    3.112371   1.766085   0.000000
 Symmetry turned off by external request.
 Stoichiometry    C2H6
 Framework group  C1[X(C2H6)]
 Deg. of freedom    18
 Full point group                 C1      NOp   1
 Rotational constants (GHZ):          80.3870112          19.1822952          19.1822171
 Leave Link  202 at Tue Nov 19 11:54:22 2024, MaxMem=  1073741824 cpu:               0.6 elap:               0.0
 (Enter /home/szhao/Apps/g16/l301.exe)
 Standard basis: 6-311+G(d,p) (5D, 7F)
 Ernie: Thresh=  0.10000D-02 Tol=  0.10000D-05 Strict=F.
    80 basis functions,   120 primitive gaussians,    82 cartesian basis functions
     9 alpha electrons        9 beta electrons
       nuclear repulsion energy        41.7287382018 Hartrees.
 IExCor= 4336 DFT=T Ex+Corr=M062X ExCW=0 ScaHFX=  0.540000
 ScaDFX=  1.000000  1.000000  1.000000  1.000000 ScalE2=  1.000000  1.000000
 IRadAn=      7 IRanWt=     -1 IRanGd=            0 ICorTp=0 IEmpDi=  4
 NAtoms=    8 NActive=    8 NUniq=    8 SFac= 1.00D+00 NAtFMM=   60 NAOKFM=F Big=F
 Integral buffers will be    131072 words long.
 Raffenetti 2 integral format.
 Two-electron integral symmetry is turned off.
 Leave Link  301 at Tue Nov 19 11:54:22 2024, MaxMem=  1073741824 cpu:               1.2 elap:               0.1
 (Enter /home/szhao/Apps/g16/l302.exe)
 NPDir=0 NMtPBC=     1 NCelOv=     1 NCel=       1 NClECP=     1 NCelD=      1
         NCelK=      1 NCelE2=     1 NClLst=     1 CellRange=     0.0.
 One-electron integrals computed using PRISM.
 NBasis=    80 RedAO= T EigKep=  2.12D-04  NBF=    80
 NBsUse=    80 1.00D-06 EigRej= -1.00D+00 NBFU=    80
 Precomputing XC quadrature grid using
 IXCGrd= 4 IRadAn=           7 IRanWt=          -1 IRanGd=           0 AccXCQ= 0.00D+00.
 Generated NRdTot=       0 NPtTot=           0 NUsed=           0 NTot=          32
 NSgBfM=    82    82    82    82    82 MxSgAt=     8 MxSgA2=     8.
 Leave Link  302 at Tue Nov 19 11:54:22 2024, MaxMem=  1073741824 cpu:               3.5 elap:               0.2
 (Enter /home/szhao/Apps/g16/l303.exe)
 DipDrv:  MaxL=1.
 Leave Link  303 at Tue Nov 19 11:54:22 2024, MaxMem=  1073741824 cpu:               1.0 elap:               0.1
 (Enter /home/szhao/Apps/g16/l401.exe)
 Initial guess from the checkpoint file:  "opt.chk"
 B after Tr=     0.000000    0.000003    0.000008
         Rot=    1.000000   -0.000003    0.000017    0.000032 Ang=  -0.00 deg.
 Guess basis will be translated and rotated to current coordinates.
 JPrj=2 DoOrth=T DoCkMO=T.
 Initial guess <Sx>= 0.0000 <Sy>= 0.0000 <Sz>= 0.0000 <S**2>= 0.0000 S= 0.0000
 Generating alternative initial guess.
 ExpMin= 4.38D-02 ExpMax= 4.56D+03 ExpMxC= 6.82D+02 IAcc=3 IRadAn=         5 AccDes= 0.00D+00
 Harris functional with IExCor= 1009 and IRadAn=       5 diagonalized for initial guess.
 HarFok:  IExCor= 1009 AccDes= 0.00D+00 IRadAn=         5 IDoV= 1 UseB2=F ITyADJ=14
 ICtDFT=  3500011 ScaDFX=  1.000000  1.000000  1.000000  1.000000
 FoFCou: FMM=F IPFlag=           0 FMFlag=      100000 FMFlg1=           0
         NFxFlg=           0 DoJE=T BraDBF=F KetDBF=T FulRan=T
         wScrn=  0.000000 ICntrl=       500 IOpCl=  0 I1Cent=   200000004 NGrid=           0
         NMat0=    1 NMatS0=      1 NMatT0=    0 NMatD0=    1 NMtDS0=    0 NMtDT0=    0
 Symmetry not used in FoFCou.
 Harris En= -79.8260700200157    
 Leave Link  401 at Tue Nov 19 11:54:22 2024, MaxMem=  1073741824 cpu:               5.5 elap:               0.3
 (Enter /home/szhao/Apps/g16/l502.exe)
 Keep R1 and R2 ints in memory in canonical form, NReq=32326806.
 FoFCou: FMM=F IPFlag=           0 FMFlag=           0 FMFlg1=           0
         NFxFlg=           0 DoJE=F BraDBF=F KetDBF=F FulRan=T
         wScrn=  0.000000 ICntrl=       600 IOpCl=  0 I1Cent=           0 NGrid=           0
         NMat0=    1 NMatS0=   3240 NMatT0=    0 NMatD0=    1 NMtDS0=    0 NMtDT0=    0
 Symmetry not used in FoFCou.
 Two-electron integral symmetry not used.
 UHF open shell SCF:
 Using DIIS extrapolation, IDIIS=  1040.
 NGot=  1073741824 LenX=  1063224738 LenY=  1063217573
 Requested convergence on RMS density matrix=1.00D-08 within 128 cycles.
 Requested convergence on MAX density matrix=1.00D-06.
 Requested convergence on             energy=1.00D-06.
 No special actions if energy rises.

 Cycle   1  Pass 1  IDiag  1:
 E= -79.7960145354855    
 DIIS: error= 1.29D-03 at cycle   1 NSaved=   1.
 NSaved= 1 IEnMin= 1 EnMin= -79.7960145354855     IErMin= 1 ErrMin= 1.29D-03
 ErrMax= 1.29D-03  0.00D+00 EMaxC= 1.00D-01 BMatC= 2.79D-04 BMatP= 2.79D-04
 IDIUse=3 WtCom= 9.87D-01 WtEn= 1.29D-02
 Coeff-Com:  0.100D+01
 Coeff-En:   0.100D+01
 Coeff:      0.100D+01
 Gap=     0.629 Goal=   None    Shift=    0.000
 Gap=     0.629 Goal=   None    Shift=    0.000
 GapD=    0.629 DampG=2.000 DampE=1.000 DampFc=2.0000 IDamp=-1.
 RMSDP=8.86D-05 MaxDP=8.18D-04              OVMax= 2.22D-03

 Cycle   2  Pass 1  IDiag  1:
 E= -79.7960820876934     Delta-E=       -0.000067552208 Rises=F Damp=F
 DIIS: error= 5.47D-04 at cycle   2 NSaved=   2.
 NSaved= 2 IEnMin= 2 EnMin= -79.7960820876934     IErMin= 2 ErrMin= 5.47D-04
 ErrMax= 5.47D-04  0.00D+00 EMaxC= 1.00D-01 BMatC= 2.54D-05 BMatP= 2.79D-04
 IDIUse=3 WtCom= 9.95D-01 WtEn= 5.47D-03
 Coeff-Com:  0.905D-01 0.909D+00
 Coeff-En:   0.000D+00 0.100D+01
 Coeff:      0.900D-01 0.910D+00
 Gap=     0.429 Goal=   None    Shift=    0.000
 Gap=     0.429 Goal=   None    Shift=    0.000
 RMSDP=3.19D-05 MaxDP=7.40D-04 DE=-6.76D-05 OVMax= 1.37D-03

 Cycle   3  Pass 1  IDiag  1:
 E= -79.7960857943104     Delta-E=       -0.000003706617 Rises=F Damp=F
 DIIS: error= 3.15D-04 at cycle   3 NSaved=   3.
 NSaved= 3 IEnMin= 3 EnMin= -79.7960857943104     IErMin= 3 ErrMin= 3.15D-04
 ErrMax= 3.15D-04  0.00D+00 EMaxC= 1.00D-01 BMatC= 1.30D-05 BMatP= 2.54D-05
 IDIUse=3 WtCom= 9.97D-01 WtEn= 3.15D-03
 Coeff-Com: -0.397D-01 0.416D+00 0.623D+00
 Coeff-En:   0.000D+00 0.272D+00 0.728D+00
 Coeff:     -0.396D-01 0.416D+00 0.624D+00
 Gap=     0.429 Goal=   None    Shift=    0.000
 Gap=     0.429 Goal=   None    Shift=    0.000
 RMSDP=1.26D-05 MaxDP=2.78D-04 DE=-3.71D-06 OVMax= 4.39D-04

 Cycle   4  Pass 1  IDiag  1:
 E= -79.7960890309353     Delta-E=       -0.000003236625 Rises=F Damp=F
 DIIS: error= 1.07D-05 at cycle   4 NSaved=   4.
 NSaved= 4 IEnMin= 4 EnMin= -79.7960890309353     IErMin= 4 ErrMin= 1.07D-05
 ErrMax= 1.07D-05  0.00D+00 EMaxC= 1.00D-01 BMatC= 1.61D-08 BMatP= 1.30D-05
 IDIUse=1 WtCom= 1.00D+00 WtEn= 0.00D+00
 Coeff-Com: -0.101D-02-0.283D-01-0.267D-01 0.106D+01
 Coeff:     -0.101D-02-0.283D-01-0.267D-01 0.106D+01
 Gap=     0.429 Goal=   None    Shift=    0.000
 Gap=     0.429 Goal=   None    Shift=    0.000
 RMSDP=1.32D-06 MaxDP=1.43D-05 DE=-3.24D-06 OVMax= 5.01D-05

 Cycle   5  Pass 1  IDiag  1:
 E= -79.7960890384860     Delta-E=       -0.000000007551 Rises=F Damp=F
 DIIS: error= 3.05D-06 at cycle   5 NSaved=   5.
 NSaved= 5 IEnMin= 5 EnMin= -79.7960890384860     IErMin= 5 ErrMin= 3.05D-06
 ErrMax= 3.05D-06  0.00D+00 EMaxC= 1.00D-01 BMatC= 6.28D-10 BMatP= 1.61D-08
 IDIUse=1 WtCom= 1.00D+00 WtEn= 0.00D+00
 Coeff-Com:  0.768D-03-0.127D-01-0.173D-01 0.133D+00 0.896D+00
 Coeff:      0.768D-03-0.127D-01-0.173D-01 0.133D+00 0.896D+00
 Gap=     0.429 Goal=   None    Shift=    0.000
 Gap=     0.429 Goal=   None    Shift=    0.000
 RMSDP=2.60D-07 MaxDP=2.74D-06 DE=-7.55D-09 OVMax= 9.55D-06

 Cycle   6  Pass 1  IDiag  1:
 E= -79.7960890387068     Delta-E=       -0.000000000221 Rises=F Damp=F
 DIIS: error= 3.07D-07 at cycle   6 NSaved=   6.
 NSaved= 6 IEnMin= 6 EnMin= -79.7960890387068     IErMin= 6 ErrMin= 3.07D-07
 ErrMax= 3.07D-07  0.00D+00 EMaxC= 1.00D-01 BMatC= 1.43D-11 BMatP= 6.28D-10
 IDIUse=1 WtCom= 1.00D+00 WtEn= 0.00D+00
 Coeff-Com: -0.187D-04 0.119D-02 0.141D-02-0.358D-01 0.342D-02 0.103D+01
 Coeff:     -0.187D-04 0.119D-02 0.141D-02-0.358D-01 0.342D-02 0.103D+01
 Gap=     0.429 Goal=   None    Shift=    0.000
 Gap=     0.429 Goal=   None    Shift=    0.000
 RMSDP=5.07D-08 MaxDP=5.92D-07 DE=-2.21D-10 OVMax= 1.51D-06

 Cycle   7  Pass 1  IDiag  1:
 E= -79.7960890387125     Delta-E=       -0.000000000006 Rises=F Damp=F
 DIIS: error= 2.44D-08 at cycle   7 NSaved=   7.
 NSaved= 7 IEnMin= 7 EnMin= -79.7960890387125     IErMin= 7 ErrMin= 2.44D-08
 ErrMax= 2.44D-08  0.00D+00 EMaxC= 1.00D-01 BMatC= 8.21D-14 BMatP= 1.43D-11
 IDIUse=1 WtCom= 1.00D+00 WtEn= 0.00D+00
 Coeff-Com: -0.792D-05 0.283D-04 0.197D-04 0.240D-02-0.799D-02-0.122D+00
 Coeff-Com:  0.113D+01
 Coeff:     -0.792D-05 0.283D-04 0.197D-04 0.240D-02-0.799D-02-0.122D+00
 Coeff:      0.113D+01
 Gap=     0.429 Goal=   None    Shift=    0.000
 Gap=     0.429 Goal=   None    Shift=    0.000
 RMSDP=5.14D-09 MaxDP=5.74D-08 DE=-5.66D-12 OVMax= 1.99D-07

 SCF Done:  E(UM062X) =  -79.7960890387     A.U. after    7 cycles
            NFock=  7  Conv=0.51D-08     -V/T= 2.0058
 <Sx>= 0.0000 <Sy>= 0.0000 <Sz>= 0.0000 <S**2>= 0.0000 S= 0.0000
 <L.S>=  0.00000000000    
 KE= 7.933211915750D+01 PE=-2.675852424890D+02 EE= 6.672829609099D+01
 Annihilation of the first spin contaminant:
 S**2 before annihilation     0.0000,   after    -0.0000
 Leave Link  502 at Tue Nov 19 11:54:26 2024, MaxMem=  1073741824 cpu:              77.2 elap:               3.4
 (Enter /home/szhao/Apps/g16/l701.exe)
 ... and contract with generalized density number  0.
 Compute integral first derivatives.
 Leave Link  701 at Tue Nov 19 11:54:26 2024, MaxMem=  1073741824 cpu:               2.6 elap:               0.1
 (Enter /home/szhao/Apps/g16/l702.exe)
 L702 exits ... SP integral derivatives will be done elsewhere.
 Leave Link  702 at Tue Nov 19 11:54:26 2024, MaxMem=  1073741824 cpu:               0.9 elap:               0.1
 (Enter /home/szhao/Apps/g16/l703.exe)
 Integral derivatives from FoFJK, PRISM(SPDF).
 Compute integral first derivatives, UseDBF=F ICtDFT=           0.
 Calling FoFJK, ICntrl=      2127 FMM=F ISym2X=0 I1Cent= 0 IOpClX= 1 NMat=1 NMatS=1 NMatT=0.
 FoFJK:  IHMeth= 1 ICntrl=    2127 DoSepK=F KAlg= 0 I1Cent=           0 FoldK=F
 IRaf=         0 NMat=       1 IRICut=       1 DoRegI=T DoRafI=F ISym2E= 0 IDoP0=0 IntGTp=1.
 FoFCou: FMM=F IPFlag=           0 FMFlag=      100000 FMFlg1=         800
         NFxFlg=           0 DoJE=F BraDBF=F KetDBF=F FulRan=T
         wScrn=  0.000000 ICntrl=      2127 IOpCl=  1 I1Cent=           0 NGrid=           0
         NMat0=    1 NMatS0=      1 NMatT0=    0 NMatD0=    1 NMtDS0=    0 NMtDT0=    0
 Symmetry not used in FoFCou.
 Leave Link  703 at Tue Nov 19 11:54:27 2024, MaxMem=  1073741824 cpu:              21.1 elap:               0.9
 (Enter /home/szhao/Apps/g16/l716.exe)
 Dipole        =-2.81117103D-08-7.65499753D-07-1.99689419D-06
 -------------------------------------------------------------------
 Center     Atomic                   Forces (Hartrees/Bohr)
 Number     Number              X              Y              Z
 -------------------------------------------------------------------
      1        6          -0.000000000   -0.000000000   -0.000000000
      2        6          -0.000000000   -0.000000000   -0.000000000
      3        1          -0.000590365    0.000055768   -0.000032373
      4        1           0.000595346    0.000062740    0.000033963
      5        1          -0.000595017   -0.000062730   -0.000033034
      6        1          -0.000596927   -0.000002703    0.000071483
      7        1           0.000590470   -0.000055235    0.000033500
      8        1           0.000596614    0.000003152   -0.000070894
 -------------------------------------------------------------------
 Cartesian Forces:  Max     0.000596927 RMS     0.000299064
 Leave Link  716 at Tue Nov 19 11:54:27 2024, MaxMem=  1073741824 cpu:               0.9 elap:               0.1
 (Enter /home/szhao/Apps/g16/l103.exe)

 GradGradGradGradGradGradGradGradGradGradGradGradGradGradGradGradGradGrad
 Berny optimization.
 Using GEDIIS/GDIIS optimizer.
 FormGI is forming the generalized inverse of G from B-inverse, IUseBI=4.
 Internal  Forces:  Max     0.001782431 RMS     0.000556642
 Search for a local minimum.
 Step number   2 out of a maximum of   43
 All quantities printed in internal units (Hartrees-Bohrs-Radians)
 RMS Force = .37865D-03 SwitMx=.10000D-02 MixMth= 2
 Mixed Optimization -- En-DIIS/RFO-DIIS
 Update second derivatives using D2CorX and points    1    2
 DE= -4.04D-04 DEPred=-3.44D-04 R= 1.18D+00
 TightC=F SS=  1.41D+00  RLast= 6.10D-02 DXNew= 5.0454D-01 1.8300D-01
 Trust test= 1.18D+00 RLast= 6.10D-02 DXMaxT set to 3.00D-01
 ITU=  1  0
 Use linear search instead of GDIIS.
     Eigenvalues ---    0.00230   0.05453   0.05453   0.05453   0.05453
     Eigenvalues ---    0.13209   0.16000   0.16000   0.16000   0.16000
     Eigenvalues ---    0.16000   0.34110   0.34111   0.34113   0.34121
     Eigenvalues ---    0.34127   0.342151000.000001000.000001000.00000
     Eigenvalues --- 1000.000001000.000001000.000001000.000001000.00000
     Eigenvalues --- 1000.000001000.000001000.000001000.000001000.00000
     Eigenvalues --- 1000.000001000.000001000.00000
 RFO step:  Lambda=-2.22802642D-06 EMin= 2.30000000D-03
 Quartic linear search produced a step of  0.20793.
 Iteration  1 RMS(Cart)=  0.00345301 RMS(Int)=  0.00002105
 Iteration  2 RMS(Cart)=  0.00000833 RMS(Int)=  0.00001966
 Iteration  3 RMS(Cart)=  0.00000000 RMS(Int)=  0.00001966
 ITry= 1 IFail=0 DXMaxC= 7.93D-03 DCOld= 1.00D+10 DXMaxT= 3.00D-01 DXLimC= 3.00D+00 Rises=F
 Variable       Old X    -DE/DX   Delta X   Delta X   Delta X     New X
                                 (Linear)    (Quad)   (Total)
    X1       -1.48618   0.00178   0.00000   0.00000   0.00000  -1.48618
    Y1        0.00000   0.00001   0.00000   0.00000   0.00000   0.00000
    Z1        0.00000  -0.00000   0.00000   0.00000   0.00000   0.00000
    X2        1.48633  -0.00178   0.00000   0.00000   0.00000   1.48633
    Y2        0.00000  -0.00001   0.00000   0.00000   0.00000   0.00000
    Z2        0.00000   0.00000   0.00000   0.00000   0.00000   0.00000
    R1        2.06238  -0.00028  -0.00189   0.00089  -0.00100   2.06139
    R2        2.06235  -0.00027  -0.00183   0.00087  -0.00097   2.06139
    R3        2.06238  -0.00028  -0.00187   0.00088  -0.00100   2.06139
    R4        2.06235  -0.00027  -0.00183   0.00087  -0.00097   2.06139
    R5        2.06238  -0.00028  -0.00188   0.00088  -0.00099   2.06139
    R6        2.06239  -0.00028  -0.00188   0.00088  -0.00100   2.06139
    A1        1.93534  -0.00052  -0.00329  -0.00058  -0.00390   1.93145
    A2        1.93534  -0.00052  -0.00334  -0.00052  -0.00389   1.93145
    A3        1.93535  -0.00052  -0.00329  -0.00061  -0.00393   1.93142
    A4        1.88529   0.00055   0.00352   0.00060   0.00408   1.88938
    A5        1.88525   0.00055   0.00354   0.00061   0.00412   1.88937
    A6        1.88531   0.00055   0.00351   0.00058   0.00406   1.88937
    A7        1.93534  -0.00052  -0.00334  -0.00052  -0.00389   1.93145
    A8        1.93535  -0.00052  -0.00329  -0.00058  -0.00390   1.93145
    A9        1.93535  -0.00052  -0.00329  -0.00060  -0.00392   1.93142
   A10        1.88530   0.00054   0.00351   0.00059   0.00407   1.88938
   A11        1.88530   0.00055   0.00352   0.00058   0.00407   1.88937
   A12        1.88525   0.00055   0.00354   0.00061   0.00412   1.88937
    D1       -1.04718  -0.00000  -0.00002   0.00002  -0.00000  -1.04718
    D2        3.14158   0.00000   0.00000   0.00000   0.00001   3.14159
    D3        1.04723  -0.00000  -0.00004   0.00002  -0.00003   1.04721
    D4       -3.14158  -0.00000  -0.00000  -0.00001  -0.00001  -3.14159
    D5        1.04719  -0.00000   0.00002  -0.00002  -0.00000   1.04718
    D6       -1.04716  -0.00000  -0.00002  -0.00001  -0.00004  -1.04720
    D7        1.04717   0.00000   0.00002   0.00001   0.00003   1.04720
    D8       -1.04725   0.00000   0.00005  -0.00001   0.00004  -1.04721
    D9        3.14159   0.00000   0.00000   0.00000   0.00000   3.14159
         Item               Value     Threshold  Converged?
 Maximum Force            0.000549     0.000450     NO 
 RMS     Force            0.000379     0.000300     NO 
 Maximum Displacement     0.007926     0.001800     NO 
 RMS     Displacement     0.003459     0.001200     NO 
 Predicted change in Energy=-1.388756D-05
 Lowest energy point so far.  Saving SCF results.
 GradGradGradGradGradGradGradGradGradGradGradGradGradGradGradGradGradGrad

 Leave Link  103 at Tue Nov 19 11:54:27 2024, MaxMem=  1073741824 cpu:               1.2 elap:               0.1
 (Enter /home/szhao/Apps/g16/l202.exe)
                          Input orientation:                          
 ---------------------------------------------------------------------
 Center     Atomic      Atomic             Coordinates (Angstroms)
 Number     Number       Type             X           Y           Z
 ---------------------------------------------------------------------
      1          6           0       -0.786453    0.000000    0.000000
      2          6           0        0.786534    0.000000    0.000000
      3          1           0        1.171478   -0.883423    0.511187
      4          1           0       -1.171393   -0.884421   -0.509461
      5          1           0        1.171474    0.884421    0.509460
      6          1           0        1.171448   -0.000994   -1.020671
      7          1           0       -1.171398    0.883423   -0.511187
      8          1           0       -1.171368    0.000993    1.020671
 ---------------------------------------------------------------------
                    Distance matrix (angstroms):
                    1          2          3          4          5
     1  C    0.000000
     2  C    1.572987   0.000000
     3  H    2.207996   1.090840   0.000000
     4  H    1.090838   2.207991   2.555537   0.000000
     5  H    2.207992   1.090838   1.767845   3.107414   0.000000
     6  H    2.207974   1.090839   1.767844   2.555520   1.767841
     7  H    1.090840   2.207996   3.107421   1.767845   2.555537
     8  H    1.090839   2.207974   2.555523   1.767841   2.555521
                    6          7          8
     6  H    0.000000
     7  H    2.555522   0.000000
     8  H    3.107390   1.767844   0.000000
 Symmetry turned off by external request.
 Stoichiometry    C2H6
 Framework group  C1[X(C2H6)]
 Deg. of freedom    18
 Full point group                 C1      NOp   1
 Rotational constants (GHZ):          80.2259009          19.2208182          19.2208057
 Leave Link  202 at Tue Nov 19 11:54:28 2024, MaxMem=  1073741824 cpu:               0.4 elap:               0.0
 (Enter /home/szhao/Apps/g16/l301.exe)
 Standard basis: 6-311+G(d,p) (5D, 7F)
 Ernie: Thresh=  0.10000D-02 Tol=  0.10000D-05 Strict=F.
    80 basis functions,   120 primitive gaussians,    82 cartesian basis functions
     9 alpha electrons        9 beta electrons
       nuclear repulsion energy        41.7521920204 Hartrees.
 IExCor= 4336 DFT=T Ex+Corr=M062X ExCW=0 ScaHFX=  0.540000
 ScaDFX=  1.000000  1.000000  1.000000  1.000000 ScalE2=  1.000000  1.000000
 IRadAn=      7 IRanWt=     -1 IRanGd=            0 ICorTp=0 IEmpDi=  4
 NAtoms=    8 NActive=    8 NUniq=    8 SFac= 1.00D+00 NAtFMM=   60 NAOKFM=F Big=F
 Integral buffers will be    131072 words long.
 Raffenetti 2 integral format.
 Two-electron integral symmetry is turned off.
 Leave Link  301 at Tue Nov 19 11:54:28 2024, MaxMem=  1073741824 cpu:               1.1 elap:               0.0
 (Enter /home/szhao/Apps/g16/l302.exe)
 NPDir=0 NMtPBC=     1 NCelOv=     1 NCel=       1 NClECP=     1 NCelD=      1
         NCelK=      1 NCelE2=     1 NClLst=     1 CellRange=     0.0.
 One-electron integrals computed using PRISM.
 NBasis=    80 RedAO= T EigKep=  2.11D-04  NBF=    80
 NBsUse=    80 1.00D-06 EigRej= -1.00D+00 NBFU=    80
 Precomputing XC quadrature grid using
 IXCGrd= 4 IRadAn=           7 IRanWt=          -1 IRanGd=           0 AccXCQ= 0.00D+00.
 Generated NRdTot=       0 NPtTot=           0 NUsed=           0 NTot=          32
 NSgBfM=    82    82    82    82    82 MxSgAt=     8 MxSgA2=     8.
 Leave Link  302 at Tue Nov 19 11:54:28 2024, MaxMem=  1073741824 cpu:               5.1 elap:               0.2
 (Enter /home/szhao/Apps/g16/l303.exe)
 DipDrv:  MaxL=1.
 Leave Link  303 at Tue Nov 19 11:54:28 2024, MaxMem=  1073741824 cpu:               1.1 elap:               0.1
 (Enter /home/szhao/Apps/g16/l401.exe)
 Initial guess from the checkpoint file:  "opt.chk"
 B after Tr=     0.000000    0.000001    0.000002
         Rot=    1.000000   -0.000000   -0.000002    0.000002 Ang=  -0.00 deg.
 Guess basis will be translated and rotated to current coordinates.
 JPrj=2 DoOrth=T DoCkMO=T.
 Initial guess <Sx>= 0.0000 <Sy>= 0.0000 <Sz>= 0.0000 <S**2>= 0.0000 S= 0.0000
 Leave Link  401 at Tue Nov 19 11:54:28 2024, MaxMem=  1073741824 cpu:               2.5 elap:               0.1
 (Enter /home/szhao/Apps/g16/l502.exe)
 Keep R1 and R2 ints in memory in canonical form, NReq=32326806.
 FoFCou: FMM=F IPFlag=           0 FMFlag=           0 FMFlg1=           0
         NFxFlg=           0 DoJE=F BraDBF=F KetDBF=F FulRan=T
         wScrn=  0.000000 ICntrl=       600 IOpCl=  0 I1Cent=           0 NGrid=           0
         NMat0=    1 NMatS0=   3240 NMatT0=    0 NMatD0=    1 NMtDS0=    0 NMtDT0=    0
 Symmetry not used in FoFCou.
 Two-electron integral symmetry not used.
 UHF open shell SCF:
 Using DIIS extrapolation, IDIIS=  1040.
 NGot=  1073741824 LenX=  1063224738 LenY=  1063217573
 Requested convergence on RMS density matrix=1.00D-08 within 128 cycles.
 Requested convergence on MAX density matrix=1.00D-06.
 Requested convergence on             energy=1.00D-06.
 No special actions if energy rises.

 Cycle   1  Pass 1  IDiag  1:
 E= -79.7960990159598    
 DIIS: error= 3.53D-04 at cycle   1 NSaved=   1.
 NSaved= 1 IEnMin= 1 EnMin= -79.7960990159598     IErMin= 1 ErrMin= 3.53D-04
 ErrMax= 3.53D-04  0.00D+00 EMaxC= 1.00D-01 BMatC= 1.33D-05 BMatP= 1.33D-05
 IDIUse=3 WtCom= 9.96D-01 WtEn= 3.53D-03
 Coeff-Com:  0.100D+01
 Coeff-En:   0.100D+01
 Coeff:      0.100D+01
 Gap=     0.630 Goal=   None    Shift=    0.000
 Gap=     0.630 Goal=   None    Shift=    0.000
 RMSDP=1.98D-05 MaxDP=2.16D-04              OVMax= 5.96D-04

 Cycle   2  Pass 1  IDiag  1:
 E= -79.7961024539484     Delta-E=       -0.000003437989 Rises=F Damp=F
 DIIS: error= 1.04D-04 at cycle   2 NSaved=   2.
 NSaved= 2 IEnMin= 2 EnMin= -79.7961024539484     IErMin= 2 ErrMin= 1.04D-04
 ErrMax= 1.04D-04  0.00D+00 EMaxC= 1.00D-01 BMatC= 5.92D-07 BMatP= 1.33D-05
 IDIUse=3 WtCom= 9.99D-01 WtEn= 1.04D-03
 Coeff-Com:  0.544D-02 0.995D+00
 Coeff-En:   0.000D+00 0.100D+01
 Coeff:      0.543D-02 0.995D+00
 Gap=     0.430 Goal=   None    Shift=    0.000
 Gap=     0.430 Goal=   None    Shift=    0.000
 RMSDP=5.11D-06 MaxDP=9.52D-05 DE=-3.44D-06 OVMax= 2.61D-04

 Cycle   3  Pass 1  IDiag  1:
 E= -79.7961025494855     Delta-E=       -0.000000095537 Rises=F Damp=F
 DIIS: error= 4.99D-05 at cycle   3 NSaved=   3.
 NSaved= 3 IEnMin= 3 EnMin= -79.7961025494855     IErMin= 3 ErrMin= 4.99D-05
 ErrMax= 4.99D-05  0.00D+00 EMaxC= 1.00D-01 BMatC= 3.31D-07 BMatP= 5.92D-07
 IDIUse=1 WtCom= 1.00D+00 WtEn= 0.00D+00
 Coeff-Com: -0.408D-01 0.436D+00 0.605D+00
 Coeff:     -0.408D-01 0.436D+00 0.605D+00
 Gap=     0.430 Goal=   None    Shift=    0.000
 Gap=     0.430 Goal=   None    Shift=    0.000
 RMSDP=2.12D-06 MaxDP=4.68D-05 DE=-9.55D-08 OVMax= 7.31D-05

 Cycle   4  Pass 1  IDiag  1:
 E= -79.7961026310887     Delta-E=       -0.000000081603 Rises=F Damp=F
 DIIS: error= 4.34D-06 at cycle   4 NSaved=   4.
 NSaved= 4 IEnMin= 4 EnMin= -79.7961026310887     IErMin= 4 ErrMin= 4.34D-06
 ErrMax= 4.34D-06  0.00D+00 EMaxC= 1.00D-01 BMatC= 3.08D-09 BMatP= 3.31D-07
 IDIUse=1 WtCom= 1.00D+00 WtEn= 0.00D+00
 Coeff-Com: -0.848D-02 0.403D-01 0.109D+00 0.860D+00
 Coeff:     -0.848D-02 0.403D-01 0.109D+00 0.860D+00
 Gap=     0.430 Goal=   None    Shift=    0.000
 Gap=     0.430 Goal=   None    Shift=    0.000
 RMSDP=3.04D-07 MaxDP=5.12D-06 DE=-8.16D-08 OVMax= 1.24D-05

 Cycle   5  Pass 1  IDiag  1:
 E= -79.7961026319523     Delta-E=       -0.000000000864 Rises=F Damp=F
 DIIS: error= 7.92D-07 at cycle   5 NSaved=   5.
 NSaved= 5 IEnMin= 5 EnMin= -79.7961026319523     IErMin= 5 ErrMin= 7.92D-07
 ErrMax= 7.92D-07  0.00D+00 EMaxC= 1.00D-01 BMatC= 7.16D-11 BMatP= 3.08D-09
 IDIUse=1 WtCom= 1.00D+00 WtEn= 0.00D+00
 Coeff-Com:  0.144D-02-0.181D-01-0.251D-01 0.447D-01 0.997D+00
 Coeff:      0.144D-02-0.181D-01-0.251D-01 0.447D-01 0.997D+00
 Gap=     0.430 Goal=   None    Shift=    0.000
 Gap=     0.430 Goal=   None    Shift=    0.000
 RMSDP=9.59D-08 MaxDP=1.01D-06 DE=-8.64D-10 OVMax= 3.22D-06

 Cycle   6  Pass 1  IDiag  1:
 E= -79.7961026319804     Delta-E=       -0.000000000028 Rises=F Damp=F
 DIIS: error= 4.89D-08 at cycle   6 NSaved=   6.
 NSaved= 6 IEnMin= 6 EnMin= -79.7961026319804     IErMin= 6 ErrMin= 4.89D-08
 ErrMax= 4.89D-08  0.00D+00 EMaxC= 1.00D-01 BMatC= 3.40D-13 BMatP= 7.16D-11
 IDIUse=1 WtCom= 1.00D+00 WtEn= 0.00D+00
 Coeff-Com: -0.964D-04 0.168D-02 0.161D-02-0.155D-01-0.876D-01 0.110D+01
 Coeff:     -0.964D-04 0.168D-02 0.161D-02-0.155D-01-0.876D-01 0.110D+01
 Gap=     0.430 Goal=   None    Shift=    0.000
 Gap=     0.430 Goal=   None    Shift=    0.000
 RMSDP=1.14D-08 MaxDP=1.44D-07 DE=-2.82D-11 OVMax= 3.01D-07

 Cycle   7  Pass 1  IDiag  1:
 E= -79.7961026319807     Delta-E=       -0.000000000000 Rises=F Damp=F
 DIIS: error= 4.55D-09 at cycle   7 NSaved=   7.
 NSaved= 7 IEnMin= 7 EnMin= -79.7961026319807     IErMin= 7 ErrMin= 4.55D-09
 ErrMax= 4.55D-09  0.00D+00 EMaxC= 1.00D-01 BMatC= 2.40D-15 BMatP= 3.40D-13
 IDIUse=1 WtCom= 1.00D+00 WtEn= 0.00D+00
 Coeff-Com: -0.429D-05 0.698D-05 0.495D-04 0.121D-02 0.903D-04-0.124D+00
 Coeff-Com:  0.112D+01
 Coeff:     -0.429D-05 0.698D-05 0.495D-04 0.121D-02 0.903D-04-0.124D+00
 Coeff:      0.112D+01
 Gap=     0.430 Goal=   None    Shift=    0.000
 Gap=     0.430 Goal=   None    Shift=    0.000
 RMSDP=9.89D-10 MaxDP=1.18D-08 DE=-2.27D-13 OVMax= 3.41D-08

 SCF Done:  E(UM062X) =  -79.7961026320     A.U. after    7 cycles
            NFock=  7  Conv=0.99D-09     -V/T= 2.0058
 <Sx>= 0.0000 <Sy>= 0.0000 <Sz>= 0.0000 <S**2>=-0.0000 S=-0.0000
 <L.S>=  0.00000000000    
 KE= 7.933752359455D+01 PE=-2.676369859619D+02 EE= 6.675116771500D+01
 Annihilation of the first spin contaminant:
 S**2 before annihilation    -0.0000,   after    -0.0000
 Leave Link  502 at Tue Nov 19 11:54:32 2024, MaxMem=  1073741824 cpu:              77.1 elap:               3.4
 (Enter /home/szhao/Apps/g16/l701.exe)
 ... and contract with generalized density number  0.
 Compute integral first derivatives.
 Leave Link  701 at Tue Nov 19 11:54:32 2024, MaxMem=  1073741824 cpu:               3.2 elap:               0.2
 (Enter /home/szhao/Apps/g16/l702.exe)
 L702 exits ... SP integral derivatives will be done elsewhere.
 Leave Link  702 at Tue Nov 19 11:54:32 2024, MaxMem=  1073741824 cpu:               0.9 elap:               0.1
 (Enter /home/szhao/Apps/g16/l703.exe)
 Integral derivatives from FoFJK, PRISM(SPDF).
 Compute integral first derivatives, UseDBF=F ICtDFT=           0.
 Calling FoFJK, ICntrl=      2127 FMM=F ISym2X=0 I1Cent= 0 IOpClX= 1 NMat=1 NMatS=1 NMatT=0.
 FoFJK:  IHMeth= 1 ICntrl=    2127 DoSepK=F KAlg= 0 I1Cent=           0 FoldK=F
 IRaf=         0 NMat=       1 IRICut=       1 DoRegI=T DoRafI=F ISym2E= 0 IDoP0=0 IntGTp=1.
 FoFCou: FMM=F IPFlag=           0 FMFlag=      100000 FMFlg1=         800
         NFxFlg=           0 DoJE=F BraDBF=F KetDBF=F FulRan=T
         wScrn=  0.000000 ICntrl=      2127 IOpCl=  1 I1Cent=           0 NGrid=           0
         NMat0=    1 NMatS0=      1 NMatT0=    0 NMatD0=    1 NMtDS0=    0 NMtDT0=    0
 Symmetry not used in FoFCou.
 Leave Link  703 at Tue Nov 19 11:54:33 2024, MaxMem=  1073741824 cpu:              19.9 elap:               0.8
 (Enter /home/szhao/Apps/g16/l716.exe)
 Dipole        =-6.35305586D-10-2.76387942D-08-7.69717350D-08
 -------------------------------------------------------------------
 Center     Atomic                   Forces (Hartrees/Bohr)
 Number     Number              X              Y              Z
 -------------------------------------------------------------------
      1        6          -0.000000000   -0.000000000   -0.000000000
      2        6          -0.000000000   -0.000000000   -0.000000000
      3        1          -0.000000474    0.000005505   -0.000003228
      4        1          -0.000000077    0.000004968    0.000002702
      5        1           0.000000080   -0.000004931   -0.000002655
      6        1           0.000000652   -0.000000212    0.000005283
      7        1           0.000000479   -0.000005499    0.000003261
      8        1          -0.000000643    0.000000224   -0.000005224
 -------------------------------------------------------------------
 Cartesian Forces:  Max     0.000005505 RMS     0.000002898
 Leave Link  716 at Tue Nov 19 11:54:33 2024, MaxMem=  1073741824 cpu:               1.0 elap:               0.1
 (Enter /home/szhao/Apps/g16/l103.exe)

 GradGradGradGradGradGradGradGradGradGradGradGradGradGradGradGradGradGrad
 Berny optimization.
 Using GEDIIS/GDIIS optimizer.
 FormGI is forming the generalized inverse of G from B-inverse, IUseBI=4.
 Internal  Forces:  Max     0.000006151 RMS     0.000002644
 Search for a local minimum.
 Step number   3 out of a maximum of   43
 All quantities printed in internal units (Hartrees-Bohrs-Radians)
 RMS Force = .29214D-05 SwitMx=.10000D-02 MixMth= 2
 Mixed Optimization -- En-DIIS/RFO-DIIS
 Swapping is turned off.
 Update second derivatives using D2CorX and points    1    2    3
 DE= -1.36D-05 DEPred=-1.39D-05 R= 9.79D-01
 TightC=F SS=  1.41D+00  RLast= 1.41D-02 DXNew= 5.0454D-01 4.2171D-02
 Trust test= 9.79D-01 RLast= 1.41D-02 DXMaxT set to 3.00D-01
 ITU=  1  1  0
     Eigenvalues ---    0.00230   0.05494   0.05494   0.05494   0.05494
     Eigenvalues ---    0.13531   0.16000   0.16000   0.16000   0.16000
     Eigenvalues ---    0.16000   0.34110   0.34111   0.34113   0.34121
     Eigenvalues ---    0.34127   0.341621000.000001000.000001000.00000
     Eigenvalues --- 1000.000001000.000001000.000001000.000001000.00000
     Eigenvalues --- 1000.000001000.000001000.000001000.000001000.00000
     Eigenvalues --- 1000.000001000.000001000.00000
 En-DIIS/RFO-DIIS/Sim-DIIS IScMMF=       -3 using points:     3    2
 RFO step:  Lambda=-7.24927858D-10.
 NNeg= 0 NGDIIS= 2 SimSw=  2.50D-03 Rises=F DC= -1.36D-05 SmlDif=  1.00D-05
 NRisDI= 0 DoIntr=F SqrtH=F CThrHd= 10.0 CDAdj=  3.0
 RMS Error=  0.1123674450D-04 NUsed= 2 OKEnD=T EnDIS=F
 InvSVX:  RCond= 2.22D-04 Info=           0 Equed=N FErr=  8.91D-16 BErr=  3.20D-17
 DidBck=F Rises=F RFO-DIIS coefs:    0.99687    0.00313
 Iteration  1 RMS(Cart)=  0.00001474 RMS(Int)=  0.00000001
 Iteration  2 RMS(Cart)=  0.00000000 RMS(Int)=  0.00000001
 ITry= 1 IFail=0 DXMaxC= 3.28D-05 DCOld= 1.00D+10 DXMaxT= 3.00D-01 DXLimC= 3.00D+00 Rises=F
 Variable       Old X    -DE/DX   Delta X   Delta X   Delta X     New X
                                 (Linear)    (Quad)   (Total)
    X1       -1.48618  -0.00000   0.00000   0.00000   0.00000  -1.48618
    Y1        0.00000   0.00000   0.00000   0.00000   0.00000   0.00000
    Z1        0.00000  -0.00000   0.00000   0.00000   0.00000   0.00000
    X2        1.48633   0.00000   0.00000   0.00000   0.00000   1.48633
    Y2        0.00000  -0.00000   0.00000   0.00000   0.00000   0.00000
    Z2        0.00000   0.00000   0.00000   0.00000   0.00000   0.00000
    R1        2.06139  -0.00001   0.00000  -0.00002  -0.00001   2.06137
    R2        2.06139  -0.00001   0.00000  -0.00002  -0.00002   2.06137
    R3        2.06139  -0.00000   0.00000  -0.00002  -0.00001   2.06137
    R4        2.06139  -0.00001   0.00000  -0.00002  -0.00002   2.06137
    R5        2.06139  -0.00001   0.00000  -0.00002  -0.00001   2.06137
    R6        2.06139  -0.00000   0.00000  -0.00002  -0.00001   2.06137
    A1        1.93145   0.00000   0.00001   0.00000   0.00001   1.93146
    A2        1.93145   0.00000   0.00001  -0.00000   0.00001   1.93146
    A3        1.93142   0.00000   0.00001   0.00001   0.00002   1.93144
    A4        1.88938  -0.00000  -0.00001  -0.00000  -0.00002   1.88936
    A5        1.88937  -0.00000  -0.00001  -0.00000  -0.00001   1.88936
    A6        1.88937  -0.00000  -0.00001  -0.00000  -0.00002   1.88936
    A7        1.93145   0.00000   0.00001  -0.00000   0.00001   1.93146
    A8        1.93145   0.00000   0.00001   0.00000   0.00001   1.93146
    A9        1.93142   0.00000   0.00001   0.00001   0.00002   1.93144
   A10        1.88938  -0.00000  -0.00001  -0.00000  -0.00002   1.88936
   A11        1.88937  -0.00000  -0.00001  -0.00000  -0.00002   1.88936
   A12        1.88937  -0.00000  -0.00001  -0.00000  -0.00001   1.88936
    D1       -1.04718  -0.00000   0.00000  -0.00000  -0.00000  -1.04719
    D2        3.14159   0.00000  -0.00000   0.00000   0.00000   3.14159
    D3        1.04721  -0.00000   0.00000  -0.00001  -0.00000   1.04720
    D4       -3.14159  -0.00000   0.00000  -0.00000  -0.00000  -3.14159
    D5        1.04718   0.00000   0.00000   0.00000   0.00000   1.04719
    D6       -1.04720  -0.00000   0.00000  -0.00000  -0.00000  -1.04720
    D7        1.04720   0.00000  -0.00000   0.00000   0.00000   1.04720
    D8       -1.04721   0.00000  -0.00000   0.00001   0.00001  -1.04720
    D9        3.14159   0.00000  -0.00000   0.00000   0.00000   3.14159
         Item               Value     Threshold  Converged?
 Maximum Force            0.000006     0.000450     YES
 RMS     Force            0.000003     0.000300     YES
 Maximum Displacement     0.000033     0.001800     YES
 RMS     Displacement     0.000015     0.001200     YES
 Predicted change in Energy=-4.405455D-10
 Optimization completed.
    -- Stationary point found.
                           ----------------------------
                           !   Optimized Parameters   !
                           ! (Angstroms and Degrees)  !
 --------------------------                            --------------------------
 ! Name  Definition              Value          Derivative Info.                !
 --------------------------------------------------------------------------------
 ! X1    R(1,-1)                -0.7865         -DE/DX =    0.0                 !
 ! Y1    R(1,-2)                 0.0            -DE/DX =    0.0                 !
 ! Z1    R(1,-3)                 0.0            -DE/DX =    0.0                 !
 ! X2    R(2,-1)                 0.7865         -DE/DX =    0.0                 !
 ! Y2    R(2,-2)                 0.0            -DE/DX =    0.0                 !
 ! Z2    R(2,-3)                 0.0            -DE/DX =    0.0                 !
 ! R1    R(1,4)                  1.0908         -DE/DX =    0.0                 !
 ! R2    R(1,7)                  1.0908         -DE/DX =    0.0                 !
 ! R3    R(1,8)                  1.0908         -DE/DX =    0.0                 !
 ! R4    R(2,3)                  1.0908         -DE/DX =    0.0                 !
 ! R5    R(2,5)                  1.0908         -DE/DX =    0.0                 !
 ! R6    R(2,6)                  1.0908         -DE/DX =    0.0                 !
 ! A1    A(2,1,4)              110.6638         -DE/DX =    0.0                 !
 ! A2    A(2,1,7)              110.6641         -DE/DX =    0.0                 !
 ! A3    A(2,1,8)              110.6624         -DE/DX =    0.0                 !
 ! A4    A(4,1,7)              108.2533         -DE/DX =    0.0                 !
 ! A5    A(4,1,8)              108.253          -DE/DX =    0.0                 !
 ! A6    A(7,1,8)              108.2532         -DE/DX =    0.0                 !
 ! A7    A(1,2,3)              110.6641         -DE/DX =    0.0                 !
 ! A8    A(1,2,5)              110.6638         -DE/DX =    0.0                 !
 ! A9    A(1,2,6)              110.6624         -DE/DX =    0.0                 !
 ! A10   A(3,2,5)              108.2533         -DE/DX =    0.0                 !
 ! A11   A(3,2,6)              108.2532         -DE/DX =    0.0                 !
 ! A12   A(5,2,6)              108.253          -DE/DX =    0.0                 !
 ! D1    D(4,1,2,3)            -59.9992         -DE/DX =    0.0                 !
 ! D2    D(4,1,2,5)            180.0            -DE/DX =    0.0                 !
 ! D3    D(4,1,2,6)             60.0006         -DE/DX =    0.0                 !
 ! D4    D(7,1,2,3)           -180.0            -DE/DX =    0.0                 !
 ! D5    D(7,1,2,5)             59.9992         -DE/DX =    0.0                 !
 ! D6    D(7,1,2,6)            -60.0002         -DE/DX =    0.0                 !
 ! D7    D(8,1,2,3)             60.0002         -DE/DX =    0.0                 !
 ! D8    D(8,1,2,5)            -60.0007         -DE/DX =    0.0                 !
 ! D9    D(8,1,2,6)            180.0            -DE/DX =    0.0                 !
 --------------------------------------------------------------------------------
 Lowest energy point so far.  Saving SCF results.
 Largest change from initial coordinates is atom    7       0.022 Angstoms.
 GradGradGradGradGradGradGradGradGradGradGradGradGradGradGradGradGradGrad

 Leave Link  103 at Tue Nov 19 11:54:33 2024, MaxMem=  1073741824 cpu:               1.4 elap:               0.1
 (Enter /home/szhao/Apps/g16/l202.exe)
                          Input orientation:                          
 ---------------------------------------------------------------------
 Center     Atomic      Atomic             Coordinates (Angstroms)
 Number     Number       Type             X           Y           Z
 ---------------------------------------------------------------------
      1          6           0       -0.786453    0.000000    0.000000
      2          6           0        0.786534    0.000000    0.000000
      3          1           0        1.171478   -0.883423    0.511187
      4          1           0       -1.171393   -0.884421   -0.509461
      5          1           0        1.171474    0.884421    0.509460
      6          1           0        1.171448   -0.000994   -1.020671
      7          1           0       -1.171398    0.883423   -0.511187
      8          1           0       -1.171368    0.000993    1.020671
 ---------------------------------------------------------------------
                    Distance matrix (angstroms):
                    1          2          3          4          5
     1  C    0.000000
     2  C    1.572987   0.000000
     3  H    2.207996   1.090840   0.000000
     4  H    1.090838   2.207991   2.555537   0.000000
     5  H    2.207992   1.090838   1.767845   3.107414   0.000000
     6  H    2.207974   1.090839   1.767844   2.555520   1.767841
     7  H    1.090840   2.207996   3.107421   1.767845   2.555537
     8  H    1.090839   2.207974   2.555523   1.767841   2.555521
                    6          7          8
     6  H    0.000000
     7  H    2.555522   0.000000
     8  H    3.107390   1.767844   0.000000
 Symmetry turned off by external request.
 Stoichiometry    C2H6
 Framework group  C1[X(C2H6)]
 Deg. of freedom    18
 Full point group                 C1      NOp   1
 Rotational constants (GHZ):          80.2259009          19.2208182          19.2208057
 Leave Link  202 at Tue Nov 19 11:54:33 2024, MaxMem=  1073741824 cpu:               0.5 elap:               0.1
 (Enter /home/szhao/Apps/g16/l601.exe)
 Copying SCF densities to generalized density rwf, IOpCl= 1 IROHF=0.

 **********************************************************************

            Population analysis using the SCF density.

 **********************************************************************

 Alpha  occ. eigenvalues --  -10.52445 -10.52414  -0.84023  -0.70284  -0.49940
 Alpha  occ. eigenvalues --   -0.49940  -0.41695  -0.40768  -0.40768
 Alpha virt. eigenvalues --    0.02193   0.04051   0.05519   0.05519   0.08749
 Alpha virt. eigenvalues --    0.08749   0.08969   0.13870   0.18663   0.18664
 Alpha virt. eigenvalues --    0.21227   0.21227   0.24151   0.26219   0.28311
 Alpha virt. eigenvalues --    0.42821   0.42821   0.48188   0.48189   0.48731
 Alpha virt. eigenvalues --    0.62275   0.65322   0.65323   0.67839   0.67839
 Alpha virt. eigenvalues --    0.69774   0.77922   0.88997   0.93590   1.01637
 Alpha virt. eigenvalues --    1.01638   1.30411   1.30412   1.51326   1.51948
 Alpha virt. eigenvalues --    1.57657   1.57658   1.57934   1.58190   1.58190
 Alpha virt. eigenvalues --    1.73124   1.73125   1.77073   1.86309   1.86310
 Alpha virt. eigenvalues --    2.07383   2.12940   2.15665   2.15666   2.35740
 Alpha virt. eigenvalues --    2.35741   2.41584   2.49873   2.49873   2.52914
 Alpha virt. eigenvalues --    2.60964   2.60964   2.64855   2.64855   2.67091
 Alpha virt. eigenvalues --    2.67093   2.81424   2.84720   3.14046   3.84584
 Alpha virt. eigenvalues --    3.84584   3.84681   3.84682   4.21095  23.96902
 Alpha virt. eigenvalues --   24.08292
  Beta  occ. eigenvalues --  -10.52445 -10.52414  -0.84023  -0.70284  -0.49940
  Beta  occ. eigenvalues --   -0.49940  -0.41695  -0.40768  -0.40768
  Beta virt. eigenvalues --    0.02193   0.04051   0.05519   0.05519   0.08749
  Beta virt. eigenvalues --    0.08749   0.08969   0.13870   0.18663   0.18664
  Beta virt. eigenvalues --    0.21227   0.21227   0.24151   0.26219   0.28311
  Beta virt. eigenvalues --    0.42821   0.42821   0.48188   0.48189   0.48731
  Beta virt. eigenvalues --    0.62275   0.65322   0.65323   0.67839   0.67839
  Beta virt. eigenvalues --    0.69774   0.77922   0.88997   0.93590   1.01637
  Beta virt. eigenvalues --    1.01638   1.30411   1.30412   1.51326   1.51948
  Beta virt. eigenvalues --    1.57657   1.57658   1.57934   1.58190   1.58190
  Beta virt. eigenvalues --    1.73124   1.73125   1.77073   1.86309   1.86310
  Beta virt. eigenvalues --    2.07383   2.12940   2.15665   2.15666   2.35740
  Beta virt. eigenvalues --    2.35741   2.41584   2.49873   2.49873   2.52914
  Beta virt. eigenvalues --    2.60964   2.60964   2.64855   2.64855   2.67091
  Beta virt. eigenvalues --    2.67093   2.81424   2.84720   3.14046   3.84584
  Beta virt. eigenvalues --    3.84584   3.84681   3.84682   4.21095  23.96902
  Beta virt. eigenvalues --   24.08292
          Condensed to atoms (all electrons):
               1          2          3          4          5          6
     1  C    5.134803   0.226252  -0.042026   0.412912  -0.042027  -0.042031
     2  C    0.226252   5.134803   0.412912  -0.042027   0.412912   0.412914
     3  H   -0.042026   0.412912   0.535962  -0.005875  -0.030056  -0.030056
     4  H    0.412912  -0.042027  -0.005875   0.535962   0.007112  -0.005875
     5  H   -0.042027   0.412912  -0.030056   0.007112   0.535962  -0.030056
     6  H   -0.042031   0.412914  -0.030056  -0.005875  -0.030056   0.535965
     7  H    0.412912  -0.042026   0.007111  -0.030056  -0.005875  -0.005875
     8  H    0.412913  -0.042031  -0.005875  -0.030056  -0.005875   0.007112
               7          8
     1  C    0.412912   0.412913
     2  C   -0.042026  -0.042031
     3  H    0.007111  -0.005875
     4  H   -0.030056  -0.030056
     5  H   -0.005875  -0.005875
     6  H   -0.005875   0.007112
     7  H    0.535962  -0.030056
     8  H   -0.030056   0.535965
          Atomic-Atomic Spin Densities.
               1          2          3          4          5          6
     1  C   -0.000000   0.000000  -0.000000   0.000000   0.000000   0.000000
     2  C    0.000000  -0.000000   0.000000  -0.000000  -0.000000  -0.000000
     3  H   -0.000000   0.000000  -0.000000   0.000000   0.000000   0.000000
     4  H    0.000000  -0.000000   0.000000  -0.000000   0.000000  -0.000000
     5  H    0.000000  -0.000000   0.000000   0.000000   0.000000   0.000000
     6  H    0.000000  -0.000000   0.000000  -0.000000   0.000000   0.000000
     7  H   -0.000000   0.000000  -0.000000  -0.000000  -0.000000  -0.000000
     8  H   -0.000000   0.000000   0.000000  -0.000000  -0.000000  -0.000000
               7          8
     1  C   -0.000000  -0.000000
     2  C    0.000000   0.000000
     3  H   -0.000000   0.000000
     4  H   -0.000000  -0.000000
     5  H   -0.000000  -0.000000
     6  H   -0.000000  -0.000000
     7  H    0.000000   0.000000
     8  H    0.000000  -0.000000
 Mulliken charges and spin densities:
               1          2
     1  C   -0.473710   0.000000
     2  C   -0.473710  -0.000000
     3  H    0.157903   0.000000
     4  H    0.157903  -0.000000
     5  H    0.157903   0.000000
     6  H    0.157904   0.000000
     7  H    0.157903  -0.000000
     8  H    0.157904  -0.000000
 Sum of Mulliken charges =  -0.00000  -0.00000
 Mulliken charges and spin densities with hydrogens summed into heavy atoms:
               1          2
     1  C   -0.000000   0.000000
     2  C    0.000000  -0.000000
 Electronic spatial extent (au):  <R**2>=            112.1011
 Charge=              0.0000 electrons
 Dipole moment (field-independent basis, Debye):
    X=             -0.0000    Y=             -0.0000    Z=             -0.0000  Tot=              0.0000
 Quadrupole moment (field-independent basis, Debye-Ang):
   XX=            -15.6289   YY=            -14.9639   ZZ=            -14.9640
   XY=             -0.0000   XZ=              0.0001   YZ=             -0.0000
 Traceless Quadrupole moment (field-independent basis, Debye-Ang):
   XX=             -0.4433   YY=              0.2217   ZZ=              0.2216
   XY=             -0.0000   XZ=              0.0001   YZ=             -0.0000
 Octapole moment (field-independent basis, Debye-Ang**2):
  XXX=             -0.0019  YYY=              0.0000  ZZZ=              0.0000  XYY=             -0.0006
  XXY=              0.0000  XXZ=              0.0000  XZZ=             -0.0006  YZZ=             -0.0000
  YYZ=              0.0000  XYZ=              0.0000
 Hexadecapole moment (field-independent basis, Debye-Ang**3):
 XXXX=            -99.8236 YYYY=            -30.2442 ZZZZ=            -30.2442 XXXY=             -0.0000
 XXXZ=              0.0003 YYYX=              0.0047 YYYZ=              0.0000 ZZZX=             -1.6221
 ZZZY=              0.0000 XXYY=            -20.2805 XXZZ=            -20.2807 YYZZ=            -10.0814
 XXYZ=             -0.0000 YYXZ=              1.6222 ZZXY=             -0.0048
 N-N= 4.175219202036D+01 E-N=-2.676369860529D+02  KE= 7.933752359455D+01
                          Isotropic Fermi Contact Couplings
        Atom                 a.u.       MegaHertz       Gauss      10(-4) cm-1
     1  C(13)             -0.00000      -0.00000      -0.00000      -0.00000
     2  C(13)             -0.00000      -0.00000      -0.00000      -0.00000
     3  H(1)              -0.00000      -0.00000      -0.00000      -0.00000
     4  H(1)              -0.00000      -0.00000      -0.00000      -0.00000
     5  H(1)               0.00000       0.00000       0.00000       0.00000
     6  H(1)              -0.00000      -0.00000      -0.00000      -0.00000
     7  H(1)              -0.00000      -0.00000      -0.00000      -0.00000
     8  H(1)              -0.00000      -0.00000      -0.00000      -0.00000
 --------------------------------------------------------
       Center         ----  Spin Dipole Couplings  ----
                      3XX-RR        3YY-RR        3ZZ-RR
 --------------------------------------------------------
     1   Atom        0.000000      0.000000      0.000000
     2   Atom        0.000000      0.000000      0.000000
     3   Atom        0.000000      0.000000      0.000000
     4   Atom        0.000000      0.000000      0.000000
     5   Atom        0.000000      0.000000      0.000000
     6   Atom        0.000000      0.000000      0.000000
     7   Atom        0.000000      0.000000      0.000000
     8   Atom        0.000000      0.000000      0.000000
 --------------------------------------------------------
                        XY            XZ            YZ
 --------------------------------------------------------
     1   Atom        0.000000      0.000000      0.000000
     2   Atom        0.000000      0.000000      0.000000
     3   Atom        0.000000      0.000000      0.000000
     4   Atom        0.000000      0.000000      0.000000
     5   Atom        0.000000      0.000000      0.000000
     6   Atom        0.000000      0.000000      0.000000
     7   Atom        0.000000      0.000000      0.000000
     8   Atom        0.000000      0.000000      0.000000
 --------------------------------------------------------


 ---------------------------------------------------------------------------------
              Anisotropic Spin Dipole Couplings in Principal Axis System
 ---------------------------------------------------------------------------------

       Atom             a.u.   MegaHertz   Gauss  10(-4) cm-1        Axes

              Baa     0.0000     0.000     0.000     0.000  1.0000  0.0000  0.0000
     1 C(13)  Bbb     0.0000     0.000     0.000     0.000 -0.0000  1.0000  0.0000
              Bcc     0.0000     0.000     0.000     0.000  0.0000  0.0000  1.0000
 
              Baa     0.0000     0.000     0.000     0.000  1.0000  0.0000  0.0000
     2 C(13)  Bbb     0.0000     0.000     0.000     0.000 -0.0000  1.0000  0.0000
              Bcc     0.0000     0.000     0.000     0.000  0.0000  0.0000  1.0000
 
              Baa     0.0000     0.000     0.000     0.000  1.0000  0.0000  0.0000
     3 H(1)   Bbb     0.0000     0.000     0.000     0.000 -0.0000  1.0000  0.0000
              Bcc     0.0000     0.000     0.000     0.000  0.0000  0.0000  1.0000
 
              Baa     0.0000     0.000     0.000     0.000  1.0000  0.0000  0.0000
     4 H(1)   Bbb     0.0000     0.000     0.000     0.000 -0.0000  1.0000  0.0000
              Bcc     0.0000     0.000     0.000     0.000  0.0000  0.0000  1.0000
 
              Baa     0.0000     0.000     0.000     0.000  1.0000  0.0000  0.0000
     5 H(1)   Bbb     0.0000     0.000     0.000     0.000 -0.0000  1.0000  0.0000
              Bcc     0.0000     0.000     0.000     0.000  0.0000  0.0000  1.0000
 
              Baa     0.0000     0.000     0.000     0.000  1.0000  0.0000  0.0000
     6 H(1)   Bbb     0.0000     0.000     0.000     0.000 -0.0000  1.0000  0.0000
              Bcc     0.0000     0.000     0.000     0.000  0.0000  0.0000  1.0000
 
              Baa     0.0000     0.000     0.000     0.000  1.0000  0.0000  0.0000
     7 H(1)   Bbb     0.0000     0.000     0.000     0.000 -0.0000  1.0000  0.0000
              Bcc     0.0000     0.000     0.000     0.000  0.0000  0.0000  1.0000
 
              Baa     0.0000     0.000     0.000     0.000  1.0000  0.0000  0.0000
     8 H(1)   Bbb     0.0000     0.000     0.000     0.000 -0.0000  1.0000  0.0000
              Bcc     0.0000     0.000     0.000     0.000  0.0000  0.0000  1.0000
 

 ---------------------------------------------------------------------------------

 No NMR shielding tensors so no spin-rotation constants.
 Leave Link  601 at Tue Nov 19 11:54:34 2024, MaxMem=  1073741824 cpu:               3.6 elap:               0.2
 (Enter /home/szhao/Apps/g16/l9999.exe)
 1\1\GINC-NODE02\FOpt\UM062X\6-311+G(d,p)\C2H6\SZHAO\19-Nov-2024\0\\#p 
 opt UM062X/6-311+G** nosymm int=superfine\\Title Card Required\\0,1\C,
 -0.78645341,0.,0.\C,0.78653375,0.,0.\H,1.1714782458,-0.883423096,0.511
 1871174\H,-1.1713927032,-0.8844207604,-0.509460772\H,1.1714735057,0.88
 44207795,0.509460185\H,1.1714479793,-0.0009935347,-1.0206713421\H,-1.1
 7139784,0.8834229791,-0.5111874196\H,-1.17136828,0.0009931658,1.020670
 9994\\Version=ES64L-G16RevA.03\HF=-79.7961026\S2=0.\S2-1=0.\S2A=0.\RMS
 D=9.886e-10\RMSF=2.898e-06\Dipole=0.,0.,0.\Quadrupole=-0.3295789,0.164
 7978,0.1647811,-0.0000038,0.0000387,-0.0000067\PG=C01 [X(C2H6)]\\@


 There ain't no surer way to find out whether you
 like people or hate them than to travel with them.
                                     -- Mark Twain
 Job cpu time:       0 days  0 hours  6 minutes 27.2 seconds.
 Elapsed time:       0 days  0 hours  0 minutes 17.3 seconds.
 File lengths (MBytes):  RWF=     22 Int=      0 D2E=      0 Chk=      3 Scr=      2
 Normal termination of Gaussian 16 at Tue Nov 19 11:54:34 2024.
