Title Card Required                                                     
FOpt      UM062X                                                      6-311+G(d,p)        
Number of atoms                            I                4
Info1-9                                    I   N=           9
          14          14           0           0           0         110
           2          18        -502
Full Title                                 C   N=           2
Title Card Required     
Route                                      C   N=           8
#p opt UM062X/6-311+G** nosymm int=superfine SCF=(MaxCycle=2
00,NoVarAcc,noincfock) guess=read   
Charge                                     I                0
Multiplicity                               I                1
Number of electrons                        I               26
Number of alpha electrons                  I               13
Number of beta electrons                   I               13
Number of basis functions                  I               64
Number of independent functions            I               64
Number of point charges in /Mol/           I                0
Number of translation vectors              I                0
Atomic numbers                             I   N=           4
           8          16           1           1
Nuclear charges                            R   N=           4
  8.00000000E+00  1.60000000E+01  1.00000000E+00  1.00000000E+00
Current cartesian coordinates              R   N=          12
 -3.32784543E+00  8.11814654E-04  1.03721213E-02  3.32782103E+00  1.08689106E-04
 -1.04023360E-02 -3.32783645E+00  4.97225122E-04 -1.85326973E+00  3.42576017E+00
 -1.56498242E+00 -2.44243678E+00
Number of symbols in /Mol/                 I                0
Force Field                                I                0
Atom Types                                 C   N=           4
                                                
Int Atom Types                             I   N=           4
           0           0           0           0
MM charges                                 R   N=           4
  0.00000000E+00  0.00000000E+00  0.00000000E+00  0.00000000E+00
Integer atomic weights                     I   N=           4
          16          32           1           1
Real atomic weights                        R   N=           4
  1.59949146E+01  3.19720718E+01  1.00782504E+00  1.00782504E+00
Atom fragment info                         I   N=           4
           0           0           0           0
Atom residue num                           I   N=           4
           0           0           0           0
Nuclear spins                              I   N=           4
           0           0           1           1
Nuclear ZEff                               R   N=           4
 -5.60000000E+00 -1.36000000E+01 -1.00000000E+00 -1.00000000E+00
Nuclear ZNuc                               R   N=           4
  8.00000000E+00  1.60000000E+01  1.00000000E+00  1.00000000E+00
Nuclear QMom                               R   N=           4
  0.00000000E+00  0.00000000E+00  0.00000000E+00  0.00000000E+00
Nuclear GFac                               R   N=           4
  0.00000000E+00  0.00000000E+00  2.79284600E+00  2.79284600E+00
MicOpt                                     I   N=           4
          -2          -2          -1          -1
Number of residues                         I                0
Number of secondary structures             I                0
Redundant internal dimensions              I   N=           4
          12           8           4           0
Redundant internal coordinate indices      I   N=          48
           1          -1           0           0           1          -2
           0           0           1          -3           0           0
           2          -1           0           0           2          -2
           0           0           2          -3           0           0
           1           3           0           0           2           4
           0           0           2           1           3          -5
           1           2           4          -5           2           1
           3          -7           1           2           4          -7
Redundant internal coordinates             R   N=          12
 -3.32784543E+00  8.11814654E-04  1.03721213E-02  3.32782103E+00  1.08689106E-04
 -1.04023360E-02  1.86364188E+00  2.89376809E+00  1.54213194E+00  4.64978755E+00
  4.71551511E+00  1.61416634E+00
ZRed-IntVec                                I   N=          12
          -1          -1          -1          -1          -1          -1
           0           0           0           0           0           0
ZRed-FPVec                                 R   N=          12
  0.00000000E+00  0.00000000E+00  0.00000000E+00  0.00000000E+00  0.00000000E+00
  0.00000000E+00  0.00000000E+00  0.00000000E+00  0.00000000E+00  0.00000000E+00
  0.00000000E+00  0.00000000E+00
ZRed-Constraint1                           R   N=          12
 -3.32781999E+00  0.00000000E+00  0.00000000E+00  3.32781999E+00  0.00000000E+00
  0.00000000E+00  1.83597177E+00  2.59721753E+00  3.14071774E+00  3.14233270E+00
  3.14159265E+00  3.14158686E+00
ZRed-Constraint2                           R   N=          12
 -3.32781999E+00  0.00000000E+00  0.00000000E+00  3.32781999E+00  0.00000000E+00
  0.00000000E+00  0.00000000E+00  0.00000000E+00  0.00000000E+00  0.00000000E+00
  0.00000000E+00  0.00000000E+00
Number of contracted shells                I               27
Number of primitive shells                 I               49
Pure/Cartesian d shells                    I                0
Pure/Cartesian f shells                    I                0
Highest angular momentum                   I                2
Largest degree of contraction              I                6
Shell types                                I   N=          27
           0          -1          -1          -1          -1          -2
           0           0           0           0           0           0
          -1           1           1           1           1           1
          -2           0           0           0           1           0
           0           0           1
Number of primitives per shell             I   N=          27
           6           3           1           1           1           1
           6           3           1           1           1           1
           1           4           2           1           1           1
           1           3           1           1           1           3
           1           1           1
Shell to atom map                          I   N=          27
           1           1           1           1           1           1
           2           2           2           2           2           2
           2           2           2           2           2           2
           2           3           3           3           3           4
           4           4           4
Primitive exponents                        R   N=          49
  8.58850000E+03  1.29723000E+03  2.99296000E+02  8.73771000E+01  2.56789000E+01
  3.74004000E+00  4.21175000E+01  9.62837000E+00  2.85332000E+00  9.05661000E-01
  2.55611000E-01  8.45000000E-02  1.29200000E+00  9.34134000E+04  1.39617000E+04
  3.16991000E+03  9.02456000E+02  2.97158000E+02  1.08702000E+02  1.08702000E+02
  4.31553000E+01  1.81079000E+01  5.56009000E+00  2.13183000E+00  4.20403000E-01
  1.36045000E-01  4.05000000E-02  4.95040000E+02  1.17221000E+02  3.77749000E+01
  1.40584000E+01  5.56574000E+00  2.26297000E+00  8.07994000E-01  2.77460000E-01
  7.71410000E-02  6.50000000E-01  3.38650000E+01  5.09479000E+00  1.15879000E+00
  3.25840000E-01  1.02741000E-01  7.50000000E-01  3.38650000E+01  5.09479000E+00
  1.15879000E+00  3.25840000E-01  1.02741000E-01  7.50000000E-01
Contraction coefficients                   R   N=          49
  1.89515008E-03  1.43859006E-02  7.07320031E-02  2.40001011E-01  5.94797026E-01
  2.80802012E-01  1.13889012E-01  9.20811101E-01 -3.27447036E-03  1.00000000E+00
  1.00000000E+00  1.00000000E+00  1.00000000E+00  7.42999957E-04  5.79299966E-03
  2.99539983E-02  1.19027993E-01  3.68431979E-01  5.77298966E-01  1.43186060E-01
  6.24465262E-01  2.83366119E-01  1.00000000E+00  1.00000000E+00  1.00000000E+00
  1.00000000E+00  1.00000000E+00  8.30900251E-03  6.40240194E-02  2.77614084E-01
  7.45076225E-01  6.13711672E-01  4.43817763E-01  1.00000000E+00  1.00000000E+00
  1.00000000E+00  1.00000000E+00  2.54938145E-02  1.90373109E-01  8.52161486E-01
  1.00000000E+00  1.00000000E+00  1.00000000E+00  2.54938145E-02  1.90373109E-01
  8.52161486E-01  1.00000000E+00  1.00000000E+00  1.00000000E+00
P(S=P) Contraction coefficients            R   N=          49
  0.00000000E+00  0.00000000E+00  0.00000000E+00  0.00000000E+00  0.00000000E+00
  0.00000000E+00  3.65113974E-02  2.37152983E-01  8.19701941E-01  1.00000000E+00
  1.00000000E+00  1.00000000E+00  0.00000000E+00  0.00000000E+00  0.00000000E+00
  0.00000000E+00  0.00000000E+00  0.00000000E+00  0.00000000E+00  0.00000000E+00
  0.00000000E+00  0.00000000E+00  0.00000000E+00  0.00000000E+00  0.00000000E+00
  0.00000000E+00  1.00000000E+00  0.00000000E+00  0.00000000E+00  0.00000000E+00
  0.00000000E+00  0.00000000E+00  0.00000000E+00  0.00000000E+00  0.00000000E+00
  0.00000000E+00  0.00000000E+00  0.00000000E+00  0.00000000E+00  0.00000000E+00
  0.00000000E+00  0.00000000E+00  0.00000000E+00  0.00000000E+00  0.00000000E+00
  0.00000000E+00  0.00000000E+00  0.00000000E+00  0.00000000E+00
Coordinates of each shell                  R   N=          81
 -3.32784543E+00  8.11814654E-04  1.03721213E-02 -3.32784543E+00  8.11814654E-04
  1.03721213E-02 -3.32784543E+00  8.11814654E-04  1.03721213E-02 -3.32784543E+00
  8.11814654E-04  1.03721213E-02 -3.32784543E+00  8.11814654E-04  1.03721213E-02
 -3.32784543E+00  8.11814654E-04  1.03721213E-02  3.32782103E+00  1.08689106E-04
 -1.04023360E-02  3.32782103E+00  1.08689106E-04 -1.04023360E-02  3.32782103E+00
  1.08689106E-04 -1.04023360E-02  3.32782103E+00  1.08689106E-04 -1.04023360E-02
  3.32782103E+00  1.08689106E-04 -1.04023360E-02  3.32782103E+00  1.08689106E-04
 -1.04023360E-02  3.32782103E+00  1.08689106E-04 -1.04023360E-02  3.32782103E+00
  1.08689106E-04 -1.04023360E-02  3.32782103E+00  1.08689106E-04 -1.04023360E-02
  3.32782103E+00  1.08689106E-04 -1.04023360E-02  3.32782103E+00  1.08689106E-04
 -1.04023360E-02  3.32782103E+00  1.08689106E-04 -1.04023360E-02  3.32782103E+00
  1.08689106E-04 -1.04023360E-02 -3.32783645E+00  4.97225122E-04 -1.85326973E+00
 -3.32783645E+00  4.97225122E-04 -1.85326973E+00 -3.32783645E+00  4.97225122E-04
 -1.85326973E+00 -3.32783645E+00  4.97225122E-04 -1.85326973E+00  3.42576017E+00
 -1.56498242E+00 -2.44243678E+00  3.42576017E+00 -1.56498242E+00 -2.44243678E+00
  3.42576017E+00 -1.56498242E+00 -2.44243678E+00  3.42576017E+00 -1.56498242E+00
 -2.44243678E+00
Num ILSW                                   I              100
ILSW                                       I   N=         100
           1           0           0           0           2           0
           0           0           0           0        4336          -1
           7           0           0           0           0           0
           0           0           0           0           1           0
           0           1           1           0           0           0
           0           0      100000           0          -1           0
           0           0           0           0           0           0
           0           0           0           1           0           0
           0 -2000000000           1           0           0           0
           0           0           4          52           0           0
           0           0          55           0           0           0
           0           0           0           4           0           1
           0           0           0           0           0           0
           0           0           0           0           0           0
           0           0           0           0           0           0
           0           0           0           0           0           0
           0           0           0           0
Num RLSW                                   I               52
RLSW                                       R   N=          52
  1.00000000E+00  1.00000000E+00  1.00000000E+00  1.00000000E+00  5.40000000E-01
  0.00000000E+00  0.00000000E+00  1.00000000E+00  0.00000000E+00  0.00000000E+00
  0.00000000E+00  0.00000000E+00  1.00000000E+00  0.00000000E+00  0.00000000E+00
  0.00000000E+00  0.00000000E+00  1.00000000E+00  0.00000000E+00  0.00000000E+00
  0.00000000E+00  0.00000000E+00  1.00000000E+00  0.00000000E+00  0.00000000E+00
  0.00000000E+00  0.00000000E+00  1.00000000E+00  0.00000000E+00  0.00000000E+00
  0.00000000E+00  0.00000000E+00  1.00000000E+00  0.00000000E+00  0.00000000E+00
  0.00000000E+00  0.00000000E+00  0.00000000E+00  1.00000000E+00  1.00000000E+00
  0.00000000E+00  1.00000000E+00  0.00000000E+00  0.00000000E+00  0.00000000E+00
  0.00000000E+00  0.00000000E+00  0.00000000E+00  0.00000000E+00  0.00000000E+00
  0.00000000E+00  0.00000000E+00
MxBond                                     I                2
NBond                                      I   N=           4
           2           2           1           1
IBond                                      I   N=           8
           2           3           1           4           1           0
           2           0
RBond                                      R   N=           8
  1.00000000E-01  1.00000000E+00  1.00000000E-01  1.00000000E+00  1.00000000E+00
  0.00000000E+00  1.00000000E+00  0.00000000E+00
Virial Ratio                               R      2.002088173003593E+00
SCF Energy                                 R     -4.743586927528476E+02
Total Energy                               R     -4.743586927528476E+02
S**2                                       R     -6.394884621840902E-14
S**2 after annihilation                    R     -8.721912081454881E-13
RMS Force                                  R      1.801583848096050E-02
RMS Density                                R      3.325814357717094E-09
Job Status                                 I                3
Nuclear derivative order                   I                1
External E-field                           R   N=          35
  0.00000000E+00  0.00000000E+00  0.00000000E+00  0.00000000E+00  0.00000000E+00
  0.00000000E+00  0.00000000E+00  0.00000000E+00  0.00000000E+00  0.00000000E+00
  0.00000000E+00  0.00000000E+00  0.00000000E+00  0.00000000E+00  0.00000000E+00
  0.00000000E+00  0.00000000E+00  0.00000000E+00  0.00000000E+00  0.00000000E+00
  0.00000000E+00  0.00000000E+00  0.00000000E+00  0.00000000E+00  0.00000000E+00
  0.00000000E+00  0.00000000E+00  0.00000000E+00  0.00000000E+00  0.00000000E+00
  0.00000000E+00  0.00000000E+00  0.00000000E+00  0.00000000E+00  0.00000000E+00
IOpCl                                      I                1
IROHF                                      I                0
Alpha Orbital Energies                     R   N=          64
 -8.99879180E+01 -1.96730963E+01 -8.34661662E+00 -6.26847322E+00 -6.26524228E+00
 -6.25917671E+00 -1.07935735E+00 -8.17302713E-01 -5.21242889E-01 -4.76056810E-01
 -3.95921623E-01 -3.56337190E-01 -3.37181873E-01 -2.24627616E-01 -1.52228624E-02
  4.05924990E-02  4.49085898E-02  5.11510860E-02  5.69885783E-02  1.29923676E-01
  1.93579595E-01  1.99448823E-01  2.17226951E-01  2.54536107E-01  3.15961088E-01
  3.39027290E-01  3.43960205E-01  3.69260242E-01  5.22171162E-01  5.82972922E-01
  7.17426747E-01  7.35418796E-01  7.85721407E-01  7.94784873E-01  8.74549221E-01
  1.04511596E+00  1.08042291E+00  1.09669598E+00  1.37496528E+00  1.37687365E+00
  1.37880425E+00  1.39346331E+00  1.39466218E+00  1.62379254E+00  1.65575333E+00
  1.67562204E+00  1.93136727E+00  2.03124303E+00  2.47458736E+00  2.47860866E+00
  2.88132884E+00  2.88834230E+00  3.14987263E+00  3.17312361E+00  3.82993415E+00
  5.03336604E+00  5.04327281E+00  5.48248479E+00  7.72855837E+00  1.73991138E+01
  1.74132044E+01  1.74296075E+01  4.98617811E+01  1.88972765E+02
Beta Orbital Energies                      R   N=          64
 -8.99879180E+01 -1.96730963E+01 -8.34661662E+00 -6.26847322E+00 -6.26524228E+00
 -6.25917671E+00 -1.07935735E+00 -8.17302713E-01 -5.21242889E-01 -4.76056810E-01
 -3.95921623E-01 -3.56337190E-01 -3.37181873E-01 -2.24627616E-01 -1.52228624E-02
  4.05924991E-02  4.49085898E-02  5.11510860E-02  5.69885784E-02  1.29923676E-01
  1.93579595E-01  1.99448823E-01  2.17226951E-01  2.54536107E-01  3.15961088E-01
  3.39027290E-01  3.43960205E-01  3.69260242E-01  5.22171162E-01  5.82972922E-01
  7.17426747E-01  7.35418796E-01  7.85721407E-01  7.94784873E-01  8.74549221E-01
  1.04511596E+00  1.08042291E+00  1.09669598E+00  1.37496528E+00  1.37687365E+00
  1.37880425E+00  1.39346331E+00  1.39466218E+00  1.62379254E+00  1.65575333E+00
  1.67562204E+00  1.93136727E+00  2.03124303E+00  2.47458736E+00  2.47860866E+00
  2.88132884E+00  2.88834230E+00  3.14987263E+00  3.17312361E+00  3.82993415E+00
  5.03336604E+00  5.04327281E+00  5.48248479E+00  7.72855837E+00  1.73991138E+01
  1.74132044E+01  1.74296075E+01  4.98617811E+01  1.88972765E+02
Alpha MO coefficients                      R   N=        4096
  2.02471208E-07 -8.98267260E-07 -3.50885135E-08  7.62849472E-08  1.85578540E-07
  6.88936731E-06  7.38263159E-07 -2.61013390E-07 -8.32822578E-07 -2.83122105E-05
 -1.41818431E-05  8.38844496E-07  6.93357563E-06  1.33089996E-04  3.29807655E-05
 -2.59287583E-06 -8.13491519E-05  2.04970057E-07 -1.30484162E-06  2.90406438E-08
  1.00982258E-06 -1.28908290E-07  4.10789447E-01  6.54418053E-01  1.53077171E-02
 -4.28370318E-03  1.52913391E-03 -8.83002618E-04  2.10935728E-04 -3.06503302E-05
 -3.42339812E-06 -5.86454848E-06 -1.60016307E-05 -4.07306087E-05 -6.43222139E-05
  3.37440536E-06  9.81917816E-06  1.55204792E-05  2.46645691E-07  5.29430795E-06
  8.14856643E-06 -6.81727812E-06 -3.68149175E-05 -5.74735572E-05  4.06320902E-05
  4.63222442E-05  7.42127976E-05  1.42227916E-05 -1.89966031E-06  2.34064637E-05
 -3.14721360E-06 -7.98762311E-07 -9.67574568E-07  1.64934313E-05 -1.61791058E-04
 -4.12669525E-06  1.98779374E-07 -6.44775348E-07  3.08754448E-05 -6.36152141E-05
  1.08703335E-04  2.04493331E-06 -4.31603250E-05 -6.73310150E-05  5.52845805E-01
  4.69710768E-01  1.64812008E-04 -6.00222194E-06 -1.25540412E-03  7.98724054E-03
 -1.88036405E-05  1.70953502E-06  1.68441100E-04 -3.08198145E-03 -1.19200696E-04
  5.08845682E-07 -1.45970214E-04  2.38439463E-03  3.05709886E-04 -5.18607138E-06
 -3.86589072E-04  1.18455166E-04 -1.33569688E-06  9.04691917E-08 -1.88833895E-05
  9.06603941E-08  4.79996768E-08 -6.56330260E-07  5.71898680E-06 -1.38927751E-05
  3.93204376E-05 -5.27929120E-06 -4.26636122E-04  2.88270114E-04  7.99721913E-06
 -1.22379867E-05 -5.55817405E-07  1.15975867E-07  1.45193093E-07  1.39560320E-05
 -2.21604713E-07 -6.74422797E-07 -4.49315920E-05  9.20294809E-07  2.41974544E-06
  5.08837730E-05 -3.02306142E-06 -6.57369151E-06  9.02544848E-07  6.81038481E-05
  1.24866303E-04  7.83488992E-06 -4.95410002E-07 -1.00896643E-05 -2.15395706E-05
 -1.24917868E-07  7.13790392E-05  8.21868910E-05 -1.07380448E-03  3.12247882E-06
  2.74608824E-07 -3.84949400E-04  2.83060576E-06 -1.59255454E-05  2.28384263E-04
 -1.09330981E-05  3.63307839E-06  4.68585629E-06 -9.76309650E-07 -4.37068240E-06
  2.13877741E-05  4.86709539E-07  3.35250000E-06  4.59366219E-05 -5.39596753E-06
 -2.56437559E-06 -1.59475698E-05 -2.32994387E-04 -8.20568791E-05  9.39621058E-06
  5.53991282E-05  1.59875975E-03  3.58029385E-04 -3.30510563E-05 -1.05203870E-03
  6.82057002E-06 -1.56509750E-05  3.12178484E-07  1.53953220E-05 -1.39167549E-06
 -1.19776219E-01 -3.20509072E-01  5.16045821E-01  5.99310896E-01  4.19851610E-02
 -1.44025998E-02  3.32215566E-03 -4.49718005E-04 -5.56057215E-05 -9.43318265E-05
 -4.47938412E-04 -1.03436792E-03 -1.63766605E-03 -1.04358676E-03 -2.38487131E-03
 -3.77399997E-03 -1.14144469E-04 -1.64184881E-04 -2.67611334E-04 -5.17629654E-05
 -5.50015331E-04 -8.58467465E-04  5.11690628E-04  6.40087092E-04  1.02454457E-03
  1.33102066E-04 -4.05999774E-05  6.67593584E-04  3.80133226E-04 -2.14731080E-06
 -1.27175569E-05  1.55351985E-04 -2.08614595E-03 -5.68012575E-05  2.25464985E-06
 -2.55513546E-05  2.97762733E-04 -7.06186041E-04  1.44737593E-03  2.77256705E-05
 -5.95645929E-04 -9.28410316E-04  2.63180330E-06  1.28007933E-05  1.94124476E-05
  6.37933537E-07  4.55713156E-06 -1.22515460E-04 -1.06827342E-04 -2.22637654E-06
 -1.95784928E-05  2.84259514E-04  2.54193977E-04  6.61247241E-06 -7.72278827E-05
  1.85776915E-04  1.77554591E-04 -8.67191849E-06 -2.07094127E-04  1.36221315E-05
 -3.71654612E-06 -3.85006736E-08  2.29715580E-05  6.44085421E-08 -1.51686422E-04
 -4.16202953E-04  7.82145953E-04  5.94694033E-04  7.42204929E-05 -2.66041436E-05
 -8.45478030E-05 -2.49160271E-03  9.02194504E-06  7.63492512E-05  3.78710226E-01
 -1.21020077E-03 -1.26895144E-02  7.08603652E-01 -2.25944539E-03 -2.37392915E-02
  5.46970662E-02 -1.79330339E-04 -1.83649248E-03 -7.62067182E-03  2.46110256E-05
  2.48877926E-04  4.71468015E-03 -2.75018656E-06 -1.19028897E-04  4.85050466E-05
 -4.29112513E-04  3.52234142E-06 -6.35948809E-05 -2.68860209E-04 -1.70779888E-05
 -1.19798002E-04 -3.90472681E-04 -1.88289623E-05 -1.66658187E-07 -4.42386684E-05
  3.55071313E-05 -3.87764560E-06  2.82284150E-05  9.15098487E-05 -3.79634108E-06
 -9.39261702E-06  4.50674802E-08  2.04811133E-07  1.43126108E-06 -3.38766025E-06
 -6.29042329E-06 -1.32991863E-06 -8.65030726E-06  1.45531205E-05  2.79002292E-05
 -1.24875748E-05  1.13797864E-05 -3.34474084E-05 -7.79495860E-05  8.04018025E-05
  3.74451217E-05  2.75028260E-05  6.80669334E-05  3.05143142E-06 -2.42056210E-07
  1.10994061E-06  7.93243456E-07 -2.64730863E-06 -7.62342826E-04 -2.06956411E-03
  3.72056165E-03  3.50832511E-03 -4.41334984E-04  6.96487399E-05 -5.44321933E-04
  1.12039852E-05 -1.13949449E-03 -1.76969447E-03  1.13356063E-02  2.05341508E-01
  3.18883667E-01  2.11867652E-02  3.83665145E-01  5.95808734E-01  1.59743438E-03
  2.91686869E-02  4.52975377E-02 -2.10957922E-04 -4.10188861E-03 -6.37149029E-03
  1.00187960E-04  2.49132490E-03  3.87023649E-03 -2.15596669E-04 -9.28084253E-05
 -3.23141914E-04  6.72455654E-05 -6.02468485E-05 -4.83594925E-06 -4.51206651E-05
  6.11731208E-05  1.85133276E-05  5.94411180E-06  3.77689428E-06 -4.56831653E-04
 -4.24245061E-04  1.01932630E-03 -8.23124506E-06 -1.55536727E-06 -2.94794375E-06
 -6.92500146E-08 -4.36319688E-07 -2.20269339E-07 -5.13561514E-06  3.61908394E-06
  4.50971203E-06  1.15771955E-06  2.21148959E-05 -1.62071121E-05 -1.10098626E-05
  1.27547862E-06 -5.27008504E-05  4.36087854E-05 -6.36151664E-06 -4.19356817E-06
  6.28873276E-05 -3.68338349E-05 -1.74479879E-06  1.54528679E-07  1.50019686E-06
 -2.64544624E-07 -3.15393430E-06  9.11201804E-06  2.48455866E-05 -4.51689447E-05
 -4.12546409E-05  6.56219591E-06 -2.52628859E-06  4.50731301E-06  3.54818300E-05
 -1.78406063E-03  1.14768241E-03 -5.87366850E-03  3.19873252E-01 -2.05770394E-01
 -1.09489939E-02  5.96375744E-01 -3.83640157E-01 -7.99802143E-04  4.34740694E-02
 -2.79667121E-02  1.09775910E-04 -5.82048698E-03  3.74630964E-03 -6.88733232E-05
  3.36204570E-03 -2.16522859E-03  3.31966631E-04  4.93260128E-05 -1.79452873E-04
  1.90936721E-04 -6.40610826E-05  4.86011185E-06  1.39058933E-05  4.60506193E-06
 -9.03996479E-06  7.15431743E-06 -1.50690774E-06 -4.16179027E-07  1.55287101E-06
 -2.34014025E-06 -1.36497138E-06  8.57600488E-05 -5.40886259E-05 -1.18960722E-01
 -1.96087081E-01  1.98587194E-04 -9.82796262E-05 -4.57681188E-02  5.77017301E-01
  6.43559658E-04 -1.51722701E-04 -7.38735439E-02  4.21807539E-01  1.89371929E-03
 -2.60051856E-04 -2.84023765E-02 -1.87008714E-02 -4.36309613E-03  2.80410246E-05
  5.97276531E-03  9.36930628E-03 -1.49311120E-04  3.44075282E-05  5.13678984E-03
 -1.01198106E-04  2.68758231E-04  7.67963473E-04 -1.64668217E-03 -2.73243529E-03
  3.70758667E-03  5.04753264E-03  7.65261036E-03 -4.24789876E-03 -4.48512024E-05
 -3.02073087E-05  7.01371861E-04  3.03507069E-05  4.42071988E-05  1.26401507E-03
  5.76799198E-05  8.50104190E-05 -1.22586321E-03 -4.40048425E-05 -6.65440138E-05
 -5.13651607E-03 -2.21973606E-04 -2.45475990E-04 -2.58953606E-03 -1.61170032E-03
 -2.83866621E-03 -4.14316960E-04  1.47422606E-04  2.50460801E-04  9.49640025E-04
  7.37256973E-05  1.07076634E-01  8.89189451E-02  1.68399027E-02  1.79484992E-05
 -8.54422679E-05  2.61238943E-02  4.33703985E-04 -6.39622617E-05 -4.33619324E-03
  1.12696325E-04 -5.85664106E-05 -7.94565688E-05  1.46846467E-03  2.45766553E-03
  4.56456453E-03 -5.58409171E-05  1.09302616E-03 -7.95169431E-03  7.04368555E-03
 -9.11088642E-05  1.66204092E-03 -2.95381097E-03  7.20847331E-03 -5.98931415E-05
  3.20230868E-04 -8.04053456E-03 -1.09972614E-03  4.00721561E-05  4.85806418E-03
 -3.37018572E-04 -2.29338688E-04  3.35395678E-06  3.06690012E-04 -1.05255284E-05
  3.43107499E-02  9.75124622E-02 -2.04863185E-01 -3.80018514E-01  6.92816976E-01
  4.37686792E-01 -1.42927040E-02  7.65384390E-04 -1.66443681E-04  4.04807298E-04
 -1.05616961E-03  5.83232573E-03  9.28527825E-03 -2.00831296E-03  1.17416396E-02
  1.86747124E-02  2.24538447E-03 -1.59529573E-02 -2.52652933E-02  7.61160009E-03
 -2.63130095E-02 -4.22585739E-02  6.76998428E-04 -3.70134330E-03 -7.80795587E-03
  6.40338107E-03 -8.37006147E-04  1.80286597E-02  5.52579738E-03 -3.04571890E-04
 -1.72931365E-03 -3.03471082E-03  1.06676940E-02  8.54056584E-04 -8.45951678E-06
 -5.02041462E-04  7.28249420E-02  1.04870235E-01  1.00406499E-02 -4.00796479E-04
  1.03767911E-02  1.59683955E-02 -3.90308223E-02 -6.53460296E-02 -2.54971481E-04
  5.29682326E-05  2.50619858E-01  1.99489292E-01 -2.99619353E-04  6.89199074E-05
  3.61739129E-01  2.82418386E-01  4.74691437E-04 -3.42092955E-05  2.42813258E-01
  6.27494293E-02 -1.24559757E-03  2.77251023E-04  2.30352482E-02 -1.90183721E-02
  6.02488769E-04 -4.47307428E-05  1.62812003E-03 -2.47537013E-05  2.25258941E-04
  6.49253082E-04 -1.44526832E-03 -2.35438602E-03  3.82130943E-03  6.68020516E-03
  1.27075568E-03  1.28528417E-03 -2.40206689E-04  1.46333307E-04  9.97891953E-04
 -9.60090208E-04 -2.39294885E-03  1.90233367E-03 -1.87669003E-03 -4.65858546E-03
 -2.46935269E-03  2.67759323E-03  6.69352881E-03 -5.96429078E-03  4.90407754E-03
  1.22877381E-02 -4.43027168E-03  8.53763450E-04  5.06545508E-03 -1.27517102E-03
 -4.27340115E-04 -1.14497803E-03  9.34397528E-04  1.30176829E-04 -1.65731219E-01
 -2.62650355E-01 -9.03010550E-02 -5.33783788E-04  2.02645566E-04 -3.03519944E-02
 -5.08239669E-03 -9.13617680E-03 -5.07954614E-03  1.34181757E-04 -5.56567045E-04
 -7.31137417E-04  1.74524948E-03  2.91558861E-03  5.26195341E-03  2.93805849E-03
 -9.50989770E-03 -8.80247825E-03  8.06690659E-03  4.42768263E-03 -1.34664123E-02
 -1.40623067E-02  6.80078512E-03  3.37799156E-03 -9.92801566E-03  9.32363576E-03
  4.71730345E-03  1.74873986E-03 -4.82045104E-03  5.74385575E-04 -1.89824557E-04
 -1.43725057E-04  1.06353096E-04  9.24059717E-05  1.03779990E-02  2.97110254E-02
 -6.44127229E-02 -1.15294618E-01  2.17683730E-01  2.29219792E-01  1.92315837E-02
 -4.23988792E-04 -1.42195954E-02 -2.18889601E-02  1.20426844E-03 -4.29584968E-02
 -6.65309044E-02  2.35255455E-03 -8.35474678E-02 -1.29400013E-01 -3.27249506E-03
  1.20416309E-01  1.86543773E-01 -6.13405993E-03  2.29387614E-01  3.54963224E-01
  4.45219985E-03  6.54249559E-02  1.01272091E-01 -2.89300780E-02  2.59599039E-03
 -3.68775029E-02  1.59734988E-02  1.75456789E-03  5.72944063E-03  1.06412924E-02
 -7.80987133E-03  3.88180478E-04  4.06932881E-04  1.15540034E-03 -1.53358689E-01
 -2.97170261E-01 -1.54286906E-01  2.96422810E-04 -1.39934504E-02 -2.12728121E-02
 -1.17166839E-04 -1.96955901E-04  1.86777499E-03  3.04994155E-01  5.63457569E-05
  6.46504112E-04  2.68887632E-03  4.47068658E-01  4.75494559E-05  9.54178865E-04
  2.50654613E-03  4.03010465E-01  3.24111213E-04 -3.25946256E-03 -1.54973663E-04
  8.76522243E-02  1.47210455E-03  3.42215561E-05 -8.51706834E-05 -1.44819892E-02
  7.54258084E-05  6.80706224E-04 -1.40063928E-04 -4.01086003E-04  8.70793864E-04
  1.56951740E-03 -2.94462959E-03 -3.34215261E-03  6.48403586E-04  2.47512665E-04
  5.23729121E-04  1.45119660E-03  1.50223764E-06 -3.37632328E-03  3.48311559E-03
  1.46883832E-06 -6.47061284E-03  6.73416666E-03 -1.29341854E-05  9.37165296E-03
 -9.94676407E-03  3.20657409E-05  1.97955380E-02 -1.95952291E-02 -5.71671858E-04
  1.12763211E-02 -9.51211353E-03  9.72013698E-04 -9.63767719E-05  2.76707129E-04
  5.77135175E-05 -1.03431186E-03 -7.30759425E-07  1.94384238E-04  1.98770645E-03
  2.13927206E-04  3.55738077E-02  2.99848893E-05  2.21038205E-03  5.98026512E-03
  8.46336669E-04  1.67956703E-04  8.99695755E-04 -2.65754735E-05 -8.13893863E-05
 -1.28835896E-04  7.03260767E-03 -1.69924272E-02  2.70509446E-03  1.73691918E-04
  1.05793229E-02 -2.48304297E-02  3.80858832E-03  2.42621418E-03  9.87464923E-03
 -2.29493031E-02  2.41150066E-03 -7.64699802E-03  1.99824930E-03 -4.83144201E-03
  3.92695469E-03 -1.93142098E-04 -5.33298313E-04  8.09208109E-04  7.92068001E-05
  2.11860584E-04 -1.19664036E-04 -3.37745898E-04  6.90249518E-04  1.53102545E-03
 -4.00431473E-03 -1.59163733E-04  6.10568107E-03  1.92453880E-03 -5.00159521E-02
  3.19724248E-02  4.09148746E-03 -8.68851220E-02  5.60987621E-02  7.90533707E-03
 -1.67269902E-01  1.07990745E-01 -1.13602926E-02  2.47258537E-01 -1.59559448E-01
 -2.37355434E-02  5.07168093E-01 -3.27507979E-01 -1.56291254E-02  2.77550169E-01
 -1.83315332E-01  1.16100111E-02 -9.39687991E-05 -6.64671291E-03  6.71843040E-03
  1.55217541E-03 -1.47303376E-03 -4.27518807E-03  8.67050647E-03  1.17466448E-03
 -1.83646766E-03 -6.26734834E-04 -3.13641041E-04 -1.09880693E-03 -3.92804216E-03
 -6.43148290E-04  1.48358377E-02 -9.88033958E-03 -3.11639349E-03 -5.25908254E-03
 -2.12818563E-01  2.83840788E-04  4.00017589E-04  1.69715840E-02 -3.21393301E-01