 Entering Gaussian System, Link 0=g16
 Initial command:
 /home/szhao/Apps/g16/l1.exe "/home/szhao/tmp/Gau-162897.inp" -scrdir="/home/szhao/tmp/"
 Default is to use a total of  16 processors:
                               16 via shared-memory
                                1 via Linda
 Entering Link 1 = /home/szhao/Apps/g16/l1.exe PID=    162899.
  
 Copyright (c) 1988,1990,1992,1993,1995,1998,2003,2009,2016,
            Gaussian, Inc.  All Rights Reserved.
  
 This is part of the Gaussian(R) 16 program.  It is based on
 the Gaussian(R) 09 system (copyright 2009, Gaussian, Inc.),
 the Gaussian(R) 03 system (copyright 2003, Gaussian, Inc.),
 the Gaussian(R) 98 system (copyright 1998, Gaussian, Inc.),
 the Gaussian(R) 94 system (copyright 1995, Gaussian, Inc.),
 the Gaussian 92(TM) system (copyright 1992, Gaussian, Inc.),
 the Gaussian 90(TM) system (copyright 1990, Gaussian, Inc.),
 the Gaussian 88(TM) system (copyright 1988, Gaussian, Inc.),
 the Gaussian 86(TM) system (copyright 1986, Carnegie Mellon
 University), and the Gaussian 82(TM) system (copyright 1983,
 Carnegie Mellon University). Gaussian is a federally registered
 trademark of Gaussian, Inc.
  
 This software contains proprietary and confidential information,
 including trade secrets, belonging to Gaussian, Inc.
  
 This software is provided under written license and may be
 used, copied, transmitted, or stored only in accord with that
 written license.
  
 The following legend is applicable only to US Government
 contracts under FAR:
  
                    RESTRICTED RIGHTS LEGEND
  
 Use, reproduction and disclosure by the US Government is
 subject to restrictions as set forth in subparagraphs (a)
 and (c) of the Commercial Computer Software - Restricted
 Rights clause in FAR 52.227-19.
  
 Gaussian, Inc.
 340 Quinnipiac St., Bldg. 40, Wallingford CT 06492
  
  
 ---------------------------------------------------------------
 Warning -- This program may not be used in any manner that
 competes with the business of Gaussian, Inc. or will provide
 assistance to any competitor of Gaussian, Inc.  The licensee
 of this program is prohibited from giving any competitor of
 Gaussian, Inc. access to this program.  By using this program,
 the user acknowledges that Gaussian, Inc. is engaged in the
 business of creating and licensing software in the field of
 computational chemistry and represents and warrants to the
 licensee that it is not a competitor of Gaussian, Inc. and that
 it will not use this program in any manner prohibited above.
 ---------------------------------------------------------------
  

 Cite this work as:
 Gaussian 16, Revision A.03,
 M. J. Frisch, G. W. Trucks, H. B. Schlegel, G. E. Scuseria, 
 M. A. Robb, J. R. Cheeseman, G. Scalmani, V. Barone, 
 G. A. Petersson, H. Nakatsuji, X. Li, M. Caricato, A. V. Marenich, 
 J. Bloino, B. G. Janesko, R. Gomperts, B. Mennucci, H. P. Hratchian, 
 J. V. Ortiz, A. F. Izmaylov, J. L. Sonnenberg, D. Williams-Young, 
 F. Ding, F. Lipparini, F. Egidi, J. Goings, B. Peng, A. Petrone, 
 T. Henderson, D. Ranasinghe, V. G. Zakrzewski, J. Gao, N. Rega, 
 G. Zheng, W. Liang, M. Hada, M. Ehara, K. Toyota, R. Fukuda, 
 J. Hasegawa, M. Ishida, T. Nakajima, Y. Honda, O. Kitao, H. Nakai, 
 T. Vreven, K. Throssell, J. A. Montgomery, Jr., J. E. Peralta, 
 F. Ogliaro, M. J. Bearpark, J. J. Heyd, E. N. Brothers, K. N. Kudin, 
 V. N. Staroverov, T. A. Keith, R. Kobayashi, J. Normand, 
 K. Raghavachari, A. P. Rendell, J. C. Burant, S. S. Iyengar, 
 J. Tomasi, M. Cossi, J. M. Millam, M. Klene, C. Adamo, R. Cammi, 
 J. W. Ochterski, R. L. Martin, K. Morokuma, O. Farkas, 
 J. B. Foresman, and D. J. Fox, Gaussian, Inc., Wallingford CT, 2016.
 
 ******************************************
 Gaussian 16:  ES64L-G16RevA.03 25-Dec-2016
                21-Apr-2025 
 ******************************************
 %chk=opt.chk
 %mem=4GB
 %nprocshared=8
 Will use up to    8 processors via shared memory.
 --------------------------------------------
 #p opt UM062X/6-311+G** nosymm int=superfine
 --------------------------------------------
 1/18=20,19=15,26=5,38=1/1,3;
 2/9=110,12=2,15=1,17=6,18=5,40=1/2;
 3/5=4,6=6,7=111,11=2,25=1,30=1,71=1,74=-55,75=-7,116=2/1,2,3;
 4//1;
 5/5=2,38=5/2;
 6/7=2,8=2,9=2,10=2,28=1/1;
 7/30=1/1,2,3,16;
 1/18=20,19=15,26=5/3(2);
 2/9=110,15=1/2;
 99//99;
 2/9=110,15=1/2;
 3/5=4,6=6,7=111,11=2,25=1,30=1,71=1,74=-55,75=-7,116=2/1,2,3;
 4/5=5,16=3,69=1/1;
 5/5=2,38=5/2;
 7/30=1/1,2,3,16;
 1/18=20,19=15,26=5/3(-5);
 2/9=110,15=1/2;
 6/7=2,8=2,9=2,10=2,19=2,28=1/1;
 99/9=1/99;
 Leave Link    1 at Mon Apr 21 21:23:35 2025, MaxMem=   536870912 cpu:               3.9 elap:               0.4
 (Enter /home/szhao/Apps/g16/l101.exe)
 -------------------
 Title Card Required
 -------------------
 Symbolic Z-matrix:
 Charge =  0 Multiplicity = 1
 Si                   -1   -1.47871   0.        0. 
 Si                   -1    1.47871   0.        0. 
 H                    0    -2.93708  -0.00003   0. 
 H                    0     2.93708   0.00004   0. 
 
 Add virtual bond connecting atoms Si2        and Si1        Dist= 5.59D+00.
 ITRead=  2  2  0  0
 MicOpt= -2 -2 -1 -1
 NAtoms=      4 NQM=        2 NQMF=       2 NMMI=      0 NMMIF=      0
                NMic=       0 NMicF=      0.
                    Isotopes and Nuclear Properties:
 (Nuclear quadrupole moments (NQMom) in fm**2, nuclear magnetic moments (NMagM)
  in nuclear magnetons)

  Atom         1           2           3           4
 IAtWgt=          28          28           1           1
 AtmWgt=  27.9769284  27.9769284   1.0078250   1.0078250
 NucSpn=           0           0           1           1
 AtZEff=  -0.0000000  -0.0000000  -0.0000000  -0.0000000
 NQMom=    0.0000000   0.0000000   0.0000000   0.0000000
 NMagM=    0.0000000   0.0000000   2.7928460   2.7928460
 AtZNuc=  14.0000000  14.0000000   1.0000000   1.0000000
 Leave Link  101 at Mon Apr 21 21:23:37 2025, MaxMem=   536870912 cpu:               3.2 elap:               0.4
 (Enter /home/szhao/Apps/g16/l103.exe)

 GradGradGradGradGradGradGradGradGradGradGradGradGradGradGradGradGradGrad
 Berny optimization.
 Initialization pass.
                           ----------------------------
                           !    Initial Parameters    !
                           ! (Angstroms and Degrees)  !
 --------------------------                            --------------------------
 ! Name  Definition              Value          Derivative Info.                !
 --------------------------------------------------------------------------------
 ! X1    R(1,-1)                -1.4787         Frozen                          !
 ! Y1    R(1,-2)                 0.0            Frozen                          !
 ! Z1    R(1,-3)                 0.0            Frozen                          !
 ! X2    R(2,-1)                 1.4787         Frozen                          !
 ! Y2    R(2,-2)                 0.0            Frozen                          !
 ! Z2    R(2,-3)                 0.0            Frozen                          !
 ! R1    R(1,3)                  1.4584         estimate D2E/DX2                !
 ! R2    R(2,4)                  1.4584         estimate D2E/DX2                !
 ! A1    L(2,1,3,-3,-1)        179.9989         estimate D2E/DX2                !
 ! A2    L(1,2,4,-3,-1)        179.9985         estimate D2E/DX2                !
 ! A3    L(2,1,3,-2,-2)        180.0            estimate D2E/DX2                !
 ! A4    L(1,2,4,-2,-2)        180.0            estimate D2E/DX2                !
 --------------------------------------------------------------------------------
 Trust Radius=3.00D-01 FncErr=1.00D-07 GrdErr=1.00D-07 EigMax=2.50D+02 EigMin=1.00D-04
 Number of steps in this run=     22 maximum allowed number of steps=    100.
 GradGradGradGradGradGradGradGradGradGradGradGradGradGradGradGradGradGrad

 Leave Link  103 at Mon Apr 21 21:23:37 2025, MaxMem=   536870912 cpu:               0.9 elap:               0.2
 (Enter /home/szhao/Apps/g16/l202.exe)
                          Input orientation:                          
 ---------------------------------------------------------------------
 Center     Atomic      Atomic             Coordinates (Angstroms)
 Number     Number       Type             X           Y           Z
 ---------------------------------------------------------------------
      1         14           0       -1.478705    0.000000    0.000000
      2         14           0        1.478705    0.000000    0.000000
      3          1           0       -2.937080   -0.000027    0.000000
      4          1           0        2.937080    0.000038    0.000000
 ---------------------------------------------------------------------
                    Distance matrix (angstroms):
                    1          2          3          4
     1  Si   0.000000
     2  Si   2.957410   0.000000
     3  H    1.458375   4.415785   0.000000
     4  H    4.415785   1.458375   5.874160   0.000000
 Symmetry turned off by external request.
 Stoichiometry    H2Si2
 Framework group  C*V[C*(HSiSiH)]
 Deg. of freedom     3
 Full point group                 C*V     NOp   4
 Rotational constants (GHZ):           0.0000000           3.6167006           3.6167006
 Leave Link  202 at Mon Apr 21 21:23:38 2025, MaxMem=   536870912 cpu:               0.0 elap:               0.1
 (Enter /home/szhao/Apps/g16/l301.exe)
 Standard basis: 6-311+G(d,p) (5D, 7F)
 Ernie: Thresh=  0.10000D-02 Tol=  0.10000D-05 Strict=F.
    72 basis functions,   116 primitive gaussians,    74 cartesian basis functions
    15 alpha electrons       15 beta electrons
       nuclear repulsion energy        48.6762509777 Hartrees.
 IExCor= 4336 DFT=T Ex+Corr=M062X ExCW=0 ScaHFX=  0.540000
 ScaDFX=  1.000000  1.000000  1.000000  1.000000 ScalE2=  1.000000  1.000000
 IRadAn=      7 IRanWt=     -1 IRanGd=            0 ICorTp=0 IEmpDi=  4
 NAtoms=    4 NActive=    4 NUniq=    4 SFac= 1.00D+00 NAtFMM=   60 NAOKFM=F Big=F
 Integral buffers will be    131072 words long.
 Raffenetti 2 integral format.
 Two-electron integral symmetry is turned off.
 Leave Link  301 at Mon Apr 21 21:23:38 2025, MaxMem=   536870912 cpu:               1.0 elap:               0.2
 (Enter /home/szhao/Apps/g16/l302.exe)
 NPDir=0 NMtPBC=     1 NCelOv=     1 NCel=       1 NClECP=     1 NCelD=      1
         NCelK=      1 NCelE2=     1 NClLst=     1 CellRange=     0.0.
 One-electron integrals computed using PRISM.
 NBasis=    72 RedAO= T EigKep=  2.89D-03  NBF=    72
 NBsUse=    72 1.00D-06 EigRej= -1.00D+00 NBFU=    72
 Precomputing XC quadrature grid using
 IXCGrd= 4 IRadAn=           7 IRanWt=          -1 IRanGd=           0 AccXCQ= 0.00D+00.
 Generated NRdTot=       0 NPtTot=           0 NUsed=           0 NTot=          32
 NSgBfM=    68    68    68    68    68 MxSgAt=     4 MxSgA2=     4.
 Leave Link  302 at Mon Apr 21 21:23:39 2025, MaxMem=   536870912 cpu:               2.2 elap:               0.5
 (Enter /home/szhao/Apps/g16/l303.exe)
 DipDrv:  MaxL=1.
 Leave Link  303 at Mon Apr 21 21:23:39 2025, MaxMem=   536870912 cpu:               0.8 elap:               0.3
 (Enter /home/szhao/Apps/g16/l401.exe)
 ExpMin= 3.31D-02 ExpMax= 6.94D+04 ExpMxC= 2.33D+03 IAcc=3 IRadAn=         7 AccDes= 0.00D+00
 Harris functional with IExCor= 1009 and IRadAn=       7 diagonalized for initial guess.
 HarFok:  IExCor= 1009 AccDes= 0.00D+00 IRadAn=         7 IDoV= 1 UseB2=F ITyADJ=14
 ICtDFT=  3500011 ScaDFX=  1.000000  1.000000  1.000000  1.000000
 FoFCou: FMM=F IPFlag=           0 FMFlag=      100000 FMFlg1=           0
         NFxFlg=           0 DoJE=T BraDBF=F KetDBF=T FulRan=T
         wScrn=  0.000000 ICntrl=       500 IOpCl=  0 I1Cent=   200000004 NGrid=           0
         NMat0=    1 NMatS0=      1 NMatT0=    0 NMatD0=    1 NMtDS0=    0 NMtDT0=    0
 Symmetry not used in FoFCou.
 Harris En= -579.596362898268    
 JPrj=0 DoOrth=F DoCkMO=F.
 Initial guess <Sx>= 0.0000 <Sy>= 0.0000 <Sz>= 0.0000 <S**2>=-0.0000 S=-0.0000
 Leave Link  401 at Mon Apr 21 21:23:40 2025, MaxMem=   536870912 cpu:               4.3 elap:               0.8
 (Enter /home/szhao/Apps/g16/l502.exe)
 Keep R1 and R2 ints in memory in canonical form, NReq=14118010.
 FoFCou: FMM=F IPFlag=           0 FMFlag=           0 FMFlg1=           0
         NFxFlg=           0 DoJE=F BraDBF=F KetDBF=F FulRan=T
         wScrn=  0.000000 ICntrl=       600 IOpCl=  0 I1Cent=           0 NGrid=           0
         NMat0=    1 NMatS0=   2628 NMatT0=    0 NMatD0=    1 NMtDS0=    0 NMtDT0=    0
 Symmetry not used in FoFCou.
 Two-electron integral symmetry not used.
 UHF open shell SCF:
 Using DIIS extrapolation, IDIIS=  1040.
 NGot=   536870912 LenX=   529949706 LenY=   529943789
 Requested convergence on RMS density matrix=1.00D-08 within 128 cycles.
 Requested convergence on MAX density matrix=1.00D-06.
 Requested convergence on             energy=1.00D-06.
 No special actions if energy rises.

 Cycle   1  Pass 1  IDiag  1:
 E= -579.877663209823    
 DIIS: error= 3.06D-02 at cycle   1 NSaved=   1.
 NSaved= 1 IEnMin= 1 EnMin= -579.877663209823     IErMin= 1 ErrMin= 3.06D-02
 ErrMax= 3.06D-02  0.00D+00 EMaxC= 1.00D-01 BMatC= 1.80D-01 BMatP= 1.80D-01
 IDIUse=3 WtCom= 6.94D-01 WtEn= 3.06D-01
 Coeff-Com:  0.100D+01
 Coeff-En:   0.100D+01
 Coeff:      0.100D+01
 Gap=     0.098 Goal=   None    Shift=    0.000
 Gap=     0.098 Goal=   None    Shift=    0.000
 GapD=    0.098 DampG=0.500 DampE=0.500 DampFc=0.2500 IDamp=-1.
 Damping current iteration by 2.50D-01
 RMSDP=5.03D-03 MaxDP=9.95D-02              OVMax= 8.80D-02

 Cycle   2  Pass 1  IDiag  1:
 E= -579.884283947679     Delta-E=       -0.006620737856 Rises=F Damp=T
 DIIS: error= 2.31D-02 at cycle   2 NSaved=   2.
 NSaved= 2 IEnMin= 2 EnMin= -579.884283947679     IErMin= 2 ErrMin= 2.31D-02
 ErrMax= 2.31D-02  0.00D+00 EMaxC= 1.00D-01 BMatC= 9.24D-02 BMatP= 1.80D-01
 IDIUse=3 WtCom= 7.69D-01 WtEn= 2.31D-01
 Coeff-Com: -0.231D+01 0.331D+01
 Coeff-En:   0.000D+00 0.100D+01
 Coeff:     -0.178D+01 0.278D+01
 Gap=     0.097 Goal=   None    Shift=    0.000
 Gap=     0.097 Goal=   None    Shift=    0.000
 RMSDP=3.27D-03 MaxDP=5.60D-02 DE=-6.62D-03 OVMax= 2.41D-02

 Cycle   3  Pass 1  IDiag  1:
 E= -579.901192732247     Delta-E=       -0.016908784568 Rises=F Damp=F
 DIIS: error= 5.24D-04 at cycle   3 NSaved=   3.
 NSaved= 3 IEnMin= 3 EnMin= -579.901192732247     IErMin= 3 ErrMin= 5.24D-04
 ErrMax= 5.24D-04  0.00D+00 EMaxC= 1.00D-01 BMatC= 7.74D-05 BMatP= 9.24D-02
 IDIUse=3 WtCom= 9.95D-01 WtEn= 5.24D-03
 Coeff-Com: -0.652D-01 0.772D-01 0.988D+00
 Coeff-En:   0.000D+00 0.000D+00 0.100D+01
 Coeff:     -0.648D-01 0.768D-01 0.988D+00
 Gap=     0.097 Goal=   None    Shift=    0.000
 Gap=     0.097 Goal=   None    Shift=    0.000
 RMSDP=3.09D-04 MaxDP=5.20D-03 DE=-1.69D-02 OVMax= 4.00D-03

 Cycle   4  Pass 1  IDiag  1:
 E= -579.901226362881     Delta-E=       -0.000033630634 Rises=F Damp=F
 DIIS: error= 1.64D-04 at cycle   4 NSaved=   4.
 NSaved= 4 IEnMin= 4 EnMin= -579.901226362881     IErMin= 4 ErrMin= 1.64D-04
 ErrMax= 1.64D-04  0.00D+00 EMaxC= 1.00D-01 BMatC= 2.61D-06 BMatP= 7.74D-05
 IDIUse=3 WtCom= 9.98D-01 WtEn= 1.64D-03
 Coeff-Com:  0.159D-01-0.230D-01 0.188D-01 0.988D+00
 Coeff-En:   0.000D+00 0.000D+00 0.000D+00 0.100D+01
 Coeff:      0.158D-01-0.229D-01 0.187D-01 0.988D+00
 Gap=     0.097 Goal=   None    Shift=    0.000
 Gap=     0.097 Goal=   None    Shift=    0.000
 RMSDP=4.32D-05 MaxDP=4.61D-04 DE=-3.36D-05 OVMax= 1.02D-03

 Cycle   5  Pass 1  IDiag  1:
 E= -579.901227944089     Delta-E=       -0.000001581208 Rises=F Damp=F
 DIIS: error= 2.58D-05 at cycle   5 NSaved=   5.
 NSaved= 5 IEnMin= 5 EnMin= -579.901227944089     IErMin= 5 ErrMin= 2.58D-05
 ErrMax= 2.58D-05  0.00D+00 EMaxC= 1.00D-01 BMatC= 1.44D-07 BMatP= 2.61D-06
 IDIUse=1 WtCom= 1.00D+00 WtEn= 0.00D+00
 Coeff-Com: -0.375D-02 0.533D-02-0.332D-01-0.472D-01 0.108D+01
 Coeff:     -0.375D-02 0.533D-02-0.332D-01-0.472D-01 0.108D+01
 Gap=     0.097 Goal=   None    Shift=    0.000
 Gap=     0.097 Goal=   None    Shift=    0.000
 RMSDP=2.15D-05 MaxDP=2.71D-04 DE=-1.58D-06 OVMax= 2.60D-04

 Cycle   6  Pass 1  IDiag  1:
 E= -579.901228046355     Delta-E=       -0.000000102266 Rises=F Damp=F
 DIIS: error= 6.97D-06 at cycle   6 NSaved=   6.
 NSaved= 6 IEnMin= 6 EnMin= -579.901228046355     IErMin= 6 ErrMin= 6.97D-06
 ErrMax= 6.97D-06  0.00D+00 EMaxC= 1.00D-01 BMatC= 3.53D-09 BMatP= 1.44D-07
 IDIUse=1 WtCom= 1.00D+00 WtEn= 0.00D+00
 Coeff-Com:  0.373D-03-0.456D-03-0.102D-02-0.243D-01 0.527D-01 0.973D+00
 Coeff:      0.373D-03-0.456D-03-0.102D-02-0.243D-01 0.527D-01 0.973D+00
 Gap=     0.097 Goal=   None    Shift=    0.000
 Gap=     0.097 Goal=   None    Shift=    0.000
 RMSDP=1.87D-06 MaxDP=2.09D-05 DE=-1.02D-07 OVMax= 4.56D-05

 Cycle   7  Pass 1  IDiag  1:
 E= -579.901228048639     Delta-E=       -0.000000002284 Rises=F Damp=F
 DIIS: error= 4.24D-07 at cycle   7 NSaved=   7.
 NSaved= 7 IEnMin= 7 EnMin= -579.901228048639     IErMin= 7 ErrMin= 4.24D-07
 ErrMax= 4.24D-07  0.00D+00 EMaxC= 1.00D-01 BMatC= 3.74D-11 BMatP= 3.53D-09
 IDIUse=1 WtCom= 1.00D+00 WtEn= 0.00D+00
 Coeff-Com:  0.566D-04-0.851D-04 0.592D-03 0.333D-02-0.264D-01-0.752D-01
 Coeff-Com:  0.110D+01
 Coeff:      0.566D-04-0.851D-04 0.592D-03 0.333D-02-0.264D-01-0.752D-01
 Coeff:      0.110D+01
 Gap=     0.097 Goal=   None    Shift=    0.000
 Gap=     0.097 Goal=   None    Shift=    0.000
 RMSDP=3.60D-07 MaxDP=4.01D-06 DE=-2.28D-09 OVMax= 6.60D-06

 Cycle   8  Pass 1  IDiag  1:
 E= -579.901228048685     Delta-E=       -0.000000000046 Rises=F Damp=F
 DIIS: error= 8.34D-08 at cycle   8 NSaved=   8.
 NSaved= 8 IEnMin= 8 EnMin= -579.901228048685     IErMin= 8 ErrMin= 8.34D-08
 ErrMax= 8.34D-08  0.00D+00 EMaxC= 1.00D-01 BMatC= 1.47D-12 BMatP= 3.74D-11
 IDIUse=1 WtCom= 1.00D+00 WtEn= 0.00D+00
 Coeff-Com: -0.198D-04 0.251D-04 0.684D-04 0.834D-03-0.320D-02-0.361D-01
 Coeff-Com:  0.106D+00 0.932D+00
 Coeff:     -0.198D-04 0.251D-04 0.684D-04 0.834D-03-0.320D-02-0.361D-01
 Coeff:      0.106D+00 0.932D+00
 Gap=     0.097 Goal=   None    Shift=    0.000
 Gap=     0.097 Goal=   None    Shift=    0.000
 RMSDP=2.68D-08 MaxDP=2.73D-07 DE=-4.56D-11 OVMax= 8.39D-07

 Cycle   9  Pass 1  IDiag  1:
 E= -579.901228048686     Delta-E=       -0.000000000001 Rises=F Damp=F
 DIIS: error= 1.37D-08 at cycle   9 NSaved=   9.
 NSaved= 9 IEnMin= 9 EnMin= -579.901228048686     IErMin= 9 ErrMin= 1.37D-08
 ErrMax= 1.37D-08  0.00D+00 EMaxC= 1.00D-01 BMatC= 3.80D-14 BMatP= 1.47D-12
 IDIUse=1 WtCom= 1.00D+00 WtEn= 0.00D+00
 Coeff-Com: -0.197D-05 0.294D-05-0.252D-04-0.836D-04 0.982D-03 0.215D-02
 Coeff-Com: -0.399D-01 0.437D-01 0.993D+00
 Coeff:     -0.197D-05 0.294D-05-0.252D-04-0.836D-04 0.982D-03 0.215D-02
 Coeff:     -0.399D-01 0.437D-01 0.993D+00
 Gap=     0.097 Goal=   None    Shift=    0.000
 Gap=     0.097 Goal=   None    Shift=    0.000
 RMSDP=8.55D-09 MaxDP=1.22D-07 DE=-1.25D-12 OVMax= 1.16D-07

 SCF Done:  E(UM062X) =  -579.901228049     A.U. after    9 cycles
            NFock=  9  Conv=0.85D-08     -V/T= 2.0012
 <Sx>= 0.0000 <Sy>= 0.0000 <Sz>= 0.0000 <S**2>=-0.0000 S=-0.0000
 <L.S>=  0.00000000000    
 KE= 5.792236670267D+02 PE=-1.479094224318D+03 EE= 2.712930782652D+02
 Annihilation of the first spin contaminant:
 S**2 before annihilation    -0.0000,   after     0.0000
 Leave Link  502 at Mon Apr 21 21:23:46 2025, MaxMem=   536870912 cpu:              40.1 elap:               5.8
 (Enter /home/szhao/Apps/g16/l601.exe)
 Copying SCF densities to generalized density rwf, IOpCl= 1 IROHF=0.

 **********************************************************************

            Population analysis using the SCF density.

 **********************************************************************

 Alpha  occ. eigenvalues --  -67.03255 -67.03255  -5.57851  -5.57851  -3.88909
 Alpha  occ. eigenvalues --   -3.88907  -3.88462  -3.88462  -3.88403  -3.88400
 Alpha  occ. eigenvalues --   -0.56545  -0.54421  -0.38076  -0.26162  -0.20245
 Alpha virt. eigenvalues --   -0.10562  -0.07731  -0.06394   0.02091   0.02986
 Alpha virt. eigenvalues --    0.04398   0.05026   0.05593   0.06310   0.07212
 Alpha virt. eigenvalues --    0.10824   0.11421   0.25468   0.29180   0.29746
 Alpha virt. eigenvalues --    0.30114   0.30464   0.32074   0.32402   0.38791
 Alpha virt. eigenvalues --    0.45732   0.48503   0.57670   0.58116   0.58852
 Alpha virt. eigenvalues --    0.62080   0.62601   0.62665   0.63185   0.63408
 Alpha virt. eigenvalues --    0.64496   0.83128   0.96544   1.20399   1.21453
 Alpha virt. eigenvalues --    1.24400   1.24650   1.25993   1.26733   1.49535
 Alpha virt. eigenvalues --    1.49914   1.49931   1.50302   2.01465   2.06356
 Alpha virt. eigenvalues --    2.63820   2.67487   5.49672   5.50102  11.42672
 Alpha virt. eigenvalues --   11.42684  11.45755  11.45776  11.53133  11.62274
 Alpha virt. eigenvalues --  141.06357 141.07588
  Beta  occ. eigenvalues --  -67.03255 -67.03255  -5.57851  -5.57851  -3.88909
  Beta  occ. eigenvalues --   -3.88907  -3.88462  -3.88462  -3.88403  -3.88400
  Beta  occ. eigenvalues --   -0.56545  -0.54421  -0.38076  -0.26162  -0.20245
  Beta virt. eigenvalues --   -0.10562  -0.07731  -0.06394   0.02091   0.02986
  Beta virt. eigenvalues --    0.04398   0.05026   0.05593   0.06310   0.07212
  Beta virt. eigenvalues --    0.10824   0.11421   0.25468   0.29180   0.29746
  Beta virt. eigenvalues --    0.30114   0.30464   0.32074   0.32402   0.38791
  Beta virt. eigenvalues --    0.45732   0.48503   0.57670   0.58116   0.58852
  Beta virt. eigenvalues --    0.62080   0.62601   0.62665   0.63185   0.63408
  Beta virt. eigenvalues --    0.64496   0.83128   0.96544   1.20399   1.21453
  Beta virt. eigenvalues --    1.24400   1.24650   1.25993   1.26733   1.49535
  Beta virt. eigenvalues --    1.49914   1.49931   1.50302   2.01465   2.06356
  Beta virt. eigenvalues --    2.63820   2.67487   5.49672   5.50102  11.42672
  Beta virt. eigenvalues --   11.42684  11.45755  11.45776  11.53133  11.62274
  Beta virt. eigenvalues --  141.06357 141.07588
          Condensed to atoms (all electrons):
               1          2          3          4
     1  Si  14.243489  -0.590308   0.161747   0.042107
     2  Si  -0.590308  14.243489   0.042107   0.161747
     3  H    0.161747   0.042107   0.939189  -0.000077
     4  H    0.042107   0.161747  -0.000077   0.939189
          Atomic-Atomic Spin Densities.
               1          2          3          4
     1  Si   0.000000  -0.000000   0.000000   0.000000
     2  Si  -0.000000   0.000000  -0.000000   0.000000
     3  H    0.000000  -0.000000  -0.000000   0.000000
     4  H    0.000000   0.000000   0.000000  -0.000000
 Mulliken charges and spin densities:
               1          2
     1  Si   0.142966   0.000000
     2  Si   0.142966  -0.000000
     3  H   -0.142966   0.000000
     4  H   -0.142966   0.000000
 Sum of Mulliken charges =  -0.00000  -0.00000
 Mulliken charges and spin densities with hydrogens summed into heavy atoms:
               1          2
     1  Si  -0.000000   0.000000
     2  Si   0.000000  -0.000000
 Electronic spatial extent (au):  <R**2>=            347.4162
 Charge=             -0.0000 electrons
 Dipole moment (field-independent basis, Debye):
    X=              0.0000    Y=              0.0000    Z=              0.0000  Tot=              0.0000
 Quadrupole moment (field-independent basis, Debye-Ang):
   XX=            -31.7668   YY=            -23.8169   ZZ=            -34.7630
   XY=             -0.0001   XZ=             -0.0000   YZ=             -0.0000
 Traceless Quadrupole moment (field-independent basis, Debye-Ang):
   XX=             -1.6512   YY=              6.2987   ZZ=             -4.6474
   XY=             -0.0001   XZ=             -0.0000   YZ=             -0.0000
 Octapole moment (field-independent basis, Debye-Ang**2):
  XXX=              0.0000  YYY=             -0.0000  ZZZ=              0.0000  XYY=              0.0000
  XXY=             -0.0001  XXZ=              0.0000  XZZ=              0.0000  YZZ=             -0.0000
  YYZ=              0.0000  XYZ=              0.0000
 Hexadecapole moment (field-independent basis, Debye-Ang**3):
 XXXX=           -601.7037 YYYY=            -36.7453 ZZZZ=            -88.5284 XXXY=             -0.0033
 XXXZ=              0.0000 YYYX=             -0.0004 YYYZ=             -0.0000 ZZZX=             -0.0000
 ZZZY=             -0.0000 XXYY=            -76.6119 XXZZ=           -104.9023 YYZZ=            -20.8787
 XXYZ=             -0.0000 YYXZ=             -0.0000 ZZXY=             -0.0001
 N-N= 4.867625097768D+01 E-N=-1.479094223819D+03  KE= 5.792236670267D+02
                          Isotropic Fermi Contact Couplings
        Atom                 a.u.       MegaHertz       Gauss      10(-4) cm-1
     1  Si(29)            -0.00000       0.00000       0.00000       0.00000
     2  Si(29)            -0.00000       0.00000       0.00000       0.00000
     3  H(1)               0.00000       0.00000       0.00000       0.00000
     4  H(1)              -0.00000      -0.00000      -0.00000      -0.00000
 --------------------------------------------------------
       Center         ----  Spin Dipole Couplings  ----
                      3XX-RR        3YY-RR        3ZZ-RR
 --------------------------------------------------------
     1   Atom        0.000000      0.000000      0.000000
     2   Atom        0.000000      0.000000      0.000000
     3   Atom        0.000000      0.000000      0.000000
     4   Atom        0.000000      0.000000      0.000000
 --------------------------------------------------------
                        XY            XZ            YZ
 --------------------------------------------------------
     1   Atom        0.000000      0.000000      0.000000
     2   Atom        0.000000      0.000000      0.000000
     3   Atom        0.000000      0.000000      0.000000
     4   Atom        0.000000      0.000000      0.000000
 --------------------------------------------------------


 ---------------------------------------------------------------------------------
              Anisotropic Spin Dipole Couplings in Principal Axis System
 ---------------------------------------------------------------------------------

       Atom             a.u.   MegaHertz   Gauss  10(-4) cm-1        Axes

              Baa     0.0000    -0.000    -0.000    -0.000  1.0000  0.0000  0.0000
     1 Si(29) Bbb     0.0000    -0.000    -0.000    -0.000 -0.0000  1.0000  0.0000
              Bcc     0.0000    -0.000    -0.000    -0.000  0.0000  0.0000  1.0000
 
              Baa     0.0000    -0.000    -0.000    -0.000  1.0000  0.0000  0.0000
     2 Si(29) Bbb     0.0000    -0.000    -0.000    -0.000 -0.0000  1.0000  0.0000
              Bcc     0.0000    -0.000    -0.000    -0.000  0.0000  0.0000  1.0000
 
              Baa     0.0000     0.000     0.000     0.000  1.0000  0.0000  0.0000
     3 H(1)   Bbb     0.0000     0.000     0.000     0.000 -0.0000  1.0000  0.0000
              Bcc     0.0000     0.000     0.000     0.000  0.0000  0.0000  1.0000
 
              Baa     0.0000     0.000     0.000     0.000  1.0000  0.0000  0.0000
     4 H(1)   Bbb     0.0000     0.000     0.000     0.000 -0.0000  1.0000  0.0000
              Bcc     0.0000     0.000     0.000     0.000  0.0000  0.0000  1.0000
 

 ---------------------------------------------------------------------------------

 No NMR shielding tensors so no spin-rotation constants.
 Leave Link  601 at Mon Apr 21 21:23:47 2025, MaxMem=   536870912 cpu:               1.4 elap:               0.2
 (Enter /home/szhao/Apps/g16/l701.exe)
 ... and contract with generalized density number  0.
 Compute integral first derivatives.
 Leave Link  701 at Mon Apr 21 21:23:47 2025, MaxMem=   536870912 cpu:               1.0 elap:               0.2
 (Enter /home/szhao/Apps/g16/l702.exe)
 L702 exits ... SP integral derivatives will be done elsewhere.
 Leave Link  702 at Mon Apr 21 21:23:47 2025, MaxMem=   536870912 cpu:               0.5 elap:               0.1
 (Enter /home/szhao/Apps/g16/l703.exe)
 Integral derivatives from FoFJK, PRISM(SPDF).
 Compute integral first derivatives, UseDBF=F ICtDFT=           0.
 Calling FoFJK, ICntrl=      2127 FMM=F ISym2X=0 I1Cent= 0 IOpClX= 1 NMat=1 NMatS=1 NMatT=0.
 FoFJK:  IHMeth= 1 ICntrl=    2127 DoSepK=F KAlg= 0 I1Cent=           0 FoldK=F
 IRaf=         0 NMat=       1 IRICut=       1 DoRegI=T DoRafI=F ISym2E= 0 IDoP0=0 IntGTp=1.
 FoFCou: FMM=F IPFlag=           0 FMFlag=      100000 FMFlg1=         800
         NFxFlg=           0 DoJE=F BraDBF=F KetDBF=F FulRan=T
         wScrn=  0.000000 ICntrl=      2127 IOpCl=  1 I1Cent=           0 NGrid=           0
         NMat0=    1 NMatS0=      1 NMatT0=    0 NMatD0=    1 NMtDS0=    0 NMtDT0=    0
 Symmetry not used in FoFCou.
 Leave Link  703 at Mon Apr 21 21:23:48 2025, MaxMem=   536870912 cpu:               7.0 elap:               0.9
 (Enter /home/szhao/Apps/g16/l716.exe)
 Dipole        = 9.36913782D-08 1.92444174D-06 5.52616326D-15
 -------------------------------------------------------------------
 Center     Atomic                   Forces (Hartrees/Bohr)
 Number     Number              X              Y              Z
 -------------------------------------------------------------------
      1       14          -0.000000000   -0.000000000   -0.000000000
      2       14          -0.000000000   -0.000000000   -0.000000000
      3        1          -0.029710100   -0.000001471   -0.000000000
      4        1           0.029710098    0.000001835    0.000000000
 -------------------------------------------------------------------
 Cartesian Forces:  Max     0.029710100 RMS     0.012129097
 Leave Link  716 at Mon Apr 21 21:23:49 2025, MaxMem=   536870912 cpu:               1.3 elap:               0.4
 (Enter /home/szhao/Apps/g16/l103.exe)

 GradGradGradGradGradGradGradGradGradGradGradGradGradGradGradGradGradGrad
 Berny optimization.
 FormGI is forming the generalized inverse of G from B-inverse, IUseBI=4.
 Internal  Forces:  Max     0.029710100 RMS     0.017153134
 Search for a local minimum.
 Step number   1 out of a maximum of   22
 All quantities printed in internal units (Hartrees-Bohrs-Radians)
 RMS Force = .17153D-01 SwitMx=.10000D-02 MixMth= 1
 Mixed Optimization -- RFO/linear search
 Second derivative matrix not updated -- first step.
 The second derivative matrix:
                          X1        Y1        Z1        X2        Y2
           X1           0.50000
           Y1           0.00000   0.50000
           Z1           0.00000   0.00000   0.50000
           X2           0.00000   0.00000   0.00000   0.50000
           Y2           0.00000   0.00000   0.00000   0.00000   0.50000
           Z2           0.00000   0.00000   0.00000   0.00000   0.00000
           R1           0.00000   0.00000   0.00000   0.00000   0.00000
           R2           0.00000   0.00000   0.00000   0.00000   0.00000
           A1           0.00000   0.00000   0.00000   0.00000   0.00000
           A2           0.00000   0.00000   0.00000   0.00000   0.00000
           A3           0.00000   0.00000   0.00000   0.00000   0.00000
           A4           0.00000   0.00000   0.00000   0.00000   0.00000
                          Z2        R1        R2        A1        A2
           Z2           0.50000
           R1           0.00000   0.18833
           R2           0.00000   0.00000   0.18833
           A1           0.00000   0.00000   0.00000   0.00655
           A2           0.00000   0.00000   0.00000   0.00000   0.00655
           A3           0.00000   0.00000   0.00000   0.00000   0.00000
           A4           0.00000   0.00000   0.00000   0.00000   0.00000
                          A3        A4
           A3           0.00655
           A4           0.00000   0.00655
 ITU=  0
     Eigenvalues ---    0.00655   0.00655   0.00655   0.18833   0.18833
     Eigenvalues --- 1000.000001000.000001000.000001000.000001000.00000
     Eigenvalues --- 1000.000001000.00000
 RFO step:  Lambda=-8.94866941D-03 EMin= 6.54940760D-03
 Linear search not attempted -- first point.
 Iteration  1 RMS(Cart)=  0.06148210 RMS(Int)=  0.00000024
 Iteration  2 RMS(Cart)=  0.00000071 RMS(Int)=  0.00000000
 ITry= 1 IFail=0 DXMaxC= 1.51D-01 DCOld= 1.00D+10 DXMaxT= 3.00D-01 DXLimC= 3.00D+00 Rises=F
 Variable       Old X    -DE/DX   Delta X   Delta X   Delta X     New X
                                 (Linear)    (Quad)   (Total)
    X1       -2.79435  -0.02971   0.00000   0.00000   0.00000  -2.79435
    Y1        0.00000  -0.00000   0.00000   0.00000   0.00000   0.00000
    Z1        0.00000  -0.00000   0.00000   0.00000   0.00000   0.00000
    X2        2.79435   0.02971   0.00000   0.00000   0.00000   2.79435
    Y2        0.00000   0.00000   0.00000   0.00000   0.00000   0.00000
    Z2        0.00000   0.00000   0.00000   0.00000   0.00000   0.00000
    R1        2.75593   0.02971   0.00000   0.15060   0.15060   2.90653
    R2        2.75593   0.02971   0.00000   0.15060   0.15060   2.90653
    A1        3.14157   0.00000   0.00000   0.00001   0.00001   3.14159
    A2        3.14157  -0.00000   0.00000  -0.00001  -0.00001   3.14155
    A3        3.14159   0.00000   0.00000   0.00000   0.00000   3.14159
    A4        3.14159   0.00000   0.00000   0.00000   0.00000   3.14159
         Item               Value     Threshold  Converged?
 Maximum Force            0.029710     0.000450     NO 
 RMS     Force            0.017153     0.000300     NO 
 Maximum Displacement     0.150600     0.001800     NO 
 RMS     Displacement     0.061482     0.001200     NO 
 Predicted change in Energy=-4.677292D-03
 Lowest energy point so far.  Saving SCF results.
 GradGradGradGradGradGradGradGradGradGradGradGradGradGradGradGradGradGrad

 Leave Link  103 at Mon Apr 21 21:23:50 2025, MaxMem=   536870912 cpu:               1.1 elap:               0.2
 (Enter /home/szhao/Apps/g16/l202.exe)
                          Input orientation:                          
 ---------------------------------------------------------------------
 Center     Atomic      Atomic             Coordinates (Angstroms)
 Number     Number       Type             X           Y           Z
 ---------------------------------------------------------------------
      1         14           0       -1.478705    0.000000    0.000000
      2         14           0        1.478705    0.000000    0.000000
      3          1           0       -3.016774   -0.000010   -0.000000
      4          1           0        3.016774    0.000058    0.000000
 ---------------------------------------------------------------------
                    Distance matrix (angstroms):
                    1          2          3          4
     1  Si   0.000000
     2  Si   2.957410   0.000000
     3  H    1.538069   4.495479   0.000000
     4  H    4.495479   1.538069   6.033548   0.000000
 Symmetry turned off by external request.
 Stoichiometry    H2Si2
 Framework group  C*V[C*(HSiSiH)]
 Deg. of freedom     3
 Full point group                 C*V     NOp   4
 Rotational constants (GHZ):           0.0000000           3.5921148           3.5921148
 Leave Link  202 at Mon Apr 21 21:23:50 2025, MaxMem=   536870912 cpu:               0.2 elap:               0.4
 (Enter /home/szhao/Apps/g16/l301.exe)
 Standard basis: 6-311+G(d,p) (5D, 7F)
 Ernie: Thresh=  0.10000D-02 Tol=  0.10000D-05 Strict=F.
    72 basis functions,   116 primitive gaussians,    74 cartesian basis functions
    15 alpha electrons       15 beta electrons
       nuclear repulsion energy        48.0879584224 Hartrees.
 IExCor= 4336 DFT=T Ex+Corr=M062X ExCW=0 ScaHFX=  0.540000
 ScaDFX=  1.000000  1.000000  1.000000  1.000000 ScalE2=  1.000000  1.000000
 IRadAn=      7 IRanWt=     -1 IRanGd=            0 ICorTp=0 IEmpDi=  4
 NAtoms=    4 NActive=    4 NUniq=    4 SFac= 1.00D+00 NAtFMM=   60 NAOKFM=F Big=F
 Integral buffers will be    131072 words long.
 Raffenetti 2 integral format.
 Two-electron integral symmetry is turned off.
 Leave Link  301 at Mon Apr 21 21:23:51 2025, MaxMem=   536870912 cpu:               0.8 elap:               0.3
 (Enter /home/szhao/Apps/g16/l302.exe)
 NPDir=0 NMtPBC=     1 NCelOv=     1 NCel=       1 NClECP=     1 NCelD=      1
         NCelK=      1 NCelE2=     1 NClLst=     1 CellRange=     0.0.
 One-electron integrals computed using PRISM.
 NBasis=    72 RedAO= T EigKep=  3.11D-03  NBF=    72
 NBsUse=    72 1.00D-06 EigRej= -1.00D+00 NBFU=    72
 Precomputing XC quadrature grid using
 IXCGrd= 4 IRadAn=           7 IRanWt=          -1 IRanGd=           0 AccXCQ= 0.00D+00.
 Generated NRdTot=       0 NPtTot=           0 NUsed=           0 NTot=          32
 NSgBfM=    68    68    68    68    68 MxSgAt=     4 MxSgA2=     4.
 Leave Link  302 at Mon Apr 21 21:23:51 2025, MaxMem=   536870912 cpu:               2.2 elap:               0.5
 (Enter /home/szhao/Apps/g16/l303.exe)
 DipDrv:  MaxL=1.
 Leave Link  303 at Mon Apr 21 21:23:52 2025, MaxMem=   536870912 cpu:               1.1 elap:               0.3
 (Enter /home/szhao/Apps/g16/l401.exe)
 Initial guess from the checkpoint file:  "opt.chk"
 B after Tr=    -0.000000    0.000002   -0.000000
         Rot=    1.000000   -0.000005    0.000000   -0.000000 Ang=  -0.00 deg.
 Guess basis will be translated and rotated to current coordinates.
 JPrj=2 DoOrth=T DoCkMO=T.
 Initial guess <Sx>= 0.0000 <Sy>= 0.0000 <Sz>= 0.0000 <S**2>=-0.0000 S=-0.0000
 Generating alternative initial guess.
 ExpMin= 3.31D-02 ExpMax= 6.94D+04 ExpMxC= 2.33D+03 IAcc=3 IRadAn=         5 AccDes= 0.00D+00
 Harris functional with IExCor= 1009 and IRadAn=       5 diagonalized for initial guess.
 HarFok:  IExCor= 1009 AccDes= 0.00D+00 IRadAn=         5 IDoV= 1 UseB2=F ITyADJ=14
 ICtDFT=  3500011 ScaDFX=  1.000000  1.000000  1.000000  1.000000
 FoFCou: FMM=F IPFlag=           0 FMFlag=      100000 FMFlg1=           0
         NFxFlg=           0 DoJE=T BraDBF=F KetDBF=T FulRan=T
         wScrn=  0.000000 ICntrl=       500 IOpCl=  0 I1Cent=   200000004 NGrid=           0
         NMat0=    1 NMatS0=      1 NMatT0=    0 NMatD0=    1 NMtDS0=    0 NMtDT0=    0
 Symmetry not used in FoFCou.
 Harris En= -579.599899862265    
 Leave Link  401 at Mon Apr 21 21:23:53 2025, MaxMem=   536870912 cpu:               4.7 elap:               0.7
 (Enter /home/szhao/Apps/g16/l502.exe)
 Keep R1 and R2 ints in memory in canonical form, NReq=14118010.
 FoFCou: FMM=F IPFlag=           0 FMFlag=           0 FMFlg1=           0
         NFxFlg=           0 DoJE=F BraDBF=F KetDBF=F FulRan=T
         wScrn=  0.000000 ICntrl=       600 IOpCl=  0 I1Cent=           0 NGrid=           0
         NMat0=    1 NMatS0=   2628 NMatT0=    0 NMatD0=    1 NMtDS0=    0 NMtDT0=    0
 Symmetry not used in FoFCou.
 Two-electron integral symmetry not used.
 UHF open shell SCF:
 Using DIIS extrapolation, IDIIS=  1040.
 NGot=   536870912 LenX=   529949706 LenY=   529943789
 Requested convergence on RMS density matrix=1.00D-08 within 128 cycles.
 Requested convergence on MAX density matrix=1.00D-06.
 Requested convergence on             energy=1.00D-06.
 No special actions if energy rises.

 Cycle   1  Pass 1  IDiag  1:
 E= -579.904859066947    
 DIIS: error= 4.19D-03 at cycle   1 NSaved=   1.
 NSaved= 1 IEnMin= 1 EnMin= -579.904859066947     IErMin= 1 ErrMin= 4.19D-03
 ErrMax= 4.19D-03  0.00D+00 EMaxC= 1.00D-01 BMatC= 3.09D-03 BMatP= 3.09D-03
 IDIUse=3 WtCom= 9.58D-01 WtEn= 4.19D-02
 Coeff-Com:  0.100D+01
 Coeff-En:   0.100D+01
 Coeff:      0.100D+01
 Gap=     0.384 Goal=   None    Shift=    0.000
 Gap=     0.384 Goal=   None    Shift=    0.000
 GapD=    0.384 DampG=1.000 DampE=1.000 DampFc=1.0000 IDamp=-1.
 RMSDP=7.16D-04 MaxDP=1.18D-02              OVMax= 1.23D-02

 Cycle   2  Pass 1  IDiag  1:
 E= -579.905790497735     Delta-E=       -0.000931430788 Rises=F Damp=F
 DIIS: error= 6.26D-04 at cycle   2 NSaved=   2.
 NSaved= 2 IEnMin= 2 EnMin= -579.905790497735     IErMin= 2 ErrMin= 6.26D-04
 ErrMax= 6.26D-04  0.00D+00 EMaxC= 1.00D-01 BMatC= 9.94D-05 BMatP= 3.09D-03
 IDIUse=3 WtCom= 9.94D-01 WtEn= 6.26D-03
 Coeff-Com:  0.486D-01 0.951D+00
 Coeff-En:   0.000D+00 0.100D+01
 Coeff:      0.483D-01 0.952D+00
 Gap=     0.097 Goal=   None    Shift=    0.000
 Gap=     0.097 Goal=   None    Shift=    0.000
 RMSDP=1.92D-04 MaxDP=2.34D-03 DE=-9.31D-04 OVMax= 4.85D-03

 Cycle   3  Pass 1  IDiag  1:
 E= -579.905835463548     Delta-E=       -0.000044965813 Rises=F Damp=F
 DIIS: error= 3.04D-04 at cycle   3 NSaved=   3.
 NSaved= 3 IEnMin= 3 EnMin= -579.905835463548     IErMin= 3 ErrMin= 3.04D-04
 ErrMax= 3.04D-04  0.00D+00 EMaxC= 1.00D-01 BMatC= 1.18D-05 BMatP= 9.94D-05
 IDIUse=3 WtCom= 9.97D-01 WtEn= 3.04D-03
 Coeff-Com: -0.203D-01 0.167D+00 0.853D+00
 Coeff-En:   0.000D+00 0.000D+00 0.100D+01
 Coeff:     -0.203D-01 0.167D+00 0.853D+00
 Gap=     0.097 Goal=   None    Shift=    0.000
 Gap=     0.097 Goal=   None    Shift=    0.000
 RMSDP=8.46D-05 MaxDP=1.18D-03 DE=-4.50D-05 OVMax= 1.35D-03

 Cycle   4  Pass 1  IDiag  1:
 E= -579.905841184306     Delta-E=       -0.000005720758 Rises=F Damp=F
 DIIS: error= 5.02D-05 at cycle   4 NSaved=   4.
 NSaved= 4 IEnMin= 4 EnMin= -579.905841184306     IErMin= 4 ErrMin= 5.02D-05
 ErrMax= 5.02D-05  0.00D+00 EMaxC= 1.00D-01 BMatC= 8.11D-07 BMatP= 1.18D-05
 IDIUse=1 WtCom= 1.00D+00 WtEn= 0.00D+00
 Coeff-Com: -0.348D-02-0.571D-01 0.955D-01 0.965D+00
 Coeff:     -0.348D-02-0.571D-01 0.955D-01 0.965D+00
 Gap=     0.097 Goal=   None    Shift=    0.000
 Gap=     0.097 Goal=   None    Shift=    0.000
 RMSDP=1.94D-05 MaxDP=2.71D-04 DE=-5.72D-06 OVMax= 4.65D-04

 Cycle   5  Pass 1  IDiag  1:
 E= -579.905841579747     Delta-E=       -0.000000395441 Rises=F Damp=F
 DIIS: error= 7.87D-06 at cycle   5 NSaved=   5.
 NSaved= 5 IEnMin= 5 EnMin= -579.905841579747     IErMin= 5 ErrMin= 7.87D-06
 ErrMax= 7.87D-06  0.00D+00 EMaxC= 1.00D-01 BMatC= 2.65D-08 BMatP= 8.11D-07
 IDIUse=1 WtCom= 1.00D+00 WtEn= 0.00D+00
 Coeff-Com:  0.382D-03-0.170D-01-0.130D-01 0.153D+00 0.877D+00
 Coeff:      0.382D-03-0.170D-01-0.130D-01 0.153D+00 0.877D+00
 Gap=     0.097 Goal=   None    Shift=    0.000
 Gap=     0.097 Goal=   None    Shift=    0.000
 RMSDP=3.64D-06 MaxDP=4.76D-05 DE=-3.95D-07 OVMax= 7.33D-05

 Cycle   6  Pass 1  IDiag  1:
 E= -579.905841589871     Delta-E=       -0.000000010125 Rises=F Damp=F
 DIIS: error= 1.74D-06 at cycle   6 NSaved=   6.
 NSaved= 6 IEnMin= 6 EnMin= -579.905841589871     IErMin= 6 ErrMin= 1.74D-06
 ErrMax= 1.74D-06  0.00D+00 EMaxC= 1.00D-01 BMatC= 7.86D-10 BMatP= 2.65D-08
 IDIUse=1 WtCom= 1.00D+00 WtEn= 0.00D+00
 Coeff-Com:  0.266D-03-0.479D-03-0.778D-02-0.151D-01 0.102D+00 0.921D+00
 Coeff:      0.266D-03-0.479D-03-0.778D-02-0.151D-01 0.102D+00 0.921D+00
 Gap=     0.097 Goal=   None    Shift=    0.000
 Gap=     0.097 Goal=   None    Shift=    0.000
 RMSDP=8.05D-07 MaxDP=1.13D-05 DE=-1.01D-08 OVMax= 1.67D-05

 Cycle   7  Pass 1  IDiag  1:
 E= -579.905841590324     Delta-E=       -0.000000000452 Rises=F Damp=F
 DIIS: error= 1.76D-07 at cycle   7 NSaved=   7.
 NSaved= 7 IEnMin= 7 EnMin= -579.905841590324     IErMin= 7 ErrMin= 1.76D-07
 ErrMax= 1.76D-07  0.00D+00 EMaxC= 1.00D-01 BMatC= 1.28D-11 BMatP= 7.86D-10
 IDIUse=1 WtCom= 1.00D+00 WtEn= 0.00D+00
 Coeff-Com:  0.275D-06 0.357D-03 0.232D-03-0.509D-02-0.816D-02-0.407D-01
 Coeff-Com:  0.105D+01
 Coeff:      0.275D-06 0.357D-03 0.232D-03-0.509D-02-0.816D-02-0.407D-01
 Coeff:      0.105D+01
 Gap=     0.097 Goal=   None    Shift=    0.000
 Gap=     0.097 Goal=   None    Shift=    0.000
 RMSDP=1.33D-07 MaxDP=2.83D-06 DE=-4.52D-10 OVMax= 3.17D-06

 Cycle   8  Pass 1  IDiag  1:
 E= -579.905841590335     Delta-E=       -0.000000000012 Rises=F Damp=F
 DIIS: error= 5.48D-08 at cycle   8 NSaved=   8.
 NSaved= 8 IEnMin= 8 EnMin= -579.905841590335     IErMin= 8 ErrMin= 5.48D-08
 ErrMax= 5.48D-08  0.00D+00 EMaxC= 1.00D-01 BMatC= 3.81D-13 BMatP= 1.28D-11
 IDIUse=1 WtCom= 1.00D+00 WtEn= 0.00D+00
 Coeff-Com: -0.432D-05 0.307D-04 0.778D-04 0.567D-04-0.262D-02-0.139D-01
 Coeff-Com:  0.741D-01 0.942D+00
 Coeff:     -0.432D-05 0.307D-04 0.778D-04 0.567D-04-0.262D-02-0.139D-01
 Coeff:      0.741D-01 0.942D+00
 Gap=     0.097 Goal=   None    Shift=    0.000
 Gap=     0.097 Goal=   None    Shift=    0.000
 RMSDP=1.77D-08 MaxDP=2.85D-07 DE=-1.16D-11 OVMax= 8.39D-07

 Cycle   9  Pass 1  IDiag  1:
 E= -579.905841590335     Delta-E=        0.000000000000 Rises=F Damp=F
 DIIS: error= 6.42D-08 at cycle   9 NSaved=   9.
 NSaved= 9 IEnMin= 8 EnMin= -579.905841590335     IErMin= 8 ErrMin= 5.48D-08
 ErrMax= 6.42D-08  0.00D+00 EMaxC= 1.00D-01 BMatC= 3.68D-13 BMatP= 3.81D-13
 IDIUse=1 WtCom= 1.00D+00 WtEn= 0.00D+00
 Coeff-Com: -0.270D-05 0.760D-05 0.397D-04 0.198D-03-0.136D-02-0.719D-02
 Coeff-Com:  0.104D-01 0.582D+00 0.416D+00
 Coeff:     -0.270D-05 0.760D-05 0.397D-04 0.198D-03-0.136D-02-0.719D-02
 Coeff:      0.104D-01 0.582D+00 0.416D+00
 Gap=     0.097 Goal=   None    Shift=    0.000
 Gap=     0.097 Goal=   None    Shift=    0.000
 RMSDP=7.71D-09 MaxDP=1.66D-07 DE= 4.55D-13 OVMax= 5.47D-07

 SCF Done:  E(UM062X) =  -579.905841590     A.U. after    9 cycles
            NFock=  9  Conv=0.77D-08     -V/T= 2.0014
 <Sx>= 0.0000 <Sy>= 0.0000 <Sz>= 0.0000 <S**2>=-0.0000 S=-0.0000
 <L.S>=  0.00000000000    
 KE= 5.790742249780D+02 PE=-1.477673978725D+03 EE= 2.706059537344D+02
 Annihilation of the first spin contaminant:
 S**2 before annihilation    -0.0000,   after    -0.0000
 Leave Link  502 at Mon Apr 21 21:23:59 2025, MaxMem=   536870912 cpu:              36.4 elap:               5.3
 (Enter /home/szhao/Apps/g16/l701.exe)
 ... and contract with generalized density number  0.
 Compute integral first derivatives.
 Leave Link  701 at Mon Apr 21 21:23:59 2025, MaxMem=   536870912 cpu:               1.4 elap:               0.2
 (Enter /home/szhao/Apps/g16/l702.exe)
 L702 exits ... SP integral derivatives will be done elsewhere.
 Leave Link  702 at Mon Apr 21 21:24:00 2025, MaxMem=   536870912 cpu:               0.8 elap:               0.2
 (Enter /home/szhao/Apps/g16/l703.exe)
 Integral derivatives from FoFJK, PRISM(SPDF).
 Compute integral first derivatives, UseDBF=F ICtDFT=           0.
 Calling FoFJK, ICntrl=      2127 FMM=F ISym2X=0 I1Cent= 0 IOpClX= 1 NMat=1 NMatS=1 NMatT=0.
 FoFJK:  IHMeth= 1 ICntrl=    2127 DoSepK=F KAlg= 0 I1Cent=           0 FoldK=F
 IRaf=         0 NMat=       1 IRICut=       1 DoRegI=T DoRafI=F ISym2E= 0 IDoP0=0 IntGTp=1.
 FoFCou: FMM=F IPFlag=           0 FMFlag=      100000 FMFlg1=         800
         NFxFlg=           0 DoJE=F BraDBF=F KetDBF=F FulRan=T
         wScrn=  0.000000 ICntrl=      2127 IOpCl=  1 I1Cent=           0 NGrid=           0
         NMat0=    1 NMatS0=      1 NMatT0=    0 NMatD0=    1 NMtDS0=    0 NMtDT0=    0
 Symmetry not used in FoFCou.
 Leave Link  703 at Mon Apr 21 21:24:01 2025, MaxMem=   536870912 cpu:               6.1 elap:               0.8
 (Enter /home/szhao/Apps/g16/l716.exe)
 Dipole        =-9.17765767D-07 4.36982633D-06-8.95191228D-11
 -------------------------------------------------------------------
 Center     Atomic                   Forces (Hartrees/Bohr)
 Number     Number              X              Y              Z
 -------------------------------------------------------------------
      1       14          -0.000000000   -0.000000000   -0.000000000
      2       14          -0.000000000   -0.000000000   -0.000000000
      3        1          -0.002491724   -0.000000650   -0.000000000
      4        1           0.002491739    0.000001195    0.000000000
 -------------------------------------------------------------------
 Cartesian Forces:  Max     0.002491739 RMS     0.001017245
 Leave Link  716 at Mon Apr 21 21:24:01 2025, MaxMem=   536870912 cpu:               0.6 elap:               0.1
 (Enter /home/szhao/Apps/g16/l103.exe)

 GradGradGradGradGradGradGradGradGradGradGradGradGradGradGradGradGradGrad
 Berny optimization.
 Using GEDIIS/GDIIS optimizer.
 FormGI is forming the generalized inverse of G from B-inverse, IUseBI=4.
 Internal  Forces:  Max     0.002491739 RMS     0.001438602
 Search for a local minimum.
 Step number   2 out of a maximum of   22
 All quantities printed in internal units (Hartrees-Bohrs-Radians)
 RMS Force = .14386D-02 SwitMx=.10000D-02 MixMth= 1
 Mixed Optimization -- RFO/linear search
 Update second derivatives using D2CorX and points    1    2
 DE= -4.61D-03 DEPred=-4.68D-03 R= 9.86D-01
 TightC=F SS=  1.41D+00  RLast= 2.13D-01 DXNew= 5.0454D-01 6.3894D-01
 Trust test= 9.86D-01 RLast= 2.13D-01 DXMaxT set to 5.05D-01
 The second derivative matrix:
                          X1        Y1        Z1        X2        Y2
           X1           0.59037
           Y1           0.00000   0.50000
           Z1          -0.00000  -0.00000   0.50000
           X2          -0.09037  -0.00000   0.00000   0.59037
           Y2          -0.00000  -0.00000   0.00000   0.00000   0.50000
           Z2           0.00000   0.00000  -0.00000  -0.00000  -0.00000
           R1          -0.09037  -0.00000   0.00000   0.09037   0.00000
           R2          -0.09037  -0.00000   0.00000   0.09037   0.00000
           A1           0.00000   0.00000  -0.00000  -0.00000  -0.00000
           A2          -0.00000  -0.00000   0.00000   0.00000   0.00000
           A3           0.00000   0.00000  -0.00000  -0.00000  -0.00000
           A4           0.00000   0.00000  -0.00000  -0.00000  -0.00000
                          Z2        R1        R2        A1        A2
           Z2           0.50000
           R1          -0.00000   0.18453
           R2          -0.00000  -0.00380   0.18453
           A1           0.00000  -0.00000  -0.00000   0.00655
           A2          -0.00000   0.00000   0.00000  -0.00000   0.00655
           A3           0.00000  -0.00000  -0.00000   0.00000  -0.00000
           A4           0.00000  -0.00000  -0.00000   0.00000  -0.00000
                          A3        A4
           A3           0.00655
           A4           0.00000   0.00655
 ITU=  1  0
 Use linear search instead of GDIIS.
     Eigenvalues ---    0.00655   0.00655   0.00655   0.18073   0.18833
     Eigenvalues --- 1000.000001000.000001000.000001000.000001000.00000
     Eigenvalues --- 1000.000001000.00000
 RFO step:  Lambda=-1.88967644D-08 EMin= 6.54940759D-03
 Quartic linear search produced a step of  0.11238.
 Iteration  1 RMS(Cart)=  0.00691071 RMS(Int)=  0.00000028
 Iteration  2 RMS(Cart)=  0.00000083 RMS(Int)=  0.00000001
 ITry= 1 IFail=0 DXMaxC= 1.69D-02 DCOld= 1.00D+10 DXMaxT= 5.05D-01 DXLimC= 3.00D+00 Rises=F
 Variable       Old X    -DE/DX   Delta X   Delta X   Delta X     New X
                                 (Linear)    (Quad)   (Total)
    X1       -2.79435  -0.00249   0.00000   0.00000   0.00000  -2.79435
    Y1        0.00000   0.00000   0.00000   0.00000   0.00000   0.00000
    Z1        0.00000  -0.00000   0.00000   0.00000   0.00000   0.00000
    X2        2.79435   0.00249   0.00000   0.00000   0.00000   2.79435
    Y2        0.00000   0.00000   0.00000   0.00000   0.00000   0.00000
    Z2        0.00000   0.00000   0.00000   0.00000   0.00000   0.00000
    R1        2.90653   0.00249   0.01692  -0.00000   0.01692   2.92345
    R2        2.90653   0.00249   0.01692   0.00000   0.01692   2.92345
    A1        3.14159   0.00000   0.00000   0.00012   0.00012   3.14171
    A2        3.14155  -0.00000  -0.00000  -0.00012  -0.00012   3.14143
    A3        3.14159   0.00000   0.00000   0.00000  -0.00000   3.14159
    A4        3.14159   0.00000   0.00000   0.00000   0.00000   3.14159
         Item               Value     Threshold  Converged?
 Maximum Force            0.002492     0.000450     NO 
 RMS     Force            0.001439     0.000300     NO 
 Maximum Displacement     0.016924     0.001800     NO 
 RMS     Displacement     0.006911     0.001200     NO 
 Predicted change in Energy=-3.257416D-05
 Lowest energy point so far.  Saving SCF results.
 GradGradGradGradGradGradGradGradGradGradGradGradGradGradGradGradGradGrad

 Leave Link  103 at Mon Apr 21 21:24:01 2025, MaxMem=   536870912 cpu:               0.4 elap:               0.1
 (Enter /home/szhao/Apps/g16/l202.exe)
                          Input orientation:                          
 ---------------------------------------------------------------------
 Center     Atomic      Atomic             Coordinates (Angstroms)
 Number     Number       Type             X           Y           Z
 ---------------------------------------------------------------------
      1         14           0       -1.478705    0.000000    0.000000
      2         14           0        1.478705    0.000000    0.000000
      3          1           0       -3.025730    0.000176    0.000000
      4          1           0        3.025730    0.000244    0.000000
 ---------------------------------------------------------------------
                    Distance matrix (angstroms):
                    1          2          3          4
     1  Si   0.000000
     2  Si   2.957410   0.000000
     3  H    1.547025   4.504435   0.000000
     4  H    4.504435   1.547025   6.051460   0.000000
 Symmetry turned off by external request.
 This structure is nearly, but not quite of a higher symmetry.
 Consider Symm=Loose if the higher symmetry is desired.
 Stoichiometry    H2Si2
 Framework group  CS[SG(H2Si2)]
 Deg. of freedom     5
 Full point group                 CS      NOp   2
 Rotational constants (GHZ):  5743315042.4052696           3.5893320           3.5893319
 Leave Link  202 at Mon Apr 21 21:24:02 2025, MaxMem=   536870912 cpu:               0.1 elap:               0.0
 (Enter /home/szhao/Apps/g16/l301.exe)
 Standard basis: 6-311+G(d,p) (5D, 7F)
 Ernie: Thresh=  0.10000D-02 Tol=  0.10000D-05 Strict=F.
    72 basis functions,   116 primitive gaussians,    74 cartesian basis functions
    15 alpha electrons       15 beta electrons
       nuclear repulsion energy        48.0253765879 Hartrees.
 IExCor= 4336 DFT=T Ex+Corr=M062X ExCW=0 ScaHFX=  0.540000
 ScaDFX=  1.000000  1.000000  1.000000  1.000000 ScalE2=  1.000000  1.000000
 IRadAn=      7 IRanWt=     -1 IRanGd=            0 ICorTp=0 IEmpDi=  4
 NAtoms=    4 NActive=    4 NUniq=    4 SFac= 1.00D+00 NAtFMM=   60 NAOKFM=F Big=F
 Integral buffers will be    131072 words long.
 Raffenetti 2 integral format.
 Two-electron integral symmetry is turned off.
 Leave Link  301 at Mon Apr 21 21:24:02 2025, MaxMem=   536870912 cpu:               0.7 elap:               0.1
 (Enter /home/szhao/Apps/g16/l302.exe)
 NPDir=0 NMtPBC=     1 NCelOv=     1 NCel=       1 NClECP=     1 NCelD=      1
         NCelK=      1 NCelE2=     1 NClLst=     1 CellRange=     0.0.
 One-electron integrals computed using PRISM.
 NBasis=    72 RedAO= T EigKep=  3.13D-03  NBF=    72
 NBsUse=    72 1.00D-06 EigRej= -1.00D+00 NBFU=    72
 Precomputing XC quadrature grid using
 IXCGrd= 4 IRadAn=           7 IRanWt=          -1 IRanGd=           0 AccXCQ= 0.00D+00.
 Generated NRdTot=       0 NPtTot=           0 NUsed=           0 NTot=          32
 NSgBfM=    68    68    68    68    68 MxSgAt=     4 MxSgA2=     4.
 Leave Link  302 at Mon Apr 21 21:24:02 2025, MaxMem=   536870912 cpu:               1.4 elap:               0.2
 (Enter /home/szhao/Apps/g16/l303.exe)
 DipDrv:  MaxL=1.
 Leave Link  303 at Mon Apr 21 21:24:03 2025, MaxMem=   536870912 cpu:               0.8 elap:               0.1
 (Enter /home/szhao/Apps/g16/l401.exe)
 Initial guess from the checkpoint file:  "opt.chk"
 B after Tr=     0.000000    0.000023    0.000000
         Rot=    1.000000   -0.000039    0.000000   -0.000000 Ang=  -0.00 deg.
 Guess basis will be translated and rotated to current coordinates.
 JPrj=2 DoOrth=T DoCkMO=T.
 Initial guess <Sx>= 0.0000 <Sy>= 0.0000 <Sz>= 0.0000 <S**2>=-0.0000 S=-0.0000
 Leave Link  401 at Mon Apr 21 21:24:03 2025, MaxMem=   536870912 cpu:               1.4 elap:               0.2
 (Enter /home/szhao/Apps/g16/l502.exe)
 Keep R1 and R2 ints in memory in canonical form, NReq=14118010.
 FoFCou: FMM=F IPFlag=           0 FMFlag=           0 FMFlg1=           0
         NFxFlg=           0 DoJE=F BraDBF=F KetDBF=F FulRan=T
         wScrn=  0.000000 ICntrl=       600 IOpCl=  0 I1Cent=           0 NGrid=           0
         NMat0=    1 NMatS0=   2628 NMatT0=    0 NMatD0=    1 NMtDS0=    0 NMtDT0=    0
 Symmetry not used in FoFCou.
 Two-electron integral symmetry not used.
 UHF open shell SCF:
 Using DIIS extrapolation, IDIIS=  1040.
 NGot=   536870912 LenX=   529949706 LenY=   529943789
 Requested convergence on RMS density matrix=1.00D-08 within 128 cycles.
 Requested convergence on MAX density matrix=1.00D-06.
 Requested convergence on             energy=1.00D-06.
 No special actions if energy rises.

 Cycle   1  Pass 1  IDiag  1:
 E= -579.905871420658    
 DIIS: error= 4.61D-04 at cycle   1 NSaved=   1.
 NSaved= 1 IEnMin= 1 EnMin= -579.905871420658     IErMin= 1 ErrMin= 4.61D-04
 ErrMax= 4.61D-04  0.00D+00 EMaxC= 1.00D-01 BMatC= 3.48D-05 BMatP= 3.48D-05
 IDIUse=3 WtCom= 9.95D-01 WtEn= 4.61D-03
 Coeff-Com:  0.100D+01
 Coeff-En:   0.100D+01
 Coeff:      0.100D+01
 Gap=     0.381 Goal=   None    Shift=    0.000
 Gap=     0.381 Goal=   None    Shift=    0.000
 RMSDP=7.54D-05 MaxDP=1.21D-03              OVMax= 1.35D-03

 Cycle   2  Pass 1  IDiag  1:
 E= -579.905882636616     Delta-E=       -0.000011215957 Rises=F Damp=F
 DIIS: error= 6.91D-05 at cycle   2 NSaved=   2.
 NSaved= 2 IEnMin= 2 EnMin= -579.905882636616     IErMin= 2 ErrMin= 6.91D-05
 ErrMax= 6.91D-05  0.00D+00 EMaxC= 1.00D-01 BMatC= 1.18D-06 BMatP= 3.48D-05
 IDIUse=1 WtCom= 1.00D+00 WtEn= 0.00D+00
 Coeff-Com:  0.487D-01 0.951D+00
 Coeff:      0.487D-01 0.951D+00
 Gap=     0.097 Goal=   None    Shift=    0.000
 Gap=     0.097 Goal=   None    Shift=    0.000
 RMSDP=2.13D-05 MaxDP=2.51D-04 DE=-1.12D-05 OVMax= 5.38D-04

 Cycle   3  Pass 1  IDiag  1:
 E= -579.905883195757     Delta-E=       -0.000000559142 Rises=F Damp=F
 DIIS: error= 3.39D-05 at cycle   3 NSaved=   3.
 NSaved= 3 IEnMin= 3 EnMin= -579.905883195757     IErMin= 3 ErrMin= 3.39D-05
 ErrMax= 3.39D-05  0.00D+00 EMaxC= 1.00D-01 BMatC= 1.34D-07 BMatP= 1.18D-06
 IDIUse=1 WtCom= 1.00D+00 WtEn= 0.00D+00
 Coeff-Com: -0.222D-01 0.148D+00 0.874D+00
 Coeff:     -0.222D-01 0.148D+00 0.874D+00
 Gap=     0.097 Goal=   None    Shift=    0.000
 Gap=     0.097 Goal=   None    Shift=    0.000
 RMSDP=9.26D-06 MaxDP=1.30D-04 DE=-5.59D-07 OVMax= 1.51D-04

 Cycle   4  Pass 1  IDiag  1:
 E= -579.905883264932     Delta-E=       -0.000000069175 Rises=F Damp=F
 DIIS: error= 5.84D-06 at cycle   4 NSaved=   4.
 NSaved= 4 IEnMin= 4 EnMin= -579.905883264932     IErMin= 4 ErrMin= 5.84D-06
 ErrMax= 5.84D-06  0.00D+00 EMaxC= 1.00D-01 BMatC= 1.07D-08 BMatP= 1.34D-07
 IDIUse=1 WtCom= 1.00D+00 WtEn= 0.00D+00
 Coeff-Com: -0.387D-02-0.592D-01 0.112D+00 0.951D+00
 Coeff:     -0.387D-02-0.592D-01 0.112D+00 0.951D+00
 Gap=     0.097 Goal=   None    Shift=    0.000
 Gap=     0.097 Goal=   None    Shift=    0.000
 RMSDP=2.12D-06 MaxDP=3.21D-05 DE=-6.92D-08 OVMax= 5.39D-05

 Cycle   5  Pass 1  IDiag  1:
 E= -579.905883270201     Delta-E=       -0.000000005269 Rises=F Damp=F
 DIIS: error= 9.35D-07 at cycle   5 NSaved=   5.
 NSaved= 5 IEnMin= 5 EnMin= -579.905883270201     IErMin= 5 ErrMin= 9.35D-07
 ErrMax= 9.35D-07  0.00D+00 EMaxC= 1.00D-01 BMatC= 3.53D-10 BMatP= 1.07D-08
 IDIUse=1 WtCom= 1.00D+00 WtEn= 0.00D+00
 Coeff-Com:  0.345D-03-0.171D-01-0.107D-01 0.156D+00 0.871D+00
 Coeff:      0.345D-03-0.171D-01-0.107D-01 0.156D+00 0.871D+00
 Gap=     0.097 Goal=   None    Shift=    0.000
 Gap=     0.097 Goal=   None    Shift=    0.000
 RMSDP=4.00D-07 MaxDP=5.21D-06 DE=-5.27D-09 OVMax= 8.57D-06

 Cycle   6  Pass 1  IDiag  1:
 E= -579.905883270335     Delta-E=       -0.000000000134 Rises=F Damp=F
 DIIS: error= 1.92D-07 at cycle   6 NSaved=   6.
 NSaved= 6 IEnMin= 6 EnMin= -579.905883270335     IErMin= 6 ErrMin= 1.92D-07
 ErrMax= 1.92D-07  0.00D+00 EMaxC= 1.00D-01 BMatC= 1.27D-11 BMatP= 3.53D-10
 IDIUse=1 WtCom= 1.00D+00 WtEn= 0.00D+00
 Coeff-Com:  0.291D-03-0.501D-03-0.843D-02-0.135D-01 0.109D+00 0.914D+00
 Coeff:      0.291D-03-0.501D-03-0.843D-02-0.135D-01 0.109D+00 0.914D+00
 Gap=     0.097 Goal=   None    Shift=    0.000
 Gap=     0.097 Goal=   None    Shift=    0.000
 RMSDP=9.64D-08 MaxDP=1.25D-06 DE=-1.34D-10 OVMax= 2.70D-06

 Cycle   7  Pass 1  IDiag  1:
 E= -579.905883270342     Delta-E=       -0.000000000007 Rises=F Damp=F
 DIIS: error= 1.80D-07 at cycle   7 NSaved=   7.
 NSaved= 7 IEnMin= 7 EnMin= -579.905883270342     IErMin= 7 ErrMin= 1.80D-07
 ErrMax= 1.80D-07  0.00D+00 EMaxC= 1.00D-01 BMatC= 3.33D-12 BMatP= 1.27D-11
 IDIUse=1 WtCom= 1.00D+00 WtEn= 0.00D+00
 Coeff-Com:  0.124D-03 0.171D-03-0.350D-02-0.105D-01 0.334D-01 0.375D+00
 Coeff-Com:  0.605D+00
 Coeff:      0.124D-03 0.171D-03-0.350D-02-0.105D-01 0.334D-01 0.375D+00
 Coeff:      0.605D+00
 Gap=     0.097 Goal=   None    Shift=    0.000
 Gap=     0.097 Goal=   None    Shift=    0.000
 RMSDP=3.40D-08 MaxDP=6.81D-07 DE=-7.05D-12 OVMax= 2.31D-06

 Cycle   8  Pass 1  IDiag  1:
 E= -579.905883270343     Delta-E=       -0.000000000001 Rises=F Damp=F
 DIIS: error= 1.31D-07 at cycle   8 NSaved=   8.
 NSaved= 8 IEnMin= 8 EnMin= -579.905883270343     IErMin= 8 ErrMin= 1.31D-07
 ErrMax= 1.31D-07  0.00D+00 EMaxC= 1.00D-01 BMatC= 1.68D-12 BMatP= 3.33D-12
 IDIUse=1 WtCom= 1.00D+00 WtEn= 0.00D+00
 Coeff-Com: -0.235D-04 0.329D-03 0.771D-03-0.274D-02-0.159D-01-0.102D+00
 Coeff-Com:  0.430D+00 0.689D+00
 Coeff:     -0.235D-04 0.329D-03 0.771D-03-0.274D-02-0.159D-01-0.102D+00
 Coeff:      0.430D+00 0.689D+00
 Gap=     0.097 Goal=   None    Shift=    0.000
 Gap=     0.097 Goal=   None    Shift=    0.000
 RMSDP=1.87D-08 MaxDP=3.00D-07 DE=-1.25D-12 OVMax= 1.01D-06

 Cycle   9  Pass 1  IDiag  1:
 E= -579.905883270345     Delta-E=       -0.000000000002 Rises=F Damp=F
 DIIS: error= 1.26D-08 at cycle   9 NSaved=   9.
 NSaved= 9 IEnMin= 9 EnMin= -579.905883270345     IErMin= 9 ErrMin= 1.26D-08
 ErrMax= 1.26D-08  0.00D+00 EMaxC= 1.00D-01 BMatC= 3.44D-14 BMatP= 1.68D-12
 IDIUse=1 WtCom= 1.00D+00 WtEn= 0.00D+00
 Coeff-Com: -0.882D-05-0.978D-04 0.136D-03 0.210D-02-0.107D-02-0.704D-02
 Coeff-Com: -0.169D+00-0.181D+00 0.136D+01
 Coeff:     -0.882D-05-0.978D-04 0.136D-03 0.210D-02-0.107D-02-0.704D-02
 Coeff:     -0.169D+00-0.181D+00 0.136D+01
 Gap=     0.097 Goal=   None    Shift=    0.000
 Gap=     0.097 Goal=   None    Shift=    0.000
 RMSDP=7.11D-09 MaxDP=7.18D-08 DE=-1.71D-12 OVMax= 4.28D-07

 SCF Done:  E(UM062X) =  -579.905883270     A.U. after    9 cycles
            NFock=  9  Conv=0.71D-08     -V/T= 2.0015
 <Sx>= 0.0000 <Sy>= 0.0000 <Sz>= 0.0000 <S**2>=-0.0000 S=-0.0000
 <L.S>=  0.00000000000    
 KE= 5.790590940324D+02 PE=-1.477521723553D+03 EE= 2.705313696623D+02
 Annihilation of the first spin contaminant:
 S**2 before annihilation    -0.0000,   after     0.0000
 Leave Link  502 at Mon Apr 21 21:24:09 2025, MaxMem=   536870912 cpu:              39.1 elap:               5.4
 (Enter /home/szhao/Apps/g16/l701.exe)
 ... and contract with generalized density number  0.
 Compute integral first derivatives.
 Leave Link  701 at Mon Apr 21 21:24:10 2025, MaxMem=   536870912 cpu:               4.2 elap:               0.7
 (Enter /home/szhao/Apps/g16/l702.exe)
 L702 exits ... SP integral derivatives will be done elsewhere.
 Leave Link  702 at Mon Apr 21 21:24:10 2025, MaxMem=   536870912 cpu:               0.4 elap:               0.2
 (Enter /home/szhao/Apps/g16/l703.exe)
 Integral derivatives from FoFJK, PRISM(SPDF).
 Compute integral first derivatives, UseDBF=F ICtDFT=           0.
 Calling FoFJK, ICntrl=      2127 FMM=F ISym2X=0 I1Cent= 0 IOpClX= 1 NMat=1 NMatS=1 NMatT=0.
 FoFJK:  IHMeth= 1 ICntrl=    2127 DoSepK=F KAlg= 0 I1Cent=           0 FoldK=F
 IRaf=         0 NMat=       1 IRICut=       1 DoRegI=T DoRafI=F ISym2E= 0 IDoP0=0 IntGTp=1.
 FoFCou: FMM=F IPFlag=           0 FMFlag=      100000 FMFlg1=         800
         NFxFlg=           0 DoJE=F BraDBF=F KetDBF=F FulRan=T
         wScrn=  0.000000 ICntrl=      2127 IOpCl=  1 I1Cent=           0 NGrid=           0
         NMat0=    1 NMatS0=      1 NMatT0=    0 NMatD0=    1 NMtDS0=    0 NMtDT0=    0
 Symmetry not used in FoFCou.
 Leave Link  703 at Mon Apr 21 21:24:11 2025, MaxMem=   536870912 cpu:               6.6 elap:               0.9
 (Enter /home/szhao/Apps/g16/l716.exe)
 Dipole        =-3.90806667D-08 3.45242065D-05-9.05138945D-10
 -------------------------------------------------------------------
 Center     Atomic                   Forces (Hartrees/Bohr)
 Number     Number              X              Y              Z
 -------------------------------------------------------------------
      1       14          -0.000000000   -0.000000000   -0.000000000
      2       14          -0.000000000   -0.000000000   -0.000000000
      3        1           0.000012048    0.000001140    0.000000000
      4        1          -0.000012060    0.000002848   -0.000000000
 -------------------------------------------------------------------
 Cartesian Forces:  Max     0.000012060 RMS     0.000005000
 Leave Link  716 at Mon Apr 21 21:24:11 2025, MaxMem=   536870912 cpu:               0.5 elap:               0.2
 (Enter /home/szhao/Apps/g16/l103.exe)

 GradGradGradGradGradGradGradGradGradGradGradGradGradGradGradGradGradGrad
 Berny optimization.
 Using GEDIIS/GDIIS optimizer.
 FormGI is forming the generalized inverse of G from B-inverse, IUseBI=4.
 Internal  Forces:  Max     0.000012060 RMS     0.000007401
 Search for a local minimum.
 Step number   3 out of a maximum of   22
 All quantities printed in internal units (Hartrees-Bohrs-Radians)
 RMS Force = .77316D-05 SwitMx=.10000D-02 MixMth= 2
 Mixed Optimization -- En-DIIS/RFO-DIIS
 Update second derivatives using D2CorX and points    1    2    3
 DE= -4.17D-05 DEPred=-3.26D-05 R= 1.28D+00
 TightC=F SS=  1.41D+00  RLast= 2.39D-02 DXNew= 8.4853D-01 7.1805D-02
 Trust test= 1.28D+00 RLast= 2.39D-02 DXMaxT set to 5.05D-01
 The second derivative matrix:
                          X1        Y1        Z1        X2        Y2
           X1           0.57397
           Y1           0.00005   0.50000
           Z1          -0.00000  -0.00000   0.50000
           X2          -0.07397  -0.00005   0.00000   0.57397
           Y2           0.00005   0.00000  -0.00000  -0.00005   0.50000
           Z2           0.00000   0.00000  -0.00000  -0.00000   0.00000
           R1          -0.07397  -0.00005   0.00000   0.07397  -0.00005
           R2          -0.07397  -0.00005   0.00000   0.07397  -0.00005
           A1           0.00017   0.00000  -0.00000  -0.00017   0.00000
           A2          -0.00018  -0.00000   0.00000   0.00018  -0.00000
           A3          -0.00000  -0.00000   0.00000   0.00000  -0.00000
           A4           0.00000   0.00000  -0.00000  -0.00000   0.00000
                          Z2        R1        R2        A1        A2
           Z2           0.50000
           R1          -0.00000   0.16814
           R2          -0.00000  -0.02019   0.16814
           A1           0.00000  -0.00018  -0.00018   0.00655
           A2          -0.00000   0.00018   0.00018  -0.00000   0.00655
           A3          -0.00000   0.00000   0.00000  -0.00000   0.00000
           A4           0.00000  -0.00000  -0.00000   0.00000  -0.00000
                          A3        A4
           A3           0.00655
           A4           0.00000   0.00655
 ITU=  1  1  0
 Use linear search instead of GDIIS.
     Eigenvalues ---    0.00655   0.00655   0.00655   0.14795   0.18833
     Eigenvalues --- 1000.000001000.000001000.000001000.000001000.00000
     Eigenvalues --- 1000.000001000.00000
 RFO step:  Lambda=-1.02992508D-08 EMin= 6.54916905D-03
 Quartic linear search produced a step of -0.00490.
 Iteration  1 RMS(Cart)=  0.00105811 RMS(Int)=  0.00000047
 Iteration  2 RMS(Cart)=  0.00000047 RMS(Int)=  0.00000001
 ITry= 1 IFail=0 DXMaxC= 2.59D-03 DCOld= 1.00D+10 DXMaxT= 5.05D-01 DXLimC= 3.00D+00 Rises=F
 Variable       Old X    -DE/DX   Delta X   Delta X   Delta X     New X
                                 (Linear)    (Quad)   (Total)
    X1       -2.79435   0.00001   0.00000   0.00000   0.00000  -2.79435
    Y1        0.00000   0.00000   0.00000   0.00000   0.00000   0.00000
    Z1        0.00000  -0.00000   0.00000   0.00000   0.00000   0.00000
    X2        2.79435  -0.00001   0.00000   0.00000   0.00000   2.79435
    Y2        0.00000   0.00000   0.00000   0.00000   0.00000   0.00000
    Z2        0.00000   0.00000   0.00000   0.00000   0.00000   0.00000
    R1        2.92345  -0.00001  -0.00008   0.00000  -0.00008   2.92337
    R2        2.92345  -0.00001  -0.00008   0.00000  -0.00008   2.92337
    A1        3.14171   0.00001  -0.00000   0.00089   0.00089   3.14259
    A2        3.14143  -0.00001   0.00000  -0.00089  -0.00089   3.14055
    A3        3.14159   0.00000   0.00000   0.00000  -0.00000   3.14159
    A4        3.14159   0.00000  -0.00000   0.00000   0.00000   3.14159
         Item               Value     Threshold  Converged?
 Maximum Force            0.000012     0.000450     YES
 RMS     Force            0.000008     0.000300     YES
 Maximum Displacement     0.002590     0.001800     NO 
 RMS     Displacement     0.001058     0.001200     YES
 Predicted change in Energy=-6.128450D-09
 Lowest energy point so far.  Saving SCF results.
 GradGradGradGradGradGradGradGradGradGradGradGradGradGradGradGradGradGrad

 Leave Link  103 at Mon Apr 21 21:24:12 2025, MaxMem=   536870912 cpu:               1.3 elap:               0.3
 (Enter /home/szhao/Apps/g16/l202.exe)
                          Input orientation:                          
 ---------------------------------------------------------------------
 Center     Atomic      Atomic             Coordinates (Angstroms)
 Number     Number       Type             X           Y           Z
 ---------------------------------------------------------------------
      1         14           0       -1.478705    0.000000    0.000000
      2         14           0        1.478705    0.000000    0.000000
      3          1           0       -3.025686    0.001547    0.000000
      4          1           0        3.025686    0.001615    0.000000
 ---------------------------------------------------------------------
                    Distance matrix (angstroms):
                    1          2          3          4
     1  Si   0.000000
     2  Si   2.957410   0.000000
     3  H    1.546982   4.504391   0.000000
     4  H    4.504391   1.546982   6.051372   0.000000
 Symmetry turned off by external request.
 Stoichiometry    H2Si2
 Framework group  C1[X(H2Si2)]
 Deg. of freedom     6
 Full point group                 C1      NOp   1
 Rotational constants (GHZ):   103877478.0364765           3.5893455           3.5893454
 Leave Link  202 at Mon Apr 21 21:24:12 2025, MaxMem=   536870912 cpu:               0.3 elap:               0.4
 (Enter /home/szhao/Apps/g16/l301.exe)
 Standard basis: 6-311+G(d,p) (5D, 7F)
 Ernie: Thresh=  0.10000D-02 Tol=  0.10000D-05 Strict=F.
    72 basis functions,   116 primitive gaussians,    74 cartesian basis functions
    15 alpha electrons       15 beta electrons
       nuclear repulsion energy        48.0256750623 Hartrees.
 IExCor= 4336 DFT=T Ex+Corr=M062X ExCW=0 ScaHFX=  0.540000
 ScaDFX=  1.000000  1.000000  1.000000  1.000000 ScalE2=  1.000000  1.000000
 IRadAn=      7 IRanWt=     -1 IRanGd=            0 ICorTp=0 IEmpDi=  4
 NAtoms=    4 NActive=    4 NUniq=    4 SFac= 1.00D+00 NAtFMM=   60 NAOKFM=F Big=F
 Integral buffers will be    131072 words long.
 Raffenetti 2 integral format.
 Two-electron integral symmetry is turned off.
 Leave Link  301 at Mon Apr 21 21:24:13 2025, MaxMem=   536870912 cpu:               0.7 elap:               0.2
 (Enter /home/szhao/Apps/g16/l302.exe)
 NPDir=0 NMtPBC=     1 NCelOv=     1 NCel=       1 NClECP=     1 NCelD=      1
         NCelK=      1 NCelE2=     1 NClLst=     1 CellRange=     0.0.
 One-electron integrals computed using PRISM.
 NBasis=    72 RedAO= T EigKep=  3.13D-03  NBF=    72
 NBsUse=    72 1.00D-06 EigRej= -1.00D+00 NBFU=    72
 Precomputing XC quadrature grid using
 IXCGrd= 4 IRadAn=           7 IRanWt=          -1 IRanGd=           0 AccXCQ= 0.00D+00.
 Generated NRdTot=       0 NPtTot=           0 NUsed=           0 NTot=          32
 NSgBfM=    68    68    68    68    68 MxSgAt=     4 MxSgA2=     4.
 Leave Link  302 at Mon Apr 21 21:24:13 2025, MaxMem=   536870912 cpu:               2.2 elap:               0.4
 (Enter /home/szhao/Apps/g16/l303.exe)
 DipDrv:  MaxL=1.
 Leave Link  303 at Mon Apr 21 21:24:14 2025, MaxMem=   536870912 cpu:               2.7 elap:               0.5
 (Enter /home/szhao/Apps/g16/l401.exe)
 Initial guess from the checkpoint file:  "opt.chk"
 B after Tr=    -0.000000    0.000173    0.000000
         Rot=    1.000000    0.000009    0.000000    0.000000 Ang=   0.00 deg.
 Guess basis will be translated and rotated to current coordinates.
 JPrj=2 DoOrth=T DoCkMO=T.
 Initial guess <Sx>= 0.0000 <Sy>= 0.0000 <Sz>= 0.0000 <S**2>=-0.0000 S=-0.0000
 Leave Link  401 at Mon Apr 21 21:24:15 2025, MaxMem=   536870912 cpu:               5.0 elap:               0.9
 (Enter /home/szhao/Apps/g16/l502.exe)
 Keep R1 and R2 ints in memory in canonical form, NReq=14118010.
 FoFCou: FMM=F IPFlag=           0 FMFlag=           0 FMFlg1=           0
         NFxFlg=           0 DoJE=F BraDBF=F KetDBF=F FulRan=T
         wScrn=  0.000000 ICntrl=       600 IOpCl=  0 I1Cent=           0 NGrid=           0
         NMat0=    1 NMatS0=   2628 NMatT0=    0 NMatD0=    1 NMtDS0=    0 NMtDT0=    0
 Symmetry not used in FoFCou.
 Two-electron integral symmetry not used.
 UHF open shell SCF:
 Using DIIS extrapolation, IDIIS=  1040.
 NGot=   536870912 LenX=   529949706 LenY=   529943789
 Requested convergence on RMS density matrix=1.00D-08 within 128 cycles.
 Requested convergence on MAX density matrix=1.00D-06.
 Requested convergence on             energy=1.00D-06.
 No special actions if energy rises.

 Cycle   1  Pass 1  IDiag  1:
 E= -579.905883114847    
 DIIS: error= 3.64D-05 at cycle   1 NSaved=   1.
 NSaved= 1 IEnMin= 1 EnMin= -579.905883114847     IErMin= 1 ErrMin= 3.64D-05
 ErrMax= 3.64D-05  0.00D+00 EMaxC= 1.00D-01 BMatC= 1.15D-07 BMatP= 1.15D-07
 IDIUse=1 WtCom= 1.00D+00 WtEn= 0.00D+00
 Coeff-Com:  0.100D+01
 Coeff:      0.100D+01
 Gap=     0.381 Goal=   None    Shift=    0.000
 Gap=     0.381 Goal=   None    Shift=    0.000
 RMSDP=6.33D-06 MaxDP=7.99D-05              OVMax= 3.87D-04

 Cycle   2  Pass 1  IDiag  1:
 E= -579.905883271558     Delta-E=       -0.000000156712 Rises=F Damp=F
 DIIS: error= 1.18D-05 at cycle   2 NSaved=   2.
 NSaved= 2 IEnMin= 2 EnMin= -579.905883271558     IErMin= 2 ErrMin= 1.18D-05
 ErrMax= 1.18D-05  0.00D+00 EMaxC= 1.00D-01 BMatC= 2.43D-08 BMatP= 1.15D-07
 IDIUse=1 WtCom= 1.00D+00 WtEn= 0.00D+00
 Coeff-Com: -0.217D+00 0.122D+01
 Coeff:     -0.217D+00 0.122D+01
 Gap=     0.097 Goal=   None    Shift=    0.000
 Gap=     0.097 Goal=   None    Shift=    0.000
 RMSDP=3.22D-06 MaxDP=3.03D-05 DE=-1.57D-07 OVMax= 1.98D-04

 Cycle   3  Pass 1  IDiag  1:
 E= -579.905883308576     Delta-E=       -0.000000037018 Rises=F Damp=F
 DIIS: error= 4.31D-06 at cycle   3 NSaved=   3.
 NSaved= 3 IEnMin= 3 EnMin= -579.905883308576     IErMin= 3 ErrMin= 4.31D-06
 ErrMax= 4.31D-06  0.00D+00 EMaxC= 1.00D-01 BMatC= 2.41D-09 BMatP= 2.43D-08
 IDIUse=1 WtCom= 1.00D+00 WtEn= 0.00D+00
 Coeff-Com: -0.116D+00 0.122D+00 0.994D+00
 Coeff:     -0.116D+00 0.122D+00 0.994D+00
 Gap=     0.097 Goal=   None    Shift=    0.000
 Gap=     0.097 Goal=   None    Shift=    0.000
 RMSDP=1.81D-06 MaxDP=2.20D-05 DE=-3.70D-08 OVMax= 1.10D-04

 Cycle   4  Pass 1  IDiag  1:
 E= -579.905883314717     Delta-E=       -0.000000006141 Rises=F Damp=F
 DIIS: error= 2.47D-06 at cycle   4 NSaved=   4.
 NSaved= 4 IEnMin= 4 EnMin= -579.905883314717     IErMin= 4 ErrMin= 2.47D-06
 ErrMax= 2.47D-06  0.00D+00 EMaxC= 1.00D-01 BMatC= 7.86D-10 BMatP= 2.41D-09
 IDIUse=1 WtCom= 1.00D+00 WtEn= 0.00D+00
 Coeff-Com:  0.355D-01-0.244D+00 0.128D+00 0.108D+01
 Coeff:      0.355D-01-0.244D+00 0.128D+00 0.108D+01
 Gap=     0.097 Goal=   None    Shift=    0.000
 Gap=     0.097 Goal=   None    Shift=    0.000
 RMSDP=7.20D-07 MaxDP=8.30D-06 DE=-6.14D-09 OVMax= 4.31D-05

 Cycle   5  Pass 1  IDiag  1:
 E= -579.905883315609     Delta-E=       -0.000000000892 Rises=F Damp=F
 DIIS: error= 1.67D-07 at cycle   5 NSaved=   5.
 NSaved= 5 IEnMin= 5 EnMin= -579.905883315609     IErMin= 5 ErrMin= 1.67D-07
 ErrMax= 1.67D-07  0.00D+00 EMaxC= 1.00D-01 BMatC= 3.50D-12 BMatP= 7.86D-10
 IDIUse=1 WtCom= 1.00D+00 WtEn= 0.00D+00
 Coeff-Com: -0.374D-02 0.344D-01-0.299D-01-0.206D+00 0.121D+01
 Coeff:     -0.374D-02 0.344D-01-0.299D-01-0.206D+00 0.121D+01
 Gap=     0.097 Goal=   None    Shift=    0.000
 Gap=     0.097 Goal=   None    Shift=    0.000
 RMSDP=8.63D-08 MaxDP=1.04D-06 DE=-8.92D-10 OVMax= 5.14D-06

 Cycle   6  Pass 1  IDiag  1:
 E= -579.905883315618     Delta-E=       -0.000000000009 Rises=F Damp=F
 DIIS: error= 2.94D-08 at cycle   6 NSaved=   6.
 NSaved= 6 IEnMin= 6 EnMin= -579.905883315618     IErMin= 6 ErrMin= 2.94D-08
 ErrMax= 2.94D-08  0.00D+00 EMaxC= 1.00D-01 BMatC= 1.56D-13 BMatP= 3.50D-12
 IDIUse=1 WtCom= 1.00D+00 WtEn= 0.00D+00
 Coeff-Com: -0.116D-02 0.830D-02-0.511D-02-0.409D-01 0.628D-01 0.976D+00
 Coeff:     -0.116D-02 0.830D-02-0.511D-02-0.409D-01 0.628D-01 0.976D+00
 Gap=     0.097 Goal=   None    Shift=    0.000
 Gap=     0.097 Goal=   None    Shift=    0.000
 RMSDP=1.22D-08 MaxDP=1.53D-07 DE=-9.32D-12 OVMax= 6.23D-07

 Cycle   7  Pass 1  IDiag  1:
 E= -579.905883315619     Delta-E=       -0.000000000000 Rises=F Damp=F
 DIIS: error= 3.15D-08 at cycle   7 NSaved=   7.
 NSaved= 7 IEnMin= 7 EnMin= -579.905883315619     IErMin= 6 ErrMin= 2.94D-08
 ErrMax= 3.15D-08  0.00D+00 EMaxC= 1.00D-01 BMatC= 1.02D-13 BMatP= 1.56D-13
 IDIUse=1 WtCom= 1.00D+00 WtEn= 0.00D+00
 Coeff-Com: -0.255D-03 0.110D-02 0.302D-03-0.236D-02-0.801D-01 0.497D+00
 Coeff-Com:  0.584D+00
 Coeff:     -0.255D-03 0.110D-02 0.302D-03-0.236D-02-0.801D-01 0.497D+00
 Coeff:      0.584D+00
 Gap=     0.097 Goal=   None    Shift=    0.000
 Gap=     0.097 Goal=   None    Shift=    0.000
 RMSDP=5.45D-09 MaxDP=1.06D-07 DE=-4.55D-13 OVMax= 3.60D-07

 SCF Done:  E(UM062X) =  -579.905883316     A.U. after    7 cycles
            NFock=  7  Conv=0.54D-08     -V/T= 2.0015
 <Sx>= 0.0000 <Sy>= 0.0000 <Sz>= 0.0000 <S**2>=-0.0000 S=-0.0000
 <L.S>=  0.00000000000    
 KE= 5.790591653593D+02 PE=-1.477522449260D+03 EE= 2.705317255225D+02
 Annihilation of the first spin contaminant:
 S**2 before annihilation    -0.0000,   after    -0.0000
 Leave Link  502 at Mon Apr 21 21:24:19 2025, MaxMem=   536870912 cpu:              26.9 elap:               3.7
 (Enter /home/szhao/Apps/g16/l701.exe)
 ... and contract with generalized density number  0.
 Compute integral first derivatives.
 Leave Link  701 at Mon Apr 21 21:24:20 2025, MaxMem=   536870912 cpu:               2.1 elap:               0.5
 (Enter /home/szhao/Apps/g16/l702.exe)
 L702 exits ... SP integral derivatives will be done elsewhere.
 Leave Link  702 at Mon Apr 21 21:24:21 2025, MaxMem=   536870912 cpu:               0.5 elap:               0.2
 (Enter /home/szhao/Apps/g16/l703.exe)
 Integral derivatives from FoFJK, PRISM(SPDF).
 Compute integral first derivatives, UseDBF=F ICtDFT=           0.
 Calling FoFJK, ICntrl=      2127 FMM=F ISym2X=0 I1Cent= 0 IOpClX= 1 NMat=1 NMatS=1 NMatT=0.
 FoFJK:  IHMeth= 1 ICntrl=    2127 DoSepK=F KAlg= 0 I1Cent=           0 FoldK=F
 IRaf=         0 NMat=       1 IRICut=       1 DoRegI=T DoRafI=F ISym2E= 0 IDoP0=0 IntGTp=1.
 FoFCou: FMM=F IPFlag=           0 FMFlag=      100000 FMFlg1=         800
         NFxFlg=           0 DoJE=F BraDBF=F KetDBF=F FulRan=T
         wScrn=  0.000000 ICntrl=      2127 IOpCl=  1 I1Cent=           0 NGrid=           0
         NMat0=    1 NMatS0=      1 NMatT0=    0 NMatD0=    1 NMtDS0=    0 NMtDT0=    0
 Symmetry not used in FoFCou.
 Leave Link  703 at Mon Apr 21 21:24:22 2025, MaxMem=   536870912 cpu:               5.5 elap:               0.8
 (Enter /home/szhao/Apps/g16/l716.exe)
 Dipole        =-1.66327025D-06 2.60874705D-04-1.15059859D-08
[...]
 DIIS: error= 3.62D-09 at cycle   7 NSaved=   7.
 NSaved= 7 IEnMin= 7 EnMin= -579.981875787173     IErMin= 7 ErrMin= 3.62D-09
 ErrMax= 3.62D-09  0.00D+00 EMaxC= 1.00D-01 BMatC= 5.57D-15 BMatP= 1.68D-13
 IDIUse=1 WtCom= 1.00D+00 WtEn= 0.00D+00
 Coeff-Com: -0.308D-04 0.407D-03 0.836D-03-0.439D-02-0.167D-01-0.133D+00
 Coeff-Com:  0.115D+01
 Coeff:     -0.308D-04 0.407D-03 0.836D-03-0.439D-02-0.167D-01-0.133D+00
 Coeff:      0.115D+01
 Gap=     0.124 Goal=   None    Shift=    0.000
 Gap=     0.124 Goal=   None    Shift=    0.000
 RMSDP=3.37D-09 MaxDP=4.86D-08 DE=-2.27D-13 OVMax= 9.69D-08

 SCF Done:  E(UM062X) =  -579.981875787     A.U. after    7 cycles
            NFock=  7  Conv=0.34D-08     -V/T= 2.0017
 <Sx>= 0.0000 <Sy>= 0.0000 <Sz>= 0.0000 <S**2>=-0.0000 S=-0.0000
 <L.S>=  0.00000000000    
 KE= 5.790164200014D+02 PE=-1.480619168234D+03 EE= 2.722117262601D+02
 Annihilation of the first spin contaminant:
 S**2 before annihilation     0.0000,   after    -0.0000
 Leave Link  502 at Mon Apr 21 21:25:42 2025, MaxMem=   536870912 cpu:              28.4 elap:               4.0
 (Enter /home/szhao/Apps/g16/l701.exe)
 ... and contract with generalized density number  0.
 Compute integral first derivatives.
 Leave Link  701 at Mon Apr 21 21:25:43 2025, MaxMem=   536870912 cpu:               1.4 elap:               0.3
 (Enter /home/szhao/Apps/g16/l702.exe)
 L702 exits ... SP integral derivatives will be done elsewhere.
 Leave Link  702 at Mon Apr 21 21:25:44 2025, MaxMem=   536870912 cpu:               0.4 elap:               0.4
 (Enter /home/szhao/Apps/g16/l703.exe)
 Integral derivatives from FoFJK, PRISM(SPDF).
 Compute integral first derivatives, UseDBF=F ICtDFT=           0.
 Calling FoFJK, ICntrl=      2127 FMM=F ISym2X=0 I1Cent= 0 IOpClX= 1 NMat=1 NMatS=1 NMatT=0.
 FoFJK:  IHMeth= 1 ICntrl=    2127 DoSepK=F KAlg= 0 I1Cent=           0 FoldK=F
 IRaf=         0 NMat=       1 IRICut=       1 DoRegI=T DoRafI=F ISym2E= 0 IDoP0=0 IntGTp=1.
 FoFCou: FMM=F IPFlag=           0 FMFlag=      100000 FMFlg1=         800
         NFxFlg=           0 DoJE=F BraDBF=F KetDBF=F FulRan=T
         wScrn=  0.000000 ICntrl=      2127 IOpCl=  1 I1Cent=           0 NGrid=           0
         NMat0=    1 NMatS0=      1 NMatT0=    0 NMatD0=    1 NMtDS0=    0 NMtDT0=    0
 Symmetry not used in FoFCou.
 Leave Link  703 at Mon Apr 21 21:25:45 2025, MaxMem=   536870912 cpu:               5.7 elap:               1.0
 (Enter /home/szhao/Apps/g16/l716.exe)
 Dipole        =-5.09433364D-05 1.96857755D-01-9.39836716D-09
 -------------------------------------------------------------------
 Center     Atomic                   Forces (Hartrees/Bohr)
 Number     Number              X              Y              Z
 -------------------------------------------------------------------
      1       14          -0.000000000   -0.000000000   -0.000000000
      2       14          -0.000000000   -0.000000000   -0.000000000
      3        1          -0.000012272   -0.000064724    0.000000000
      4        1           0.000008271   -0.000064125   -0.000000000
 -------------------------------------------------------------------
 Cartesian Forces:  Max     0.000064724 RMS     0.000026646
 Leave Link  716 at Mon Apr 21 21:25:46 2025, MaxMem=   536870912 cpu:               0.7 elap:               0.3
 (Enter /home/szhao/Apps/g16/l103.exe)

 GradGradGradGradGradGradGradGradGradGradGradGradGradGradGradGradGradGrad
 Berny optimization.
 Using GEDIIS/GDIIS optimizer.
 FormGI is forming the generalized inverse of G from B-inverse, IUseBI=4.
 Internal  Forces:  Max     0.000064613 RMS     0.000039815
 Search for a local minimum.
 Step number  10 out of a maximum of   22
 All quantities printed in internal units (Hartrees-Bohrs-Radians)
 RMS Force = .41855D-04 SwitMx=.10000D-02 MixMth= 2
 Mixed Optimization -- En-DIIS/RFO-DIIS
 Swapping is turned off.
 Update second derivatives using D2CorX and points    7    8    9   10
 DE= -5.83D-07 DEPred=-7.38D-07 R= 7.90D-01
 Trust test= 7.90D-01 RLast= 3.31D-03 DXMaxT set to 1.43D+00
 The second derivative matrix:
                          X1        Y1        Z1        X2        Y2
           X1           0.50009
           Y1          -0.00121   0.58585
           Z1           0.00000  -0.00000   0.50000
           X2          -0.00009   0.00123  -0.00000   0.50009
           Y2          -0.00121   0.08589  -0.00000   0.00123   0.58593
           Z2           0.00000  -0.00000   0.00000  -0.00000  -0.00000
           R1          -0.00070   0.08189  -0.00000   0.00072   0.08192
           R2          -0.00064   0.08194  -0.00000   0.00066   0.08197
           A1           0.00172  -0.00909   0.00000  -0.00172  -0.00910
           A2          -0.00172   0.00910  -0.00000   0.00172   0.00912
           A3           0.00000  -0.00000   0.00000  -0.00000  -0.00000
           A4          -0.00000   0.00000  -0.00000   0.00000   0.00000
                          Z2        R1        R2        A1        A2
           Z2           0.50000
           R1          -0.00000   0.17555
           R2          -0.00000  -0.01279   0.17554
           A1           0.00000   0.00190   0.00190   0.03895
           A2          -0.00000  -0.00188  -0.00188  -0.03241   0.03896
           A3           0.00000  -0.00000  -0.00000  -0.00000   0.00000
           A4          -0.00000   0.00000   0.00000  -0.00000   0.00000
                          A3        A4
           A3           0.00655
           A4           0.00000   0.00655
 ITU=  0  1  1  1  1  0  0  1  1  0
     Eigenvalues ---    0.00655   0.00655   0.07121   0.16291   0.18795
     Eigenvalues --- 1000.000001000.000001000.000001000.000001000.00000
     Eigenvalues --- 1000.000001000.00000
 En-DIIS/RFO-DIIS/Sim-DIIS IScMMF=       -3 using points:    10    9    8
 RFO step:  Lambda=-7.97676344D-08.
 NNeg= 0 NGDIIS= 3 SimSw=  2.50D-01 Rises=F DC= -5.83D-07 SmlDif=  1.00D-05
 NRisDI= 0 DoIntr=F SqrtH=F CThrHd= 10.0 CDAdj=  3.0
 RMS Error=  0.2421448896D-03 NUsed= 3 OKEnD=F EnDIS=F
 InvSVX:  RCond= 3.31D-06 Info=           0 Equed=N FErr=  1.62D-15 BErr=  7.19D-17
 DidBck=T Rises=F RFO-DIIS coefs:    0.74278    0.22298    0.03424
 Iteration  1 RMS(Cart)=  0.00053895 RMS(Int)=  0.00000012
 Iteration  2 RMS(Cart)=  0.00000013 RMS(Int)=  0.00000000
 ITry= 1 IFail=0 DXMaxC= 1.25D-03 DCOld= 1.00D+10 DXMaxT= 1.43D+00 DXLimC= 3.00D+00 Rises=F
 Variable       Old X    -DE/DX   Delta X   Delta X   Delta X     New X
                                 (Linear)    (Quad)   (Total)
    X1       -2.79435  -0.00001   0.00000   0.00000   0.00000  -2.79435
    Y1        0.00000  -0.00006   0.00000   0.00000   0.00000   0.00000
    Z1        0.00000   0.00000   0.00000   0.00000   0.00000   0.00000
    X2        2.79435   0.00001   0.00000   0.00000   0.00000   2.79435
    Y2        0.00000  -0.00006   0.00000   0.00000   0.00000   0.00000
    Z2        0.00000  -0.00000   0.00000   0.00000   0.00000   0.00000
    R1        2.87229  -0.00006  -0.00038   0.00000  -0.00038   2.87191
    R2        2.87229  -0.00006  -0.00038  -0.00000  -0.00038   2.87191
    A1        4.68958  -0.00003  -0.00044  -0.00000  -0.00044   4.68914
    A2        1.59371   0.00003   0.00044  -0.00000   0.00044   1.59415
    A3        3.14159  -0.00000  -0.00000  -0.00000  -0.00000   3.14159
    A4        3.14159  -0.00000   0.00000  -0.00000   0.00000   3.14159
         Item               Value     Threshold  Converged?
 Maximum Force            0.000064     0.000450     YES
 RMS     Force            0.000042     0.000300     YES
 Maximum Displacement     0.001254     0.001800     YES
 RMS     Displacement     0.000539     0.001200     YES
 Predicted change in Energy=-3.986844D-08
 Optimization completed.
    -- Stationary point found.
                           ----------------------------
                           !   Optimized Parameters   !
                           ! (Angstroms and Degrees)  !
 --------------------------                            --------------------------
 ! Name  Definition              Value          Derivative Info.                !
 --------------------------------------------------------------------------------
 ! X1    R(1,-1)                -1.4787         -DE/DX =    0.0                 !
 ! Y1    R(1,-2)                 0.0            -DE/DX =   -0.0001              !
 ! Z1    R(1,-3)                 0.0            -DE/DX =    0.0                 !
 ! X2    R(2,-1)                 1.4787         -DE/DX =    0.0                 !
 ! Y2    R(2,-2)                 0.0            -DE/DX =   -0.0001              !
 ! Z2    R(2,-3)                 0.0            -DE/DX =    0.0                 !
 ! R1    R(1,3)                  1.52           -DE/DX =   -0.0001              !
 ! R2    R(2,4)                  1.52           -DE/DX =   -0.0001              !
 ! A1    L(2,1,3,-3,-1)        268.693          -DE/DX =    0.0                 !
 ! A2    L(1,2,4,-3,-1)         91.3127         -DE/DX =    0.0                 !
 ! A3    L(2,1,3,-2,-2)        180.0001         -DE/DX =    0.0                 !
 ! A4    L(1,2,4,-2,-2)        179.9998         -DE/DX =    0.0                 !
 --------------------------------------------------------------------------------
 Lowest energy point so far.  Saving SCF results.
 Largest change from initial coordinates is atom    3       2.082 Angstoms.
 GradGradGradGradGradGradGradGradGradGradGradGradGradGradGradGradGradGrad

 Leave Link  103 at Mon Apr 21 21:25:47 2025, MaxMem=   536870912 cpu:               1.3 elap:               0.3
 (Enter /home/szhao/Apps/g16/l202.exe)
                          Input orientation:                          
 ---------------------------------------------------------------------
 Center     Atomic      Atomic             Coordinates (Angstroms)
 Number     Number       Type             X           Y           Z
 ---------------------------------------------------------------------
      1         14           0       -1.478705    0.000000    0.000000
      2         14           0        1.478705    0.000000    0.000000
      3          1           0       -1.513373    1.519556   -0.000000
      4          1           0        1.513525    1.519552   -0.000000
 ---------------------------------------------------------------------
                    Distance matrix (angstroms):
                    1          2          3          4
     1  Si   0.000000
     2  Si   2.957410   0.000000
     3  H    1.519951   3.355828   0.000000
     4  H    3.355961   1.519951   3.026898   0.000000
 Symmetry turned off by external request.
 Stoichiometry    H2Si2
 Framework group  C1[X(H2Si2)]
 Deg. of freedom     6
 Full point group                 C1      NOp   1
 Rotational constants (GHZ):         112.4966441           3.9804956           3.8444659
 Leave Link  202 at Mon Apr 21 21:25:47 2025, MaxMem=   536870912 cpu:               0.2 elap:               0.2
 (Enter /home/szhao/Apps/g16/l601.exe)
 Copying SCF densities to generalized density rwf, IOpCl= 1 IROHF=0.

 **********************************************************************

            Population analysis using the SCF density.

 **********************************************************************

 Alpha  occ. eigenvalues --  -67.02770 -67.02770  -5.57236  -5.57236  -3.88417
 Alpha  occ. eigenvalues --   -3.88416  -3.87900  -3.87897  -3.87786  -3.87785
 Alpha  occ. eigenvalues --   -0.56539  -0.52002  -0.34463  -0.29890  -0.23009
 Alpha virt. eigenvalues --   -0.10597  -0.05872  -0.01451   0.02318   0.03750
 Alpha virt. eigenvalues --    0.04188   0.05197   0.05501   0.06254   0.06637
 Alpha virt. eigenvalues --    0.07988   0.10075   0.12698   0.28184   0.30001
 Alpha virt. eigenvalues --    0.30231   0.30517   0.30937   0.32225   0.38993
 Alpha virt. eigenvalues --    0.44598   0.45679   0.49174   0.59334   0.59831
 Alpha virt. eigenvalues --    0.60580   0.60743   0.60901   0.65084   0.66028
 Alpha virt. eigenvalues --    0.78345   0.83090   0.85425   1.18321   1.20635
 Alpha virt. eigenvalues --    1.22020   1.24387   1.25475   1.30331   1.47401
 Alpha virt. eigenvalues --    1.48326   1.48803   1.55483   1.93882   1.96523
 Alpha virt. eigenvalues --    2.59699   2.62141   5.45720   5.51094  11.43141
 Alpha virt. eigenvalues --   11.44755  11.46300  11.50372  11.50896  11.53317
 Alpha virt. eigenvalues --  141.01338 141.07857
  Beta  occ. eigenvalues --  -67.02770 -67.02770  -5.57236  -5.57236  -3.88417
  Beta  occ. eigenvalues --   -3.88416  -3.87900  -3.87897  -3.87786  -3.87785
  Beta  occ. eigenvalues --   -0.56539  -0.52002  -0.34463  -0.29890  -0.23009
  Beta virt. eigenvalues --   -0.10597  -0.05872  -0.01451   0.02318   0.03750
  Beta virt. eigenvalues --    0.04188   0.05197   0.05501   0.06254   0.06637
  Beta virt. eigenvalues --    0.07988   0.10075   0.12698   0.28184   0.30001
  Beta virt. eigenvalues --    0.30231   0.30517   0.30937   0.32225   0.38993
  Beta virt. eigenvalues --    0.44598   0.45679   0.49174   0.59334   0.59831
  Beta virt. eigenvalues --    0.60580   0.60743   0.60901   0.65084   0.66028
  Beta virt. eigenvalues --    0.78345   0.83090   0.85425   1.18321   1.20635
  Beta virt. eigenvalues --    1.22020   1.24387   1.25475   1.30331   1.47401
  Beta virt. eigenvalues --    1.48326   1.48803   1.55483   1.93882   1.96523
  Beta virt. eigenvalues --    2.59699   2.62141   5.45720   5.51094  11.43141
  Beta virt. eigenvalues --   11.44755  11.46300  11.50372  11.50896  11.53317
  Beta virt. eigenvalues --  141.01338 141.07857
          Condensed to atoms (all electrons):
               1          2          3          4
     1  Si  13.521946   0.145212   0.179055   0.000601
     2  Si   0.145212  13.521961   0.000601   0.179058
     3  H    0.179055   0.000601   0.977574  -0.004053
     4  H    0.000601   0.179058  -0.004053   0.977570
          Atomic-Atomic Spin Densities.
               1          2          3          4
     1  Si  -0.000000  -0.000000   0.000000  -0.000000
     2  Si  -0.000000  -0.000000  -0.000000   0.000000
     3  H    0.000000  -0.000000  -0.000000  -0.000000
     4  H   -0.000000   0.000000  -0.000000  -0.000000
 Mulliken charges and spin densities:
               1          2
     1  Si   0.153185  -0.000000
     2  Si   0.153168  -0.000000
     3  H   -0.153177  -0.000000
     4  H   -0.153176  -0.000000
 Sum of Mulliken charges =   0.00000  -0.00000
 Mulliken charges and spin densities with hydrogens summed into heavy atoms:
               1          2
     1  Si   0.000008  -0.000000
     2  Si  -0.000008  -0.000000
 Electronic spatial extent (au):  <R**2>=            319.1922
 Charge=             -0.0000 electrons
 Dipole moment (field-independent basis, Debye):
    X=             -0.0001    Y=              0.5004    Z=             -0.0000  Tot=              0.5004
 Quadrupole moment (field-independent basis, Debye-Ang):
   XX=            -34.7599   YY=            -33.1546   ZZ=            -23.1537
   XY=              0.0002   XZ=             -0.0000   YZ=              0.0000
 Traceless Quadrupole moment (field-independent basis, Debye-Ang):
   XX=             -4.4039   YY=             -2.7985   ZZ=              7.2024
   XY=              0.0002   XZ=             -0.0000   YZ=              0.0000
 Octapole moment (field-independent basis, Debye-Ang**2):
  XXX=             -0.0012  YYY=            -11.6147  ZZZ=              0.0000  XYY=             -0.0006
  XXY=              3.4154  XXZ=             -0.0000  XZZ=             -0.0002  YZZ=             -1.5095
  YYZ=              0.0000  XYZ=              0.0000
 Hexadecapole moment (field-independent basis, Debye-Ang**3):
 XXXX=           -511.1130 YYYY=            -98.3550 ZZZZ=            -33.2641 XXXY=              0.0010
 XXXZ=             -0.0000 YYYX=             -0.0001 YYYZ=              0.0000 ZZZX=              0.0000
 ZZZY=              0.0000 XXYY=           -103.3259 XXZZ=            -70.3208 YYZZ=            -20.9825
 XXYZ=              0.0000 YYXZ=              0.0000 ZZXY=              0.0000
 N-N= 4.940914618559D+01 E-N=-1.480619167947D+03  KE= 5.790164200014D+02
                          Isotropic Fermi Contact Couplings
        Atom                 a.u.       MegaHertz       Gauss      10(-4) cm-1
     1  Si(29)            -0.00000       0.00000       0.00000       0.00000
     2  Si(29)            -0.00000       0.00000       0.00000       0.00000
     3  H(1)              -0.00000      -0.00000      -0.00000      -0.00000
     4  H(1)              -0.00000      -0.00000      -0.00000      -0.00000
 --------------------------------------------------------
       Center         ----  Spin Dipole Couplings  ----
                      3XX-RR        3YY-RR        3ZZ-RR
 --------------------------------------------------------
     1   Atom        0.000000      0.000000     -0.000000
     2   Atom        0.000000      0.000000     -0.000000
     3   Atom       -0.000000     -0.000000      0.000000
     4   Atom        0.000000     -0.000000      0.000000
 --------------------------------------------------------
                        XY            XZ            YZ
 --------------------------------------------------------
     1   Atom       -0.000000      0.000000      0.000000
     2   Atom        0.000000     -0.000000      0.000000
     3   Atom        0.000000      0.000000      0.000000
     4   Atom       -0.000000     -0.000000      0.000000
 --------------------------------------------------------


 ---------------------------------------------------------------------------------
              Anisotropic Spin Dipole Couplings in Principal Axis System
 ---------------------------------------------------------------------------------

       Atom             a.u.   MegaHertz   Gauss  10(-4) cm-1        Axes

              Baa    -0.0000     0.000     0.000     0.000 -0.6531 -0.2606  0.7111
     1 Si(29) Bbb     0.0000    -0.000    -0.000    -0.000 -0.3675  0.9300  0.0032
              Bcc     0.0000    -0.000    -0.000    -0.000  0.6621  0.2593  0.7031
 
              Baa    -0.0000     0.000     0.000     0.000  0.6516 -0.2515  0.7157
     2 Si(29) Bbb     0.0000    -0.000    -0.000    -0.000  0.3540  0.9352  0.0064
              Bcc     0.0000    -0.000    -0.000    -0.000 -0.6709  0.2492  0.6984
 
              Baa    -0.0000    -0.000    -0.000    -0.000 -0.6800 -0.1966  0.7063
     3 H(1)   Bbb    -0.0000    -0.000    -0.000    -0.000 -0.2791  0.9603 -0.0014
              Bcc     0.0000     0.000     0.000     0.000  0.6780  0.1981  0.7079
 
              Baa    -0.0000    -0.000    -0.000    -0.000  0.6785 -0.1987  0.7072
     4 H(1)   Bbb    -0.0000    -0.000    -0.000    -0.000  0.2783  0.9605  0.0028
              Bcc     0.0000     0.000     0.000     0.000 -0.6798  0.1949  0.7070
 

 ---------------------------------------------------------------------------------

 No NMR shielding tensors so no spin-rotation constants.
 Leave Link  601 at Mon Apr 21 21:25:48 2025, MaxMem=   536870912 cpu:               2.3 elap:               0.5
 (Enter /home/szhao/Apps/g16/l9999.exe)
 1\1\GINC-NODE05\FOpt\UM062X\6-311+G(d,p)\H2Si2\SZHAO\21-Apr-2025\0\\#p
  opt UM062X/6-311+G** nosymm int=superfine\\Title Card Required\\0,1\S
 i,-1.478705,0.,0.\Si,1.478705,0.,0.\H,-1.5133731075,1.5195556575,-0.00
 00000473\H,1.5135246738,1.5195516305,-0.0000000978\\Version=ES64L-G16R
 evA.03\HF=-579.9818758\S2=0.\S2-1=0.\S2A=0.\RMSD=3.373e-09\RMSF=2.665e
 -05\Dipole=-0.0000509,0.1968578,0.\Quadrupole=-3.2741559,-2.0806454,5.
 3548013,0.0001749,0.,0.0000004\PG=C01 [X(H2Si2)]\\@


 ... IT IS NO ONE DREAME THAT
     CAN PLEASE THESE ALL ...

                -- BEN JONSON
 Job cpu time:       0 days  0 hours 10 minutes  1.4 seconds.
 Elapsed time:       0 days  0 hours  1 minutes 37.4 seconds.
 File lengths (MBytes):  RWF=     22 Int=      0 D2E=      0 Chk=      2 Scr=      2
 Normal termination of Gaussian 16 at Mon Apr 21 21:25:50 2025.
