Title Card Required                                                     
Force     UM062X                                                      6-311+G(d,p)        
Number of atoms                            I                6
Info1-9                                    I   N=           9
          15          15           0           0           0         100
           5          18        -502
Full Title                                 C   N=           2
Title Card Required     
Route                                      C   N=           4
#p UM062X/6-311+G** force int=superfine         
Charge                                     I                0
Multiplicity                               I                1
Number of electrons                        I               16
Number of alpha electrons                  I                8
Number of beta electrons                   I                8
Number of basis functions                  I               68
Number of independent functions            I               68
Number of point charges in /Mol/           I                0
Number of translation vectors              I                0
Atomic numbers                             I   N=           6
           6           6           1           1           1           1
Nuclear charges                            R   N=           6
  6.00000000E+00  6.00000000E+00  1.00000000E+00  1.00000000E+00  1.00000000E+00
  1.00000000E+00
Current cartesian coordinates              R   N=          18
 -2.58075763E-21  8.01693632E-01  2.46519033E-32 -9.81748527E-17 -8.01693632E-01
 -1.23259516E-32  1.63106230E+00  2.11040267E+00  9.86076132E-32 -1.63102262E+00
  2.11041779E+00  9.86076132E-32 -1.63106230E+00 -2.11040267E+00  4.93038066E-32
  1.63102262E+00 -2.11041779E+00  0.00000000E+00
Number of symbols in /Mol/                 I                0
Force Field                                I                0
Atom Types                                 C   N=           6
                                                            
            
Int Atom Types                             I   N=           6
           0           0           0           0           0           0
MM charges                                 R   N=           6
  0.00000000E+00  0.00000000E+00  0.00000000E+00  0.00000000E+00  0.00000000E+00
  0.00000000E+00
Integer atomic weights                     I   N=           6
          12          12           1           1           1           1
Real atomic weights                        R   N=           6
  1.20000000E+01  1.20000000E+01  1.00782504E+00  1.00782504E+00  1.00782504E+00
  1.00782504E+00
Atom fragment info                         I   N=           6
           0           0           0           0           0           0
Atom residue num                           I   N=           6
           0           0           0           0           0           0
Nuclear spins                              I   N=           6
           0           0           1           1           1           1
Nuclear ZEff                               R   N=           6
 -3.60000000E+00 -3.60000000E+00 -1.00000000E+00 -1.00000000E+00 -1.00000000E+00
 -1.00000000E+00
Nuclear ZNuc                               R   N=           6
  6.00000000E+00  6.00000000E+00  1.00000000E+00  1.00000000E+00  1.00000000E+00
  1.00000000E+00
Nuclear QMom                               R   N=           6
  0.00000000E+00  0.00000000E+00  0.00000000E+00  0.00000000E+00  0.00000000E+00
  0.00000000E+00
Nuclear GFac                               R   N=           6
  0.00000000E+00  0.00000000E+00  2.79284600E+00  2.79284600E+00  2.79284600E+00
  2.79284600E+00
MicOpt                                     I   N=           6
          -1          -1          -1          -1          -1          -1
Number of residues                         I                0
Number of secondary structures             I                0
SymInf integers                            I   N=          26
           2           4           1           1           1          -1
          -1           1           1           1          -1          -1
          -1          -1           0           0           0           0
           0           0           0           0           0           0
           0           0
RotTr to input orientation                 R   N=          12
 -2.22205258E-17 -1.00000000E+00 -9.72240211E-22 -1.00000000E+00  2.22215989E-17
 -1.22464680E-16  1.22464680E-16  9.72240211E-22 -1.00000000E+00  0.00000000E+00
  0.00000000E+00  0.00000000E+00
Number of contracted shells                I               28
Number of primitive shells                 I               50
Pure/Cartesian d shells                    I                0
Pure/Cartesian f shells                    I                0
Highest angular momentum                   I                2
Largest degree of contraction              I                6
Shell types                                I   N=          28
           0          -1          -1          -1          -1          -2
           0          -1          -1          -1          -1          -2
           0           0           0           1           0           0
           0           1           0           0           0           1
           0           0           0           1
Number of primitives per shell             I   N=          28
           6           3           1           1           1           1
           6           3           1           1           1           1
           3           1           1           1           3           1
           1           1           3           1           1           1
           3           1           1           1
Shell to atom map                          I   N=          28
           1           1           1           1           1           1
           2           2           2           2           2           2
           3           3           3           3           4           4
           4           4           5           5           5           5
           6           6           6           6
Primitive exponents                        R   N=          50
  4.56324000E+03  6.82024000E+02  1.54973000E+02  4.44553000E+01  1.30290000E+01
  1.82773000E+00  2.09642000E+01  4.80331000E+00  1.45933000E+00  4.83456000E-01
  1.45585000E-01  4.38000000E-02  6.26000000E-01  4.56324000E+03  6.82024000E+02
  1.54973000E+02  4.44553000E+01  1.30290000E+01  1.82773000E+00  2.09642000E+01
  4.80331000E+00  1.45933000E+00  4.83456000E-01  1.45585000E-01  4.38000000E-02
  6.26000000E-01  3.38650000E+01  5.09479000E+00  1.15879000E+00  3.25840000E-01
  1.02741000E-01  7.50000000E-01  3.38650000E+01  5.09479000E+00  1.15879000E+00
  3.25840000E-01  1.02741000E-01  7.50000000E-01  3.38650000E+01  5.09479000E+00
  1.15879000E+00  3.25840000E-01  1.02741000E-01  7.50000000E-01  3.38650000E+01
  5.09479000E+00  1.15879000E+00  3.25840000E-01  1.02741000E-01  7.50000000E-01
Contraction coefficients                   R   N=          50
  1.96665025E-03  1.52306019E-02  7.61269097E-02  2.60801033E-01  6.16462078E-01
  2.21006028E-01  1.14660081E-01  9.19999648E-01 -3.03068213E-03  1.00000000E+00
  1.00000000E+00  1.00000000E+00  1.00000000E+00  1.96665025E-03  1.52306019E-02
  7.61269097E-02  2.60801033E-01  6.16462078E-01  2.21006028E-01  1.14660081E-01
  9.19999648E-01 -3.03068213E-03  1.00000000E+00  1.00000000E+00  1.00000000E+00
  1.00000000E+00  2.54938145E-02  1.90373109E-01  8.52161486E-01  1.00000000E+00
  1.00000000E+00  1.00000000E+00  2.54938145E-02  1.90373109E-01  8.52161486E-01
  1.00000000E+00  1.00000000E+00  1.00000000E+00  2.54938145E-02  1.90373109E-01
  8.52161486E-01  1.00000000E+00  1.00000000E+00  1.00000000E+00  2.54938145E-02
  1.90373109E-01  8.52161486E-01  1.00000000E+00  1.00000000E+00  1.00000000E+00
P(S=P) Contraction coefficients            R   N=          50
  0.00000000E+00  0.00000000E+00  0.00000000E+00  0.00000000E+00  0.00000000E+00
  0.00000000E+00  4.02486927E-02  2.37593957E-01  8.15853851E-01  1.00000000E+00
  1.00000000E+00  1.00000000E+00  0.00000000E+00  0.00000000E+00  0.00000000E+00
  0.00000000E+00  0.00000000E+00  0.00000000E+00  0.00000000E+00  4.02486927E-02
  2.37593957E-01  8.15853851E-01  1.00000000E+00  1.00000000E+00  1.00000000E+00
  0.00000000E+00  0.00000000E+00  0.00000000E+00  0.00000000E+00  0.00000000E+00
  0.00000000E+00  0.00000000E+00  0.00000000E+00  0.00000000E+00  0.00000000E+00
  0.00000000E+00  0.00000000E+00  0.00000000E+00  0.00000000E+00  0.00000000E+00
  0.00000000E+00  0.00000000E+00  0.00000000E+00  0.00000000E+00  0.00000000E+00
  0.00000000E+00  0.00000000E+00  0.00000000E+00  0.00000000E+00  0.00000000E+00
Coordinates of each shell                  R   N=          84
 -1.72050509E-21  8.01693632E-01  9.88163694E-33 -1.72050509E-21  8.01693632E-01
  9.88163694E-33 -1.72050509E-21  8.01693632E-01  9.88163694E-33 -1.72050509E-21
  8.01693632E-01  9.88163694E-33 -1.72050509E-21  8.01693632E-01  9.88163694E-33
 -1.72050509E-21  8.01693632E-01  9.88163694E-33 -9.81757130E-17 -8.01693632E-01
  9.88163694E-33 -9.81757130E-17 -8.01693632E-01  9.88163694E-33 -9.81757130E-17
 -8.01693632E-01  9.88163694E-33 -9.81757130E-17 -8.01693632E-01  9.88163694E-33
 -9.81757130E-17 -8.01693632E-01  9.88163694E-33 -9.81757130E-17 -8.01693632E-01
  9.88163694E-33  1.63106230E+00  2.11040267E+00  2.60131814E-32  1.63106230E+00
  2.11040267E+00  2.60131814E-32  1.63106230E+00  2.11040267E+00  2.60131814E-32
  1.63106230E+00  2.11040267E+00  2.60131814E-32 -1.63102262E+00  2.11041779E+00
  2.60124475E-32 -1.63102262E+00  2.11041779E+00  2.60124475E-32 -1.63102262E+00
  2.11041779E+00  2.60124475E-32 -1.63102262E+00  2.11041779E+00  2.60124475E-32
 -1.63106230E+00 -2.11040267E+00  2.60131814E-32 -1.63106230E+00 -2.11040267E+00
  2.60131814E-32 -1.63106230E+00 -2.11040267E+00  2.60131814E-32 -1.63106230E+00
 -2.11040267E+00  2.60131814E-32  1.63102262E+00 -2.11041779E+00  2.60124475E-32
  1.63102262E+00 -2.11041779E+00  2.60124475E-32  1.63102262E+00 -2.11041779E+00
  2.60124475E-32  1.63102262E+00 -2.11041779E+00  2.60124475E-32
Num ILSW                                   I              100
ILSW                                       I   N=         100
           1           0           0           0           2           0
           0           0           0           0        4336          -1
           7           0           0           0           2           0
           0           0           0           0           1           0
           1           0           0           0           0           0
           0           0      100000           0          -1           0
           0           0           0           0           0           0
           0           0           0           1           0           0
           0 -2000000000           1           0           0           0
           0           0           4          52           0           0
           0           0          55           0           0           0
           0           0           0           6           0           1
           0           0           0           0           0           0
           0           0           0           0           0           0
           0           0           0           0           0           0
           0           0           0           0           0           0
           0           0           0           0
Num RLSW                                   I               52
RLSW                                       R   N=          52
  1.00000000E+00  1.00000000E+00  1.00000000E+00  1.00000000E+00  5.40000000E-01
  0.00000000E+00  0.00000000E+00  1.00000000E+00  0.00000000E+00  0.00000000E+00
  0.00000000E+00  0.00000000E+00  1.00000000E+00  0.00000000E+00  0.00000000E+00
  0.00000000E+00  0.00000000E+00  1.00000000E+00  0.00000000E+00  0.00000000E+00
  0.00000000E+00  0.00000000E+00  1.00000000E+00  0.00000000E+00  0.00000000E+00
  0.00000000E+00  0.00000000E+00  1.00000000E+00  0.00000000E+00  0.00000000E+00
  0.00000000E+00  0.00000000E+00  1.00000000E+00  0.00000000E+00  0.00000000E+00
  0.00000000E+00  0.00000000E+00  0.00000000E+00  1.00000000E+00  1.00000000E+00
  0.00000000E+00  1.00000000E+00  0.00000000E+00  0.00000000E+00  0.00000000E+00
  0.00000000E+00  0.00000000E+00  0.00000000E+00  0.00000000E+00  0.00000000E+00
  0.00000000E+00  0.00000000E+00
MxBond                                     I                3
NBond                                      I   N=           6
           3           3           1           1           1           1
IBond                                      I   N=          18
           2           3           4           1           5           6
           1           0           0           1           0           0
           2           0           0           2           0           0
RBond                                      R   N=          18
  3.00000000E+00  1.00000000E+00  1.00000000E+00  3.00000000E+00  1.00000000E+00
  1.00000000E+00  1.00000000E+00  0.00000000E+00  0.00000000E+00  1.00000000E+00
  0.00000000E+00  0.00000000E+00  1.00000000E+00  0.00000000E+00  0.00000000E+00
  1.00000000E+00  0.00000000E+00  0.00000000E+00
Virial Ratio                               R      1.955862153276199E+00
SCF Energy                                 R     -7.785222852469829E+01
Total Energy                               R     -7.785222852469829E+01
S**2                                       R     -7.105427357601002E-15
S**2 after annihilation                    R      1.207922650792166E-13
RMS Force                                  R      8.336810781245931E-01
RMS Density                                R      5.295481783021647E-09
Job Status                                 I                1
Nuclear derivative order                   I                1
External E-field                           R   N=          35
  0.00000000E+00  0.00000000E+00  0.00000000E+00  0.00000000E+00  0.00000000E+00
  0.00000000E+00  0.00000000E+00  0.00000000E+00  0.00000000E+00  0.00000000E+00
  0.00000000E+00  0.00000000E+00  0.00000000E+00  0.00000000E+00  0.00000000E+00
  0.00000000E+00  0.00000000E+00  0.00000000E+00  0.00000000E+00  0.00000000E+00
  0.00000000E+00  0.00000000E+00  0.00000000E+00  0.00000000E+00  0.00000000E+00
  0.00000000E+00  0.00000000E+00  0.00000000E+00  0.00000000E+00  0.00000000E+00
  0.00000000E+00  0.00000000E+00  0.00000000E+00  0.00000000E+00  0.00000000E+00
IOpCl                                      I                1
IROHF                                      I                0
Alpha Orbital Energies                     R   N=          68
 -1.05098872E+01 -1.04599926E+01 -9.51750820E-01 -6.13090280E-01 -6.11478276E-01
 -5.36415602E-01 -4.76690020E-01 -3.08591189E-01  3.12187998E-02  3.65968321E-02
  4.24512049E-02  6.17385120E-02  7.81573889E-02  9.13384642E-02  9.85513457E-02
  1.60436700E-01  1.62459382E-01  1.85861925E-01  2.29240600E-01  2.52902811E-01
  3.59043391E-01  4.21883569E-01  4.30452956E-01  4.81356914E-01  4.97016014E-01
  5.12644723E-01  5.74289484E-01  6.34623434E-01  7.56243992E-01  7.58684259E-01
  7.72610754E-01  8.18002301E-01  8.99979123E-01  1.01251832E+00  1.25822808E+00
  1.33203787E+00  1.33357226E+00  1.39825286E+00  1.60492450E+00  1.62077598E+00
  1.67697884E+00  1.75199258E+00  1.75629708E+00  1.77642098E+00  1.86631245E+00
  2.01045722E+00  2.15793599E+00  2.17869559E+00  2.25213554E+00  2.34810545E+00
  2.39631504E+00  2.53870524E+00  2.56729418E+00  2.59018012E+00  2.59239789E+00
  2.64199900E+00  2.65214593E+00  2.78576207E+00  2.83313927E+00  2.98971591E+00
  3.43738724E+00  3.52888965E+00  3.59331858E+00  3.90559130E+00  4.21861986E+00
  4.24714288E+00  2.46040946E+01  2.54698207E+01
Beta Orbital Energies                      R   N=          68
 -1.05098872E+01 -1.04599926E+01 -9.51750820E-01 -6.13090280E-01 -6.11478276E-01
 -5.36415602E-01 -4.76690020E-01 -3.08591189E-01  3.12187998E-02  3.65968321E-02
  4.24512049E-02  6.17385120E-02  7.81573889E-02  9.13384642E-02  9.85513457E-02
  1.60436700E-01  1.62459382E-01  1.85861925E-01  2.29240600E-01  2.52902811E-01
  3.59043391E-01  4.21883569E-01  4.30452956E-01  4.81356914E-01  4.97016014E-01
  5.12644723E-01  5.74289484E-01  6.34623434E-01  7.56243992E-01  7.58684259E-01
  7.72610754E-01  8.18002301E-01  8.99979123E-01  1.01251832E+00  1.25822808E+00
  1.33203787E+00  1.33357226E+00  1.39825286E+00  1.60492450E+00  1.62077598E+00
  1.67697884E+00  1.75199258E+00  1.75629708E+00  1.77642098E+00  1.86631245E+00
  2.01045722E+00  2.15793599E+00  2.17869559E+00  2.25213554E+00  2.34810545E+00
  2.39631504E+00  2.53870524E+00  2.56729418E+00  2.59018012E+00  2.59239789E+00
  2.64199900E+00  2.65214593E+00  2.78576207E+00  2.83313927E+00  2.98971591E+00
  3.43738724E+00  3.52888965E+00  3.59331858E+00  3.90559130E+00  4.21861986E+00
  4.24714288E+00  2.46040946E+01  2.54698207E+01
Alpha MO coefficients                      R   N=        4624
  3.96033497E-01  3.25928089E-01  3.37864857E-08 -4.70507598E-03  0.00000000E+00
  8.66500799E-03  1.50187752E-08  1.51213209E-03  0.00000000E+00 -6.66491141E-04
 -2.61080011E-07 -3.09393343E-04  0.00000000E+00 -8.84708878E-04  8.25642404E-08
 -3.84451446E-04  0.00000000E+00 -2.56118172E-03  0.00000000E+00  0.00000000E+00
 -3.35070896E-03 -2.63215247E-07  3.96033497E-01  3.25928089E-01 -3.37864857E-08
  4.70507598E-03  0.00000000E+00  8.66500799E-03 -1.50187752E-08 -1.51213209E-03
  0.00000000E+00 -6.66491141E-04  2.61080011E-07  3.09393343E-04  0.00000000E+00
 -8.84708878E-04 -8.25642404E-08  3.84451446E-04  0.00000000E+00 -2.56118172E-03
  0.00000000E+00  0.00000000E+00 -3.35070896E-03 -2.63215247E-07  2.52119400E-04
 -2.78850049E-03  1.62700889E-03  1.70409077E-03  1.54358018E-04  0.00000000E+00
  2.52052751E-04 -2.78894501E-03  1.62708930E-03 -1.70428407E-03  1.54476803E-04
  0.00000000E+00  2.52119400E-04 -2.78850049E-03  1.62700889E-03 -1.70409077E-03
 -1.54358018E-04  0.00000000E+00  2.52052751E-04 -2.78894501E-03  1.62708930E-03
  1.70428407E-03 -1.54476803E-04  0.00000000E+00  3.99452925E-01  3.28175189E-01
  1.15187428E-08 -3.00035447E-03  0.00000000E+00  7.27907866E-02 -2.73994695E-08
 -4.59831594E-02  0.00000000E+00  9.81242025E-04  4.99663969E-09  3.87898466E-03
  0.00000000E+00 -1.01787755E-02 -5.04984109E-09  2.15998093E-03  0.00000000E+00
 -5.72590754E-03  0.00000000E+00  0.00000000E+00 -1.08993474E-02 -1.35355324E-08
 -3.99452925E-01 -3.28175189E-01  1.15187428E-08 -3.00035447E-03  0.00000000E+00
 -7.27907866E-02 -2.73994695E-08 -4.59831594E-02  0.00000000E+00 -9.81242025E-04
  4.99663969E-09  3.87898466E-03  0.00000000E+00  1.01787755E-02 -5.04984109E-09
  2.15998093E-03  0.00000000E+00  5.72590754E-03  0.00000000E+00  0.00000000E+00
  1.08993474E-02  1.35355324E-08  6.57804982E-04  8.41287471E-04 -2.34346346E-03
 -3.67668560E-04 -7.97485669E-05  0.00000000E+00  6.57804120E-04  8.41302767E-04
 -2.34354155E-03  3.67616513E-04 -7.97459016E-05  0.00000000E+00 -6.57804982E-04
 -8.41287471E-04  2.34346346E-03 -3.67668560E-04 -7.97485669E-05  0.00000000E+00
 -6.57804120E-04 -8.41302767E-04  2.34354155E-03  3.67616513E-04 -7.97459016E-05
  0.00000000E+00 -1.11376966E-01 -1.76970823E-01 -1.23147542E-07 -1.32440133E-01
  0.00000000E+00  3.49559399E-01  1.15179406E-07 -8.96468193E-02  0.00000000E+00
  1.45286572E-01 -6.95789546E-07 -2.92622128E-02  0.00000000E+00 -3.20391475E-03
  6.28532765E-08  1.55513053E-02  0.00000000E+00 -1.32039962E-02  0.00000000E+00
  0.00000000E+00 -1.22541658E-02 -6.83592199E-07 -1.11376966E-01 -1.76970823E-01
  1.23147542E-07  1.32440133E-01  0.00000000E+00  3.49559399E-01 -1.15179406E-07
  8.96468193E-02  0.00000000E+00  1.45286572E-01  6.95789546E-07  2.92622128E-02
  0.00000000E+00 -3.20391475E-03 -6.28532765E-08 -1.55513053E-02  0.00000000E+00
 -1.32039962E-02  0.00000000E+00  0.00000000E+00 -1.22541658E-02 -6.83592199E-07
  3.79050091E-02  3.35338715E-02  1.82459228E-03 -7.71910763E-04 -5.94720456E-03
  0.00000000E+00  3.79053001E-02  3.35333817E-02  1.82448815E-03  7.71411053E-04
 -5.94709117E-03  0.00000000E+00  3.79050091E-02  3.35338715E-02  1.82459228E-03
  7.71910763E-04  5.94720456E-03  0.00000000E+00  3.79053001E-02  3.35333817E-02
  1.82448815E-03 -7.71411053E-04  5.94709117E-03  0.00000000E+00  5.68319868E-02
  9.28342011E-02  1.53846544E-04 -8.76545970E-02  0.00000000E+00 -1.73745555E-01
  1.76266251E-04 -1.70636164E-01  0.00000000E+00 -2.03771819E-01  8.81900644E-05
 -6.67667504E-02  0.00000000E+00  2.99802450E-01  5.67455479E-06 -5.45837106E-02
  0.00000000E+00  4.04119547E-03  0.00000000E+00  0.00000000E+00 -1.19440741E-02
 -2.23856349E-05 -5.68319868E-02 -9.28342011E-02  1.53846544E-04 -8.76545970E-02
  0.00000000E+00  1.73745555E-01  1.76266251E-04 -1.70636164E-01  0.00000000E+00
  2.03771819E-01  8.81900644E-05 -6.67667504E-02  0.00000000E+00 -2.99802450E-01
  5.67455479E-06 -5.45837106E-02  0.00000000E+00 -4.04119547E-03  0.00000000E+00
  0.00000000E+00  1.19440741E-02  2.23856349E-05 -9.52605508E-02 -1.20879956E-01
 -2.67460340E-02  1.12811353E-02  4.42106101E-03  0.00000000E+00 -9.53979665E-02
 -1.21079327E-01 -2.67552810E-02 -1.13006540E-02  4.44880977E-03  0.00000000E+00
  9.52605508E-02  1.20879956E-01  2.67460340E-02  1.12811353E-02  4.42106101E-03
  0.00000000E+00  9.53979665E-02  1.21079327E-01  2.67552810E-02 -1.13006540E-02
  4.44880977E-03  0.00000000E+00 -4.71475030E-05 -7.70083788E-05  1.84900637E-01
  7.25216581E-05  0.00000000E+00  1.41102039E-04  2.12247080E-01  1.45001388E-04
  0.00000000E+00  1.69441992E-04  1.06625019E-01  5.57149507E-05  0.00000000E+00
 -2.47636860E-04  6.89562817E-03  4.50172551E-05  0.00000000E+00 -3.27471472E-06
  0.00000000E+00  0.00000000E+00  1.05687785E-05 -2.71937045E-02  4.71475030E-05
  7.70083788E-05  1.84900637E-01  7.25216581E-05  0.00000000E+00 -1.41102039E-04
  2.12247080E-01  1.45001388E-04  0.00000000E+00 -1.69441992E-04  1.06625019E-01
  5.57149507E-05  0.00000000E+00  2.47636860E-04  6.89562817E-03  4.50172551E-05
  0.00000000E+00  3.27471472E-06  0.00000000E+00  0.00000000E+00 -1.05687785E-05
  2.71937045E-02  8.15387502E-02  1.19046500E-01  5.53645670E-03 -1.17013646E-02
 -1.65235873E-02  0.00000000E+00 -8.13801701E-02 -1.18845241E-01 -5.49061375E-03
 -1.16825411E-02  1.65167881E-02  0.00000000E+00 -8.15387502E-02 -1.19046500E-01
 -5.53645670E-03 -1.17013646E-02 -1.65235873E-02  0.00000000E+00  8.13801701E-02
  1.18845241E-01  5.49061375E-03 -1.16825411E-02  1.65167881E-02  0.00000000E+00
  2.13086973E-02  3.17866299E-02 -1.22244572E-06  2.40826453E-01  0.00000000E+00
 -5.50271841E-03 -1.09430432E-06  2.36137698E-01  0.00000000E+00  8.99232073E-02
 -5.94768887E-07  1.41956886E-01  0.00000000E+00  1.26208215E-02 -1.19043886E-06
 -4.90738585E-04  0.00000000E+00  5.40110338E-03  0.00000000E+00  0.00000000E+00
  1.78419617E-02  8.41101674E-08  2.13086973E-02  3.17866299E-02  1.22244572E-06
 -2.40826453E-01  0.00000000E+00 -5.50271841E-03  1.09430432E-06 -2.36137698E-01
  0.00000000E+00  8.99232073E-02  5.94768887E-07 -1.41956886E-01  0.00000000E+00
  1.26208215E-02  1.19043886E-06  4.90738585E-04  0.00000000E+00  5.40110338E-03
  0.00000000E+00  0.00000000E+00  1.78419617E-02  8.41101674E-08  8.44488415E-02
  1.25910137E-01  2.59414506E-02 -1.69733999E-02 -1.39139518E-03  0.00000000E+00
  8.44529701E-02  1.25916212E-01  2.59414969E-02  1.69741828E-02 -1.39219328E-03
  0.00000000E+00  8.44488415E-02  1.25910137E-01  2.59414506E-02  1.69733999E-02
  1.39139518E-03  0.00000000E+00  8.44529701E-02  1.25916212E-01  2.59414969E-02
 -1.69741828E-02  1.39219328E-03  0.00000000E+00  0.00000000E+00  0.00000000E+00
  0.00000000E+00  0.00000000E+00  2.18045562E-01  0.00000000E+00  0.00000000E+00
  0.00000000E+00  2.84335231E-01  0.00000000E+00  0.00000000E+00  0.00000000E+00
  1.65973733E-01  0.00000000E+00  0.00000000E+00  0.00000000E+00  1.97926796E-03
  0.00000000E+00  7.61811482E-08 -3.23878650E-02  0.00000000E+00  0.00000000E+00
  0.00000000E+00  0.00000000E+00  0.00000000E+00  0.00000000E+00  2.18045562E-01
  0.00000000E+00  0.00000000E+00  0.00000000E+00  2.84335231E-01  0.00000000E+00
  0.00000000E+00  0.00000000E+00  1.65973733E-01  0.00000000E+00  0.00000000E+00
  0.00000000E+00  1.97926796E-03  0.00000000E+00 -7.61811482E-08  3.23878650E-02
  0.00000000E+00  0.00000000E+00  0.00000000E+00  0.00000000E+00  0.00000000E+00
  0.00000000E+00  0.00000000E+00  1.21751720E-02  0.00000000E+00  0.00000000E+00
  0.00000000E+00  0.00000000E+00  0.00000000E+00  1.21754308E-02  0.00000000E+00
  0.00000000E+00  0.00000000E+00  0.00000000E+00  0.00000000E+00  1.21751720E-02
  0.00000000E+00  0.00000000E+00  0.00000000E+00  0.00000000E+00  0.00000000E+00
  1.21754308E-02  6.04708070E-07  1.01753692E-06  1.04297676E-01  1.61657978E-06
  0.00000000E+00 -1.80062508E-06  1.51493383E-01  1.53539458E-06  0.00000000E+00
 -1.40307447E-06  2.50833097E-01  6.56857262E-07  0.00000000E+00  7.96033113E-07
  9.19922102E-02 -2.56311518E-07  0.00000000E+00  3.80323574E-08  0.00000000E+00
  0.00000000E+00  7.65512777E-07  5.97807737E-02  6.04708070E-07  1.01753692E-06
 -1.04297676E-01 -1.61657978E-06  0.00000000E+00 -1.80062508E-06 -1.51493383E-01
 -1.53539458E-06  0.00000000E+00 -1.40307447E-06 -2.50833097E-01 -6.56857262E-07
  0.00000000E+00  7.96033113E-07 -9.19922102E-02  2.56311518E-07  0.00000000E+00
  3.80323574E-08  0.00000000E+00  0.00000000E+00  7.65512777E-07  5.97807737E-02
  1.24284714E-01  1.95795060E-01  1.35940096E-01  1.74777743E-03 -5.30386371E-03
  0.00000000E+00 -1.24282291E-01 -1.95789271E-01 -1.35935465E-01  1.74846387E-03
  5.30389535E-03  0.00000000E+00  1.24284714E-01  1.95795060E-01  1.35940096E-01
 -1.74777743E-03  5.30386371E-03  0.00000000E+00 -1.24282291E-01 -1.95789271E-01
 -1.35935465E-01 -1.74846387E-03 -5.30389535E-03  0.00000000E+00  1.18718715E-02
  2.13953565E-02 -4.00484850E-07 -4.98214041E-02  0.00000000E+00 -7.16711131E-02
  3.22679951E-07 -7.33095700E-02  0.00000000E+00 -2.11334897E-01 -1.75134140E-05
 -1.50590209E-01  0.00000000E+00  1.20798042E+00 -4.75085761E-05  1.03241934E+00
  0.00000000E+00  9.06533002E-03  0.00000000E+00  0.00000000E+00 -5.60348236E-03
  2.51769532E-07  1.18718715E-02  2.13953565E-02  4.00484850E-07  4.98214041E-02
  0.00000000E+00 -7.16711131E-02 -3.22679951E-07  7.33095700E-02  0.00000000E+00
 -2.11334897E-01  1.75134140E-05  1.50590209E-01  0.00000000E+00  1.20798042E+00
  4.75085761E-05 -1.03241934E+00  0.00000000E+00  9.06533002E-03  0.00000000E+00
  0.00000000E+00 -5.60348236E-03  2.51769532E-07 -2.24248391E-02  8.85108925E-02
 -4.38433314E-01  1.62805376E-03  3.33909734E-03  0.00000000E+00 -2.24248244E-02
  8.85112786E-02 -4.38469437E-01 -1.62791195E-03  3.33923349E-03  0.00000000E+00
 -2.24248391E-02  8.85108925E-02 -4.38433314E-01 -1.62805376E-03 -3.33909734E-03
  0.00000000E+00 -2.24248244E-02  8.85112786E-02 -4.38469437E-01  1.62791195E-03
 -3.33923349E-03  0.00000000E+00  1.72024154E-07  3.13570599E-07 -8.24263203E-02
 -3.44815498E-07  0.00000000E+00 -2.14029339E-06 -9.95552365E-02  9.03873890E-07
  0.00000000E+00  1.55978904E-06 -1.66055230E-01 -3.11841744E-06  0.00000000E+00
  3.98128454E-04  6.88880426E-01 -6.80969457E-05  0.00000000E+00  1.46454135E-07
  0.00000000E+00  0.00000000E+00  3.15657240E-07  1.99126781E-02 -1.72024154E-07
 -3.13570599E-07 -8.24263203E-02 -3.44815498E-07  0.00000000E+00  2.14029339E-06
 -9.95552365E-02  9.03873890E-07  0.00000000E+00 -1.55978904E-06 -1.66055230E-01
 -3.11841744E-06  0.00000000E+00 -3.98128454E-04  6.88880426E-01 -6.80969457E-05
  0.00000000E+00 -1.46454135E-07  0.00000000E+00  0.00000000E+00 -3.15657240E-07
 -1.99126781E-02  8.96219805E-03  1.23430746E-01 -2.48886662E-01  1.04494896E-02
  6.61495401E-03  0.00000000E+00 -8.96145845E-03 -1.23427217E-01  2.48883663E-01
  1.04491320E-02 -6.61495419E-03  0.00000000E+00 -8.96219805E-03 -1.23430746E-01
  2.48886662E-01  1.04494896E-02  6.61495401E-03  0.00000000E+00  8.96145845E-03
  1.23427217E-01 -2.48883663E-01  1.04491320E-02 -6.61495419E-03  0.00000000E+00
 -1.60397109E-02 -2.67024275E-02  6.60920260E-07  2.54769339E-02  0.00000000E+00
 -1.89409707E-02  1.66365477E-07  1.41529432E-01  0.00000000E+00 -9.97025623E-01
  2.38025139E-06  3.99303007E-01  0.00000000E+00  4.38863436E+01  1.28769722E-06
 -8.24907033E+00  0.00000000E+00  7.58525986E-03  0.00000000E+00  0.00000000E+00
  2.49973347E-02 -5.98941909E-07  1.60397109E-02  2.67024275E-02  6.60920260E-07
  2.54769339E-02  0.00000000E+00  1.89409707E-02  1.66365477E-07  1.41529432E-01
  0.00000000E+00  9.97025623E-01  2.38025139E-06  3.99303007E-01  0.00000000E+00
 -4.38863436E+01  1.28769722E-06 -8.24907033E+00  0.00000000E+00 -7.58525986E-03
  0.00000000E+00  0.00000000E+00 -2.49973347E-02  5.98941909E-07  1.36045887E-02
 -5.11502645E-02  2.45927405E-01  3.40759137E-04 -9.23581522E-03  0.00000000E+00
  1.36055188E-02 -5.11506568E-02  2.45941534E-01 -3.41173315E-04 -9.23543968E-03
  0.00000000E+00 -1.36045887E-02  5.11502645E-02 -2.45927405E-01  3.40759137E-04
 -9.23581522E-03  0.00000000E+00 -1.36055188E-02  5.11506568E-02 -2.45941534E-01
 -3.41173315E-04 -9.23543968E-03  0.00000000E+00  0.00000000E+00  0.00000000E+00
  0.00000000E+00  0.00000000E+00 -6.13437442E-02  0.00000000E+00  0.00000000E+00
  0.00000000E+00 -3.64433087E-02  0.00000000E+00  0.00000000E+00  0.00000000E+00
 -2.11385810E-01  0.00000000E+00  0.00000000E+00  0.00000000E+00  6.12026103E-01
  0.00000000E+00  1.48114496E-08  1.59079231E-02  0.00000000E+00  0.00000000E+00
  0.00000000E+00  0.00000000E+00  0.00000000E+00  0.00000000E+00 -6.13437442E-02
  0.00000000E+00  0.00000000E+00  0.00000000E+00 -3.64433087E-02  0.00000000E+00
  0.00000000E+00  0.00000000E+00 -2.11385810E-01  0.00000000E+00  0.00000000E+00
  0.00000000E+00  6.12026103E-01  0.00000000E+00 -1.48114496E-08 -1.59079231E-02