 Entering Gaussian System, Link 0=g16
 Initial command:
 /home/szhao/Apps/g16/l1.exe "/home/szhao/tmp/Gau-31926.inp" -scrdir="/home/szhao/tmp/"
 Default is to use a total of  16 processors:
                               16 via shared-memory
                                1 via Linda
 Entering Link 1 = /home/szhao/Apps/g16/l1.exe PID=     31928.
  
 Copyright (c) 1988,1990,1992,1993,1995,1998,2003,2009,2016,
            Gaussian, Inc.  All Rights Reserved.
  
 This is part of the Gaussian(R) 16 program.  It is based on
 the Gaussian(R) 09 system (copyright 2009, Gaussian, Inc.),
 the Gaussian(R) 03 system (copyright 2003, Gaussian, Inc.),
 the Gaussian(R) 98 system (copyright 1998, Gaussian, Inc.),
 the Gaussian(R) 94 system (copyright 1995, Gaussian, Inc.),
 the Gaussian 92(TM) system (copyright 1992, Gaussian, Inc.),
 the Gaussian 90(TM) system (copyright 1990, Gaussian, Inc.),
 the Gaussian 88(TM) system (copyright 1988, Gaussian, Inc.),
 the Gaussian 86(TM) system (copyright 1986, Carnegie Mellon
 University), and the Gaussian 82(TM) system (copyright 1983,
 Carnegie Mellon University). Gaussian is a federally registered
 trademark of Gaussian, Inc.
  
 This software contains proprietary and confidential information,
 including trade secrets, belonging to Gaussian, Inc.
  
 This software is provided under written license and may be
 used, copied, transmitted, or stored only in accord with that
 written license.
  
 The following legend is applicable only to US Government
 contracts under FAR:
  
                    RESTRICTED RIGHTS LEGEND
  
 Use, reproduction and disclosure by the US Government is
 subject to restrictions as set forth in subparagraphs (a)
 and (c) of the Commercial Computer Software - Restricted
 Rights clause in FAR 52.227-19.
  
 Gaussian, Inc.
 340 Quinnipiac St., Bldg. 40, Wallingford CT 06492
  
  
 ---------------------------------------------------------------
 Warning -- This program may not be used in any manner that
 competes with the business of Gaussian, Inc. or will provide
 assistance to any competitor of Gaussian, Inc.  The licensee
 of this program is prohibited from giving any competitor of
 Gaussian, Inc. access to this program.  By using this program,
 the user acknowledges that Gaussian, Inc. is engaged in the
 business of creating and licensing software in the field of
 computational chemistry and represents and warrants to the
 licensee that it is not a competitor of Gaussian, Inc. and that
 it will not use this program in any manner prohibited above.
 ---------------------------------------------------------------
  

 Cite this work as:
 Gaussian 16, Revision A.03,
 M. J. Frisch, G. W. Trucks, H. B. Schlegel, G. E. Scuseria, 
 M. A. Robb, J. R. Cheeseman, G. Scalmani, V. Barone, 
 G. A. Petersson, H. Nakatsuji, X. Li, M. Caricato, A. V. Marenich, 
 J. Bloino, B. G. Janesko, R. Gomperts, B. Mennucci, H. P. Hratchian, 
 J. V. Ortiz, A. F. Izmaylov, J. L. Sonnenberg, D. Williams-Young, 
 F. Ding, F. Lipparini, F. Egidi, J. Goings, B. Peng, A. Petrone, 
 T. Henderson, D. Ranasinghe, V. G. Zakrzewski, J. Gao, N. Rega, 
 G. Zheng, W. Liang, M. Hada, M. Ehara, K. Toyota, R. Fukuda, 
 J. Hasegawa, M. Ishida, T. Nakajima, Y. Honda, O. Kitao, H. Nakai, 
 T. Vreven, K. Throssell, J. A. Montgomery, Jr., J. E. Peralta, 
 F. Ogliaro, M. J. Bearpark, J. J. Heyd, E. N. Brothers, K. N. Kudin, 
 V. N. Staroverov, T. A. Keith, R. Kobayashi, J. Normand, 
 K. Raghavachari, A. P. Rendell, J. C. Burant, S. S. Iyengar, 
 J. Tomasi, M. Cossi, J. M. Millam, M. Klene, C. Adamo, R. Cammi, 
 J. W. Ochterski, R. L. Martin, K. Morokuma, O. Farkas, 
 J. B. Foresman, and D. J. Fox, Gaussian, Inc., Wallingford CT, 2016.
 
 ******************************************
 Gaussian 16:  ES64L-G16RevA.03 25-Dec-2016
                19-Nov-2024 
 ******************************************
 %chk=opt.chk
 %mem=4GB
 %nprocshared=8
 Will use up to    8 processors via shared memory.
 ---------------------------------------
 #p UM062X/6-311+G** force int=superfine
 ---------------------------------------
 1/10=7,30=1,38=1/1,3;
 2/12=2,17=6,18=5,40=1/2;
 3/5=4,6=6,7=111,11=2,25=1,30=1,71=1,74=-55,75=-7,116=2/1,2,3;
 4//1;
 5/5=2,38=5/2;
 6/7=2,8=2,9=2,10=2,28=1/1;
 7/29=1/1,2,3,16;
 1/10=7,30=1/3;
 99//99;
 Leave Link    1 at Tue Nov 19 11:42:03 2024, MaxMem=   536870912 cpu:               1.2 elap:               0.1
 (Enter /home/szhao/Apps/g16/l101.exe)
 -------------------
 Title Card Required
 -------------------
 Symbolic Z-matrix:
 Charge =  0 Multiplicity = 1
 C                    -0.53693   0.        0. 
 C                     0.53693   0.        0. 
 H                    -1.15803  -0.89776   0. 
 H                    -1.15798   0.89786   0. 
 H                     1.15803   0.89776   0. 
 H                     1.15798  -0.89786   0. 
 
 ITRead=  0  0  0  0  0  0
 MicOpt= -1 -1 -1 -1 -1 -1
 NAtoms=      6 NQM=        6 NQMF=       0 NMMI=      0 NMMIF=      0
                NMic=       0 NMicF=      0.
                    Isotopes and Nuclear Properties:
 (Nuclear quadrupole moments (NQMom) in fm**2, nuclear magnetic moments (NMagM)
  in nuclear magnetons)

  Atom         1           2           3           4           5           6
 IAtWgt=          12          12           1           1           1           1
 AtmWgt=  12.0000000  12.0000000   1.0078250   1.0078250   1.0078250   1.0078250
 NucSpn=           0           0           1           1           1           1
 AtZEff=  -0.0000000  -0.0000000  -0.0000000  -0.0000000  -0.0000000  -0.0000000
 NQMom=    0.0000000   0.0000000   0.0000000   0.0000000   0.0000000   0.0000000
 NMagM=    0.0000000   0.0000000   2.7928460   2.7928460   2.7928460   2.7928460
 AtZNuc=   6.0000000   6.0000000   1.0000000   1.0000000   1.0000000   1.0000000
 Leave Link  101 at Tue Nov 19 11:42:03 2024, MaxMem=   536870912 cpu:               1.4 elap:               0.2
 (Enter /home/szhao/Apps/g16/l103.exe)

 GradGradGradGradGradGradGradGradGradGradGradGradGradGradGradGradGradGrad
 Berny optimization.
 Initialization pass.
 Trust Radius=3.00D-01 FncErr=1.00D-07 GrdErr=1.00D-07 EigMax=2.50D+02 EigMin=1.00D-04
 Number of steps in this run=      2 maximum allowed number of steps=      2.
 GradGradGradGradGradGradGradGradGradGradGradGradGradGradGradGradGradGrad

 Leave Link  103 at Tue Nov 19 11:42:04 2024, MaxMem=   536870912 cpu:               0.2 elap:               0.1
 (Enter /home/szhao/Apps/g16/l202.exe)
                          Input orientation:                          
 ---------------------------------------------------------------------
 Center     Atomic      Atomic             Coordinates (Angstroms)
 Number     Number       Type             X           Y           Z
 ---------------------------------------------------------------------
      1          6           0       -0.536926    0.000000    0.000000
      2          6           0        0.536926    0.000000    0.000000
      3          1           0       -1.158029   -0.897757    0.000000
      4          1           0       -1.157979    0.897864    0.000000
      5          1           0        1.158029    0.897757    0.000000
      6          1           0        1.157979   -0.897864    0.000000
 ---------------------------------------------------------------------
                    Distance matrix (angstroms):
                    1          2          3          4          5
     1  C    0.000000
     2  C    1.073852   0.000000
     3  H    1.091667   1.918030   0.000000
     4  H    1.091726   1.918036   1.795621   0.000000
     5  H    1.918030   1.091667   2.930528   2.316008   0.000000
     6  H    1.918036   1.091726   2.316008   2.930580   1.795621
                    6
     6  H    0.000000
 Stoichiometry    C2H4
 Framework group  C2H[SGH(C2H4)]
 Deg. of freedom     5
 Full point group                 C2H     NOp   4
 Largest Abelian subgroup         C2H     NOp   4
 Largest concise Abelian subgroup C2      NOp   2
                         Standard orientation:                         
 ---------------------------------------------------------------------
 Center     Atomic      Atomic             Coordinates (Angstroms)
 Number     Number       Type             X           Y           Z
 ---------------------------------------------------------------------
      1          6           0        0.000000    0.536926    0.000000
      2          6           0       -0.000000   -0.536926    0.000000
      3          1           0       -0.897757    1.158029    0.000000
      4          1           0        0.897864    1.157979    0.000000
      5          1           0        0.897757   -1.158029    0.000000
      6          1           0       -0.897864   -1.157979    0.000000
 ---------------------------------------------------------------------
 Rotational constants (GHZ):         155.5258930          41.0049995          32.4495507
 Leave Link  202 at Tue Nov 19 11:42:04 2024, MaxMem=   536870912 cpu:               0.0 elap:               0.0
 (Enter /home/szhao/Apps/g16/l301.exe)
 Standard basis: 6-311+G(d,p) (5D, 7F)
 Ernie: Thresh=  0.10000D-02 Tol=  0.10000D-05 Strict=F.
 There are    27 symmetry adapted cartesian basis functions of AG  symmetry.
 There are     8 symmetry adapted cartesian basis functions of BG  symmetry.
 There are     8 symmetry adapted cartesian basis functions of AU  symmetry.
 There are    27 symmetry adapted cartesian basis functions of BU  symmetry.
 There are    26 symmetry adapted basis functions of AG  symmetry.
 There are     8 symmetry adapted basis functions of BG  symmetry.
 There are     8 symmetry adapted basis functions of AU  symmetry.
 There are    26 symmetry adapted basis functions of BU  symmetry.
    68 basis functions,   104 primitive gaussians,    70 cartesian basis functions
     8 alpha electrons        8 beta electrons
       nuclear repulsion energy        37.4027532636 Hartrees.
 IExCor= 4336 DFT=T Ex+Corr=M062X ExCW=0 ScaHFX=  0.540000
 ScaDFX=  1.000000  1.000000  1.000000  1.000000 ScalE2=  1.000000  1.000000
 IRadAn=      7 IRanWt=     -1 IRanGd=            0 ICorTp=0 IEmpDi=  4
 NAtoms=    6 NActive=    6 NUniq=    3 SFac= 4.00D+00 NAtFMM=   60 NAOKFM=F Big=F
 Integral buffers will be    131072 words long.
 Raffenetti 2 integral format.
 Two-electron integral symmetry is turned on.
 Leave Link  301 at Tue Nov 19 11:42:04 2024, MaxMem=   536870912 cpu:               0.4 elap:               0.1
 (Enter /home/szhao/Apps/g16/l302.exe)
 NPDir=0 NMtPBC=     1 NCelOv=     1 NCel=       1 NClECP=     1 NCelD=      1
         NCelK=      1 NCelE2=     1 NClLst=     1 CellRange=     0.0.
 One-electron integrals computed using PRISM.
 One-electron integral symmetry used in STVInt
 NBasis=    68 RedAO= T EigKep=  4.30D-05  NBF=    26     8     8    26
 NBsUse=    68 1.00D-06 EigRej= -1.00D+00 NBFU=    26     8     8    26
 Precomputing XC quadrature grid using
 IXCGrd= 4 IRadAn=           7 IRanWt=          -1 IRanGd=           0 AccXCQ= 0.00D+00.
 Generated NRdTot=       0 NPtTot=           0 NUsed=           0 NTot=          32
 NSgBfM=    70    70    70    70    70 MxSgAt=     6 MxSgA2=     6.
 Leave Link  302 at Tue Nov 19 11:42:04 2024, MaxMem=   536870912 cpu:               1.2 elap:               0.2
 (Enter /home/szhao/Apps/g16/l303.exe)
 DipDrv:  MaxL=1.
 Leave Link  303 at Tue Nov 19 11:42:04 2024, MaxMem=   536870912 cpu:               0.3 elap:               0.1
 (Enter /home/szhao/Apps/g16/l401.exe)
 ExpMin= 4.38D-02 ExpMax= 4.56D+03 ExpMxC= 6.82D+02 IAcc=3 IRadAn=         7 AccDes= 0.00D+00
 Harris functional with IExCor= 1009 and IRadAn=       7 diagonalized for initial guess.
 HarFok:  IExCor= 1009 AccDes= 0.00D+00 IRadAn=         7 IDoV= 1 UseB2=F ITyADJ=14
 ICtDFT=  3500011 ScaDFX=  1.000000  1.000000  1.000000  1.000000
 FoFCou: FMM=F IPFlag=           0 FMFlag=      100000 FMFlg1=           0
         NFxFlg=           0 DoJE=T BraDBF=F KetDBF=T FulRan=T
         wScrn=  0.000000 ICntrl=       500 IOpCl=  0 I1Cent=   200000004 NGrid=           0
         NMat0=    1 NMatS0=      1 NMatT0=    0 NMatD0=    1 NMtDS0=    0 NMtDT0=    0
 Petite list used in FoFCou.
 Harris En= -78.5356464258277    
 JPrj=0 DoOrth=F DoCkMO=F.
 Initial guess orbital symmetries:
 Alpha Orbitals:
       Occupied  (AG) (BU) (AG) (BU) (BU) (AG) (AU) (AG)
       Virtual   (BG) (BU) (AG) (BU) (AU) (AG) (AG) (AG) (BU) (BG)
                 (BU) (BU) (AG) (BU) (AG) (BU) (AG) (AU) (BU) (BU)
                 (BG) (AG) (AG) (BU) (AG) (BG) (BU) (AU) (AU) (AG)
                 (BU) (AG) (AG) (BU) (BG) (BU) (BG) (AU) (BU) (AG)
                 (AG) (AU) (BG) (AG) (BU) (BU) (BU) (AG) (AU) (AG)
                 (BU) (BG) (BU) (AG) (BU) (AG) (BU) (AG) (AG) (BU)
 Beta  Orbitals:
       Occupied  (AG) (BU) (AG) (BU) (BU) (AG) (AU) (AG)
       Virtual   (BG) (BU) (AG) (BU) (AU) (AG) (AG) (AG) (BU) (BG)
                 (BU) (BU) (AG) (BU) (AG) (BU) (AG) (AU) (BU) (BU)
                 (BG) (AG) (AG) (BU) (AG) (BG) (BU) (AU) (AU) (AG)
                 (BU) (AG) (AG) (BU) (BG) (BU) (BG) (AU) (BU) (AG)
                 (AG) (AU) (BG) (AG) (BU) (BU) (BU) (AG) (AU) (AG)
                 (BU) (BG) (BU) (AG) (BU) (AG) (BU) (AG) (AG) (BU)
 The electronic state of the initial guess is 1-AG.
 Initial guess <Sx>= 0.0000 <Sy>= 0.0000 <Sz>= 0.0000 <S**2>=-0.0000 S=-0.0000
 Leave Link  401 at Tue Nov 19 11:42:05 2024, MaxMem=   536870912 cpu:               2.7 elap:               0.4
 (Enter /home/szhao/Apps/g16/l502.exe)
 Keep R1 and R2 ints in memory in symmetry-blocked form, NReq=9935231.
 FoFCou: FMM=F IPFlag=           0 FMFlag=           0 FMFlg1=           0
         NFxFlg=           0 DoJE=F BraDBF=F KetDBF=F FulRan=T
         wScrn=  0.000000 ICntrl=       600 IOpCl=  0 I1Cent=           0 NGrid=           0
         NMat0=    1 NMatS0=   2346 NMatT0=    0 NMatD0=    1 NMtDS0=    0 NMtDT0=    0
 Petite list used in FoFCou.
 UHF open shell SCF:
 Using DIIS extrapolation, IDIIS=  1040.
 NGot=   536870912 LenX=   535358062 LenY=   535352721
 Requested convergence on RMS density matrix=1.00D-08 within 128 cycles.
 Requested convergence on MAX density matrix=1.00D-06.
 Requested convergence on             energy=1.00D-06.
 No special actions if energy rises.

 Cycle   1  Pass 1  IDiag  1:
 E= -78.2315202146502    
 DIIS: error= 8.31D-02 at cycle   1 NSaved=   1.
 NSaved= 1 IEnMin= 1 EnMin= -78.2315202146502     IErMin= 1 ErrMin= 8.31D-02
 ErrMax= 8.31D-02  0.00D+00 EMaxC= 1.00D-01 BMatC= 9.36D-01 BMatP= 9.36D-01
 IDIUse=3 WtCom= 1.69D-01 WtEn= 8.31D-01
 Coeff-Com:  0.100D+01
 Coeff-En:   0.100D+01
 Coeff:      0.100D+01
 Gap=     0.250 Goal=   None    Shift=    0.000
 Gap=     0.250 Goal=   None    Shift=    0.000
 GapD=    0.250 DampG=1.000 DampE=0.500 DampFc=0.5000 IDamp=-1.
 Damping current iteration by 5.00D-01
 RMSDP=7.37D-03 MaxDP=1.30D-01              OVMax= 2.48D-01

 Cycle   2  Pass 1  IDiag  1:
 E= -78.3400513979888     Delta-E=       -0.108531183339 Rises=F Damp=T
 DIIS: error= 1.11D-02 at cycle   2 NSaved=   2.
 NSaved= 2 IEnMin= 2 EnMin= -78.3400513979888     IErMin= 2 ErrMin= 1.11D-02
 ErrMax= 1.11D-02  0.00D+00 EMaxC= 1.00D-01 BMatC= 2.32D-02 BMatP= 9.36D-01
 IDIUse=3 WtCom= 8.89D-01 WtEn= 1.11D-01
 Coeff-Com: -0.886D-01 0.109D+01
 Coeff-En:   0.000D+00 0.100D+01
 Coeff:     -0.788D-01 0.108D+01
 Gap=     0.399 Goal=   None    Shift=    0.000
 Gap=     0.399 Goal=   None    Shift=    0.000
 RMSDP=1.76D-03 MaxDP=1.75D-02 DE=-1.09D-01 OVMax= 1.33D-01

 Cycle   3  Pass 1  IDiag  1:
 E= -78.4444415629444     Delta-E=       -0.104390164956 Rises=F Damp=F
 DIIS: error= 3.99D-03 at cycle   3 NSaved=   3.
 NSaved= 3 IEnMin= 3 EnMin= -78.4444415629444     IErMin= 3 ErrMin= 3.99D-03
 ErrMax= 3.99D-03  0.00D+00 EMaxC= 1.00D-01 BMatC= 1.13D-03 BMatP= 2.32D-02
 IDIUse=3 WtCom= 9.60D-01 WtEn= 3.99D-02
 Coeff-Com: -0.376D-01 0.850D-01 0.953D+00
 Coeff-En:   0.000D+00 0.000D+00 0.100D+01
 Coeff:     -0.361D-01 0.816D-01 0.954D+00
 Gap=     0.400 Goal=   None    Shift=    0.000
 Gap=     0.400 Goal=   None    Shift=    0.000
 RMSDP=1.80D-04 MaxDP=2.10D-03 DE=-1.04D-01 OVMax= 7.05D-03

 Cycle   4  Pass 1  IDiag  1:
 E= -78.4447542617781     Delta-E=       -0.000312698834 Rises=F Damp=F
 DIIS: error= 3.09D-04 at cycle   4 NSaved=   4.
 NSaved= 4 IEnMin= 4 EnMin= -78.4447542617781     IErMin= 4 ErrMin= 3.09D-04
 ErrMax= 3.09D-04  0.00D+00 EMaxC= 1.00D-01 BMatC= 5.07D-06 BMatP= 1.13D-03
 IDIUse=3 WtCom= 9.97D-01 WtEn= 3.09D-03
 Coeff-Com:  0.361D-02-0.927D-02-0.478D-01 0.105D+01
 Coeff-En:   0.000D+00 0.000D+00 0.000D+00 0.100D+01
 Coeff:      0.360D-02-0.924D-02-0.476D-01 0.105D+01
 Gap=     0.400 Goal=   None    Shift=    0.000
 Gap=     0.400 Goal=   None    Shift=    0.000
 RMSDP=5.20D-05 MaxDP=6.28D-04 DE=-3.13D-04 OVMax= 9.35D-04

 Cycle   5  Pass 1  IDiag  1:
 E= -78.4447568365395     Delta-E=       -0.000002574761 Rises=F Damp=F
 DIIS: error= 4.54D-05 at cycle   5 NSaved=   5.
 NSaved= 5 IEnMin= 5 EnMin= -78.4447568365395     IErMin= 5 ErrMin= 4.54D-05
 ErrMax= 4.54D-05  0.00D+00 EMaxC= 1.00D-01 BMatC= 1.39D-07 BMatP= 5.07D-06
 IDIUse=1 WtCom= 1.00D+00 WtEn= 0.00D+00
 Coeff-Com:  0.543D-03-0.165D-02-0.173D-01-0.101D-01 0.103D+01
 Coeff:      0.543D-03-0.165D-02-0.173D-01-0.101D-01 0.103D+01
 Gap=     0.400 Goal=   None    Shift=    0.000
 Gap=     0.400 Goal=   None    Shift=    0.000
 RMSDP=7.32D-06 MaxDP=8.42D-05 DE=-2.57D-06 OVMax= 1.42D-04

 Cycle   6  Pass 1  IDiag  1:
 E= -78.4447568960539     Delta-E=       -0.000000059514 Rises=F Damp=F
 DIIS: error= 5.46D-06 at cycle   6 NSaved=   6.
 NSaved= 6 IEnMin= 6 EnMin= -78.4447568960539     IErMin= 6 ErrMin= 5.46D-06
 ErrMax= 5.46D-06  0.00D+00 EMaxC= 1.00D-01 BMatC= 4.20D-09 BMatP= 1.39D-07
 IDIUse=1 WtCom= 1.00D+00 WtEn= 0.00D+00
 Coeff-Com: -0.128D-03 0.195D-03 0.123D-02-0.192D-01 0.717D-01 0.946D+00
 Coeff:     -0.128D-03 0.195D-03 0.123D-02-0.192D-01 0.717D-01 0.946D+00
 Gap=     0.400 Goal=   None    Shift=    0.000
 Gap=     0.400 Goal=   None    Shift=    0.000
 RMSDP=7.26D-07 MaxDP=1.25D-05 DE=-5.95D-08 OVMax= 1.47D-05

 Cycle   7  Pass 1  IDiag  1:
 E= -78.4447568972772     Delta-E=       -0.000000001223 Rises=F Damp=F
 DIIS: error= 7.63D-07 at cycle   7 NSaved=   7.
 NSaved= 7 IEnMin= 7 EnMin= -78.4447568972772     IErMin= 7 ErrMin= 7.63D-07
 ErrMax= 7.63D-07  0.00D+00 EMaxC= 1.00D-01 BMatC= 3.10D-11 BMatP= 4.20D-09
 IDIUse=1 WtCom= 1.00D+00 WtEn= 0.00D+00
 Coeff-Com:  0.595D-05 0.451D-05-0.158D-04 0.226D-03-0.142D-01-0.858D-01
 Coeff-Com:  0.110D+01
 Coeff:      0.595D-05 0.451D-05-0.158D-04 0.226D-03-0.142D-01-0.858D-01
 Coeff:      0.110D+01
 Gap=     0.400 Goal=   None    Shift=    0.000
 Gap=     0.400 Goal=   None    Shift=    0.000
 RMSDP=1.42D-07 MaxDP=2.02D-06 DE=-1.22D-09 OVMax= 3.68D-06

 Cycle   8  Pass 1  IDiag  1:
 E= -78.4447568973020     Delta-E=       -0.000000000025 Rises=F Damp=F
 DIIS: error= 6.69D-08 at cycle   8 NSaved=   8.
 NSaved= 8 IEnMin= 8 EnMin= -78.4447568973020     IErMin= 8 ErrMin= 6.69D-08
 ErrMax= 6.69D-08  0.00D+00 EMaxC= 1.00D-01 BMatC= 2.24D-13 BMatP= 3.10D-11
 IDIUse=1 WtCom= 1.00D+00 WtEn= 0.00D+00
 Coeff-Com:  0.749D-06-0.238D-05-0.810D-05 0.157D-03 0.900D-03-0.126D-03
 Coeff-Com: -0.101D+00 0.110D+01
 Coeff:      0.749D-06-0.238D-05-0.810D-05 0.157D-03 0.900D-03-0.126D-03
 Coeff:     -0.101D+00 0.110D+01
 Gap=     0.400 Goal=   None    Shift=    0.000
 Gap=     0.400 Goal=   None    Shift=    0.000
 RMSDP=7.77D-09 MaxDP=8.70D-08 DE=-2.48D-11 OVMax= 2.14D-07

 SCF Done:  E(UM062X) =  -78.4447568973     A.U. after    8 cycles
            NFock=  8  Conv=0.78D-08     -V/T= 1.9887
 <Sx>= 0.0000 <Sy>= 0.0000 <Sz>= 0.0000 <S**2>= 0.0000 S= 0.0000
 <L.S>=  0.00000000000    
 KE= 7.934326102878D+01 PE=-2.572948959659D+02 EE= 6.210412477618D+01
 Annihilation of the first spin contaminant:
 S**2 before annihilation     0.0000,   after    -0.0000
 Leave Link  502 at Tue Nov 19 11:42:07 2024, MaxMem=   536870912 cpu:              15.8 elap:               2.1
 (Enter /home/szhao/Apps/g16/l601.exe)
 Copying SCF densities to generalized density rwf, IOpCl= 1 IROHF=0.

 **********************************************************************

            Population analysis using the SCF density.

 **********************************************************************

 Orbital symmetries:
 Alpha Orbitals:
       Occupied  (AG) (BU) (AG) (BU) (BU) (AG) (AU) (AG)
       Virtual   (AG) (BU) (BU) (BG) (AU) (AG) (AG) (BU) (BG) (AG)
                 (BU) (BU) (AG) (BU) (AG) (BU) (AG) (AU) (BU) (BU)
                 (BG) (AG) (BU) (AG) (AG) (BG) (BU) (AU) (AU) (AG)
                 (AG) (BU) (AG) (BG) (BU) (BU) (BG) (AU) (BU) (AG)
                 (AG) (AU) (AG) (BG) (BU) (BU) (AG) (AG) (BU) (BU)
                 (AU) (BG) (BU) (AG) (BU) (BU) (AG) (AG) (AG) (BU)
 Beta  Orbitals:
       Occupied  (AG) (BU) (AG) (BU) (BU) (AG) (AU) (AG)
       Virtual   (AG) (BU) (BU) (BG) (AU) (AG) (AG) (BU) (BG) (AG)
                 (BU) (BU) (AG) (BU) (AG) (BU) (AG) (AU) (BU) (BU)
                 (BG) (AG) (BU) (AG) (AG) (BG) (BU) (AU) (AU) (AG)
                 (AG) (BU) (AG) (BG) (BU) (BU) (BG) (AU) (BU) (AG)
                 (AG) (AU) (AG) (BG) (BU) (BU) (AG) (AG) (BU) (BU)
                 (AU) (BG) (BU) (AG) (BU) (BU) (AG) (AG) (AG) (BU)
 The electronic state is 1-AG.
 Alpha  occ. eigenvalues --  -10.49923 -10.49206  -0.92489  -0.63735  -0.56877
 Alpha  occ. eigenvalues --   -0.52071  -0.39389  -0.36642
 Alpha virt. eigenvalues --    0.03356   0.04243   0.04614   0.06265   0.06975
 Alpha virt. eigenvalues --    0.08665   0.09801   0.16119   0.17195   0.18005
 Alpha virt. eigenvalues --    0.18624   0.24537   0.33580   0.40695   0.43586
 Alpha virt. eigenvalues --    0.46436   0.52345   0.54084   0.60979   0.61805
 Alpha virt. eigenvalues --    0.68556   0.75533   0.78774   0.81064   0.82350
 Alpha virt. eigenvalues --    1.02698   1.16176   1.21387   1.25147   1.37011
 Alpha virt. eigenvalues --    1.52851   1.54075   1.70267   1.71178   1.71976
 Alpha virt. eigenvalues --    1.72411   1.77756   1.89361   2.07635   2.15329
 Alpha virt. eigenvalues --    2.21672   2.29233   2.32889   2.32975   2.42757
 Alpha virt. eigenvalues --    2.54627   2.59198   2.67513   2.69335   2.77536
 Alpha virt. eigenvalues --    2.82357   3.00130   3.07607   3.42723   3.57977
 Alpha virt. eigenvalues --    3.82954   3.93682   4.00072  23.75830  25.50160
  Beta  occ. eigenvalues --  -10.49923 -10.49206  -0.92489  -0.63735  -0.56877
  Beta  occ. eigenvalues --   -0.52071  -0.39389  -0.36642
  Beta virt. eigenvalues --    0.03356   0.04243   0.04614   0.06265   0.06975
  Beta virt. eigenvalues --    0.08665   0.09801   0.16119   0.17195   0.18005
  Beta virt. eigenvalues --    0.18624   0.24537   0.33580   0.40695   0.43586
  Beta virt. eigenvalues --    0.46436   0.52345   0.54084   0.60979   0.61805
  Beta virt. eigenvalues --    0.68556   0.75533   0.78774   0.81064   0.82350
  Beta virt. eigenvalues --    1.02698   1.16176   1.21387   1.25147   1.37011
  Beta virt. eigenvalues --    1.52851   1.54075   1.70267   1.71178   1.71976
  Beta virt. eigenvalues --    1.72411   1.77756   1.89361   2.07635   2.15329
  Beta virt. eigenvalues --    2.21672   2.29233   2.32889   2.32975   2.42757
  Beta virt. eigenvalues --    2.54627   2.59198   2.67513   2.69335   2.77536
  Beta virt. eigenvalues --    2.82357   3.00130   3.07607   3.42723   3.57977
  Beta virt. eigenvalues --    3.82954   3.93682   4.00072  23.75830  25.50160
          Condensed to atoms (all electrons):
               1          2          3          4          5          6
     1  C    4.786300   0.722749   0.411451   0.411444  -0.033120  -0.033130
     2  C    0.722749   4.786300  -0.033120  -0.033130   0.411451   0.411444
     3  H    0.411451  -0.033120   0.540661  -0.040919   0.010943  -0.021870
     4  H    0.411444  -0.033130  -0.040919   0.540690  -0.021870   0.010946
     5  H   -0.033120   0.411451   0.010943  -0.021870   0.540661  -0.040919
     6  H   -0.033130   0.411444  -0.021870   0.010946  -0.040919   0.540690
          Atomic-Atomic Spin Densities.
               1          2          3          4          5          6
     1  C   -0.000000   0.000000  -0.000000  -0.000000   0.000000   0.000000
     2  C    0.000000  -0.000000   0.000000   0.000000  -0.000000  -0.000000
     3  H   -0.000000   0.000000   0.000000  -0.000000   0.000000  -0.000000
     4  H   -0.000000   0.000000  -0.000000   0.000000  -0.000000   0.000000
     5  H    0.000000  -0.000000   0.000000  -0.000000   0.000000  -0.000000
     6  H    0.000000  -0.000000  -0.000000   0.000000  -0.000000   0.000000
 Mulliken charges and spin densities:
               1          2
     1  C   -0.265694  -0.000000
     2  C   -0.265694  -0.000000
     3  H    0.132854   0.000000
     4  H    0.132840   0.000000
     5  H    0.132854   0.000000
     6  H    0.132840   0.000000
 Sum of Mulliken charges =   0.00000  -0.00000
 Mulliken charges and spin densities with hydrogens summed into heavy atoms:
               1          2
     1  C    0.000000  -0.000000
     2  C    0.000000  -0.000000
 Electronic spatial extent (au):  <R**2>=             72.4221
 Charge=              0.0000 electrons
 Dipole moment (field-independent basis, Debye):
    X=              0.0000    Y=              0.0000    Z=              0.0000  Tot=              0.0000
 Quadrupole moment (field-independent basis, Debye-Ang):
   XX=            -12.3595   YY=            -12.4664   ZZ=            -14.7172
   XY=             -0.0002   XZ=              0.0000   YZ=              0.0000
 Traceless Quadrupole moment (field-independent basis, Debye-Ang):
   XX=              0.8215   YY=              0.7147   ZZ=             -1.5362
   XY=             -0.0002   XZ=              0.0000   YZ=              0.0000
 Octapole moment (field-independent basis, Debye-Ang**2):
  XXX=              0.0000  YYY=              0.0000  ZZZ=              0.0000  XYY=              0.0000
  XXY=              0.0000  XXZ=              0.0000  XZZ=              0.0000  YZZ=             -0.0000
  YYZ=              0.0000  XYZ=              0.0000
 Hexadecapole moment (field-independent basis, Debye-Ang**3):
 XXXX=            -27.3360 YYYY=            -56.8274 ZZZZ=            -16.3232 XXXY=             -0.0008
 XXXZ=              0.0000 YYYX=             -0.0015 YYYZ=              0.0000 ZZZX=              0.0000
 ZZZY=              0.0000 XXYY=            -12.4007 XXZZ=             -7.8762 YYZZ=            -12.8715
 XXYZ=              0.0000 YYXZ=              0.0000 ZZXY=             -0.0004
 N-N= 3.740275326363D+01 E-N=-2.572948965035D+02  KE= 7.934326102878D+01
 Symmetry AG   KE= 4.063827065702D+01
 Symmetry BG   KE= 4.403439568464D-32
 Symmetry AU   KE= 2.289485341289D+00
 Symmetry BU   KE= 3.641550503047D+01
 Symmetry AG   SP=-3.864856183847D-15
 Symmetry BG   SP= 2.229753959394D-48
 Symmetry AU   SP= 5.760379766853D-16
 Symmetry BU   SP=-7.364303070423D-15
                          Isotropic Fermi Contact Couplings
        Atom                 a.u.       MegaHertz       Gauss      10(-4) cm-1
     1  C(13)             -0.00000      -0.00000      -0.00000      -0.00000
     2  C(13)             -0.00000      -0.00000      -0.00000      -0.00000
     3  H(1)              -0.00000      -0.00000      -0.00000      -0.00000
     4  H(1)              -0.00000      -0.00000      -0.00000      -0.00000
     5  H(1)              -0.00000      -0.00000      -0.00000      -0.00000
     6  H(1)              -0.00000      -0.00000      -0.00000      -0.00000
 --------------------------------------------------------
       Center         ----  Spin Dipole Couplings  ----
                      3XX-RR        3YY-RR        3ZZ-RR
 --------------------------------------------------------
     1   Atom        0.000000      0.000000      0.000000
     2   Atom        0.000000      0.000000      0.000000
     3   Atom        0.000000      0.000000      0.000000
     4   Atom        0.000000      0.000000      0.000000
     5   Atom        0.000000      0.000000      0.000000
     6   Atom        0.000000      0.000000      0.000000
 --------------------------------------------------------
                        XY            XZ            YZ
 --------------------------------------------------------
     1   Atom        0.000000      0.000000      0.000000
     2   Atom        0.000000      0.000000      0.000000
     3   Atom        0.000000      0.000000      0.000000
     4   Atom        0.000000      0.000000      0.000000
     5   Atom        0.000000      0.000000      0.000000
     6   Atom        0.000000      0.000000      0.000000
 --------------------------------------------------------


 ---------------------------------------------------------------------------------
              Anisotropic Spin Dipole Couplings in Principal Axis System
 ---------------------------------------------------------------------------------

       Atom             a.u.   MegaHertz   Gauss  10(-4) cm-1        Axes

              Baa     0.0000     0.000     0.000     0.000  1.0000  0.0000  0.0000
     1 C(13)  Bbb     0.0000     0.000     0.000     0.000 -0.0000  1.0000  0.0000
              Bcc     0.0000     0.000     0.000     0.000  0.0000  0.0000  1.0000
 
              Baa     0.0000     0.000     0.000     0.000  1.0000  0.0000  0.0000
     2 C(13)  Bbb     0.0000     0.000     0.000     0.000 -0.0000  1.0000  0.0000
              Bcc     0.0000     0.000     0.000     0.000  0.0000  0.0000  1.0000
 
              Baa     0.0000     0.000     0.000     0.000  1.0000  0.0000  0.0000
     3 H(1)   Bbb     0.0000     0.000     0.000     0.000 -0.0000  1.0000  0.0000
              Bcc     0.0000     0.000     0.000     0.000  0.0000  0.0000  1.0000
 
              Baa     0.0000     0.000     0.000     0.000  1.0000  0.0000  0.0000
     4 H(1)   Bbb     0.0000     0.000     0.000     0.000 -0.0000  1.0000  0.0000
              Bcc     0.0000     0.000     0.000     0.000  0.0000  0.0000  1.0000
 
              Baa     0.0000     0.000     0.000     0.000  1.0000  0.0000  0.0000
     5 H(1)   Bbb     0.0000     0.000     0.000     0.000 -0.0000  1.0000  0.0000
              Bcc     0.0000     0.000     0.000     0.000  0.0000  0.0000  1.0000
 
              Baa     0.0000     0.000     0.000     0.000  1.0000  0.0000  0.0000
     6 H(1)   Bbb     0.0000     0.000     0.000     0.000 -0.0000  1.0000  0.0000
              Bcc     0.0000     0.000     0.000     0.000  0.0000  0.0000  1.0000
 

 ---------------------------------------------------------------------------------

 No NMR shielding tensors so no spin-rotation constants.
 Leave Link  601 at Tue Nov 19 11:42:07 2024, MaxMem=   536870912 cpu:               1.6 elap:               0.2
 (Enter /home/szhao/Apps/g16/l701.exe)
 ... and contract with generalized density number  0.
 Compute integral first derivatives.
 Leave Link  701 at Tue Nov 19 11:42:08 2024, MaxMem=   536870912 cpu:               1.2 elap:               0.2
 (Enter /home/szhao/Apps/g16/l702.exe)
 L702 exits ... SP integral derivatives will be done elsewhere.
 Leave Link  702 at Tue Nov 19 11:42:08 2024, MaxMem=   536870912 cpu:               0.3 elap:               0.1
 (Enter /home/szhao/Apps/g16/l703.exe)
 Integral derivatives from FoFJK, PRISM(SPDF).
 Compute integral first derivatives, UseDBF=F ICtDFT=           0.
 Calling FoFJK, ICntrl=      2127 FMM=F ISym2X=1 I1Cent= 0 IOpClX= 1 NMat=1 NMatS=1 NMatT=0.
 FoFJK:  IHMeth= 1 ICntrl=    2127 DoSepK=F KAlg= 0 I1Cent=           0 FoldK=F
 IRaf=         0 NMat=       1 IRICut=       1 DoRegI=T DoRafI=F ISym2E= 1 IDoP0=0 IntGTp=1.
 FoFCou: FMM=F IPFlag=           0 FMFlag=      100000 FMFlg1=         800
         NFxFlg=           0 DoJE=F BraDBF=F KetDBF=F FulRan=T
         wScrn=  0.000000 ICntrl=      2127 IOpCl=  1 I1Cent=           0 NGrid=           0
         NMat0=    1 NMatS0=      1 NMatT0=    0 NMatD0=    1 NMtDS0=    0 NMtDT0=    0
 Petite list used in FoFCou.
 Leave Link  703 at Tue Nov 19 11:42:09 2024, MaxMem=   536870912 cpu:               4.1 elap:               0.6
 (Enter /home/szhao/Apps/g16/l716.exe)
 Dipole        = 0.00000000D+00 1.33226763D-15 0.00000000D+00
 ***** Axes restored to original set *****
 -------------------------------------------------------------------
 Center     Atomic                   Forces (Hartrees/Bohr)
 Number     Number              X              Y              Z
 -------------------------------------------------------------------
      1        6          -0.630878535    0.000040242   -0.000000000
      2        6           0.630878535   -0.000040242   -0.000000000
      3        1          -0.000083593   -0.000170773   -0.000000000
      4        1          -0.000068214    0.000140192   -0.000000000
      5        1           0.000083593    0.000170773   -0.000000000
      6        1           0.000068214   -0.000140192   -0.000000000
 -------------------------------------------------------------------
 Cartesian Forces:  Max     0.630878535 RMS     0.210292861
 Z-matrix is all fixed cartesians, so copy forces.
 Force constants in Cartesian coordinates: 
                1             2             3             4             5 
      1  0.243603D+01
      2  0.338535D-04  0.734984D+00
      3  0.000000D+00  0.000000D+00  0.358572D+00
      4 -0.205939D+01  0.000000D+00  0.000000D+00  0.243603D+01
      5  0.000000D+00 -0.242387D+00  0.000000D+00  0.338535D-04  0.734984D+00
      6  0.000000D+00  0.000000D+00 -0.227301D+00  0.000000D+00  0.000000D+00
      7 -0.188347D+00 -0.112961D+00  0.000000D+00  0.000000D+00 -0.314309D-01
      8 -0.109214D+00 -0.268056D+00  0.000000D+00  0.000000D+00  0.217451D-01
      9  0.000000D+00  0.000000D+00 -0.102123D+00  0.000000D+00  0.000000D+00
     10 -0.188296D+00  0.112927D+00  0.000000D+00  0.000000D+00  0.314312D-01
     11  0.109180D+00 -0.268027D+00  0.000000D+00  0.000000D+00  0.217410D-01
     12  0.000000D+00  0.000000D+00 -0.102108D+00  0.000000D+00  0.000000D+00
     13  0.000000D+00 -0.314309D-01  0.000000D+00 -0.188347D+00 -0.112961D+00
     14  0.000000D+00  0.217451D-01  0.000000D+00 -0.109214D+00 -0.268056D+00
     15  0.000000D+00  0.000000D+00  0.364790D-01  0.000000D+00  0.000000D+00
     16  0.000000D+00  0.314312D-01  0.000000D+00 -0.188296D+00  0.112927D+00
     17  0.000000D+00  0.217410D-01  0.000000D+00  0.109180D+00 -0.268027D+00
     18  0.000000D+00  0.000000D+00  0.364806D-01  0.000000D+00  0.000000D+00
                6             7             8             9            10 
      6  0.358572D+00
      7  0.000000D+00  0.162921D+00
      8  0.000000D+00  0.126805D+00  0.258479D+00
      9  0.364790D-01  0.000000D+00  0.000000D+00  0.550680D-01
     10  0.000000D+00  0.254263D-01 -0.175909D-01  0.000000D+00  0.162869D+00
     11  0.000000D+00  0.175874D-01 -0.121676D-01  0.000000D+00 -0.126768D+00
     12  0.364806D-01  0.000000D+00  0.000000D+00  0.105733D-01  0.000000D+00
     13  0.000000D+00  0.000000D+00  0.000000D+00  0.000000D+00  0.000000D+00
     14  0.000000D+00  0.000000D+00  0.000000D+00  0.000000D+00  0.000000D+00
     15 -0.102123D+00  0.000000D+00  0.000000D+00  0.222471D-01  0.000000D+00
     16  0.000000D+00  0.000000D+00  0.000000D+00  0.000000D+00  0.000000D+00
     17  0.000000D+00  0.000000D+00  0.000000D+00  0.000000D+00  0.000000D+00
     18 -0.102108D+00  0.000000D+00  0.000000D+00 -0.222444D-01  0.000000D+00
               11            12            13            14            15 
     11  0.258454D+00
     12  0.000000D+00  0.550563D-01
     13  0.000000D+00  0.000000D+00  0.162921D+00
     14  0.000000D+00  0.000000D+00  0.126805D+00  0.258479D+00
     15  0.000000D+00 -0.222444D-01  0.000000D+00  0.000000D+00  0.550680D-01
     16  0.000000D+00  0.000000D+00  0.254263D-01 -0.175909D-01  0.000000D+00
     17  0.000000D+00  0.000000D+00  0.175874D-01 -0.121676D-01  0.000000D+00
     18  0.000000D+00  0.222418D-01  0.000000D+00  0.000000D+00  0.105733D-01
               16            17            18 
     16  0.162869D+00
     17 -0.126768D+00  0.258454D+00
     18  0.000000D+00  0.000000D+00  0.550563D-01
 Leave Link  716 at Tue Nov 19 11:42:09 2024, MaxMem=   536870912 cpu:               0.4 elap:               0.1
 (Enter /home/szhao/Apps/g16/l103.exe)

 GradGradGradGradGradGradGradGradGradGradGradGradGradGradGradGradGradGrad
 Berny optimization.
 Search for a local minimum.
 Step number   1 out of a maximum of    2
 All quantities printed in internal units (Hartrees-Bohrs-Radians)
 Second derivative matrix not updated -- first step.
 The second derivative matrix:
                          X1        Y1        Z1        X2        Y2
           X1           2.43603
           Y1           0.00003   0.73498
           Z1           0.00000   0.00000   0.35857
           X2          -2.05939  -0.00000   0.00000   2.43603
           Y2          -0.00000  -0.24239   0.00000   0.00003   0.73498
           Z2           0.00000   0.00000  -0.22730   0.00000   0.00000
           X3          -0.18835  -0.11296   0.00000  -0.00000  -0.03143
           Y3          -0.10921  -0.26806   0.00000   0.00000   0.02175
           Z3           0.00000   0.00000  -0.10212   0.00000   0.00000
           X4          -0.18830   0.11293   0.00000   0.00000   0.03143
           Y4           0.10918  -0.26803   0.00000   0.00000   0.02174
           Z4           0.00000   0.00000  -0.10211   0.00000   0.00000
           X5          -0.00000  -0.03143   0.00000  -0.18835  -0.11296
           Y5           0.00000   0.02175   0.00000  -0.10921  -0.26806
           Z5           0.00000   0.00000   0.03648   0.00000   0.00000
           X6           0.00000   0.03143   0.00000  -0.18830   0.11293
           Y6           0.00000   0.02174   0.00000   0.10918  -0.26803
           Z6           0.00000   0.00000   0.03648   0.00000   0.00000
                          Z2        X3        Y3        Z3        X4
           Z2           0.35857
           X3           0.00000   0.16292
           Y3           0.00000   0.12680   0.25848
           Z3           0.03648   0.00000   0.00000   0.05507
           X4           0.00000   0.02543  -0.01759   0.00000   0.16287
           Y4           0.00000   0.01759  -0.01217   0.00000  -0.12677
           Z4           0.03648   0.00000   0.00000   0.01057   0.00000
           X5           0.00000   0.00000   0.00000   0.00000   0.00000
           Y5           0.00000   0.00000   0.00000   0.00000   0.00000
           Z5          -0.10212   0.00000   0.00000   0.02225   0.00000
           X6           0.00000   0.00000   0.00000   0.00000   0.00000
           Y6           0.00000   0.00000   0.00000   0.00000   0.00000
           Z6          -0.10211   0.00000   0.00000  -0.02224   0.00000
                          Y4        Z4        X5        Y5        Z5
           Y4           0.25845
           Z4           0.00000   0.05506
           X5           0.00000   0.00000   0.16292
           Y5           0.00000   0.00000   0.12680   0.25848
           Z5           0.00000  -0.02224   0.00000   0.00000   0.05507
           X6           0.00000   0.00000   0.02543  -0.01759   0.00000
           Y6           0.00000   0.00000   0.01759  -0.01217   0.00000
           Z6           0.00000   0.02224   0.00000   0.00000   0.01057
                          X6        Y6        Z6
           X6           0.16287
           Y6          -0.12677   0.25845
           Z6           0.00000   0.00000   0.05506
 ITU=  0
     Eigenvalues ---    0.04594   0.08898   0.10854   0.16243   0.17072
     Eigenvalues ---    0.17172   0.32791   0.56596   0.57328   0.70105
     Eigenvalues ---    1.09115   4.51792
 Quadratic step=3.754D-01 exceeds max=3.000D-01 adjusted using Lamda=-5.907D-02.
 Angle between NR and scaled steps=  10.57 degrees.
 Angle between quadratic step and forces=  45.80 degrees.
 ClnCor:  largest displacement from symmetrization is 5.62D-14 for atom     5.
 Linear search not attempted -- first point.
 ClnCor:  largest displacement from symmetrization is 2.09D-15 for atom     4.
 B after Tr=     0.000000   -0.000000    0.000000
         Rot=    1.000000    0.000000    0.000000    0.000001 Ang=   0.00 deg.
 Variable       Old X    -DE/DX   Delta X   Delta X   Delta X     New X
                                 (Linear)    (Quad)   (Total)
    X1       -1.01464  -0.63088   0.00000  -0.14802  -0.14802  -1.16267
    Y1        0.00000   0.00004   0.00000   0.00002   0.00003   0.00003
    Z1        0.00000  -0.00000   0.00000   0.00000   0.00000   0.00000
    X2        1.01464   0.63088   0.00000   0.14802   0.14802   1.16267
    Y2       -0.00000  -0.00004   0.00000  -0.00002  -0.00003  -0.00003
    Z2        0.00000  -0.00000   0.00000   0.00000   0.00000   0.00000
    X3       -2.18836  -0.00008   0.00000  -0.10676  -0.10676  -2.29512
    Y3       -1.69651  -0.00017   0.00000  -0.01416  -0.01416  -1.71067
    Z3        0.00000  -0.00000   0.00000   0.00000   0.00000   0.00000
    X4       -2.18826  -0.00007   0.00000  -0.10673  -0.10672  -2.29499
    Y4        1.69672   0.00014   0.00000   0.01412   0.01413   1.71084
    Z4        0.00000  -0.00000   0.00000   0.00000   0.00000   0.00000
    X5        2.18836   0.00008   0.00000   0.10676   0.10676   2.29512
    Y5        1.69651   0.00017   0.00000   0.01416   0.01416   1.71067
    Z5        0.00000  -0.00000   0.00000   0.00000   0.00000   0.00000
    X6        2.18826   0.00007   0.00000   0.10673   0.10672   2.29499
    Y6       -1.69672  -0.00014   0.00000  -0.01412  -0.01413  -1.71084
    Z6        0.00000  -0.00000   0.00000   0.00000   0.00000   0.00000
         Item               Value     Threshold  Converged?
 Maximum Force            0.630879     0.000450     NO 
 RMS     Force            0.210293     0.000300     NO 
 Maximum Displacement     0.148024     0.001800     NO 
 RMS     Displacement     0.070789     0.001200     NO 
 Predicted change in Energy=-9.606952D-02
 GradGradGradGradGradGradGradGradGradGradGradGradGradGradGradGradGradGrad

 Leave Link  103 at Tue Nov 19 11:42:09 2024, MaxMem=   536870912 cpu:               0.3 elap:               0.1
 (Enter /home/szhao/Apps/g16/l9999.exe)
 1\1\GINC-NODE02\Force\UM062X\6-311+G(d,p)\C2H4\SZHAO\19-Nov-2024\0\\#p
  UM062X/6-311+G** force int=superfine\\Title Card Required\\0,1\C,-0.5
 36926,0.,0.\C,0.536926,0.,0.\H,-1.158029,-0.897757,0.\H,-1.157979,0.89
 7864,0.\H,1.158029,0.897757,0.\H,1.157979,-0.897864,0.\\Version=ES64L-
 G16RevA.03\State=1-AG\HF=-78.4447569\S2=0.\S2-1=0.\S2A=0.\RMSD=7.772e-
 09\RMSF=2.103e-01\Dipole=0.,0.,0.\Quadrupole=0.5313272,0.6107957,-1.14
 21229,0.0001645,0.,0.\PG=C02H [SGH(C2H4)]\\@


 IN SO FAR AS QUANTUM MECHANICS IS CORRECT, CHEMICAL 
 QUESTIONS ARE PROBLEMS IN APPLIED MATHEMATICS.

                    -- EYRING, WALTER, & KIMBALL, 1944
 Job cpu time:       0 days  0 hours  0 minutes 31.8 seconds.
 Elapsed time:       0 days  0 hours  0 minutes  4.5 seconds.
 File lengths (MBytes):  RWF=     22 Int=      0 D2E=      0 Chk=      2 Scr=      2
 Normal termination of Gaussian 16 at Tue Nov 19 11:42:09 2024.
