 Entering Gaussian System, Link 0=g16
 Initial command:
 /home/szhao/Apps/g16/l1.exe "/home/szhao/tmp/Gau-99414.inp" -scrdir="/home/szhao/tmp/"
 Default is to use a total of  16 processors:
                               16 via shared-memory
                                1 via Linda
 Entering Link 1 = /home/szhao/Apps/g16/l1.exe PID=     99415.
  
 Copyright (c) 1988,1990,1992,1993,1995,1998,2003,2009,2016,
            Gaussian, Inc.  All Rights Reserved.
  
 This is part of the Gaussian(R) 16 program.  It is based on
 the Gaussian(R) 09 system (copyright 2009, Gaussian, Inc.),
 the Gaussian(R) 03 system (copyright 2003, Gaussian, Inc.),
 the Gaussian(R) 98 system (copyright 1998, Gaussian, Inc.),
 the Gaussian(R) 94 system (copyright 1995, Gaussian, Inc.),
 the Gaussian 92(TM) system (copyright 1992, Gaussian, Inc.),
 the Gaussian 90(TM) system (copyright 1990, Gaussian, Inc.),
 the Gaussian 88(TM) system (copyright 1988, Gaussian, Inc.),
 the Gaussian 86(TM) system (copyright 1986, Carnegie Mellon
 University), and the Gaussian 82(TM) system (copyright 1983,
 Carnegie Mellon University). Gaussian is a federally registered
 trademark of Gaussian, Inc.
  
 This software contains proprietary and confidential information,
 including trade secrets, belonging to Gaussian, Inc.
  
 This software is provided under written license and may be
 used, copied, transmitted, or stored only in accord with that
 written license.
  
 The following legend is applicable only to US Government
 contracts under FAR:
  
                    RESTRICTED RIGHTS LEGEND
  
 Use, reproduction and disclosure by the US Government is
 subject to restrictions as set forth in subparagraphs (a)
 and (c) of the Commercial Computer Software - Restricted
 Rights clause in FAR 52.227-19.
  
 Gaussian, Inc.
 340 Quinnipiac St., Bldg. 40, Wallingford CT 06492
  
  
 ---------------------------------------------------------------
 Warning -- This program may not be used in any manner that
 competes with the business of Gaussian, Inc. or will provide
 assistance to any competitor of Gaussian, Inc.  The licensee
 of this program is prohibited from giving any competitor of
 Gaussian, Inc. access to this program.  By using this program,
 the user acknowledges that Gaussian, Inc. is engaged in the
 business of creating and licensing software in the field of
 computational chemistry and represents and warrants to the
 licensee that it is not a competitor of Gaussian, Inc. and that
 it will not use this program in any manner prohibited above.
 ---------------------------------------------------------------
  

 Cite this work as:
 Gaussian 16, Revision A.03,
 M. J. Frisch, G. W. Trucks, H. B. Schlegel, G. E. Scuseria, 
 M. A. Robb, J. R. Cheeseman, G. Scalmani, V. Barone, 
 G. A. Petersson, H. Nakatsuji, X. Li, M. Caricato, A. V. Marenich, 
 J. Bloino, B. G. Janesko, R. Gomperts, B. Mennucci, H. P. Hratchian, 
 J. V. Ortiz, A. F. Izmaylov, J. L. Sonnenberg, D. Williams-Young, 
 F. Ding, F. Lipparini, F. Egidi, J. Goings, B. Peng, A. Petrone, 
 T. Henderson, D. Ranasinghe, V. G. Zakrzewski, J. Gao, N. Rega, 
 G. Zheng, W. Liang, M. Hada, M. Ehara, K. Toyota, R. Fukuda, 
 J. Hasegawa, M. Ishida, T. Nakajima, Y. Honda, O. Kitao, H. Nakai, 
 T. Vreven, K. Throssell, J. A. Montgomery, Jr., J. E. Peralta, 
 F. Ogliaro, M. J. Bearpark, J. J. Heyd, E. N. Brothers, K. N. Kudin, 
 V. N. Staroverov, T. A. Keith, R. Kobayashi, J. Normand, 
 K. Raghavachari, A. P. Rendell, J. C. Burant, S. S. Iyengar, 
 J. Tomasi, M. Cossi, J. M. Millam, M. Klene, C. Adamo, R. Cammi, 
 J. W. Ochterski, R. L. Martin, K. Morokuma, O. Farkas, 
 J. B. Foresman, and D. J. Fox, Gaussian, Inc., Wallingford CT, 2016.
 
 ******************************************
 Gaussian 16:  ES64L-G16RevA.03 25-Dec-2016
                16-Apr-2025 
 ******************************************
 %chk=opt.chk
 %mem=4GB
 %nprocshared=8
 Will use up to    8 processors via shared memory.
 --------------------------------------------
 #p opt UM062X/6-311+G** nosymm int=superfine
 --------------------------------------------
 1/18=20,19=15,26=5,38=1/1,3;
 2/9=110,12=2,15=1,17=6,18=5,40=1/2;
 3/5=4,6=6,7=111,11=2,25=1,30=1,71=1,74=-55,75=-7,116=2/1,2,3;
 4//1;
 5/5=2,38=5/2;
 6/7=2,8=2,9=2,10=2,28=1/1;
 7/30=1/1,2,3,16;
 1/18=20,19=15,26=5/3(2);
 2/9=110,15=1/2;
 99//99;
 2/9=110,15=1/2;
 3/5=4,6=6,7=111,11=2,25=1,30=1,71=1,74=-55,75=-7,116=2/1,2,3;
 4/5=5,16=3,69=1/1;
 5/5=2,38=5/2;
 7/30=1/1,2,3,16;
 1/18=20,19=15,26=5/3(-5);
 2/9=110,15=1/2;
 6/7=2,8=2,9=2,10=2,19=2,28=1/1;
 99/9=1/99;
 Leave Link    1 at Wed Apr 16 04:29:29 2025, MaxMem=   536870912 cpu:               0.7 elap:               0.1
 (Enter /home/szhao/Apps/g16/l101.exe)
 -------------------
 Title Card Required
 -------------------
 Symbolic Z-matrix:
 Charge =  0 Multiplicity = 1
 O                     0.        0.7375   -0.0528 
 O                     0.       -0.7375   -0.0528 
 H                     0.819     0.817     0.422 
 H                    -0.819    -0.817     0.422 
 
 ITRead=  0  0  0  0
 MicOpt= -1 -1 -1 -1
 NAtoms=      4 NQM=        4 NQMF=       0 NMMI=      0 NMMIF=      0
                NMic=       0 NMicF=      0.
                    Isotopes and Nuclear Properties:
 (Nuclear quadrupole moments (NQMom) in fm**2, nuclear magnetic moments (NMagM)
  in nuclear magnetons)

  Atom         1           2           3           4
 IAtWgt=          16          16           1           1
 AtmWgt=  15.9949146  15.9949146   1.0078250   1.0078250
 NucSpn=           0           0           1           1
 AtZEff=  -0.0000000  -0.0000000  -0.0000000  -0.0000000
 NQMom=    0.0000000   0.0000000   0.0000000   0.0000000
 NMagM=    0.0000000   0.0000000   2.7928460   2.7928460
 AtZNuc=   8.0000000   8.0000000   1.0000000   1.0000000
 Leave Link  101 at Wed Apr 16 04:29:29 2025, MaxMem=   536870912 cpu:               2.2 elap:               0.3
 (Enter /home/szhao/Apps/g16/l103.exe)

 GradGradGradGradGradGradGradGradGradGradGradGradGradGradGradGradGradGrad
 Berny optimization.
 Initialization pass.
                           ----------------------------
                           !    Initial Parameters    !
                           ! (Angstroms and Degrees)  !
 --------------------------                            --------------------------
 ! Name  Definition              Value          Derivative Info.                !
 --------------------------------------------------------------------------------
 ! R1    R(1,2)                  1.475          estimate D2E/DX2                !
 ! R2    R(1,3)                  0.95           estimate D2E/DX2                !
 ! R3    R(2,4)                  0.95           estimate D2E/DX2                !
 ! A1    A(2,1,3)               94.8003         estimate D2E/DX2                !
 ! A2    A(1,2,4)               94.8003         estimate D2E/DX2                !
 ! D1    D(3,1,2,4)            119.7956         estimate D2E/DX2                !
 --------------------------------------------------------------------------------
 Trust Radius=3.00D-01 FncErr=1.00D-07 GrdErr=1.00D-07 EigMax=2.50D+02 EigMin=1.00D-04
 Number of steps in this run=     20 maximum allowed number of steps=    100.
 GradGradGradGradGradGradGradGradGradGradGradGradGradGradGradGradGradGrad

 Leave Link  103 at Wed Apr 16 04:29:30 2025, MaxMem=   536870912 cpu:               0.1 elap:               0.0
 (Enter /home/szhao/Apps/g16/l202.exe)
                          Input orientation:                          
 ---------------------------------------------------------------------
 Center     Atomic      Atomic             Coordinates (Angstroms)
 Number     Number       Type             X           Y           Z
 ---------------------------------------------------------------------
      1          8           0        0.000000    0.737500   -0.052800
      2          8           0        0.000000   -0.737500   -0.052800
      3          1           0        0.819000    0.817000    0.422000
      4          1           0       -0.819000   -0.817000    0.422000
 ---------------------------------------------------------------------
                    Distance matrix (angstroms):
                    1          2          3          4
     1  O    0.000000
     2  O    1.475000   0.000000
     3  H    0.950009   1.820073   0.000000
     4  H    1.820073   0.950009   2.313655   0.000000
 Symmetry turned off by external request.
 Stoichiometry    H2O2
 Framework group  C2[X(H2O2)]
 Deg. of freedom     4
 Full point group                 C2      NOp   2
 Rotational constants (GHZ):         301.6252496          26.2176080          25.1470979
 Leave Link  202 at Wed Apr 16 04:29:30 2025, MaxMem=   536870912 cpu:               0.0 elap:               0.0
 (Enter /home/szhao/Apps/g16/l301.exe)
 Standard basis: 6-311+G(d,p) (5D, 7F)
 Ernie: Thresh=  0.10000D-02 Tol=  0.10000D-05 Strict=F.
    56 basis functions,    88 primitive gaussians,    58 cartesian basis functions
     9 alpha electrons        9 beta electrons
       nuclear repulsion energy        36.7539268520 Hartrees.
 IExCor= 4336 DFT=T Ex+Corr=M062X ExCW=0 ScaHFX=  0.540000
 ScaDFX=  1.000000  1.000000  1.000000  1.000000 ScalE2=  1.000000  1.000000
 IRadAn=      7 IRanWt=     -1 IRanGd=            0 ICorTp=0 IEmpDi=  4
 NAtoms=    4 NActive=    4 NUniq=    4 SFac= 1.00D+00 NAtFMM=   60 NAOKFM=F Big=F
 Integral buffers will be    131072 words long.
 Raffenetti 2 integral format.
 Two-electron integral symmetry is turned off.
 Leave Link  301 at Wed Apr 16 04:29:30 2025, MaxMem=   536870912 cpu:               0.3 elap:               0.0
 (Enter /home/szhao/Apps/g16/l302.exe)
 NPDir=0 NMtPBC=     1 NCelOv=     1 NCel=       1 NClECP=     1 NCelD=      1
         NCelK=      1 NCelE2=     1 NClLst=     1 CellRange=     0.0.
 One-electron integrals computed using PRISM.
 NBasis=    56 RedAO= T EigKep=  1.58D-03  NBF=    56
 NBsUse=    56 1.00D-06 EigRej= -1.00D+00 NBFU=    56
 Precomputing XC quadrature grid using
 IXCGrd= 4 IRadAn=           7 IRanWt=          -1 IRanGd=           0 AccXCQ= 0.00D+00.
 Generated NRdTot=       0 NPtTot=           0 NUsed=           0 NTot=          32
 NSgBfM=    58    58    58    58    58 MxSgAt=     4 MxSgA2=     4.
 Leave Link  302 at Wed Apr 16 04:29:30 2025, MaxMem=   536870912 cpu:               1.5 elap:               0.2
 (Enter /home/szhao/Apps/g16/l303.exe)
 DipDrv:  MaxL=1.
 Leave Link  303 at Wed Apr 16 04:29:30 2025, MaxMem=   536870912 cpu:               0.3 elap:               0.1
 (Enter /home/szhao/Apps/g16/l401.exe)
 ExpMin= 8.45D-02 ExpMax= 8.59D+03 ExpMxC= 1.30D+03 IAcc=3 IRadAn=         7 AccDes= 0.00D+00
 Harris functional with IExCor= 1009 and IRadAn=       7 diagonalized for initial guess.
 HarFok:  IExCor= 1009 AccDes= 0.00D+00 IRadAn=         7 IDoV= 1 UseB2=F ITyADJ=14
 ICtDFT=  3500011 ScaDFX=  1.000000  1.000000  1.000000  1.000000
 FoFCou: FMM=F IPFlag=           0 FMFlag=      100000 FMFlg1=           0
         NFxFlg=           0 DoJE=T BraDBF=F KetDBF=T FulRan=T
         wScrn=  0.000000 ICntrl=       500 IOpCl=  0 I1Cent=   200000004 NGrid=           0
         NMat0=    1 NMatS0=      1 NMatT0=    0 NMatD0=    1 NMtDS0=    0 NMtDT0=    0
 Symmetry not used in FoFCou.
 Harris En= -151.472404815004    
 JPrj=0 DoOrth=F DoCkMO=F.
 Initial guess <Sx>= 0.0000 <Sy>= 0.0000 <Sz>= 0.0000 <S**2>=-0.0000 S=-0.0000
 Leave Link  401 at Wed Apr 16 04:29:30 2025, MaxMem=   536870912 cpu:               1.8 elap:               0.2
 (Enter /home/szhao/Apps/g16/l502.exe)
 Keep R1 and R2 ints in memory in canonical form, NReq=9624198.
 FoFCou: FMM=F IPFlag=           0 FMFlag=           0 FMFlg1=           0
         NFxFlg=           0 DoJE=F BraDBF=F KetDBF=F FulRan=T
         wScrn=  0.000000 ICntrl=       600 IOpCl=  0 I1Cent=           0 NGrid=           0
         NMat0=    1 NMatS0=   1596 NMatT0=    0 NMatD0=    1 NMtDS0=    0 NMtDT0=    0
 Symmetry not used in FoFCou.
 Two-electron integral symmetry not used.
 UHF open shell SCF:
 Using DIIS extrapolation, IDIIS=  1040.
 NGot=   536870912 LenX=   534314338 LenY=   534310533
 Requested convergence on RMS density matrix=1.00D-08 within 128 cycles.
 Requested convergence on MAX density matrix=1.00D-06.
 Requested convergence on             energy=1.00D-06.
 No special actions if energy rises.
 Integral accuracy reduced to 1.0D-05 until final iterations.

 Cycle   1  Pass 0  IDiag  1:
 E= -151.497098996151    
 DIIS: error= 3.13D-02 at cycle   1 NSaved=   1.
 NSaved= 1 IEnMin= 1 EnMin= -151.497098996151     IErMin= 1 ErrMin= 3.13D-02
 ErrMax= 3.13D-02  0.00D+00 EMaxC= 1.00D-01 BMatC= 2.89D-01 BMatP= 2.89D-01
 IDIUse=3 WtCom= 6.87D-01 WtEn= 3.13D-01
 Coeff-Com:  0.100D+01
 Coeff-En:   0.100D+01
 Coeff:      0.100D+01
 Gap=     0.441 Goal=   None    Shift=    0.000
 Gap=     0.441 Goal=   None    Shift=    0.000
 GapD=    0.441 DampG=2.000 DampE=0.500 DampFc=1.0000 IDamp=-1.
 RMSDP=4.34D-03 MaxDP=4.28D-02              OVMax= 7.10D-02

 Cycle   2  Pass 0  IDiag  1:
 E= -151.509313932118     Delta-E=       -0.012214935967 Rises=F Damp=F
 DIIS: error= 2.20D-02 at cycle   2 NSaved=   2.
 NSaved= 2 IEnMin= 2 EnMin= -151.509313932118     IErMin= 2 ErrMin= 2.20D-02
 ErrMax= 2.20D-02  0.00D+00 EMaxC= 1.00D-01 BMatC= 1.37D-01 BMatP= 2.89D-01
 IDIUse=3 WtCom= 7.80D-01 WtEn= 2.20D-01
 Coeff-Com:  0.396D+00 0.604D+00
 Coeff-En:   0.369D+00 0.631D+00
 Coeff:      0.390D+00 0.610D+00
 Gap=     0.432 Goal=   None    Shift=    0.000
 Gap=     0.432 Goal=   None    Shift=    0.000
 RMSDP=2.24D-03 MaxDP=3.18D-02 DE=-1.22D-02 OVMax= 3.79D-02

 Cycle   3  Pass 0  IDiag  1:
 E= -151.530681747587     Delta-E=       -0.021367815469 Rises=F Damp=F
 DIIS: error= 4.79D-03 at cycle   3 NSaved=   3.
 NSaved= 3 IEnMin= 3 EnMin= -151.530681747587     IErMin= 3 ErrMin= 4.79D-03
 ErrMax= 4.79D-03  0.00D+00 EMaxC= 1.00D-01 BMatC= 5.46D-03 BMatP= 1.37D-01
 IDIUse=3 WtCom= 9.52D-01 WtEn= 4.79D-02
 Coeff-Com:  0.389D-01 0.186D+00 0.775D+00
 Coeff-En:   0.000D+00 0.000D+00 0.100D+01
 Coeff:      0.370D-01 0.177D+00 0.786D+00
 Gap=     0.415 Goal=   None    Shift=    0.000
 Gap=     0.415 Goal=   None    Shift=    0.000
 RMSDP=3.73D-04 MaxDP=4.68D-03 DE=-2.14D-02 OVMax= 6.82D-03

 Cycle   4  Pass 0  IDiag  1:
 E= -151.531567189507     Delta-E=       -0.000885441920 Rises=F Damp=F
 DIIS: error= 5.65D-04 at cycle   4 NSaved=   4.
 NSaved= 4 IEnMin= 4 EnMin= -151.531567189507     IErMin= 4 ErrMin= 5.65D-04
 ErrMax= 5.65D-04  0.00D+00 EMaxC= 1.00D-01 BMatC= 8.86D-05 BMatP= 5.46D-03
 IDIUse=3 WtCom= 9.94D-01 WtEn= 5.65D-03
 Coeff-Com: -0.298D-02 0.195D-01 0.181D+00 0.802D+00
 Coeff-En:   0.000D+00 0.000D+00 0.000D+00 0.100D+01
 Coeff:     -0.296D-02 0.194D-01 0.180D+00 0.804D+00
 Gap=     0.415 Goal=   None    Shift=    0.000
 Gap=     0.415 Goal=   None    Shift=    0.000
 RMSDP=4.31D-05 MaxDP=4.75D-04 DE=-8.85D-04 OVMax= 7.65D-04

 Cycle   5  Pass 0  IDiag  1:
 E= -151.531579982491     Delta-E=       -0.000012792984 Rises=F Damp=F
 DIIS: error= 3.01D-05 at cycle   5 NSaved=   5.
 NSaved= 5 IEnMin= 5 EnMin= -151.531579982491     IErMin= 5 ErrMin= 3.01D-05
 ErrMax= 3.01D-05  0.00D+00 EMaxC= 1.00D-01 BMatC= 2.13D-07 BMatP= 8.86D-05
 IDIUse=1 WtCom= 1.00D+00 WtEn= 0.00D+00
 Coeff-Com: -0.101D-04-0.296D-02-0.225D-01-0.897D-01 0.112D+01
 Coeff:     -0.101D-04-0.296D-02-0.225D-01-0.897D-01 0.112D+01
 Gap=     0.415 Goal=   None    Shift=    0.000
 Gap=     0.415 Goal=   None    Shift=    0.000
 RMSDP=7.69D-06 MaxDP=5.94D-05 DE=-1.28D-05 OVMax= 1.65D-04

 Initial convergence to 1.0D-05 achieved.  Increase integral accuracy.
 Cycle   6  Pass 1  IDiag  1:
 E= -151.531578706425     Delta-E=        0.000001276066 Rises=F Damp=F
 DIIS: error= 9.04D-06 at cycle   1 NSaved=   1.
 NSaved= 1 IEnMin= 1 EnMin= -151.531578706425     IErMin= 1 ErrMin= 9.04D-06
 ErrMax= 9.04D-06  0.00D+00 EMaxC= 1.00D-01 BMatC= 1.33D-08 BMatP= 1.33D-08
 IDIUse=1 WtCom= 1.00D+00 WtEn= 0.00D+00
 Coeff-Com:  0.100D+01
 Coeff:      0.100D+01
 Gap=     0.415 Goal=   None    Shift=    0.000
 Gap=     0.415 Goal=   None    Shift=    0.000
 RMSDP=7.69D-06 MaxDP=5.94D-05 DE= 1.28D-06 OVMax= 4.35D-05

 Cycle   7  Pass 1  IDiag  1:
 E= -151.531578712338     Delta-E=       -0.000000005913 Rises=F Damp=F
 DIIS: error= 3.93D-06 at cycle   2 NSaved=   2.
 NSaved= 2 IEnMin= 2 EnMin= -151.531578712338     IErMin= 2 ErrMin= 3.93D-06
 ErrMax= 3.93D-06  0.00D+00 EMaxC= 1.00D-01 BMatC= 1.70D-09 BMatP= 1.33D-08
 IDIUse=1 WtCom= 1.00D+00 WtEn= 0.00D+00
 Coeff-Com:  0.109D+00 0.891D+00
 Coeff:      0.109D+00 0.891D+00
 Gap=     0.415 Goal=   None    Shift=    0.000
 Gap=     0.415 Goal=   None    Shift=    0.000
 RMSDP=5.17D-07 MaxDP=3.24D-06 DE=-5.91D-09 OVMax= 1.94D-05

 Cycle   8  Pass 1  IDiag  1:
 E= -151.531578713180     Delta-E=       -0.000000000842 Rises=F Damp=F
 DIIS: error= 2.13D-06 at cycle   3 NSaved=   3.
 NSaved= 3 IEnMin= 3 EnMin= -151.531578713180     IErMin= 3 ErrMin= 2.13D-06
 ErrMax= 2.13D-06  0.00D+00 EMaxC= 1.00D-01 BMatC= 6.64D-10 BMatP= 1.70D-09
 IDIUse=1 WtCom= 1.00D+00 WtEn= 0.00D+00
 Coeff-Com: -0.110D+00 0.283D+00 0.827D+00
 Coeff:     -0.110D+00 0.283D+00 0.827D+00
 Gap=     0.415 Goal=   None    Shift=    0.000
 Gap=     0.415 Goal=   None    Shift=    0.000
 RMSDP=2.99D-07 MaxDP=1.67D-06 DE=-8.42D-10 OVMax= 1.18D-05

 Cycle   9  Pass 1  IDiag  1:
 E= -151.531578713448     Delta-E=       -0.000000000269 Rises=F Damp=F
 DIIS: error= 8.26D-07 at cycle   4 NSaved=   4.
 NSaved= 4 IEnMin= 4 EnMin= -151.531578713448     IErMin= 4 ErrMin= 8.26D-07
 ErrMax= 8.26D-07  0.00D+00 EMaxC= 1.00D-01 BMatC= 7.98D-11 BMatP= 6.64D-10
 IDIUse=1 WtCom= 1.00D+00 WtEn= 0.00D+00
 Coeff-Com: -0.650D-01-0.590D-01 0.237D+00 0.887D+00
 Coeff:     -0.650D-01-0.590D-01 0.237D+00 0.887D+00
 Gap=     0.415 Goal=   None    Shift=    0.000
 Gap=     0.415 Goal=   None    Shift=    0.000
 RMSDP=1.38D-07 MaxDP=8.92D-07 DE=-2.69D-10 OVMax= 6.54D-06

 Cycle  10  Pass 1  IDiag  1:
 E= -151.531578713497     Delta-E=       -0.000000000048 Rises=F Damp=F
 DIIS: error= 2.55D-07 at cycle   5 NSaved=   5.
 NSaved= 5 IEnMin= 5 EnMin= -151.531578713497     IErMin= 5 ErrMin= 2.55D-07
 ErrMax= 2.55D-07  0.00D+00 EMaxC= 1.00D-01 BMatC= 3.65D-12 BMatP= 7.98D-11
 IDIUse=1 WtCom= 1.00D+00 WtEn= 0.00D+00
 Coeff-Com:  0.253D-01 0.141D-01-0.132D+00-0.335D+00 0.143D+01
 Coeff:      0.253D-01 0.141D-01-0.132D+00-0.335D+00 0.143D+01
 Gap=     0.415 Goal=   None    Shift=    0.000
 Gap=     0.415 Goal=   None    Shift=    0.000
 RMSDP=6.50D-08 MaxDP=4.04D-07 DE=-4.83D-11 OVMax= 2.70D-06

 Cycle  11  Pass 1  IDiag  1:
 E= -151.531578713502     Delta-E=       -0.000000000005 Rises=F Damp=F
 DIIS: error= 4.03D-08 at cycle   6 NSaved=   6.
 NSaved= 6 IEnMin= 6 EnMin= -151.531578713502     IErMin= 6 ErrMin= 4.03D-08
 ErrMax= 4.03D-08  0.00D+00 EMaxC= 1.00D-01 BMatC= 1.71D-13 BMatP= 3.65D-12
 IDIUse=1 WtCom= 1.00D+00 WtEn= 0.00D+00
 Coeff-Com:  0.715D-02 0.477D-02-0.337D-01-0.101D+00 0.175D+00 0.948D+00
 Coeff:      0.715D-02 0.477D-02-0.337D-01-0.101D+00 0.175D+00 0.948D+00
 Gap=     0.415 Goal=   None    Shift=    0.000
 Gap=     0.415 Goal=   None    Shift=    0.000
 RMSDP=1.07D-08 MaxDP=6.43D-08 DE=-5.17D-12 OVMax= 4.49D-07

 Cycle  12  Pass 1  IDiag  1:
 E= -151.531578713502     Delta-E=        0.000000000000 Rises=F Damp=F
 DIIS: error= 3.99D-09 at cycle   7 NSaved=   7.
 NSaved= 7 IEnMin= 6 EnMin= -151.531578713502     IErMin= 7 ErrMin= 3.99D-09
 ErrMax= 3.99D-09  0.00D+00 EMaxC= 1.00D-01 BMatC= 3.05D-15 BMatP= 1.71D-13
 IDIUse=1 WtCom= 1.00D+00 WtEn= 0.00D+00
 Coeff-Com: -0.997D-03-0.116D-02 0.564D-02 0.172D-01-0.548D-01-0.561D-01
 Coeff-Com:  0.109D+01
 Coeff:     -0.997D-03-0.116D-02 0.564D-02 0.172D-01-0.548D-01-0.561D-01
 Coeff:      0.109D+01
 Gap=     0.415 Goal=   None    Shift=    0.000
 Gap=     0.415 Goal=   None    Shift=    0.000
 RMSDP=1.16D-09 MaxDP=8.81D-09 DE= 0.00D+00 OVMax= 3.43D-08

 SCF Done:  E(UM062X) =  -151.531578714     A.U. after   12 cycles
            NFock= 12  Conv=0.12D-08     -V/T= 2.0023
 <Sx>= 0.0000 <Sy>= 0.0000 <Sz>= 0.0000 <S**2>=-0.0000 S=-0.0000
 <L.S>=  0.00000000000    
 KE= 1.511851586345D+02 PE=-4.322400199683D+02 EE= 9.276935576835D+01
 Annihilation of the first spin contaminant:
 S**2 before annihilation    -0.0000,   after    -0.0000
 Leave Link  502 at Wed Apr 16 04:29:33 2025, MaxMem=   536870912 cpu:              20.1 elap:               2.6
 (Enter /home/szhao/Apps/g16/l601.exe)
 Copying SCF densities to generalized density rwf, IOpCl= 1 IROHF=0.

 **********************************************************************

            Population analysis using the SCF density.

 **********************************************************************

 Alpha  occ. eigenvalues --  -19.69333 -19.69317  -1.26240  -1.03320  -0.60380
 Alpha  occ. eigenvalues --   -0.60343  -0.51648  -0.42914  -0.37948
 Alpha virt. eigenvalues --    0.03534   0.06007   0.11530   0.15990   0.16760
 Alpha virt. eigenvalues --    0.18552   0.20231   0.20989   0.21933   0.27709
 Alpha virt. eigenvalues --    0.33565   0.51626   0.52987   0.97905   0.99976
 Alpha virt. eigenvalues --    1.00960   1.01875   1.07359   1.11772   1.29566
 Alpha virt. eigenvalues --    1.33442   1.43926   1.46354   1.53366   1.67564
 Alpha virt. eigenvalues --    2.03614   2.09332   2.43864   2.53789   2.60837
 Alpha virt. eigenvalues --    2.75603   2.87479   3.17290   3.17463   3.24900
 Alpha virt. eigenvalues --    3.34654   3.64745   3.80960   3.92866   4.85374
 Alpha virt. eigenvalues --    5.00328   5.04803   5.46085   5.60928   5.62278
 Alpha virt. eigenvalues --   49.88962  49.92876
  Beta  occ. eigenvalues --  -19.69333 -19.69317  -1.26240  -1.03320  -0.60380
  Beta  occ. eigenvalues --   -0.60343  -0.51648  -0.42914  -0.37948
  Beta virt. eigenvalues --    0.03534   0.06007   0.11530   0.15990   0.16760
  Beta virt. eigenvalues --    0.18552   0.20231   0.20989   0.21933   0.27709
  Beta virt. eigenvalues --    0.33565   0.51626   0.52987   0.97905   0.99976
  Beta virt. eigenvalues --    1.00960   1.01875   1.07359   1.11772   1.29566
  Beta virt. eigenvalues --    1.33442   1.43926   1.46354   1.53366   1.67564
  Beta virt. eigenvalues --    2.03614   2.09332   2.43864   2.53789   2.60837
  Beta virt. eigenvalues --    2.75603   2.87479   3.17290   3.17463   3.24900
  Beta virt. eigenvalues --    3.34654   3.64745   3.80960   3.92866   4.85374
  Beta virt. eigenvalues --    5.00328   5.04803   5.46085   5.60928   5.62278
  Beta virt. eigenvalues --   49.88962  49.92876
          Condensed to atoms (all electrons):
               1          2          3          4
     1  O    7.944701   0.089586   0.271292  -0.036075
     2  O    0.089586   7.944701  -0.036075   0.271292
     3  H    0.271292  -0.036075   0.490314   0.004966
     4  H   -0.036075   0.271292   0.004966   0.490314
          Atomic-Atomic Spin Densities.
               1          2          3          4
     1  O   -0.000000   0.000000   0.000000   0.000000
     2  O    0.000000  -0.000000  -0.000000   0.000000
     3  H    0.000000  -0.000000   0.000000   0.000000
     4  H    0.000000   0.000000   0.000000  -0.000000
 Mulliken charges and spin densities:
               1          2
     1  O   -0.269503   0.000000
     2  O   -0.269503  -0.000000
     3  H    0.269503   0.000000
     4  H    0.269503   0.000000
 Sum of Mulliken charges =  -0.00000   0.00000
 Mulliken charges and spin densities with hydrogens summed into heavy atoms:
               1          2
     1  O   -0.000000   0.000000
     2  O    0.000000  -0.000000
 Electronic spatial extent (au):  <R**2>=             67.1781
 Charge=             -0.0000 electrons
 Dipole moment (field-independent basis, Debye):
    X=              0.0000    Y=             -0.0000    Z=              1.7727  Tot=              1.7727
 Quadrupole moment (field-independent basis, Debye-Ang):
   XX=             -9.4436   YY=            -12.2241   ZZ=            -12.1084
   XY=              2.9477   XZ=              0.0000   YZ=              0.0000
 Traceless Quadrupole moment (field-independent basis, Debye-Ang):
   XX=              1.8151   YY=             -0.9654   ZZ=             -0.8497
   XY=              2.9477   XZ=              0.0000   YZ=              0.0000
 Octapole moment (field-independent basis, Debye-Ang**2):
  XXX=              0.0000  YYY=              0.0000  ZZZ=              1.1335  XYY=              0.0000
  XXY=              0.0000  XXZ=              1.4307  XZZ=              0.0000  YZZ=              0.0000
  YYZ=              1.7200  XYZ=              1.5773
 Hexadecapole moment (field-independent basis, Debye-Ang**3):
 XXXX=            -10.2449 YYYY=            -47.3905 ZZZZ=            -11.3646 XXXY=              0.6313
 XXXZ=              0.0000 YYYX=              1.0715 YYYZ=             -0.0000 ZZZX=              0.0000
 ZZZY=             -0.0000 XXYY=             -8.9625 XXZZ=             -3.3670 YYZZ=            -10.6146
 XXYZ=              0.0000 YYXZ=              0.0000 ZZXY=              0.0534
 N-N= 3.675392685196D+01 E-N=-4.322400199711D+02  KE= 1.511851586345D+02
                          Isotropic Fermi Contact Couplings
        Atom                 a.u.       MegaHertz       Gauss      10(-4) cm-1
     1  O(17)             -0.00000       0.00000       0.00000       0.00000
     2  O(17)             -0.00000       0.00000       0.00000       0.00000
     3  H(1)               0.00000       0.00000       0.00000       0.00000
     4  H(1)              -0.00000      -0.00000      -0.00000      -0.00000
 --------------------------------------------------------
       Center         ----  Spin Dipole Couplings  ----
                      3XX-RR        3YY-RR        3ZZ-RR
 --------------------------------------------------------
     1   Atom        0.000000      0.000000      0.000000
     2   Atom        0.000000      0.000000      0.000000
     3   Atom        0.000000      0.000000      0.000000
     4   Atom        0.000000      0.000000      0.000000
 --------------------------------------------------------
                        XY            XZ            YZ
 --------------------------------------------------------
     1   Atom        0.000000      0.000000      0.000000
     2   Atom        0.000000      0.000000      0.000000
     3   Atom        0.000000      0.000000      0.000000
     4   Atom        0.000000      0.000000      0.000000
 --------------------------------------------------------


 ---------------------------------------------------------------------------------
              Anisotropic Spin Dipole Couplings in Principal Axis System
 ---------------------------------------------------------------------------------

       Atom             a.u.   MegaHertz   Gauss  10(-4) cm-1        Axes

              Baa     0.0000    -0.000    -0.000    -0.000  1.0000  0.0000  0.0000
     1 O(17)  Bbb     0.0000    -0.000    -0.000    -0.000 -0.0000  1.0000  0.0000
              Bcc     0.0000    -0.000    -0.000    -0.000  0.0000  0.0000  1.0000
 
              Baa     0.0000    -0.000    -0.000    -0.000  1.0000  0.0000  0.0000
     2 O(17)  Bbb     0.0000    -0.000    -0.000    -0.000 -0.0000  1.0000  0.0000
              Bcc     0.0000    -0.000    -0.000    -0.000  0.0000  0.0000  1.0000
 
              Baa     0.0000     0.000     0.000     0.000  1.0000  0.0000  0.0000
     3 H(1)   Bbb     0.0000     0.000     0.000     0.000 -0.0000  1.0000  0.0000
              Bcc     0.0000     0.000     0.000     0.000  0.0000  0.0000  1.0000
 
              Baa     0.0000     0.000     0.000     0.000  1.0000  0.0000  0.0000
     4 H(1)   Bbb     0.0000     0.000     0.000     0.000 -0.0000  1.0000  0.0000
              Bcc     0.0000     0.000     0.000     0.000  0.0000  0.0000  1.0000
 

 ---------------------------------------------------------------------------------

 No NMR shielding tensors so no spin-rotation constants.
 Leave Link  601 at Wed Apr 16 04:29:34 2025, MaxMem=   536870912 cpu:               0.9 elap:               0.1
 (Enter /home/szhao/Apps/g16/l701.exe)
 ... and contract with generalized density number  0.
 Compute integral first derivatives.
 Leave Link  701 at Wed Apr 16 04:29:34 2025, MaxMem=   536870912 cpu:               1.3 elap:               0.2
 (Enter /home/szhao/Apps/g16/l702.exe)
 L702 exits ... SP integral derivatives will be done elsewhere.
 Leave Link  702 at Wed Apr 16 04:29:34 2025, MaxMem=   536870912 cpu:               0.3 elap:               0.1
 (Enter /home/szhao/Apps/g16/l703.exe)
 Integral derivatives from FoFJK, PRISM(SPDF).
 Compute integral first derivatives, UseDBF=F ICtDFT=           0.
 Calling FoFJK, ICntrl=      2127 FMM=F ISym2X=0 I1Cent= 0 IOpClX= 1 NMat=1 NMatS=1 NMatT=0.
 FoFJK:  IHMeth= 1 ICntrl=    2127 DoSepK=F KAlg= 0 I1Cent=           0 FoldK=F
 IRaf=         0 NMat=       1 IRICut=       1 DoRegI=T DoRafI=F ISym2E= 0 IDoP0=0 IntGTp=1.
 FoFCou: FMM=F IPFlag=           0 FMFlag=      100000 FMFlg1=         800
         NFxFlg=           0 DoJE=F BraDBF=F KetDBF=F FulRan=T
         wScrn=  0.000000 ICntrl=      2127 IOpCl=  1 I1Cent=           0 NGrid=           0
         NMat0=    1 NMatS0=      1 NMatT0=    0 NMatD0=    1 NMtDS0=    0 NMtDT0=    0
 Symmetry not used in FoFCou.
 Leave Link  703 at Wed Apr 16 04:29:35 2025, MaxMem=   536870912 cpu:               4.2 elap:               0.5
 (Enter /home/szhao/Apps/g16/l716.exe)
 Dipole        = 1.42330592D-13-4.45865567D-13 6.97429419D-01
 -------------------------------------------------------------------
 Center     Atomic                   Forces (Hartrees/Bohr)
 Number     Number              X              Y              Z
 -------------------------------------------------------------------
      1        8           0.000350618   -0.027987478   -0.006363175
      2        8          -0.000350618    0.027987478   -0.006363175
      3        1           0.012838356    0.013123312    0.006363175
      4        1          -0.012838356   -0.013123312    0.006363175
 -------------------------------------------------------------------
 Cartesian Forces:  Max     0.027987478 RMS     0.014150657
 Leave Link  716 at Wed Apr 16 04:29:35 2025, MaxMem=   536870912 cpu:               0.3 elap:               0.1
 (Enter /home/szhao/Apps/g16/l103.exe)

 GradGradGradGradGradGradGradGradGradGradGradGradGradGradGradGradGradGrad
 Berny optimization.
 FormGI is forming the generalized inverse of G from B-inverse, IUseBI=4.
 Internal  Forces:  Max     0.021328593 RMS     0.016353338
 Search for a local minimum.
 Step number   1 out of a maximum of   20
 All quantities printed in internal units (Hartrees-Bohrs-Radians)
 RMS Force = .16353D-01 SwitMx=.10000D-02 MixMth= 1
 Mixed Optimization -- RFO/linear search
 Second derivative matrix not updated -- first step.
 The second derivative matrix:
                          R1        R2        R3        A1        A2
           R1           0.35148
           R2           0.00000   0.57679
           R3           0.00000   0.00000   0.57679
           A1           0.00000   0.00000   0.00000   0.16000
           A2           0.00000   0.00000   0.00000   0.00000   0.16000
           D1           0.00000   0.00000   0.00000   0.00000   0.00000
                          D1
           D1           0.00303
 ITU=  0
     Eigenvalues ---    0.00303   0.16000   0.16000   0.35148   0.57679
     Eigenvalues ---    0.57679
 RFO step:  Lambda=-7.14082236D-03 EMin= 3.02698747D-03
 Linear search not attempted -- first point.
 Iteration  1 RMS(Cart)=  0.13146760 RMS(Int)=  0.00889787
 Iteration  2 RMS(Cart)=  0.00703504 RMS(Int)=  0.00001892
 Iteration  3 RMS(Cart)=  0.00001734 RMS(Int)=  0.00000000
 Iteration  4 RMS(Cart)=  0.00000000 RMS(Int)=  0.00000000
 ITry= 1 IFail=0 DXMaxC= 1.58D-01 DCOld= 1.00D+10 DXMaxT= 3.00D-01 DXLimC= 3.00D+00 Rises=F
 Variable       Old X    -DE/DX   Delta X   Delta X   Delta X     New X
                                 (Linear)    (Quad)   (Total)
    R1        2.78735  -0.01486   0.00000  -0.04145  -0.04145   2.74590
    R2        1.79526   0.01535   0.00000   0.02628   0.02628   1.82154
    R3        1.79526   0.01535   0.00000   0.02628   0.02628   1.82154
    A1        1.65458   0.02133   0.00000   0.12761   0.12761   1.78219
    A2        1.65458   0.02133   0.00000   0.12761   0.12761   1.78219
    D1        2.09083   0.00167   0.00000   0.16435   0.16435   2.25518
         Item               Value     Threshold  Converged?
 Maximum Force            0.021329     0.000450     NO 
 RMS     Force            0.016353     0.000300     NO 
 Maximum Displacement     0.157611     0.001800     NO 
 RMS     Displacement     0.129251     0.001200     NO 
 Predicted change in Energy=-3.794201D-03
 Lowest energy point so far.  Saving SCF results.
 GradGradGradGradGradGradGradGradGradGradGradGradGradGradGradGradGradGrad

 Leave Link  103 at Wed Apr 16 04:29:35 2025, MaxMem=   536870912 cpu:               0.2 elap:               0.0
 (Enter /home/szhao/Apps/g16/l202.exe)
                          Input orientation:                          
 ---------------------------------------------------------------------
 Center     Atomic      Atomic             Coordinates (Angstroms)
 Number     Number       Type             X           Y           Z
 ---------------------------------------------------------------------
      1          8           0        0.023790    0.726144   -0.017481
      2          8           0       -0.023790   -0.726144   -0.017481
      3          1           0        0.881356    0.900404    0.386681
      4          1           0       -0.881356   -0.900404    0.386681
 ---------------------------------------------------------------------
                    Distance matrix (angstroms):
                    1          2          3          4
     1  O    0.000000
     2  O    1.453067   0.000000
     3  H    0.963916   1.904809   0.000000
     4  H    1.904809   0.963916   2.519934   0.000000
 Symmetry turned off by external request.
 Stoichiometry    H2O2
 Framework group  C2[X(H2O2)]
 Deg. of freedom     4
 Full point group                 C2      NOp   2
 Rotational constants (GHZ):         311.1786316          26.4858152          25.1610992
 Leave Link  202 at Wed Apr 16 04:29:35 2025, MaxMem=   536870912 cpu:               0.1 elap:               0.0
 (Enter /home/szhao/Apps/g16/l301.exe)
 Standard basis: 6-311+G(d,p) (5D, 7F)
 Ernie: Thresh=  0.10000D-02 Tol=  0.10000D-05 Strict=F.
    56 basis functions,    88 primitive gaussians,    58 cartesian basis functions
     9 alpha electrons        9 beta electrons
       nuclear repulsion energy        36.7462606440 Hartrees.
 IExCor= 4336 DFT=T Ex+Corr=M062X ExCW=0 ScaHFX=  0.540000
 ScaDFX=  1.000000  1.000000  1.000000  1.000000 ScalE2=  1.000000  1.000000
 IRadAn=      7 IRanWt=     -1 IRanGd=            0 ICorTp=0 IEmpDi=  4
 NAtoms=    4 NActive=    4 NUniq=    4 SFac= 1.00D+00 NAtFMM=   60 NAOKFM=F Big=F
 Integral buffers will be    131072 words long.
 Raffenetti 2 integral format.
 Two-electron integral symmetry is turned off.
 Leave Link  301 at Wed Apr 16 04:29:36 2025, MaxMem=   536870912 cpu:               0.3 elap:               0.1
 (Enter /home/szhao/Apps/g16/l302.exe)
 NPDir=0 NMtPBC=     1 NCelOv=     1 NCel=       1 NClECP=     1 NCelD=      1
         NCelK=      1 NCelE2=     1 NClLst=     1 CellRange=     0.0.
 One-electron integrals computed using PRISM.
 NBasis=    56 RedAO= T EigKep=  1.44D-03  NBF=    56
 NBsUse=    56 1.00D-06 EigRej= -1.00D+00 NBFU=    56
 Precomputing XC quadrature grid using
 IXCGrd= 4 IRadAn=           7 IRanWt=          -1 IRanGd=           0 AccXCQ= 0.00D+00.
 Generated NRdTot=       0 NPtTot=           0 NUsed=           0 NTot=          32
 NSgBfM=    58    58    58    58    58 MxSgAt=     4 MxSgA2=     4.
 Leave Link  302 at Wed Apr 16 04:29:36 2025, MaxMem=   536870912 cpu:               1.1 elap:               0.2
 (Enter /home/szhao/Apps/g16/l303.exe)
 DipDrv:  MaxL=1.
 Leave Link  303 at Wed Apr 16 04:29:36 2025, MaxMem=   536870912 cpu:               0.3 elap:               0.1
 (Enter /home/szhao/Apps/g16/l401.exe)
 Initial guess from the checkpoint file:  "opt.chk"
 B after Tr=    -0.000000    0.000000    0.051911
         Rot=    0.999943    0.000000    0.000000    0.010709 Ang=   1.23 deg.
 Guess basis will be translated and rotated to current coordinates.
 JPrj=2 DoOrth=T DoCkMO=T.
 Initial guess <Sx>= 0.0000 <Sy>= 0.0000 <Sz>= 0.0000 <S**2>=-0.0000 S=-0.0000
 Generating alternative initial guess.
 ExpMin= 8.45D-02 ExpMax= 8.59D+03 ExpMxC= 1.30D+03 IAcc=3 IRadAn=         5 AccDes= 0.00D+00
 Harris functional with IExCor= 1009 and IRadAn=       5 diagonalized for initial guess.
 HarFok:  IExCor= 1009 AccDes= 0.00D+00 IRadAn=         5 IDoV= 1 UseB2=F ITyADJ=14
 ICtDFT=  3500011 ScaDFX=  1.000000  1.000000  1.000000  1.000000
 FoFCou: FMM=F IPFlag=           0 FMFlag=      100000 FMFlg1=           0
         NFxFlg=           0 DoJE=T BraDBF=F KetDBF=T FulRan=T
         wScrn=  0.000000 ICntrl=       500 IOpCl=  0 I1Cent=   200000004 NGrid=           0
         NMat0=    1 NMatS0=      1 NMatT0=    0 NMatD0=    1 NMtDS0=    0 NMtDT0=    0
 Symmetry not used in FoFCou.
 Harris En= -151.477514202303    
 Leave Link  401 at Wed Apr 16 04:29:36 2025, MaxMem=   536870912 cpu:               2.3 elap:               0.3
 (Enter /home/szhao/Apps/g16/l502.exe)
 Keep R1 and R2 ints in memory in canonical form, NReq=9624198.
 FoFCou: FMM=F IPFlag=           0 FMFlag=           0 FMFlg1=           0
         NFxFlg=           0 DoJE=F BraDBF=F KetDBF=F FulRan=T
         wScrn=  0.000000 ICntrl=       600 IOpCl=  0 I1Cent=           0 NGrid=           0
         NMat0=    1 NMatS0=   1596 NMatT0=    0 NMatD0=    1 NMtDS0=    0 NMtDT0=    0
 Symmetry not used in FoFCou.
 Two-electron integral symmetry not used.
 UHF open shell SCF:
 Using DIIS extrapolation, IDIIS=  1040.
 NGot=   536870912 LenX=   534314338 LenY=   534310533
 Requested convergence on RMS density matrix=1.00D-08 within 128 cycles.
 Requested convergence on MAX density matrix=1.00D-06.
 Requested convergence on             energy=1.00D-06.
 No special actions if energy rises.
 Integral accuracy reduced to 1.0D-05 until final iterations.

 Cycle   1  Pass 0  IDiag  1:
 E= -151.529572055782    
 DIIS: error= 7.01D-03 at cycle   1 NSaved=   1.
 NSaved= 1 IEnMin= 1 EnMin= -151.529572055782     IErMin= 1 ErrMin= 7.01D-03
 ErrMax= 7.01D-03  0.00D+00 EMaxC= 1.00D-01 BMatC= 1.57D-02 BMatP= 1.57D-02
 IDIUse=3 WtCom= 9.30D-01 WtEn= 7.01D-02
 Coeff-Com:  0.100D+01
 Coeff-En:   0.100D+01
 Coeff:      0.100D+01
 Gap=     0.660 Goal=   None    Shift=    0.000
 Gap=     0.660 Goal=   None    Shift=    0.000
 GapD=    0.660 DampG=2.000 DampE=1.000 DampFc=2.0000 IDamp=-1.
 RMSDP=1.35D-03 MaxDP=9.61D-03              OVMax= 2.12D-02

 Cycle   2  Pass 0  IDiag  1:
 E= -151.534202553557     Delta-E=       -0.004630497774 Rises=F Damp=F
 DIIS: error= 1.22D-03 at cycle   2 NSaved=   2.
 NSaved= 2 IEnMin= 2 EnMin= -151.534202553557     IErMin= 2 ErrMin= 1.22D-03
 ErrMax= 1.22D-03  0.00D+00 EMaxC= 1.00D-01 BMatC= 3.64D-04 BMatP= 1.57D-02
 IDIUse=3 WtCom= 9.88D-01 WtEn= 1.22D-02
 Coeff-Com: -0.126D+00 0.113D+01
 Coeff-En:   0.000D+00 0.100D+01
 Coeff:     -0.125D+00 0.112D+01
 Gap=     0.407 Goal=   None    Shift=    0.000
 Gap=     0.407 Goal=   None    Shift=    0.000
 RMSDP=3.12D-04 MaxDP=2.29D-03 DE=-4.63D-03 OVMax= 6.49D-03

 Cycle   3  Pass 0  IDiag  1:
 E= -151.534395979329     Delta-E=       -0.000193425772 Rises=F Damp=F
 DIIS: error= 4.34D-04 at cycle   3 NSaved=   3.
 NSaved= 3 IEnMin= 3 EnMin= -151.534395979329     IErMin= 3 ErrMin= 4.34D-04
 ErrMax= 4.34D-04  0.00D+00 EMaxC= 1.00D-01 BMatC= 1.39D-05 BMatP= 3.64D-04
 IDIUse=3 WtCom= 9.96D-01 WtEn= 4.34D-03
 Coeff-Com: -0.477D-02-0.414D-01 0.105D+01
 Coeff-En:   0.000D+00 0.000D+00 0.100D+01
 Coeff:     -0.475D-02-0.412D-01 0.105D+01
 Gap=     0.407 Goal=   None    Shift=    0.000
 Gap=     0.407 Goal=   None    Shift=    0.000
 RMSDP=7.06D-05 MaxDP=4.38D-04 DE=-1.93D-04 OVMax= 2.45D-03

 Cycle   4  Pass 0  IDiag  1:
 E= -151.534407430335     Delta-E=       -0.000011451006 Rises=F Damp=F
 DIIS: error= 1.83D-04 at cycle   4 NSaved=   4.
 NSaved= 4 IEnMin= 4 EnMin= -151.534407430335     IErMin= 4 ErrMin= 1.83D-04
 ErrMax= 1.83D-04  0.00D+00 EMaxC= 1.00D-01 BMatC= 3.50D-06 BMatP= 1.39D-05
 IDIUse=3 WtCom= 9.98D-01 WtEn= 1.83D-03
 Coeff-Com:  0.840D-02-0.923D-01 0.209D+00 0.875D+00
 Coeff-En:   0.000D+00 0.000D+00 0.000D+00 0.100D+01
 Coeff:      0.838D-02-0.922D-01 0.208D+00 0.875D+00
 Gap=     0.407 Goal=   None    Shift=    0.000
 Gap=     0.407 Goal=   None    Shift=    0.000
 RMSDP=2.74D-05 MaxDP=1.59D-04 DE=-1.15D-05 OVMax= 1.09D-03

 Cycle   5  Pass 0  IDiag  1:
 E= -151.534409396869     Delta-E=       -0.000001966533 Rises=F Damp=F
 DIIS: error= 7.27D-05 at cycle   5 NSaved=   5.
 NSaved= 5 IEnMin= 5 EnMin= -151.534409396869     IErMin= 5 ErrMin= 7.27D-05
 ErrMax= 7.27D-05  0.00D+00 EMaxC= 1.00D-01 BMatC= 9.22D-07 BMatP= 3.50D-06
 IDIUse=1 WtCom= 1.00D+00 WtEn= 0.00D+00
 Coeff-Com:  0.386D-02-0.241D-01-0.126D+00 0.302D+00 0.843D+00
 Coeff:      0.386D-02-0.241D-01-0.126D+00 0.302D+00 0.843D+00
 Gap=     0.407 Goal=   None    Shift=    0.000
 Gap=     0.407 Goal=   None    Shift=    0.000
 RMSDP=1.46D-05 MaxDP=8.80D-05 DE=-1.97D-06 OVMax= 5.85D-04

 Cycle   6  Pass 0  IDiag  1:
 E= -151.534409873111     Delta-E=       -0.000000476242 Rises=F Damp=F
 DIIS: error= 2.82D-05 at cycle   6 NSaved=   6.
 NSaved= 6 IEnMin= 6 EnMin= -151.534409873111     IErMin= 6 ErrMin= 2.82D-05
 ErrMax= 2.82D-05  0.00D+00 EMaxC= 1.00D-01 BMatC= 5.46D-08 BMatP= 9.22D-07
 IDIUse=1 WtCom= 1.00D+00 WtEn= 0.00D+00
 Coeff-Com: -0.144D-02 0.159D-01-0.292D-01-0.153D+00-0.714D-02 0.118D+01
 Coeff:     -0.144D-02 0.159D-01-0.292D-01-0.153D+00-0.714D-02 0.118D+01
 Gap=     0.407 Goal=   None    Shift=    0.000
 Gap=     0.407 Goal=   None    Shift=    0.000
 RMSDP=6.44D-06 MaxDP=4.14D-05 DE=-4.76D-07 OVMax= 2.86D-04

 Initial convergence to 1.0D-05 achieved.  Increase integral accuracy.
 Cycle   7  Pass 1  IDiag  1:
 E= -151.534409338878     Delta-E=        0.000000534232 Rises=F Damp=F
 DIIS: error= 2.80D-06 at cycle   1 NSaved=   1.
 NSaved= 1 IEnMin= 1 EnMin= -151.534409338878     IErMin= 1 ErrMin= 2.80D-06
 ErrMax= 2.80D-06  0.00D+00 EMaxC= 1.00D-01 BMatC= 1.60D-09 BMatP= 1.60D-09
 IDIUse=1 WtCom= 1.00D+00 WtEn= 0.00D+00
 Coeff-Com:  0.100D+01
 Coeff:      0.100D+01
 Gap=     0.407 Goal=   None    Shift=    0.000
 Gap=     0.407 Goal=   None    Shift=    0.000
 RMSDP=6.44D-06 MaxDP=4.14D-05 DE= 5.34D-07 OVMax= 2.16D-05

 Cycle   8  Pass 1  IDiag  1:
 E= -151.534409339855     Delta-E=       -0.000000000977 Rises=F Damp=F
 DIIS: error= 1.41D-06 at cycle   2 NSaved=   2.
 NSaved= 2 IEnMin= 2 EnMin= -151.534409339855     IErMin= 2 ErrMin= 1.41D-06
 ErrMax= 1.41D-06  0.00D+00 EMaxC= 1.00D-01 BMatC= 1.94D-10 BMatP= 1.60D-09
 IDIUse=1 WtCom= 1.00D+00 WtEn= 0.00D+00
 Coeff-Com: -0.117D+00 0.112D+01
 Coeff:     -0.117D+00 0.112D+01
 Gap=     0.407 Goal=   None    Shift=    0.000
 Gap=     0.407 Goal=   None    Shift=    0.000
 RMSDP=4.81D-07 MaxDP=4.47D-06 DE=-9.77D-10 OVMax= 1.16D-05

 Cycle   9  Pass 1  IDiag  1:
 E= -151.534409340034     Delta-E=       -0.000000000179 Rises=F Damp=F
 DIIS: error= 6.65D-07 at cycle   3 NSaved=   3.
 NSaved= 3 IEnMin= 3 EnMin= -151.534409340034     IErMin= 3 ErrMin= 6.65D-07
 ErrMax= 6.65D-07  0.00D+00 EMaxC= 1.00D-01 BMatC= 4.82D-11 BMatP= 1.94D-10
 IDIUse=1 WtCom= 1.00D+00 WtEn= 0.00D+00
 Coeff-Com: -0.159D+00 0.192D+00 0.967D+00
 Coeff:     -0.159D+00 0.192D+00 0.967D+00
 Gap=     0.407 Goal=   None    Shift=    0.000
 Gap=     0.407 Goal=   None    Shift=    0.000
 RMSDP=1.91D-07 MaxDP=1.62D-06 DE=-1.79D-10 OVMax= 5.47D-06

 Cycle  10  Pass 1  IDiag  1:
 E= -151.534409340066     Delta-E=       -0.000000000032 Rises=F Damp=F
 DIIS: error= 1.98D-07 at cycle   4 NSaved=   4.
 NSaved= 4 IEnMin= 4 EnMin= -151.534409340066     IErMin= 4 ErrMin= 1.98D-07
 ErrMax= 1.98D-07  0.00D+00 EMaxC= 1.00D-01 BMatC= 8.69D-12 BMatP= 4.82D-11
 IDIUse=1 WtCom= 1.00D+00 WtEn= 0.00D+00
 Coeff-Com: -0.547D-01-0.361D-01 0.359D+00 0.732D+00
 Coeff:     -0.547D-01-0.361D-01 0.359D+00 0.732D+00
 Gap=     0.407 Goal=   None    Shift=    0.000
 Gap=     0.407 Goal=   None    Shift=    0.000
 RMSDP=4.41D-08 MaxDP=3.07D-07 DE=-3.18D-11 OVMax= 1.55D-06

 Cycle  11  Pass 1  IDiag  1:
 E= -151.534409340070     Delta-E=       -0.000000000003 Rises=F Damp=F
 DIIS: error= 8.90D-08 at cycle   5 NSaved=   5.
 NSaved= 5 IEnMin= 5 EnMin= -151.534409340070     IErMin= 5 ErrMin= 8.90D-08
 ErrMax= 8.90D-08  0.00D+00 EMaxC= 1.00D-01 BMatC= 6.27D-13 BMatP= 8.69D-12
 IDIUse=1 WtCom= 1.00D+00 WtEn= 0.00D+00
 Coeff-Com:  0.167D-01-0.308D-01-0.118D+00 0.893D-01 0.104D+01
 Coeff:      0.167D-01-0.308D-01-0.118D+00 0.893D-01 0.104D+01
 Gap=     0.407 Goal=   None    Shift=    0.000
 Gap=     0.407 Goal=   None    Shift=    0.000
 RMSDP=1.76D-08 MaxDP=1.10D-07 DE=-3.35D-12 OVMax= 7.45D-07

 Cycle  12  Pass 1  IDiag  1:
 E= -151.534409340070     Delta-E=       -0.000000000000 Rises=F Damp=F
 DIIS: error= 1.77D-08 at cycle   6 NSaved=   6.
 NSaved= 6 IEnMin= 6 EnMin= -151.534409340070     IErMin= 6 ErrMin= 1.77D-08
 ErrMax= 1.77D-08  0.00D+00 EMaxC= 1.00D-01 BMatC= 2.72D-14 BMatP= 6.27D-13
 IDIUse=1 WtCom= 1.00D+00 WtEn= 0.00D+00
 Coeff-Com: -0.346D-03 0.102D-01 0.919D-02-0.585D-01-0.259D+00 0.130D+01
 Coeff:     -0.346D-03 0.102D-01 0.919D-02-0.585D-01-0.259D+00 0.130D+01
 Gap=     0.407 Goal=   None    Shift=    0.000
 Gap=     0.407 Goal=   None    Shift=    0.000
 RMSDP=6.08D-09 MaxDP=5.88D-08 DE=-3.13D-13 OVMax= 1.61D-07

 SCF Done:  E(UM062X) =  -151.534409340     A.U. after   12 cycles
            NFock= 12  Conv=0.61D-08     -V/T= 2.0027
 <Sx>= 0.0000 <Sy>= 0.0000 <Sz>= 0.0000 <S**2>=-0.0000 S=-0.0000
 <L.S>=  0.00000000000    
 KE= 1.511233711001D+02 PE=-4.322363510328D+02 EE= 9.283230994856D+01
 Annihilation of the first spin contaminant:
 S**2 before annihilation    -0.0000,   after     0.0000
 Leave Link  502 at Wed Apr 16 04:29:39 2025, MaxMem=   536870912 cpu:              17.1 elap:               2.2
 (Enter /home/szhao/Apps/g16/l701.exe)
 ... and contract with generalized density number  0.
 Compute integral first derivatives.
 Leave Link  701 at Wed Apr 16 04:29:39 2025, MaxMem=   536870912 cpu:               1.0 elap:               0.2
 (Enter /home/szhao/Apps/g16/l702.exe)
 L702 exits ... SP integral derivatives will be done elsewhere.
 Leave Link  702 at Wed Apr 16 04:29:39 2025, MaxMem=   536870912 cpu:               0.3 elap:               0.1
 (Enter /home/szhao/Apps/g16/l703.exe)
 Integral derivatives from FoFJK, PRISM(SPDF).
 Compute integral first derivatives, UseDBF=F ICtDFT=           0.
 Calling FoFJK, ICntrl=      2127 FMM=F ISym2X=0 I1Cent= 0 IOpClX= 1 NMat=1 NMatS=1 NMatT=0.
 FoFJK:  IHMeth= 1 ICntrl=    2127 DoSepK=F KAlg= 0 I1Cent=           0 FoldK=F
 IRaf=         0 NMat=       1 IRICut=       1 DoRegI=T DoRafI=F ISym2E= 0 IDoP0=0 IntGTp=1.
 FoFCou: FMM=F IPFlag=           0 FMFlag=      100000 FMFlg1=         800
         NFxFlg=           0 DoJE=F BraDBF=F KetDBF=F FulRan=T
         wScrn=  0.000000 ICntrl=      2127 IOpCl=  1 I1Cent=           0 NGrid=           0
         NMat0=    1 NMatS0=      1 NMatT0=    0 NMatD0=    1 NMtDS0=    0 NMtDT0=    0
 Symmetry not used in FoFCou.
 Leave Link  703 at Wed Apr 16 04:29:40 2025, MaxMem=   536870912 cpu:               4.8 elap:               0.6
 (Enter /home/szhao/Apps/g16/l716.exe)
 Dipole        = 6.05182571D-12-2.00093275D-11 6.08249116D-01
 -------------------------------------------------------------------
 Center     Atomic                   Forces (Hartrees/Bohr)
 Number     Number              X              Y              Z
 -------------------------------------------------------------------
      1        8          -0.006793381   -0.015158692   -0.001217015
      2        8           0.006793381    0.015158692   -0.001217015
      3        1           0.000669667   -0.004504916    0.001217015
      4        1          -0.000669667    0.004504916    0.001217015
 -------------------------------------------------------------------
 Cartesian Forces:  Max     0.015158692 RMS     0.007066835
 Leave Link  716 at Wed Apr 16 04:29:40 2025, MaxMem=   536870912 cpu:               0.3 elap:               0.1
 (Enter /home/szhao/Apps/g16/l103.exe)

 GradGradGradGradGradGradGradGradGradGradGradGradGradGradGradGradGradGrad
 Berny optimization.
 Using GEDIIS/GDIIS optimizer.
 FormGI is forming the generalized inverse of G from B-inverse, IUseBI=4.
 Internal  Forces:  Max     0.019853154 RMS     0.009480295
 Search for a local minimum.
 Step number   2 out of a maximum of   20
 All quantities printed in internal units (Hartrees-Bohrs-Radians)
 RMS Force = .94803D-02 SwitMx=.10000D-02 MixMth= 1
 Mixed Optimization -- RFO/linear search
 Update second derivatives using D2CorX and points    1    2
 DE= -2.83D-03 DEPred=-3.79D-03 R= 7.46D-01
 TightC=F SS=  1.41D+00  RLast= 2.50D-01 DXNew= 5.0454D-01 7.5107D-01
 Trust test= 7.46D-01 RLast= 2.50D-01 DXMaxT set to 5.05D-01
 The second derivative matrix:
                          R1        R2        R3        A1        A2
           R1           0.32264
           R2           0.04165   0.56857
           R3           0.04165  -0.00822   0.56857
           A1           0.06156   0.00542   0.00542   0.19994
           A2           0.06156   0.00542   0.00542   0.03994   0.19994
           D1           0.00281   0.00409   0.00409   0.00880   0.00880
                          D1
           D1           0.00403
 ITU=  1  0
 Use linear search instead of GDIIS.
     Eigenvalues ---    0.00331   0.16000   0.18396   0.36243   0.57679
     Eigenvalues ---    0.57720
 RFO step:  Lambda=-1.32141540D-03 EMin= 3.30931011D-03
 Quartic linear search produced a step of -0.17441.
 Iteration  1 RMS(Cart)=  0.07623001 RMS(Int)=  0.00405913
 Iteration  2 RMS(Cart)=  0.00318229 RMS(Int)=  0.00000315
 Iteration  3 RMS(Cart)=  0.00000299 RMS(Int)=  0.00000000
 Iteration  4 RMS(Cart)=  0.00000000 RMS(Int)=  0.00000000
 ITry= 1 IFail=0 DXMaxC= 7.20D-02 DCOld= 1.00D+10 DXMaxT= 5.05D-01 DXLimC= 3.00D+00 Rises=F
 Variable       Old X    -DE/DX   Delta X   Delta X   Delta X     New X
                                 (Linear)    (Quad)   (Total)
    R1        2.74590  -0.01985   0.00723  -0.06306  -0.05584   2.69006
    R2        1.82154   0.00029  -0.00458   0.01081   0.00623   1.82777
    R3        1.82154   0.00029  -0.00458   0.01081   0.00623   1.82777
    A1        1.78219  -0.00846  -0.02226   0.00766  -0.01460   1.76759
    A2        1.78219  -0.00846  -0.02226   0.00766  -0.01460   1.76759
    D1        2.25518  -0.00133  -0.02866  -0.14708  -0.17575   2.07943
         Item               Value     Threshold  Converged?
 Maximum Force            0.019853     0.000450     NO 
 RMS     Force            0.009480     0.000300     NO 
 Maximum Displacement     0.072037     0.001800     NO 
 RMS     Displacement     0.077146     0.001200     NO 
 Predicted change in Energy=-8.224818D-04
 Lowest energy point so far.  Saving SCF results.
 GradGradGradGradGradGradGradGradGradGradGradGradGradGradGradGradGradGrad

 Leave Link  103 at Wed Apr 16 04:29:40 2025, MaxMem=   536870912 cpu:               0.3 elap:               0.1
 (Enter /home/szhao/Apps/g16/l202.exe)
                          Input orientation:                          
 ---------------------------------------------------------------------
 Center     Atomic      Atomic             Coordinates (Angstroms)
 Number     Number       Type             X           Y           Z
 ---------------------------------------------------------------------
      1          8           0        0.025858    0.711290   -0.055602
      2          8           0       -0.025858   -0.711290   -0.055602
      3          1           0        0.850080    0.870566    0.424802
      4          1           0       -0.850080   -0.870566    0.424802
 ---------------------------------------------------------------------
                    Distance matrix (angstroms):
                    1          2          3          4
     1  O    0.000000
     2  O    1.423519   0.000000
     3  H    0.967212   1.870915   0.000000
     4  H    1.870915   0.967212   2.433533   0.000000
 Symmetry turned off by external request.
 Stoichiometry    H2O2
 Framework group  C2[X(H2O2)]
 Deg. of freedom     4
 Full point group                 C2      NOp   2
 Rotational constants (GHZ):         305.6770029          27.4479983          26.3350999
 Leave Link  202 at Wed Apr 16 04:29:40 2025, MaxMem=   536870912 cpu:               0.1 elap:               0.0
 (Enter /home/szhao/Apps/g16/l301.exe)
 Standard basis: 6-311+G(d,p) (5D, 7F)
 Ernie: Thresh=  0.10000D-02 Tol=  0.10000D-05 Strict=F.
    56 basis functions,    88 primitive gaussians,    58 cartesian basis functions
     9 alpha electrons        9 beta electrons
       nuclear repulsion energy        37.2880925012 Hartrees.
 IExCor= 4336 DFT=T Ex+Corr=M062X ExCW=0 ScaHFX=  0.540000
 ScaDFX=  1.000000  1.000000  1.000000  1.000000 ScalE2=  1.000000  1.000000
 IRadAn=      7 IRanWt=     -1 IRanGd=            0 ICorTp=0 IEmpDi=  4
 NAtoms=    4 NActive=    4 NUniq=    4 SFac= 1.00D+00 NAtFMM=   60 NAOKFM=F Big=F
 Integral buffers will be    131072 words long.
 Raffenetti 2 integral format.
 Two-electron integral symmetry is turned off.
 Leave Link  301 at Wed Apr 16 04:29:40 2025, MaxMem=   536870912 cpu:               0.4 elap:               0.1
 (Enter /home/szhao/Apps/g16/l302.exe)
 NPDir=0 NMtPBC=     1 NCelOv=     1 NCel=       1 NClECP=     1 NCelD=      1
         NCelK=      1 NCelE2=     1 NClLst=     1 CellRange=     0.0.
 One-electron integrals computed using PRISM.
 NBasis=    56 RedAO= T EigKep=  1.38D-03  NBF=    56
 NBsUse=    56 1.00D-06 EigRej= -1.00D+00 NBFU=    56
 Precomputing XC quadrature grid using
 IXCGrd= 4 IRadAn=           7 IRanWt=          -1 IRanGd=           0 AccXCQ= 0.00D+00.
 Generated NRdTot=       0 NPtTot=           0 NUsed=           0 NTot=          32
 NSgBfM=    58    58    58    58    58 MxSgAt=     4 MxSgA2=     4.
 Leave Link  302 at Wed Apr 16 04:29:40 2025, MaxMem=   536870912 cpu:               1.1 elap:               0.2
 (Enter /home/szhao/Apps/g16/l303.exe)
 DipDrv:  MaxL=1.
 Leave Link  303 at Wed Apr 16 04:29:41 2025, MaxMem=   536870912 cpu:               0.4 elap:               0.1
 (Enter /home/szhao/Apps/g16/l401.exe)
 Initial guess from the checkpoint file:  "opt.chk"
 B after Tr=    -0.000000   -0.000000   -0.056028
         Rot=    0.999999   -0.000000   -0.000000    0.001144 Ang=   0.13 deg.
 Guess basis will be translated and rotated to current coordinates.
 JPrj=2 DoOrth=T DoCkMO=T.
 Initial guess <Sx>= 0.0000 <Sy>= 0.0000 <Sz>= 0.0000 <S**2>= 0.0000 S= 0.0000
 Generating alternative initial guess.
 ExpMin= 8.45D-02 ExpMax= 8.59D+03 ExpMxC= 1.30D+03 IAcc=3 IRadAn=         5 AccDes= 0.00D+00
 Harris functional with IExCor= 1009 and IRadAn=       5 diagonalized for initial guess.
 HarFok:  IExCor= 1009 AccDes= 0.00D+00 IRadAn=         5 IDoV= 1 UseB2=F ITyADJ=14
 ICtDFT=  3500011 ScaDFX=  1.000000  1.000000  1.000000  1.000000
 FoFCou: FMM=F IPFlag=           0 FMFlag=      100000 FMFlg1=           0
         NFxFlg=           0 DoJE=T BraDBF=F KetDBF=T FulRan=T
         wScrn=  0.000000 ICntrl=       500 IOpCl=  0 I1Cent=   200000004 NGrid=           0
         NMat0=    1 NMatS0=      1 NMatT0=    0 NMatD0=    1 NMtDS0=    0 NMtDT0=    0
 Symmetry not used in FoFCou.
 Harris En= -151.477713905945    
 Leave Link  401 at Wed Apr 16 04:29:41 2025, MaxMem=   536870912 cpu:               1.8 elap:               0.2
 (Enter /home/szhao/Apps/g16/l502.exe)
 Keep R1 and R2 ints in memory in canonical form, NReq=9624198.
 FoFCou: FMM=F IPFlag=           0 FMFlag=           0 FMFlg1=           0
         NFxFlg=           0 DoJE=F BraDBF=F KetDBF=F FulRan=T
         wScrn=  0.000000 ICntrl=       600 IOpCl=  0 I1Cent=           0 NGrid=           0
         NMat0=    1 NMatS0=   1596 NMatT0=    0 NMatD0=    1 NMtDS0=    0 NMtDT0=    0
 Symmetry not used in FoFCou.
 Two-electron integral symmetry not used.
 UHF open shell SCF:
 Using DIIS extrapolation, IDIIS=  1040.
 NGot=   536870912 LenX=   534314338 LenY=   534310533
 Requested convergence on RMS density matrix=1.00D-08 within 128 cycles.
 Requested convergence on MAX density matrix=1.00D-06.
 Requested convergence on             energy=1.00D-06.
 No special actions if energy rises.
 Integral accuracy reduced to 1.0D-05 until final iterations.

 Cycle   1  Pass 0  IDiag  1:
 E= -151.532721844749    
 DIIS: error= 4.86D-03 at cycle   1 NSaved=   1.
 NSaved= 1 IEnMin= 1 EnMin= -151.532721844749     IErMin= 1 ErrMin= 4.86D-03
 ErrMax= 4.86D-03  0.00D+00 EMaxC= 1.00D-01 BMatC= 8.08D-03 BMatP= 8.08D-03
 IDIUse=3 WtCom= 9.51D-01 WtEn= 4.86D-02
 Coeff-Com:  0.100D+01
 Coeff-En:   0.100D+01
 Coeff:      0.100D+01
 Gap=     0.651 Goal=   None    Shift=    0.000
 Gap=     0.651 Goal=   None    Shift=    0.000
 GapD=    0.651 DampG=2.000 DampE=1.000 DampFc=2.0000 IDamp=-1.
 RMSDP=9.04D-04 MaxDP=6.74D-03              OVMax= 1.77D-02

 Cycle   2  Pass 0  IDiag  1:
 E= -151.535087776054     Delta-E=       -0.002365931305 Rises=F Damp=F
 DIIS: error= 8.73D-04 at cycle   2 NSaved=   2.
 NSaved= 2 IEnMin= 2 EnMin= -151.535087776054     IErMin= 2 ErrMin= 8.73D-04
 ErrMax= 8.73D-04  0.00D+00 EMaxC= 1.00D-01 BMatC= 2.17D-04 BMatP= 8.08D-03
 IDIUse=3 WtCom= 9.91D-01 WtEn= 8.73D-03
 Coeff-Com: -0.137D+00 0.114D+01
 Coeff-En:   0.000D+00 0.100D+01
 Coeff:     -0.136D+00 0.114D+01
 Gap=     0.420 Goal=   None    Shift=    0.000
 Gap=     0.420 Goal=   None    Shift=    0.000
 RMSDP=2.19D-04 MaxDP=2.14D-03 DE=-2.37D-03 OVMax= 5.68D-03

 Cycle   3  Pass 0  IDiag  1:
 E= -151.535193893858     Delta-E=       -0.000106117805 Rises=F Damp=F
 DIIS: error= 2.76D-04 at cycle   3 NSaved=   3.
 NSaved= 3 IEnMin= 3 EnMin= -151.535193893858     IErMin= 3 ErrMin= 2.76D-04
 ErrMax= 2.76D-04  0.00D+00 EMaxC= 1.00D-01 BMatC= 1.12D-05 BMatP= 2.17D-04
 IDIUse=3 WtCom= 9.97D-01 WtEn= 2.76D-03
 Coeff-Com: -0.154D-01 0.485D-01 0.967D+00
 Coeff-En:   0.000D+00 0.000D+00 0.100D+01
 Coeff:     -0.153D-01 0.483D-01 0.967D+00
 Gap=     0.419 Goal=   None    Shift=    0.000
 Gap=     0.419 Goal=   None    Shift=    0.000
 RMSDP=5.92D-05 MaxDP=4.81D-04 DE=-1.06D-04 OVMax= 1.48D-03

 Cycle   4  Pass 0  IDiag  1:
 E= -151.535198722687     Delta-E=       -0.000004828828 Rises=F Damp=F
 DIIS: error= 1.22D-04 at cycle   4 NSaved=   4.
 NSaved= 4 IEnMin= 4 EnMin= -151.535198722687     IErMin= 4 ErrMin= 1.22D-04
 ErrMax= 1.22D-04  0.00D+00 EMaxC= 1.00D-01 BMatC= 4.48D-06 BMatP= 1.12D-05
 IDIUse=3 WtCom= 9.99D-01 WtEn= 1.22D-03
 Coeff-Com:  0.834D-02-0.106D+00 0.370D+00 0.728D+00
 Coeff-En:   0.000D+00 0.000D+00 0.000D+00 0.100D+01
 Coeff:      0.833D-02-0.106D+00 0.370D+00 0.728D+00
 Gap=     0.420 Goal=   None    Shift=    0.000
 Gap=     0.420 Goal=   None    Shift=    0.000
 RMSDP=2.39D-05 MaxDP=1.87D-04 DE=-4.83D-06 OVMax= 4.75D-04

 Cycle   5  Pass 0  IDiag  1:
 E= -151.535199890366     Delta-E=       -0.000001167679 Rises=F Damp=F
 DIIS: error= 3.92D-05 at cycle   5 NSaved=   5.
 NSaved= 5 IEnMin= 5 EnMin= -151.535199890366     IErMin= 5 ErrMin= 3.92D-05
 ErrMax= 3.92D-05  0.00D+00 EMaxC= 1.00D-01 BMatC= 2.62D-07 BMatP= 4.48D-06
 IDIUse=1 WtCom= 1.00D+00 WtEn= 0.00D+00
 Coeff-Com:  0.388D-02-0.320D-01-0.223D-01 0.177D+00 0.873D+00
 Coeff:      0.388D-02-0.320D-01-0.223D-01 0.177D+00 0.873D+00
 Gap=     0.420 Goal=   None    Shift=    0.000
 Gap=     0.420 Goal=   None    Shift=    0.000
 RMSDP=9.42D-06 MaxDP=9.08D-05 DE=-1.17D-06 OVMax= 2.36D-04

 Initial convergence to 1.0D-05 achieved.  Increase integral accuracy.
 Cycle   6  Pass 1  IDiag  1:
 E= -151.535198343978     Delta-E=        0.000001546388 Rises=F Damp=F
 DIIS: error= 9.18D-06 at cycle   1 NSaved=   1.
 NSaved= 1 IEnMin= 1 EnMin= -151.535198343978     IErMin= 1 ErrMin= 9.18D-06
 ErrMax= 9.18D-06  0.00D+00 EMaxC= 1.00D-01 BMatC= 1.07D-08 BMatP= 1.07D-08
 IDIUse=1 WtCom= 1.00D+00 WtEn= 0.00D+00
 Coeff-Com:  0.100D+01
 Coeff:      0.100D+01
 Gap=     0.420 Goal=   None    Shift=    0.000
 Gap=     0.420 Goal=   None    Shift=    0.000
 RMSDP=9.42D-06 MaxDP=9.08D-05 DE= 1.55D-06 OVMax= 5.83D-05

 Cycle   7  Pass 1  IDiag  1:
 E= -151.535198351322     Delta-E=       -0.000000007344 Rises=F Damp=F
 DIIS: error= 4.91D-06 at cycle   2 NSaved=   2.
 NSaved= 2 IEnMin= 2 EnMin= -151.535198351322     IErMin= 2 ErrMin= 4.91D-06
 ErrMax= 4.91D-06  0.00D+00 EMaxC= 1.00D-01 BMatC= 2.10D-09 BMatP= 1.07D-08
 IDIUse=1 WtCom= 1.00D+00 WtEn= 0.00D+00
 Coeff-Com:  0.548D-01 0.945D+00
 Coeff:      0.548D-01 0.945D+00
 Gap=     0.420 Goal=   None    Shift=    0.000
 Gap=     0.420 Goal=   None    Shift=    0.000
 RMSDP=7.06D-07 MaxDP=4.64D-06 DE=-7.34D-09 OVMax= 2.73D-05

 Cycle   8  Pass 1  IDiag  1:
 E= -151.535198352655     Delta-E=       -0.000000001333 Rises=F Damp=F
 DIIS: error= 2.10D-06 at cycle   3 NSaved=   3.
 NSaved= 3 IEnMin= 3 EnMin= -151.535198352655     IErMin= 3 ErrMin= 2.10D-06
 ErrMax= 2.10D-06  0.00D+00 EMaxC= 1.00D-01 BMatC= 8.85D-10 BMatP= 2.10D-09
 IDIUse=1 WtCom= 1.00D+00 WtEn= 0.00D+00
 Coeff-Com: -0.223D+00 0.323D+00 0.900D+00
 Coeff:     -0.223D+00 0.323D+00 0.900D+00
 Gap=     0.420 Goal=   None    Shift=    0.000
 Gap=     0.420 Goal=   None    Shift=    0.000
 RMSDP=4.72D-07 MaxDP=2.89D-06 DE=-1.33D-09 OVMax= 1.80D-05

 Cycle   9  Pass 1  IDiag  1:
 E= -151.535198353097     Delta-E=       -0.000000000442 Rises=F Damp=F
 DIIS: error= 6.84D-07 at cycle   4 NSaved=   4.
 NSaved= 4 IEnMin= 4 EnMin= -151.535198353097     IErMin= 4 ErrMin= 6.84D-07
 ErrMax= 6.84D-07  0.00D+00 EMaxC= 1.00D-01 BMatC= 7.77D-11 BMatP= 8.85D-10
 IDIUse=1 WtCom= 1.00D+00 WtEn= 0.00D+00
 Coeff-Com: -0.876D-01-0.959D-02 0.294D+00 0.803D+00
 Coeff:     -0.876D-01-0.959D-02 0.294D+00 0.803D+00
 Gap=     0.420 Goal=   None    Shift=    0.000
 Gap=     0.420 Goal=   None    Shift=    0.000
 RMSDP=1.26D-07 MaxDP=7.73D-07 DE=-4.42D-10 OVMax= 5.41D-06

 Cycle  10  Pass 1  IDiag  1:
 E= -151.535198353129     Delta-E=       -0.000000000032 Rises=F Damp=F
 DIIS: error= 1.35D-07 at cycle   5 NSaved=   5.
 NSaved= 5 IEnMin= 5 EnMin= -151.535198353129     IErMin= 5 ErrMin= 1.35D-07
 ErrMax= 1.35D-07  0.00D+00 EMaxC= 1.00D-01 BMatC= 1.43D-12 BMatP= 7.77D-11
 IDIUse=1 WtCom= 1.00D+00 WtEn= 0.00D+00
 Coeff-Com:  0.251D-01-0.885D-02-0.973D-01-0.165D+00 0.125D+01
 Coeff:      0.251D-01-0.885D-02-0.973D-01-0.165D+00 0.125D+01
 Gap=     0.420 Goal=   None    Shift=    0.000
 Gap=     0.420 Goal=   None    Shift=    0.000
 RMSDP=5.84D-08 MaxDP=5.60D-07 DE=-3.25D-11 OVMax= 1.31D-06

 Cycle  11  Pass 1  IDiag  1:
 E= -151.535198353131     Delta-E=       -0.000000000002 Rises=F Damp=F
 DIIS: error= 1.84D-08 at cycle   6 NSaved=   6.
 NSaved= 6 IEnMin= 6 EnMin= -151.535198353131     IErMin= 6 ErrMin= 1.84D-08
 ErrMax= 1.84D-08  0.00D+00 EMaxC= 1.00D-01 BMatC= 5.96D-14 BMatP= 1.43D-12
 IDIUse=1 WtCom= 1.00D+00 WtEn= 0.00D+00
 Coeff-Com: -0.420D-02 0.461D-02 0.142D-01 0.126D-01-0.319D+00 0.129D+01
 Coeff:     -0.420D-02 0.461D-02 0.142D-01 0.126D-01-0.319D+00 0.129D+01
 Gap=     0.420 Goal=   None    Shift=    0.000
 Gap=     0.420 Goal=   None    Shift=    0.000
 RMSDP=1.03D-08 MaxDP=8.88D-08 DE=-1.65D-12 OVMax= 2.51D-07

 Cycle  12  Pass 1  IDiag  1:
 E= -151.535198353131     Delta-E=       -0.000000000000 Rises=F Damp=F
 DIIS: error= 2.36D-09 at cycle   7 NSaved=   7.
 NSaved= 7 IEnMin= 7 EnMin= -151.535198353131     IErMin= 7 ErrMin= 2.36D-09
 ErrMax= 2.36D-09  0.00D+00 EMaxC= 1.00D-01 BMatC= 1.36D-15 BMatP= 5.96D-14
 IDIUse=1 WtCom= 1.00D+00 WtEn= 0.00D+00
 Coeff-Com: -0.418D-03-0.229D-03 0.172D-02 0.276D-02-0.150D-02-0.151D+00
 Coeff-Com:  0.115D+01
 Coeff:     -0.418D-03-0.229D-03 0.172D-02 0.276D-02-0.150D-02-0.151D+00
 Coeff:      0.115D+01
 Gap=     0.420 Goal=   None    Shift=    0.000
 Gap=     0.420 Goal=   None    Shift=    0.000
 RMSDP=8.15D-10 MaxDP=4.92D-09 DE=-5.68D-14 OVMax= 2.56D-08

 SCF Done:  E(UM062X) =  -151.535198353     A.U. after   12 cycles
            NFock= 12  Conv=0.82D-09     -V/T= 2.0024
 <Sx>= 0.0000 <Sy>= 0.0000 <Sz>= 0.0000 <S**2>=-0.0000 S=-0.0000
 <L.S>=  0.00000000000    
 KE= 1.511693847929D+02 PE=-4.333382211284D+02 EE= 9.334554548118D+01
 Annihilation of the first spin contaminant:
 S**2 before annihilation    -0.0000,   after     0.0000
 Leave Link  502 at Wed Apr 16 04:29:43 2025, MaxMem=   536870912 cpu:              17.4 elap:               2.3
 (Enter /home/szhao/Apps/g16/l701.exe)
 ... and contract with generalized density number  0.
 Compute integral first derivatives.
 Leave Link  701 at Wed Apr 16 04:29:44 2025, MaxMem=   536870912 cpu:               0.7 elap:               0.1
 (Enter /home/szhao/Apps/g16/l702.exe)
 L702 exits ... SP integral derivatives will be done elsewhere.
 Leave Link  702 at Wed Apr 16 04:29:44 2025, MaxMem=   536870912 cpu:               0.3 elap:               0.1
 (Enter /home/szhao/Apps/g16/l703.exe)
 Integral derivatives from FoFJK, PRISM(SPDF).
 Compute integral first derivatives, UseDBF=F ICtDFT=           0.
 Calling FoFJK, ICntrl=      2127 FMM=F ISym2X=0 I1Cent= 0 IOpClX= 1 NMat=1 NMatS=1 NMatT=0.
 FoFJK:  IHMeth= 1 ICntrl=    2127 DoSepK=F KAlg= 0 I1Cent=           0 FoldK=F
 IRaf=         0 NMat=       1 IRICut=       1 DoRegI=T DoRafI=F ISym2E= 0 IDoP0=0 IntGTp=1.
 FoFCou: FMM=F IPFlag=           0 FMFlag=      100000 FMFlg1=         800
         NFxFlg=           0 DoJE=F BraDBF=F KetDBF=F FulRan=T
         wScrn=  0.000000 ICntrl=      2127 IOpCl=  1 I1Cent=           0 NGrid=           0
         NMat0=    1 NMatS0=      1 NMatT0=    0 NMatD0=    1 NMtDS0=    0 NMtDT0=    0
 Symmetry not used in FoFCou.
 Leave Link  703 at Wed Apr 16 04:29:44 2025, MaxMem=   536870912 cpu:               3.9 elap:               0.5
 (Enter /home/szhao/Apps/g16/l716.exe)
 Dipole        = 1.13278942D-10-3.89262844D-10 7.15788466D-01
 -------------------------------------------------------------------
 Center     Atomic                   Forces (Hartrees/Bohr)
 Number     Number              X              Y              Z
 -------------------------------------------------------------------
      1        8           0.002896232    0.000766410    0.001528143
      2        8          -0.002896232   -0.000766410    0.001528143
      3        1          -0.002619178   -0.000283177   -0.001528143
      4        1           0.002619178    0.000283177   -0.001528143
 -------------------------------------------------------------------
 Cartesian Forces:  Max     0.002896232 RMS     0.001852308
 Leave Link  716 at Wed Apr 16 04:29:44 2025, MaxMem=   536870912 cpu:               0.3 elap:               0.1
 (Enter /home/szhao/Apps/g16/l103.exe)

 GradGradGradGradGradGradGradGradGradGradGradGradGradGradGradGradGradGrad
 Berny optimization.
 Using GEDIIS/GDIIS optimizer.
 FormGI is forming the generalized inverse of G from B-inverse, IUseBI=4.
 Internal  Forces:  Max     0.003037853 RMS     0.001780688
 Search for a local minimum.
 Step number   3 out of a maximum of   20
 All quantities printed in internal units (Hartrees-Bohrs-Radians)
 RMS Force = .17807D-02 SwitMx=.10000D-02 MixMth= 1
 Mixed Optimization -- RFO/linear search
 Update second derivatives using D2CorX and points    1    2    3
 DE= -7.89D-04 DEPred=-8.22D-04 R= 9.59D-01
 TightC=F SS=  1.41D+00  RLast= 1.86D-01 DXNew= 8.4853D-01 5.5729D-01
 Trust test= 9.59D-01 RLast= 1.86D-01 DXMaxT set to 5.57D-01
 The second derivative matrix:
                          R1        R2        R3        A1        A2
           R1           0.31215
           R2           0.00236   0.58814
           R3           0.00236   0.01135   0.58814
           A1           0.06522  -0.00226  -0.00226   0.20108
           A2           0.06522  -0.00226  -0.00226   0.04108   0.20108
           D1           0.00593   0.00193   0.00193   0.00944   0.00944
                          D1
           D1           0.00425
 ITU=  1  1  0
 Use linear search instead of GDIIS.
     Eigenvalues ---    0.00348   0.16000   0.17877   0.37621   0.57679
     Eigenvalues ---    0.59957
 RFO step:  Lambda=-3.02192294D-05 EMin= 3.48290874D-03
 Quartic linear search produced a step of -0.04126.
 Iteration  1 RMS(Cart)=  0.00577356 RMS(Int)=  0.00003554
 Iteration  2 RMS(Cart)=  0.00002665 RMS(Int)=  0.00000000
 Iteration  3 RMS(Cart)=  0.00000000 RMS(Int)=  0.00000000
 ITry= 1 IFail=0 DXMaxC= 5.91D-03 DCOld= 1.00D+10 DXMaxT= 5.57D-01 DXLimC= 3.00D+00 Rises=F
 Variable       Old X    -DE/DX   Delta X   Delta X   Delta X     New X
                                 (Linear)    (Quad)   (Total)
    R1        2.69006   0.00049   0.00230  -0.00117   0.00114   2.69120
    R2        1.82777  -0.00304  -0.00026  -0.00475  -0.00501   1.82276
    R3        1.82777  -0.00304  -0.00026  -0.00475  -0.00501   1.82276
    A1        1.76759   0.00040   0.00060   0.00124   0.00184   1.76943
    A2        1.76759   0.00040   0.00060   0.00124   0.00184   1.76943
    D1        2.07943  -0.00001   0.00725  -0.02233  -0.01507   2.06436
         Item               Value     Threshold  Converged?
 Maximum Force            0.003038     0.000450     NO 
 RMS     Force            0.001781     0.000300     NO 
 Maximum Displacement     0.005908     0.001800     NO 
 RMS     Displacement     0.005766     0.001200     NO 
 Predicted change in Energy=-1.601655D-05
 Lowest energy point so far.  Saving SCF results.
 GradGradGradGradGradGradGradGradGradGradGradGradGradGradGradGradGradGrad

 Leave Link  103 at Wed Apr 16 04:29:44 2025, MaxMem=   536870912 cpu:               0.3 elap:               0.1
 (Enter /home/szhao/Apps/g16/l202.exe)
                          Input orientation:                          
 ---------------------------------------------------------------------
 Center     Atomic      Atomic             Coordinates (Angstroms)
 Number     Number       Type             X           Y           Z
 ---------------------------------------------------------------------
      1          8           0        0.028310    0.711497   -0.057921
      2          8           0       -0.028310   -0.711497   -0.057921
      3          1           0        0.846954    0.869410    0.427121
      4          1           0       -0.846954   -0.869410    0.427121
 ---------------------------------------------------------------------
                    Distance matrix (angstroms):
                    1          2          3          4
     1  O    0.000000
     2  O    1.424121   0.000000
     3  H    0.964562   1.870995   0.000000
     4  H    1.870995   0.964562   2.427513   0.000000
 Symmetry turned off by external request.
 Stoichiometry    H2O2
 Framework group  C2[X(H2O2)]
 Deg. of freedom     4
 Full point group                 C2      NOp   2
 Rotational constants (GHZ):         307.5252466          27.4094830          26.3365416
 Leave Link  202 at Wed Apr 16 04:29:44 2025, MaxMem=   536870912 cpu:               0.1 elap:               0.0
 (Enter /home/szhao/Apps/g16/l301.exe)
 Standard basis: 6-311+G(d,p) (5D, 7F)
 Ernie: Thresh=  0.10000D-02 Tol=  0.10000D-05 Strict=F.
    56 basis functions,    88 primitive gaussians,    58 cartesian basis functions
     9 alpha electrons        9 beta electrons
       nuclear repulsion energy        37.3024372259 Hartrees.
 IExCor= 4336 DFT=T Ex+Corr=M062X ExCW=0 ScaHFX=  0.540000
 ScaDFX=  1.000000  1.000000  1.000000  1.000000 ScalE2=  1.000000  1.000000
 IRadAn=      7 IRanWt=     -1 IRanGd=            0 ICorTp=0 IEmpDi=  4
 NAtoms=    4 NActive=    4 NUniq=    4 SFac= 1.00D+00 NAtFMM=   60 NAOKFM=F Big=F
 Integral buffers will be    131072 words long.
 Raffenetti 2 integral format.
 Two-electron integral symmetry is turned off.
 Leave Link  301 at Wed Apr 16 04:29:45 2025, MaxMem=   536870912 cpu:               0.4 elap:               0.1
 (Enter /home/szhao/Apps/g16/l302.exe)
 NPDir=0 NMtPBC=     1 NCelOv=     1 NCel=       1 NClECP=     1 NCelD=      1
         NCelK=      1 NCelE2=     1 NClLst=     1 CellRange=     0.0.
 One-electron integrals computed using PRISM.
 NBasis=    56 RedAO= T EigKep=  1.38D-03  NBF=    56
 NBsUse=    56 1.00D-06 EigRej= -1.00D+00 NBFU=    56
 Precomputing XC quadrature grid using
 IXCGrd= 4 IRadAn=           7 IRanWt=          -1 IRanGd=           0 AccXCQ= 0.00D+00.
 Generated NRdTot=       0 NPtTot=           0 NUsed=           0 NTot=          32
 NSgBfM=    58    58    58    58    58 MxSgAt=     4 MxSgA2=     4.
 Leave Link  302 at Wed Apr 16 04:29:45 2025, MaxMem=   536870912 cpu:               1.1 elap:               0.2
 (Enter /home/szhao/Apps/g16/l303.exe)
 DipDrv:  MaxL=1.
 Leave Link  303 at Wed Apr 16 04:29:45 2025, MaxMem=   536870912 cpu:               0.3 elap:               0.1
 (Enter /home/szhao/Apps/g16/l401.exe)
 Initial guess from the checkpoint file:  "opt.chk"
 B after Tr=    -0.000000   -0.000000   -0.003410
         Rot=    0.999999   -0.000000   -0.000000    0.001100 Ang=   0.13 deg.
 Guess basis will be translated and rotated to current coordinates.
 JPrj=2 DoOrth=T DoCkMO=T.
 Initial guess <Sx>= 0.0000 <Sy>= 0.0000 <Sz>= 0.0000 <S**2>= 0.0000 S= 0.0000
 Leave Link  401 at Wed Apr 16 04:29:45 2025, MaxMem=   536870912 cpu:               0.7 elap:               0.1
 (Enter /home/szhao/Apps/g16/l502.exe)
 Keep R1 and R2 ints in memory in canonical form, NReq=9624198.
 FoFCou: FMM=F IPFlag=           0 FMFlag=           0 FMFlg1=           0
         NFxFlg=           0 DoJE=F BraDBF=F KetDBF=F FulRan=T
         wScrn=  0.000000 ICntrl=       600 IOpCl=  0 I1Cent=           0 NGrid=           0
         NMat0=    1 NMatS0=   1596 NMatT0=    0 NMatD0=    1 NMtDS0=    0 NMtDT0=    0
 Symmetry not used in FoFCou.
 Two-electron integral symmetry not used.
 UHF open shell SCF:
 Using DIIS extrapolation, IDIIS=  1040.
 NGot=   536870912 LenX=   534314338 LenY=   534310533
 Requested convergence on RMS density matrix=1.00D-08 within 128 cycles.
 Requested convergence on MAX density matrix=1.00D-06.
 Requested convergence on             energy=1.00D-06.
 No special actions if energy rises.

 Cycle   1  Pass 1  IDiag  1:
 E= -151.535196341382    
 DIIS: error= 4.95D-04 at cycle   1 NSaved=   1.
 NSaved= 1 IEnMin= 1 EnMin= -151.535196341382     IErMin= 1 ErrMin= 4.95D-04
 ErrMax= 4.95D-04  0.00D+00 EMaxC= 1.00D-01 BMatC= 6.81D-05 BMatP= 6.81D-05
 IDIUse=3 WtCom= 9.95D-01 WtEn= 4.95D-03
 Coeff-Com:  0.100D+01
 Coeff-En:   0.100D+01
 Coeff:      0.100D+01
 Gap=     0.656 Goal=   None    Shift=    0.000
 Gap=     0.656 Goal=   None    Shift=    0.000
 RMSDP=8.04D-05 MaxDP=5.55D-04              OVMax= 1.40D-03

 Cycle   2  Pass 1  IDiag  1:
 E= -151.535214548718     Delta-E=       -0.000018207335 Rises=F Damp=F
 DIIS: error= 7.20D-05 at cycle   2 NSaved=   2.
 NSaved= 2 IEnMin= 2 EnMin= -151.535214548718     IErMin= 2 ErrMin= 7.20D-05
 ErrMax= 7.20D-05  0.00D+00 EMaxC= 1.00D-01 BMatC= 2.08D-06 BMatP= 6.81D-05
 IDIUse=1 WtCom= 1.00D+00 WtEn= 0.00D+00
 Coeff-Com: -0.823D-01 0.108D+01
 Coeff:     -0.823D-01 0.108D+01
 Gap=     0.420 Goal=   None    Shift=    0.000
 Gap=     0.420 Goal=   None    Shift=    0.000
 RMSDP=1.71D-05 MaxDP=1.59D-04 DE=-1.82D-05 OVMax= 3.97D-04

 Cycle   3  Pass 1  IDiag  1:
 E= -151.535215268669     Delta-E=       -0.000000719952 Rises=F Damp=F
 DIIS: error= 3.59D-05 at cycle   3 NSaved=   3.
 NSaved= 3 IEnMin= 3 EnMin= -151.535215268669     IErMin= 3 ErrMin= 3.59D-05
 ErrMax= 3.59D-05  0.00D+00 EMaxC= 1.00D-01 BMatC= 3.17D-07 BMatP= 2.08D-06
 IDIUse=1 WtCom= 1.00D+00 WtEn= 0.00D+00
 Coeff-Com: -0.372D-01 0.244D+00 0.793D+00
 Coeff:     -0.372D-01 0.244D+00 0.793D+00
 Gap=     0.420 Goal=   None    Shift=    0.000
 Gap=     0.420 Goal=   None    Shift=    0.000
 RMSDP=5.15D-06 MaxDP=5.00D-05 DE=-7.20D-07 OVMax= 1.18D-04

 Cycle   4  Pass 1  IDiag  1:
 E= -151.535215334125     Delta-E=       -0.000000065456 Rises=F Damp=F
 DIIS: error= 1.92D-05 at cycle   4 NSaved=   4.
 NSaved= 4 IEnMin= 4 EnMin= -151.535215334125     IErMin= 4 ErrMin= 1.92D-05
 ErrMax= 1.92D-05  0.00D+00 EMaxC= 1.00D-01 BMatC= 7.29D-08 BMatP= 3.17D-07
 IDIUse=1 WtCom= 1.00D+00 WtEn= 0.00D+00
 Coeff-Com: -0.448D-02-0.324D-01 0.300D+00 0.737D+00
 Coeff:     -0.448D-02-0.324D-01 0.300D+00 0.737D+00
 Gap=     0.420 Goal=   None    Shift=    0.000
 Gap=     0.420 Goal=   None    Shift=    0.000
 RMSDP=2.55D-06 MaxDP=2.13D-05 DE=-6.55D-08 OVMax= 5.50D-05

 Cycle   5  Pass 1  IDiag  1:
 E= -151.535215350977     Delta-E=       -0.000000016852 Rises=F Damp=F
 DIIS: error= 3.94D-06 at cycle   5 NSaved=   5.
 NSaved= 5 IEnMin= 5 EnMin= -151.535215350977     IErMin= 5 ErrMin= 3.94D-06
 ErrMax= 3.94D-06  0.00D+00 EMaxC= 1.00D-01 BMatC= 2.54D-09 BMatP= 7.29D-08
 IDIUse=1 WtCom= 1.00D+00 WtEn= 0.00D+00
 Coeff-Com:  0.321D-02-0.317D-01-0.447D-01 0.959D-01 0.977D+00
 Coeff:      0.321D-02-0.317D-01-0.447D-01 0.959D-01 0.977D+00
 Gap=     0.420 Goal=   None    Shift=    0.000
 Gap=     0.420 Goal=   None    Shift=    0.000
 RMSDP=1.23D-06 MaxDP=1.06D-05 DE=-1.69D-08 OVMax= 2.19D-05

 Cycle   6  Pass 1  IDiag  1:
 E= -151.535215352193     Delta-E=       -0.000000001216 Rises=F Damp=F
 DIIS: error= 5.72D-07 at cycle   6 NSaved=   6.
 NSaved= 6 IEnMin= 6 EnMin= -151.535215352193     IErMin= 6 ErrMin= 5.72D-07
 ErrMax= 5.72D-07  0.00D+00 EMaxC= 1.00D-01 BMatC= 5.89D-11 BMatP= 2.54D-09
 IDIUse=1 WtCom= 1.00D+00 WtEn= 0.00D+00
 Coeff-Com:  0.253D-03 0.977D-04-0.140D-01-0.307D-01 0.205D-02 0.104D+01
 Coeff:      0.253D-03 0.977D-04-0.140D-01-0.307D-01 0.205D-02 0.104D+01
 Gap=     0.420 Goal=   None    Shift=    0.000
 Gap=     0.420 Goal=   None    Shift=    0.000
 RMSDP=3.09D-07 MaxDP=2.76D-06 DE=-1.22D-09 OVMax= 4.82D-06

 Cycle   7  Pass 1  IDiag  1:
 E= -151.535215352233     Delta-E=       -0.000000000040 Rises=F Damp=F
 DIIS: error= 7.12D-08 at cycle   7 NSaved=   7.
 NSaved= 7 IEnMin= 7 EnMin= -151.535215352233     IErMin= 7 ErrMin= 7.12D-08
 ErrMax= 7.12D-08  0.00D+00 EMaxC= 1.00D-01 BMatC= 1.77D-12 BMatP= 5.89D-11
 IDIUse=1 WtCom= 1.00D+00 WtEn= 0.00D+00
 Coeff-Com: -0.105D-03 0.143D-02 0.846D-03-0.635D-02-0.357D-01 0.698D-01
 Coeff-Com:  0.970D+00
 Coeff:     -0.105D-03 0.143D-02 0.846D-03-0.635D-02-0.357D-01 0.698D-01
 Coeff:      0.970D+00
 Gap=     0.420 Goal=   None    Shift=    0.000
 Gap=     0.420 Goal=   None    Shift=    0.000
 RMSDP=4.94D-08 MaxDP=4.78D-07 DE=-4.01D-11 OVMax= 7.99D-07

 Cycle   8  Pass 1  IDiag  1:
 E= -151.535215352234     Delta-E=       -0.000000000001 Rises=F Damp=F
 DIIS: error= 2.93D-08 at cycle   8 NSaved=   8.
 NSaved= 8 IEnMin= 8 EnMin= -151.535215352234     IErMin= 8 ErrMin= 2.93D-08
 ErrMax= 2.93D-08  0.00D+00 EMaxC= 1.00D-01 BMatC= 7.16D-14 BMatP= 1.77D-12
 IDIUse=1 WtCom= 1.00D+00 WtEn= 0.00D+00
 Coeff-Com:  0.996D-05-0.194D-03 0.751D-04 0.144D-02 0.659D-02-0.441D-01
 Coeff-Com: -0.106D+00 0.114D+01
 Coeff:      0.996D-05-0.194D-03 0.751D-04 0.144D-02 0.659D-02-0.441D-01
 Coeff:     -0.106D+00 0.114D+01
 Gap=     0.420 Goal=   None    Shift=    0.000
 Gap=     0.420 Goal=   None    Shift=    0.000
 RMSDP=8.53D-09 MaxDP=7.33D-08 DE=-1.02D-12 OVMax= 2.25D-07

 SCF Done:  E(UM062X) =  -151.535215352     A.U. after    8 cycles
            NFock=  8  Conv=0.85D-08     -V/T= 2.0024
 <Sx>= 0.0000 <Sy>= 0.0000 <Sz>= 0.0000 <S**2>=-0.0000 S=-0.0000
 <L.S>=  0.00000000000    
 KE= 1.511769893845D+02 PE=-4.333678073430D+02 EE= 9.335316538034D+01
 Annihilation of the first spin contaminant:
 S**2 before annihilation    -0.0000,   after     0.0000
 Leave Link  502 at Wed Apr 16 04:29:47 2025, MaxMem=   536870912 cpu:              16.7 elap:               2.1
 (Enter /home/szhao/Apps/g16/l701.exe)
 ... and contract with generalized density number  0.
 Compute integral first derivatives.
 Leave Link  701 at Wed Apr 16 04:29:48 2025, MaxMem=   536870912 cpu:               0.8 elap:               0.1
[...]
 RMSDP=4.50D-06 MaxDP=3.79D-05 DE=-1.85D-07 OVMax= 8.25D-05

 Cycle   5  Pass 1  IDiag  1:
 E= -151.535216596997     Delta-E=       -0.000000022142 Rises=F Damp=F
 DIIS: error= 3.65D-06 at cycle   5 NSaved=   5.
 NSaved= 5 IEnMin= 5 EnMin= -151.535216596997     IErMin= 5 ErrMin= 3.65D-06
 ErrMax= 3.65D-06  0.00D+00 EMaxC= 1.00D-01 BMatC= 1.57D-09 BMatP= 5.87D-08
 IDIUse=1 WtCom= 1.00D+00 WtEn= 0.00D+00
 Coeff-Com:  0.405D-02-0.358D-01-0.225D-01 0.821D-01 0.972D+00
 Coeff:      0.405D-02-0.358D-01-0.225D-01 0.821D-01 0.972D+00
 Gap=     0.420 Goal=   None    Shift=    0.000
 Gap=     0.420 Goal=   None    Shift=    0.000
 RMSDP=1.16D-06 MaxDP=1.13D-05 DE=-2.21D-08 OVMax= 2.20D-05

 Cycle   6  Pass 1  IDiag  1:
 E= -151.535216597881     Delta-E=       -0.000000000885 Rises=F Damp=F
 DIIS: error= 5.09D-07 at cycle   6 NSaved=   6.
 NSaved= 6 IEnMin= 6 EnMin= -151.535216597881     IErMin= 6 ErrMin= 5.09D-07
 ErrMax= 5.09D-07  0.00D+00 EMaxC= 1.00D-01 BMatC= 3.68D-11 BMatP= 1.57D-09
 IDIUse=1 WtCom= 1.00D+00 WtEn= 0.00D+00
 Coeff-Com: -0.665D-03 0.763D-02-0.447D-02-0.568D-01-0.492D-01 0.110D+01
 Coeff:     -0.665D-03 0.763D-02-0.447D-02-0.568D-01-0.492D-01 0.110D+01
 Gap=     0.420 Goal=   None    Shift=    0.000
 Gap=     0.420 Goal=   None    Shift=    0.000
 RMSDP=3.22D-07 MaxDP=3.08D-06 DE=-8.85D-10 OVMax= 4.45D-06

 Cycle   7  Pass 1  IDiag  1:
 E= -151.535216597912     Delta-E=       -0.000000000030 Rises=F Damp=F
 DIIS: error= 3.98D-08 at cycle   7 NSaved=   7.
 NSaved= 7 IEnMin= 7 EnMin= -151.535216597912     IErMin= 7 ErrMin= 3.98D-08
 ErrMax= 3.98D-08  0.00D+00 EMaxC= 1.00D-01 BMatC= 5.68D-13 BMatP= 3.68D-11
 IDIUse=1 WtCom= 1.00D+00 WtEn= 0.00D+00
 Coeff-Com: -0.349D-04 0.323D-03 0.312D-04-0.427D-03-0.661D-03-0.600D-01
 Coeff-Com:  0.106D+01
 Coeff:     -0.349D-04 0.323D-03 0.312D-04-0.427D-03-0.661D-03-0.600D-01
 Coeff:      0.106D+01
 Gap=     0.420 Goal=   None    Shift=    0.000
 Gap=     0.420 Goal=   None    Shift=    0.000
 RMSDP=1.43D-08 MaxDP=1.04D-07 DE=-3.04D-11 OVMax= 3.42D-07

 Cycle   8  Pass 1  IDiag  1:
 E= -151.535216597913     Delta-E=       -0.000000000001 Rises=F Damp=F
 DIIS: error= 1.60D-08 at cycle   8 NSaved=   8.
 NSaved= 8 IEnMin= 8 EnMin= -151.535216597913     IErMin= 8 ErrMin= 1.60D-08
 ErrMax= 1.60D-08  0.00D+00 EMaxC= 1.00D-01 BMatC= 6.00D-14 BMatP= 5.68D-13
 IDIUse=1 WtCom= 1.00D+00 WtEn= 0.00D+00
 Coeff-Com:  0.142D-04-0.171D-03 0.375D-04 0.126D-02 0.329D-02-0.424D-01
 Coeff-Com:  0.142D+00 0.896D+00
 Coeff:      0.142D-04-0.171D-03 0.375D-04 0.126D-02 0.329D-02-0.424D-01
 Coeff:      0.142D+00 0.896D+00
 Gap=     0.420 Goal=   None    Shift=    0.000
 Gap=     0.420 Goal=   None    Shift=    0.000
 RMSDP=3.49D-09 MaxDP=2.54D-08 DE=-8.24D-13 OVMax= 1.00D-07

 SCF Done:  E(UM062X) =  -151.535216598     A.U. after    8 cycles
            NFock=  8  Conv=0.35D-08     -V/T= 2.0024
 <Sx>= 0.0000 <Sy>= 0.0000 <Sz>= 0.0000 <S**2>=-0.0000 S=-0.0000
 <L.S>=  0.00000000000    
 KE= 1.511790699369D+02 PE=-4.333883596699D+02 EE= 9.336201850734D+01
 Annihilation of the first spin contaminant:
 S**2 before annihilation    -0.0000,   after     0.0000
 Leave Link  502 at Wed Apr 16 04:29:55 2025, MaxMem=   536870912 cpu:              16.3 elap:               2.1
 (Enter /home/szhao/Apps/g16/l701.exe)
 ... and contract with generalized density number  0.
 Compute integral first derivatives.
 Leave Link  701 at Wed Apr 16 04:29:55 2025, MaxMem=   536870912 cpu:               0.7 elap:               0.1
 (Enter /home/szhao/Apps/g16/l702.exe)
 L702 exits ... SP integral derivatives will be done elsewhere.
 Leave Link  702 at Wed Apr 16 04:29:56 2025, MaxMem=   536870912 cpu:               0.3 elap:               0.1
 (Enter /home/szhao/Apps/g16/l703.exe)
 Integral derivatives from FoFJK, PRISM(SPDF).
 Compute integral first derivatives, UseDBF=F ICtDFT=           0.
 Calling FoFJK, ICntrl=      2127 FMM=F ISym2X=0 I1Cent= 0 IOpClX= 1 NMat=1 NMatS=1 NMatT=0.
 FoFJK:  IHMeth= 1 ICntrl=    2127 DoSepK=F KAlg= 0 I1Cent=           0 FoldK=F
 IRaf=         0 NMat=       1 IRICut=       1 DoRegI=T DoRafI=F ISym2E= 0 IDoP0=0 IntGTp=1.
 FoFCou: FMM=F IPFlag=           0 FMFlag=      100000 FMFlg1=         800
         NFxFlg=           0 DoJE=F BraDBF=F KetDBF=F FulRan=T
         wScrn=  0.000000 ICntrl=      2127 IOpCl=  1 I1Cent=           0 NGrid=           0
         NMat0=    1 NMatS0=      1 NMatT0=    0 NMatD0=    1 NMtDS0=    0 NMtDT0=    0
 Symmetry not used in FoFCou.
 Leave Link  703 at Wed Apr 16 04:29:56 2025, MaxMem=   536870912 cpu:               4.5 elap:               0.6
 (Enter /home/szhao/Apps/g16/l716.exe)
 Dipole        = 3.61191899D-08-1.23832717D-07 7.14808226D-01
 -------------------------------------------------------------------
 Center     Atomic                   Forces (Hartrees/Bohr)
 Number     Number              X              Y              Z
 -------------------------------------------------------------------
      1        8          -0.000018655   -0.000007707   -0.000010986
      2        8           0.000018648    0.000007698   -0.000010985
      3        1           0.000018831    0.000002807    0.000010987
      4        1          -0.000018824   -0.000002798    0.000010983
 -------------------------------------------------------------------
 Cartesian Forces:  Max     0.000018831 RMS     0.000012980
 Leave Link  716 at Wed Apr 16 04:29:56 2025, MaxMem=   536870912 cpu:               0.3 elap:               0.1
 (Enter /home/szhao/Apps/g16/l103.exe)

 GradGradGradGradGradGradGradGradGradGradGradGradGradGradGradGradGradGrad
 Berny optimization.
 Using GEDIIS/GDIIS optimizer.
 FormGI is forming the generalized inverse of G from B-inverse, IUseBI=4.
 Internal  Forces:  Max     0.000021681 RMS     0.000012656
 Search for a local minimum.
 Step number   6 out of a maximum of   20
 All quantities printed in internal units (Hartrees-Bohrs-Radians)
 RMS Force = .12656D-04 SwitMx=.10000D-02 MixMth= 2
 Mixed Optimization -- En-DIIS/RFO-DIIS
 Swapping is turned off.
 Update second derivatives using D2CorX and points    1    2    3    4    5
                                                      6
 DE= -2.08D-06 DEPred=-2.05D-06 R= 1.01D+00
 TightC=F SS=  1.41D+00  RLast= 2.06D-02 DXNew= 4.6862D-01 6.1655D-02
 Trust test= 1.01D+00 RLast= 2.06D-02 DXMaxT set to 2.79D-01
 The second derivative matrix:
                          R1        R2        R3        A1        A2
           R1           0.32830
           R2          -0.01301   0.54630
           R3          -0.01301  -0.03050   0.54629
           A1           0.07173  -0.00900  -0.00900   0.20258
           A2           0.07173  -0.00901  -0.00901   0.04258   0.20258
           D1          -0.00384   0.00090   0.00090   0.00794   0.00794
                          D1
           D1           0.00866
 ITU=  1 -1  1  1  1  0
     Eigenvalues ---    0.00786   0.16000   0.17781   0.39124   0.52100
     Eigenvalues ---    0.57679
 En-DIIS/RFO-DIIS/Sim-DIIS IScMMF=       -3 using points:     6    5    4
 RFO step:  Lambda=-1.72649029D-09.
 NNeg= 0 NGDIIS= 3 SimSw=  2.50D-03 Rises=F DC= -2.08D-06 SmlDif=  1.00D-05
 NRisDI= 0 DoIntr=F SqrtH=F CThrHd= 10.0 CDAdj=  3.0
 RMS Error=  0.3844743730D-04 NUsed= 3 OKEnD=F EnDIS=F
 InvSVX:  RCond= 5.53D-08 Info=           0 Equed=N FErr=  5.75D-13 BErr=  8.74D-17
 DIIS inversion failure, remove point   3.
 InvSVX:  RCond= 1.06D-04 Info=           0 Equed=N FErr=  8.95D-16 BErr=  7.82D-17
 RFO-DIIS uses    2 points instead of    3
 DidBck=F Rises=F RFO-DIIS coefs:    1.00357   -0.00357    0.00000
 Iteration  1 RMS(Cart)=  0.00003133 RMS(Int)=  0.00000000
 Iteration  2 RMS(Cart)=  0.00000000 RMS(Int)=  0.00000000
 ITry= 1 IFail=0 DXMaxC= 3.72D-05 DCOld= 1.00D+10 DXMaxT= 2.79D-01 DXLimC= 3.00D+00 Rises=F
 Variable       Old X    -DE/DX   Delta X   Delta X   Delta X     New X
                                 (Linear)    (Quad)   (Total)
    R1        2.69074  -0.00000   0.00000  -0.00002  -0.00001   2.69072
    R2        1.82197   0.00002   0.00000   0.00004   0.00004   1.82201
    R3        1.82197   0.00002   0.00000   0.00004   0.00004   1.82201
    A1        1.76893  -0.00000   0.00000   0.00000   0.00001   1.76894
    A2        1.76893  -0.00000   0.00000   0.00000   0.00001   1.76894
    D1        2.07914  -0.00000  -0.00007   0.00000  -0.00007   2.07907
         Item               Value     Threshold  Converged?
 Maximum Force            0.000022     0.000450     YES
 RMS     Force            0.000013     0.000300     YES
 Maximum Displacement     0.000037     0.001800     YES
 RMS     Displacement     0.000031     0.001200     YES
 Predicted change in Energy=-9.516966D-10
 Optimization completed.
    -- Stationary point found.
                           ----------------------------
                           !   Optimized Parameters   !
                           ! (Angstroms and Degrees)  !
 --------------------------                            --------------------------
 ! Name  Definition              Value          Derivative Info.                !
 --------------------------------------------------------------------------------
 ! R1    R(1,2)                  1.4239         -DE/DX =    0.0                 !
 ! R2    R(1,3)                  0.9641         -DE/DX =    0.0                 !
 ! R3    R(2,4)                  0.9641         -DE/DX =    0.0                 !
 ! A1    A(2,1,3)              101.3523         -DE/DX =    0.0                 !
 ! A2    A(1,2,4)              101.3523         -DE/DX =    0.0                 !
 ! D1    D(3,1,2,4)            119.1258         -DE/DX =    0.0                 !
 --------------------------------------------------------------------------------
 Lowest energy point so far.  Saving SCF results.
 Largest change from initial coordinates is atom    3       0.061 Angstoms.
 GradGradGradGradGradGradGradGradGradGradGradGradGradGradGradGradGradGrad

 Leave Link  103 at Wed Apr 16 04:29:56 2025, MaxMem=   536870912 cpu:               0.3 elap:               0.1
 (Enter /home/szhao/Apps/g16/l202.exe)
                          Input orientation:                          
 ---------------------------------------------------------------------
 Center     Atomic      Atomic             Coordinates (Angstroms)
 Number     Number       Type             X           Y           Z
 ---------------------------------------------------------------------
      1          8           0        0.027043    0.711424   -0.054836
      2          8           0       -0.027043   -0.711424   -0.054836
      3          1           0        0.848673    0.870113    0.424036
      4          1           0       -0.848673   -0.870113    0.424036
 ---------------------------------------------------------------------
                    Distance matrix (angstroms):
                    1          2          3          4
     1  O    0.000000
     2  O    1.423876   0.000000
     3  H    0.964146   1.870149   0.000000
     4  H    1.870149   0.964146   2.430920   0.000000
 Symmetry turned off by external request.
 Stoichiometry    H2O2
 Framework group  C2[X(H2O2)]
 Deg. of freedom     4
 Full point group                 C2      NOp   2
 Rotational constants (GHZ):         307.8048712          27.4367016          26.3327413
 Leave Link  202 at Wed Apr 16 04:29:56 2025, MaxMem=   536870912 cpu:               0.1 elap:               0.0
 (Enter /home/szhao/Apps/g16/l601.exe)
 Copying SCF densities to generalized density rwf, IOpCl= 1 IROHF=0.

 **********************************************************************

            Population analysis using the SCF density.

 **********************************************************************

 Alpha  occ. eigenvalues --  -19.68964 -19.68946  -1.27169  -1.02168  -0.62367
 Alpha  occ. eigenvalues --   -0.59628  -0.51802  -0.41688  -0.37024
 Alpha virt. eigenvalues --    0.04958   0.06073   0.12062   0.16167   0.18129
 Alpha virt. eigenvalues --    0.18819   0.20981   0.21013   0.22071   0.27649
 Alpha virt. eigenvalues --    0.33731   0.51222   0.52001   0.98474   1.00401
 Alpha virt. eigenvalues --    1.01168   1.01830   1.08272   1.11474   1.32074
 Alpha virt. eigenvalues --    1.32639   1.44094   1.47098   1.55683   1.65267
 Alpha virt. eigenvalues --    2.02712   2.06255   2.44049   2.54298   2.63823
 Alpha virt. eigenvalues --    2.67935   2.80109   3.14580   3.17809   3.30623
 Alpha virt. eigenvalues --    3.40882   3.69406   3.78798   3.92455   4.84680
 Alpha virt. eigenvalues --    4.99782   5.05234   5.42565   5.57061   5.79264
 Alpha virt. eigenvalues --   49.88922  49.92051
  Beta  occ. eigenvalues --  -19.68964 -19.68946  -1.27169  -1.02168  -0.62367
  Beta  occ. eigenvalues --   -0.59628  -0.51802  -0.41688  -0.37024
  Beta virt. eigenvalues --    0.04958   0.06073   0.12062   0.16167   0.18129
  Beta virt. eigenvalues --    0.18819   0.20981   0.21013   0.22071   0.27649
  Beta virt. eigenvalues --    0.33731   0.51222   0.52001   0.98474   1.00401
  Beta virt. eigenvalues --    1.01168   1.01830   1.08272   1.11474   1.32074
  Beta virt. eigenvalues --    1.32639   1.44094   1.47098   1.55683   1.65267
  Beta virt. eigenvalues --    2.02712   2.06255   2.44049   2.54298   2.63823
  Beta virt. eigenvalues --    2.67935   2.80109   3.14580   3.17809   3.30623
  Beta virt. eigenvalues --    3.40882   3.69406   3.78798   3.92455   4.84680
  Beta virt. eigenvalues --    4.99782   5.05234   5.42565   5.57061   5.79264
  Beta virt. eigenvalues --   49.88922  49.92051
          Condensed to atoms (all electrons):
               1          2          3          4
     1  O    7.956194   0.090908   0.259896  -0.036100
     2  O    0.090908   7.956194  -0.036100   0.259896
     3  H    0.259896  -0.036100   0.501817   0.003488
     4  H   -0.036100   0.259896   0.003488   0.501817
          Atomic-Atomic Spin Densities.
               1          2          3          4
     1  O    0.000000  -0.000000  -0.000000  -0.000000
     2  O   -0.000000   0.000000  -0.000000  -0.000000
     3  H   -0.000000  -0.000000  -0.000000   0.000000
     4  H   -0.000000  -0.000000   0.000000   0.000000
 Mulliken charges and spin densities:
               1          2
     1  O   -0.270899  -0.000000
     2  O   -0.270898   0.000000
     3  H    0.270898  -0.000000
     4  H    0.270898  -0.000000
 Sum of Mulliken charges =  -0.00000  -0.00000
 Mulliken charges and spin densities with hydrogens summed into heavy atoms:
               1          2
     1  O   -0.000000  -0.000000
     2  O    0.000000   0.000000
 Electronic spatial extent (au):  <R**2>=             65.7492
 Charge=             -0.0000 electrons
 Dipole moment (field-independent basis, Debye):
    X=              0.0000    Y=             -0.0000    Z=              1.8169  Tot=              1.8169
 Quadrupole moment (field-independent basis, Debye-Ang):
   XX=             -9.2837   YY=            -11.9444   ZZ=            -12.1040
   XY=              3.1888   XZ=              0.0000   YZ=              0.0000
 Traceless Quadrupole moment (field-independent basis, Debye-Ang):
   XX=              1.8270   YY=             -0.8337   ZZ=             -0.9933
   XY=              3.1888   XZ=              0.0000   YZ=              0.0000
 Octapole moment (field-independent basis, Debye-Ang**2):
  XXX=              0.0000  YYY=              0.0000  ZZZ=              1.1982  XYY=              0.0000
  XXY=              0.0000  XXZ=              1.5541  XZZ=              0.0000  YZZ=              0.0000
  YYZ=              1.8846  XYZ=              1.6685
 Hexadecapole moment (field-independent basis, Debye-Ang**3):
 XXXX=            -10.4108 YYYY=            -45.2564 ZZZZ=            -11.4220 XXXY=              0.1189
 XXXZ=              0.0000 YYYX=              0.8831 YYYZ=              0.0000 ZZZX=              0.0000
 ZZZY=             -0.0000 XXYY=             -8.2825 XXZZ=             -3.4210 YYZZ=            -10.2419
 XXYZ=              0.0000 YYXZ=              0.0000 ZZXY=             -0.2027
 N-N= 3.731205462771D+01 E-N=-4.333883596037D+02  KE= 1.511790699369D+02
                          Isotropic Fermi Contact Couplings
        Atom                 a.u.       MegaHertz       Gauss      10(-4) cm-1
     1  O(17)              0.00000      -0.00000      -0.00000      -0.00000
     2  O(17)              0.00000      -0.00000      -0.00000      -0.00000
     3  H(1)               0.00000       0.00000       0.00000       0.00000
     4  H(1)               0.00000       0.00000       0.00000       0.00000
 --------------------------------------------------------
       Center         ----  Spin Dipole Couplings  ----
                      3XX-RR        3YY-RR        3ZZ-RR
 --------------------------------------------------------
     1   Atom        0.000000      0.000000      0.000000
     2   Atom        0.000000      0.000000      0.000000
     3   Atom        0.000000      0.000000      0.000000
     4   Atom        0.000000      0.000000      0.000000
 --------------------------------------------------------
                        XY            XZ            YZ
 --------------------------------------------------------
     1   Atom        0.000000      0.000000      0.000000
     2   Atom        0.000000      0.000000      0.000000
     3   Atom        0.000000      0.000000      0.000000
     4   Atom        0.000000      0.000000      0.000000
 --------------------------------------------------------


 ---------------------------------------------------------------------------------
              Anisotropic Spin Dipole Couplings in Principal Axis System
 ---------------------------------------------------------------------------------

       Atom             a.u.   MegaHertz   Gauss  10(-4) cm-1        Axes

              Baa     0.0000    -0.000    -0.000    -0.000  1.0000  0.0000  0.0000
     1 O(17)  Bbb     0.0000    -0.000    -0.000    -0.000 -0.0000  1.0000  0.0000
              Bcc     0.0000    -0.000    -0.000    -0.000  0.0000  0.0000  1.0000
 
              Baa     0.0000    -0.000    -0.000    -0.000  1.0000  0.0000  0.0000
     2 O(17)  Bbb     0.0000    -0.000    -0.000    -0.000 -0.0000  1.0000  0.0000
              Bcc     0.0000    -0.000    -0.000    -0.000  0.0000  0.0000  1.0000
 
              Baa     0.0000     0.000     0.000     0.000  1.0000  0.0000  0.0000
     3 H(1)   Bbb     0.0000     0.000     0.000     0.000 -0.0000  1.0000  0.0000
              Bcc     0.0000     0.000     0.000     0.000  0.0000  0.0000  1.0000
 
              Baa     0.0000     0.000     0.000     0.000  1.0000  0.0000  0.0000
     4 H(1)   Bbb     0.0000     0.000     0.000     0.000 -0.0000  1.0000  0.0000
              Bcc     0.0000     0.000     0.000     0.000  0.0000  0.0000  1.0000
 

 ---------------------------------------------------------------------------------

 No NMR shielding tensors so no spin-rotation constants.
 Leave Link  601 at Wed Apr 16 04:29:57 2025, MaxMem=   536870912 cpu:               1.0 elap:               0.1
 (Enter /home/szhao/Apps/g16/l9999.exe)
 1\1\GINC-NODE02\FOpt\UM062X\6-311+G(d,p)\H2O2\SZHAO\16-Apr-2025\0\\#p 
 opt UM062X/6-311+G** nosymm int=superfine\\Title Card Required\\0,1\O,
 0.0270433208,0.711424313,-0.0548364251\O,-0.0270433212,-0.7114243159,-
 0.0548364268\H,0.8486729442,0.8701131484,0.424036426\H,-0.8486729438,-
 0.8701131456,0.4240364259\\Version=ES64L-G16RevA.03\HF=-151.5352166\S2
 =0.\S2-1=0.\S2A=0.\RMSD=3.494e-09\RMSF=1.298e-05\Dipole=0.,-0.0000001,
 0.7148082\Quadrupole=1.3583594,-0.6198294,-0.7385299,2.3708079,0.,0.\P
 G=C02 [X(H2O2)]\\@


 LIFE IS A CONTINUAL STRUGGLE AGAINST THE TENDENCY TO PRODUCE ENTROPY.
 Job cpu time:       0 days  0 hours  2 minutes 44.2 seconds.
 Elapsed time:       0 days  0 hours  0 minutes 22.5 seconds.
 File lengths (MBytes):  RWF=     17 Int=      0 D2E=      0 Chk=      2 Scr=      2
 Normal termination of Gaussian 16 at Wed Apr 16 04:29:57 2025.
