 Entering Gaussian System, Link 0=g16
 Initial command:
 /home/szhao/Apps/g16/l1.exe "/home/szhao/tmp/Gau-180791.inp" -scrdir="/home/szhao/tmp/"
 Default is to use a total of  16 processors:
                               16 via shared-memory
                                1 via Linda
 Entering Link 1 = /home/szhao/Apps/g16/l1.exe PID=    180792.
  
 Copyright (c) 1988,1990,1992,1993,1995,1998,2003,2009,2016,
            Gaussian, Inc.  All Rights Reserved.
  
 This is part of the Gaussian(R) 16 program.  It is based on
 the Gaussian(R) 09 system (copyright 2009, Gaussian, Inc.),
 the Gaussian(R) 03 system (copyright 2003, Gaussian, Inc.),
 the Gaussian(R) 98 system (copyright 1998, Gaussian, Inc.),
 the Gaussian(R) 94 system (copyright 1995, Gaussian, Inc.),
 the Gaussian 92(TM) system (copyright 1992, Gaussian, Inc.),
 the Gaussian 90(TM) system (copyright 1990, Gaussian, Inc.),
 the Gaussian 88(TM) system (copyright 1988, Gaussian, Inc.),
 the Gaussian 86(TM) system (copyright 1986, Carnegie Mellon
 University), and the Gaussian 82(TM) system (copyright 1983,
 Carnegie Mellon University). Gaussian is a federally registered
 trademark of Gaussian, Inc.
  
 This software contains proprietary and confidential information,
 including trade secrets, belonging to Gaussian, Inc.
  
 This software is provided under written license and may be
 used, copied, transmitted, or stored only in accord with that
 written license.
  
 The following legend is applicable only to US Government
 contracts under FAR:
  
                    RESTRICTED RIGHTS LEGEND
  
 Use, reproduction and disclosure by the US Government is
 subject to restrictions as set forth in subparagraphs (a)
 and (c) of the Commercial Computer Software - Restricted
 Rights clause in FAR 52.227-19.
  
 Gaussian, Inc.
 340 Quinnipiac St., Bldg. 40, Wallingford CT 06492
  
  
 ---------------------------------------------------------------
 Warning -- This program may not be used in any manner that
 competes with the business of Gaussian, Inc. or will provide
 assistance to any competitor of Gaussian, Inc.  The licensee
 of this program is prohibited from giving any competitor of
 Gaussian, Inc. access to this program.  By using this program,
 the user acknowledges that Gaussian, Inc. is engaged in the
 business of creating and licensing software in the field of
 computational chemistry and represents and warrants to the
 licensee that it is not a competitor of Gaussian, Inc. and that
 it will not use this program in any manner prohibited above.
 ---------------------------------------------------------------
  

 Cite this work as:
 Gaussian 16, Revision A.03,
 M. J. Frisch, G. W. Trucks, H. B. Schlegel, G. E. Scuseria, 
 M. A. Robb, J. R. Cheeseman, G. Scalmani, V. Barone, 
 G. A. Petersson, H. Nakatsuji, X. Li, M. Caricato, A. V. Marenich, 
 J. Bloino, B. G. Janesko, R. Gomperts, B. Mennucci, H. P. Hratchian, 
 J. V. Ortiz, A. F. Izmaylov, J. L. Sonnenberg, D. Williams-Young, 
 F. Ding, F. Lipparini, F. Egidi, J. Goings, B. Peng, A. Petrone, 
 T. Henderson, D. Ranasinghe, V. G. Zakrzewski, J. Gao, N. Rega, 
 G. Zheng, W. Liang, M. Hada, M. Ehara, K. Toyota, R. Fukuda, 
 J. Hasegawa, M. Ishida, T. Nakajima, Y. Honda, O. Kitao, H. Nakai, 
 T. Vreven, K. Throssell, J. A. Montgomery, Jr., J. E. Peralta, 
 F. Ogliaro, M. J. Bearpark, J. J. Heyd, E. N. Brothers, K. N. Kudin, 
 V. N. Staroverov, T. A. Keith, R. Kobayashi, J. Normand, 
 K. Raghavachari, A. P. Rendell, J. C. Burant, S. S. Iyengar, 
 J. Tomasi, M. Cossi, J. M. Millam, M. Klene, C. Adamo, R. Cammi, 
 J. W. Ochterski, R. L. Martin, K. Morokuma, O. Farkas, 
 J. B. Foresman, and D. J. Fox, Gaussian, Inc., Wallingford CT, 2016.
 
 ******************************************
 Gaussian 16:  ES64L-G16RevA.03 25-Dec-2016
                21-Apr-2025 
 ******************************************
 %chk=opt.chk
 %mem=4GB
 %nprocshared=8
 Will use up to    8 processors via shared memory.
 --------------------------------------------
 #p opt UM062X/6-311+G** nosymm int=superfine
 --------------------------------------------
 1/18=20,19=15,26=5,38=1/1,3;
 2/9=110,12=2,15=1,17=6,18=5,40=1/2;
 3/5=4,6=6,7=111,11=2,25=1,30=1,71=1,74=-55,75=-7,116=2/1,2,3;
 4//1;
 5/5=2,38=5/2;
 6/7=2,8=2,9=2,10=2,28=1/1;
 7/30=1/1,2,3,16;
 1/18=20,19=15,26=5/3(2);
 2/9=110,15=1/2;
 99//99;
 2/9=110,15=1/2;
 3/5=4,6=6,7=111,11=2,25=1,30=1,71=1,74=-55,75=-7,116=2/1,2,3;
 4/5=5,16=3,69=1/1;
 5/5=2,38=5/2;
 7/30=1/1,2,3,16;
 1/18=20,19=15,26=5/3(-5);
 2/9=110,15=1/2;
 6/7=2,8=2,9=2,10=2,19=2,28=1/1;
 99/9=1/99;
 Leave Link    1 at Mon Apr 21 17:39:40 2025, MaxMem=   536870912 cpu:               1.4 elap:               0.2
 (Enter /home/szhao/Apps/g16/l101.exe)
 -------------------
 Title Card Required
 -------------------
 Symbolic Z-matrix:
 Charge =  0 Multiplicity = 1
 B                    -1   -2.12743   0.        0. 
 N                    -1    2.12743   0.        0. 
 H                    0     2.491    -0.94931   0. 
 H                    0    -2.43602  -0.58328   1.01025 
 H                    0     2.49101   0.47465  -0.82212 
 H                    0     2.491     0.47465   0.82213 
 H                    0    -2.43602   1.16654   0.00002 
 H                    0    -2.43604  -0.58326  -1.01026 
 
 Add virtual bond connecting atoms N2         and B1         Dist= 8.04D+00.
 ITRead=  2  2  0  0  0  0  0  0
 MicOpt= -2 -2 -1 -1 -1 -1 -1 -1
 NAtoms=      8 NQM=        6 NQMF=       2 NMMI=      0 NMMIF=      0
                NMic=       0 NMicF=      0.
                    Isotopes and Nuclear Properties:
 (Nuclear quadrupole moments (NQMom) in fm**2, nuclear magnetic moments (NMagM)
  in nuclear magnetons)

  Atom         1           2           3           4           5           6           7           8
 IAtWgt=          11          14           1           1           1           1           1           1
 AtmWgt=  11.0093053  14.0030740   1.0078250   1.0078250   1.0078250   1.0078250   1.0078250   1.0078250
 NucSpn=           3           2           1           1           1           1           1           1
 AtZEff=  -0.0000000  -0.0000000  -0.0000000  -0.0000000  -0.0000000  -0.0000000  -0.0000000  -0.0000000
 NQMom=    4.0590000   2.0440000   0.0000000   0.0000000   0.0000000   0.0000000   0.0000000   0.0000000
 NMagM=    2.6886370   0.4037610   2.7928460   2.7928460   2.7928460   2.7928460   2.7928460   2.7928460
 AtZNuc=   5.0000000   7.0000000   1.0000000   1.0000000   1.0000000   1.0000000   1.0000000   1.0000000
 Leave Link  101 at Mon Apr 21 17:39:40 2025, MaxMem=   536870912 cpu:               3.3 elap:               0.4
 (Enter /home/szhao/Apps/g16/l103.exe)

 GradGradGradGradGradGradGradGradGradGradGradGradGradGradGradGradGradGrad
 Berny optimization.
 Initialization pass.
                           ----------------------------
                           !    Initial Parameters    !
                           ! (Angstroms and Degrees)  !
 --------------------------                            --------------------------
 ! Name  Definition              Value          Derivative Info.                !
 --------------------------------------------------------------------------------
 ! X1    R(1,-1)                -2.1274         Frozen                          !
 ! Y1    R(1,-2)                 0.0            Frozen                          !
 ! Z1    R(1,-3)                 0.0            Frozen                          !
 ! X2    R(2,-1)                 2.1274         Frozen                          !
 ! Y2    R(2,-2)                 0.0            Frozen                          !
 ! Z2    R(2,-3)                 0.0            Frozen                          !
 ! R1    R(1,4)                  1.2067         estimate D2E/DX2                !
 ! R2    R(1,7)                  1.2067         estimate D2E/DX2                !
 ! R3    R(1,8)                  1.2067         estimate D2E/DX2                !
 ! R4    R(2,3)                  1.0166         estimate D2E/DX2                !
 ! R5    R(2,5)                  1.0166         estimate D2E/DX2                !
 ! R6    R(2,6)                  1.0166         estimate D2E/DX2                !
 ! A1    A(2,1,4)              104.8171         estimate D2E/DX2                !
 ! A2    A(2,1,7)              104.8171         estimate D2E/DX2                !
 ! A3    A(2,1,8)              104.8181         estimate D2E/DX2                !
 ! A4    A(4,1,7)              113.6963         estimate D2E/DX2                !
 ! A5    A(4,1,8)              113.6969         estimate D2E/DX2                !
 ! A6    A(7,1,8)              113.697          estimate D2E/DX2                !
 ! A7    A(1,2,3)              110.9562         estimate D2E/DX2                !
 ! A8    A(1,2,5)              110.9567         estimate D2E/DX2                !
 ! A9    A(1,2,6)              110.9558         estimate D2E/DX2                !
 ! A10   A(3,2,5)              107.946          estimate D2E/DX2                !
 ! A11   A(3,2,6)              107.9463         estimate D2E/DX2                !
 ! A12   A(5,2,6)              107.9465         estimate D2E/DX2                !
 ! D1    D(4,1,2,3)             59.9997         estimate D2E/DX2                !
 ! D2    D(4,1,2,5)            179.9997         estimate D2E/DX2                !
 ! D3    D(4,1,2,6)            -60.0            estimate D2E/DX2                !
 ! D4    D(7,1,2,3)            179.999          estimate D2E/DX2                !
 ! D5    D(7,1,2,5)            -60.001          estimate D2E/DX2                !
 ! D6    D(7,1,2,6)             59.9992         estimate D2E/DX2                !
 ! D7    D(8,1,2,3)            -60.0006         estimate D2E/DX2                !
 ! D8    D(8,1,2,5)             59.9994         estimate D2E/DX2                !
 ! D9    D(8,1,2,6)            179.9996         estimate D2E/DX2                !
 --------------------------------------------------------------------------------
 Trust Radius=3.00D-01 FncErr=1.00D-07 GrdErr=1.00D-07 EigMax=2.50D+02 EigMin=1.00D-04
 Number of steps in this run=     43 maximum allowed number of steps=    100.
 GradGradGradGradGradGradGradGradGradGradGradGradGradGradGradGradGradGrad

 Leave Link  103 at Mon Apr 21 17:39:40 2025, MaxMem=   536870912 cpu:               0.1 elap:               0.0
 (Enter /home/szhao/Apps/g16/l202.exe)
                          Input orientation:                          
 ---------------------------------------------------------------------
 Center     Atomic      Atomic             Coordinates (Angstroms)
 Number     Number       Type             X           Y           Z
 ---------------------------------------------------------------------
      1          5           0       -2.127429    0.000000    0.000000
      2          7           0        2.127429    0.000000    0.000000
      3          1           0        2.491003   -0.949310    0.000000
      4          1           0       -2.436016   -0.583277    1.010254
      5          1           0        2.491010    0.474654   -0.822125
      6          1           0        2.490996    0.474653    0.822130
      7          1           0       -2.436016    1.166545    0.000020
      8          1           0       -2.436035   -0.583258   -1.010257
 ---------------------------------------------------------------------
                    Distance matrix (angstroms):
                    1          2          3          4          5
     1  B    0.000000
     2  N    4.254858   0.000000
     3  H    4.714987   1.016551   0.000000
     4  H    1.206670   4.710187   5.042828   0.000000
     5  H    4.714994   1.016551   1.644251   5.362128   0.000000
     6  H    4.714980   1.016550   1.644253   5.042822   1.644255
     7  H    1.206670   4.710187   5.362123   2.020507   5.042839
     8  H    1.206668   4.710203   5.042849   2.020511   5.042851
                    6          7          8
     6  H    0.000000
     7  H    5.042819   0.000000
     8  H    5.362131   2.020512   0.000000
 Symmetry turned off by external request.
 This structure is nearly, but not quite of a higher symmetry.
 Consider Symm=Loose if the higher symmetry is desired.
 Stoichiometry    BH6N
 Framework group  C1[X(BH6N)]
 Deg. of freedom    18
 Full point group                 C1      NOp   1
 Rotational constants (GHZ):          73.8952231           3.3259074           3.3259070
 Leave Link  202 at Mon Apr 21 17:39:41 2025, MaxMem=   536870912 cpu:               0.4 elap:               0.1
 (Enter /home/szhao/Apps/g16/l301.exe)
 Standard basis: 6-311+G(d,p) (5D, 7F)
 Ernie: Thresh=  0.10000D-02 Tol=  0.10000D-05 Strict=F.
    80 basis functions,   120 primitive gaussians,    82 cartesian basis functions
     9 alpha electrons        9 beta electrons
       nuclear repulsion energy        28.5825853640 Hartrees.
 IExCor= 4336 DFT=T Ex+Corr=M062X ExCW=0 ScaHFX=  0.540000
 ScaDFX=  1.000000  1.000000  1.000000  1.000000 ScalE2=  1.000000  1.000000
 IRadAn=      7 IRanWt=     -1 IRanGd=            0 ICorTp=0 IEmpDi=  4
 NAtoms=    8 NActive=    8 NUniq=    8 SFac= 1.00D+00 NAtFMM=   60 NAOKFM=F Big=F
 Integral buffers will be    131072 words long.
 Raffenetti 2 integral format.
 Two-electron integral symmetry is turned off.
 Leave Link  301 at Mon Apr 21 17:39:41 2025, MaxMem=   536870912 cpu:               0.7 elap:               0.1
 (Enter /home/szhao/Apps/g16/l302.exe)
 NPDir=0 NMtPBC=     1 NCelOv=     1 NCel=       1 NClECP=     1 NCelD=      1
         NCelK=      1 NCelE2=     1 NClLst=     1 CellRange=     0.0.
 One-electron integrals computed using PRISM.
 NBasis=    80 RedAO= T EigKep=  4.05D-03  NBF=    80
 NBsUse=    80 1.00D-06 EigRej= -1.00D+00 NBFU=    80
 Precomputing XC quadrature grid using
 IXCGrd= 4 IRadAn=           7 IRanWt=          -1 IRanGd=           0 AccXCQ= 0.00D+00.
 Generated NRdTot=       0 NPtTot=           0 NUsed=           0 NTot=          32
 NSgBfM=    82    82    82    82    82 MxSgAt=     8 MxSgA2=     8.
 Leave Link  302 at Mon Apr 21 17:39:41 2025, MaxMem=   536870912 cpu:               2.7 elap:               0.4
 (Enter /home/szhao/Apps/g16/l303.exe)
 DipDrv:  MaxL=1.
 Leave Link  303 at Mon Apr 21 17:39:42 2025, MaxMem=   536870912 cpu:               0.7 elap:               0.2
 (Enter /home/szhao/Apps/g16/l401.exe)
 ExpMin= 3.15D-02 ExpMax= 6.29D+03 ExpMxC= 9.49D+02 IAcc=3 IRadAn=         7 AccDes= 0.00D+00
 Harris functional with IExCor= 1009 and IRadAn=       7 diagonalized for initial guess.
 HarFok:  IExCor= 1009 AccDes= 0.00D+00 IRadAn=         7 IDoV= 1 UseB2=F ITyADJ=14
 ICtDFT=  3500011 ScaDFX=  1.000000  1.000000  1.000000  1.000000
 FoFCou: FMM=F IPFlag=           0 FMFlag=      100000 FMFlg1=           0
         NFxFlg=           0 DoJE=T BraDBF=F KetDBF=T FulRan=T
         wScrn=  0.000000 ICntrl=       500 IOpCl=  0 I1Cent=   200000004 NGrid=           0
         NMat0=    1 NMatS0=      1 NMatT0=    0 NMatD0=    1 NMtDS0=    0 NMtDT0=    0
 Symmetry not used in FoFCou.
 Harris En= -83.1237480524495    
 JPrj=0 DoOrth=F DoCkMO=F.
 Initial guess <Sx>= 0.0000 <Sy>= 0.0000 <Sz>= 0.0000 <S**2>=-0.0000 S=-0.0000
 Leave Link  401 at Mon Apr 21 17:39:42 2025, MaxMem=   536870912 cpu:               4.2 elap:               0.6
 (Enter /home/szhao/Apps/g16/l502.exe)
 Keep R1 and R2 ints in memory in canonical form, NReq=17776582.
 FoFCou: FMM=F IPFlag=           0 FMFlag=           0 FMFlg1=           0
         NFxFlg=           0 DoJE=F BraDBF=F KetDBF=F FulRan=T
         wScrn=  0.000000 ICntrl=       600 IOpCl=  0 I1Cent=           0 NGrid=           0
         NMat0=    1 NMatS0=   3240 NMatT0=    0 NMatD0=    1 NMtDS0=    0 NMtDT0=    0
 Symmetry not used in FoFCou.
 Two-electron integral symmetry not used.
 UHF open shell SCF:
 Using DIIS extrapolation, IDIIS=  1040.
 NGot=   536870912 LenX=   526355138 LenY=   526347973
 Requested convergence on RMS density matrix=1.00D-08 within 128 cycles.
 Requested convergence on MAX density matrix=1.00D-06.
 Requested convergence on             energy=1.00D-06.
 No special actions if energy rises.

 Cycle   1  Pass 1  IDiag  1:
 E= -83.0161251201671    
 DIIS: error= 4.93D-02 at cycle   1 NSaved=   1.
 NSaved= 1 IEnMin= 1 EnMin= -83.0161251201671     IErMin= 1 ErrMin= 4.93D-02
 ErrMax= 4.93D-02  0.00D+00 EMaxC= 1.00D-01 BMatC= 5.17D-01 BMatP= 5.17D-01
 IDIUse=3 WtCom= 5.07D-01 WtEn= 4.93D-01
 Coeff-Com:  0.100D+01
 Coeff-En:   0.100D+01
 Coeff:      0.100D+01
 Gap=     0.195 Goal=   None    Shift=    0.000
 Gap=     0.195 Goal=   None    Shift=    0.000
 GapD=    0.195 DampG=1.000 DampE=0.500 DampFc=0.5000 IDamp=-1.
 Damping current iteration by 5.00D-01
 RMSDP=4.32D-03 MaxDP=1.15D-01              OVMax= 2.09D-01

 Cycle   2  Pass 1  IDiag  1:
 E= -83.0653691640928     Delta-E=       -0.049244043926 Rises=F Damp=T
 DIIS: error= 1.42D-02 at cycle   2 NSaved=   2.
 NSaved= 2 IEnMin= 2 EnMin= -83.0653691640928     IErMin= 2 ErrMin= 1.42D-02
 ErrMax= 1.42D-02  0.00D+00 EMaxC= 1.00D-01 BMatC= 2.54D-02 BMatP= 5.17D-01
 IDIUse=3 WtCom= 8.58D-01 WtEn= 1.42D-01
 Coeff-Com: -0.375D-02 0.100D+01
 Coeff-En:   0.547D-02 0.995D+00
 Coeff:     -0.245D-02 0.100D+01
 Gap=     0.318 Goal=   None    Shift=    0.000
 Gap=     0.318 Goal=   None    Shift=    0.000
 RMSDP=1.02D-03 MaxDP=1.37D-02 DE=-4.92D-02 OVMax= 1.25D-01

 Cycle   3  Pass 1  IDiag  1:
 E= -83.1193750578498     Delta-E=       -0.054005893757 Rises=F Damp=F
 DIIS: error= 4.99D-03 at cycle   3 NSaved=   3.
 NSaved= 3 IEnMin= 3 EnMin= -83.1193750578498     IErMin= 3 ErrMin= 4.99D-03
 ErrMax= 4.99D-03  0.00D+00 EMaxC= 1.00D-01 BMatC= 3.27D-03 BMatP= 2.54D-02
 IDIUse=3 WtCom= 9.50D-01 WtEn= 4.99D-02
 Coeff-Com: -0.534D-01 0.199D+00 0.855D+00
 Coeff-En:   0.000D+00 0.000D+00 0.100D+01
 Coeff:     -0.508D-01 0.189D+00 0.862D+00
 Gap=     0.302 Goal=   None    Shift=    0.000
 Gap=     0.302 Goal=   None    Shift=    0.000
 RMSDP=2.27D-04 MaxDP=6.90D-03 DE=-5.40D-02 OVMax= 7.63D-03

 Cycle   4  Pass 1  IDiag  1:
 E= -83.1201013171535     Delta-E=       -0.000726259304 Rises=F Damp=F
 DIIS: error= 7.36D-04 at cycle   4 NSaved=   4.
 NSaved= 4 IEnMin= 4 EnMin= -83.1201013171535     IErMin= 4 ErrMin= 7.36D-04
 ErrMax= 7.36D-04  0.00D+00 EMaxC= 1.00D-01 BMatC= 1.06D-04 BMatP= 3.27D-03
 IDIUse=3 WtCom= 9.93D-01 WtEn= 7.36D-03
 Coeff-Com: -0.894D-02 0.211D-01 0.206D+00 0.782D+00
 Coeff-En:   0.000D+00 0.000D+00 0.000D+00 0.100D+01
 Coeff:     -0.887D-02 0.210D-01 0.205D+00 0.783D+00
 Gap=     0.305 Goal=   None    Shift=    0.000
 Gap=     0.305 Goal=   None    Shift=    0.000
 RMSDP=5.07D-05 MaxDP=2.02D-03 DE=-7.26D-04 OVMax= 2.13D-03

 Cycle   5  Pass 1  IDiag  1:
 E= -83.1201319308010     Delta-E=       -0.000030613647 Rises=F Damp=F
 DIIS: error= 9.08D-05 at cycle   5 NSaved=   5.
 NSaved= 5 IEnMin= 5 EnMin= -83.1201319308010     IErMin= 5 ErrMin= 9.08D-05
 ErrMax= 9.08D-05  0.00D+00 EMaxC= 1.00D-01 BMatC= 1.76D-06 BMatP= 1.06D-04
 IDIUse=1 WtCom= 1.00D+00 WtEn= 0.00D+00
 Coeff-Com:  0.113D-02-0.341D-02-0.127D-02 0.846D-01 0.919D+00
 Coeff:      0.113D-02-0.341D-02-0.127D-02 0.846D-01 0.919D+00
 Gap=     0.305 Goal=   None    Shift=    0.000
 Gap=     0.305 Goal=   None    Shift=    0.000
 RMSDP=1.06D-05 MaxDP=3.19D-04 DE=-3.06D-05 OVMax= 4.53D-04

 Cycle   6  Pass 1  IDiag  1:
 E= -83.1201326774321     Delta-E=       -0.000000746631 Rises=F Damp=F
 DIIS: error= 2.97D-05 at cycle   6 NSaved=   6.
 NSaved= 6 IEnMin= 6 EnMin= -83.1201326774321     IErMin= 6 ErrMin= 2.97D-05
 ErrMax= 2.97D-05  0.00D+00 EMaxC= 1.00D-01 BMatC= 8.78D-08 BMatP= 1.76D-06
 IDIUse=1 WtCom= 1.00D+00 WtEn= 0.00D+00
 Coeff-Com:  0.683D-03-0.155D-02-0.119D-01-0.357D-01 0.628D-01 0.986D+00
 Coeff:      0.683D-03-0.155D-02-0.119D-01-0.357D-01 0.628D-01 0.986D+00
 Gap=     0.305 Goal=   None    Shift=    0.000
 Gap=     0.305 Goal=   None    Shift=    0.000
 RMSDP=2.88D-06 MaxDP=5.03D-05 DE=-7.47D-07 OVMax= 1.58D-04

 Cycle   7  Pass 1  IDiag  1:
 E= -83.1201327198411     Delta-E=       -0.000000042409 Rises=F Damp=F
 DIIS: error= 3.67D-06 at cycle   7 NSaved=   7.
 NSaved= 7 IEnMin= 7 EnMin= -83.1201327198411     IErMin= 7 ErrMin= 3.67D-06
 ErrMax= 3.67D-06  0.00D+00 EMaxC= 1.00D-01 BMatC= 2.04D-09 BMatP= 8.78D-08
 IDIUse=1 WtCom= 1.00D+00 WtEn= 0.00D+00
 Coeff-Com: -0.118D-03 0.229D-03 0.892D-03 0.241D-02-0.240D-01-0.838D-01
 Coeff-Com:  0.110D+01
 Coeff:     -0.118D-03 0.229D-03 0.892D-03 0.241D-02-0.240D-01-0.838D-01
 Coeff:      0.110D+01
 Gap=     0.305 Goal=   None    Shift=    0.000
 Gap=     0.305 Goal=   None    Shift=    0.000
 RMSDP=5.97D-07 MaxDP=1.40D-05 DE=-4.24D-08 OVMax= 2.82D-05

 Cycle   8  Pass 1  IDiag  1:
 E= -83.1201327209595     Delta-E=       -0.000000001118 Rises=F Damp=F
 DIIS: error= 3.48D-07 at cycle   8 NSaved=   8.
 NSaved= 8 IEnMin= 8 EnMin= -83.1201327209595     IErMin= 8 ErrMin= 3.48D-07
 ErrMax= 3.48D-07  0.00D+00 EMaxC= 1.00D-01 BMatC= 3.07D-11 BMatP= 2.04D-09
 IDIUse=1 WtCom= 1.00D+00 WtEn= 0.00D+00
 Coeff-Com: -0.132D-04 0.302D-04 0.126D-03 0.121D-03-0.291D-02-0.158D-01
 Coeff-Com:  0.198D-01 0.999D+00
 Coeff:     -0.132D-04 0.302D-04 0.126D-03 0.121D-03-0.291D-02-0.158D-01
 Coeff:      0.198D-01 0.999D+00
 Gap=     0.305 Goal=   None    Shift=    0.000
 Gap=     0.305 Goal=   None    Shift=    0.000
 RMSDP=8.60D-08 MaxDP=1.83D-06 DE=-1.12D-09 OVMax= 4.56D-06

 Cycle   9  Pass 1  IDiag  1:
 E= -83.1201327209799     Delta-E=       -0.000000000020 Rises=F Damp=F
 DIIS: error= 7.16D-08 at cycle   9 NSaved=   9.
 NSaved= 9 IEnMin= 9 EnMin= -83.1201327209799     IErMin= 9 ErrMin= 7.16D-08
 ErrMax= 7.16D-08  0.00D+00 EMaxC= 1.00D-01 BMatC= 1.37D-12 BMatP= 3.07D-11
 IDIUse=1 WtCom= 1.00D+00 WtEn= 0.00D+00
 Coeff-Com:  0.387D-05-0.674D-05-0.182D-04-0.824D-04 0.684D-03 0.366D-02
 Coeff-Com: -0.328D-01-0.101D-02 0.103D+01
 Coeff:      0.387D-05-0.674D-05-0.182D-04-0.824D-04 0.684D-03 0.366D-02
 Coeff:     -0.328D-01-0.101D-02 0.103D+01
 Gap=     0.305 Goal=   None    Shift=    0.000
 Gap=     0.305 Goal=   None    Shift=    0.000
 RMSDP=1.77D-08 MaxDP=3.96D-07 DE=-2.04D-11 OVMax= 8.52D-07

 Cycle  10  Pass 1  IDiag  1:
 E= -83.1201327209807     Delta-E=       -0.000000000001 Rises=F Damp=F
 DIIS: error= 2.09D-08 at cycle  10 NSaved=  10.
 NSaved=10 IEnMin=10 EnMin= -83.1201327209807     IErMin=10 ErrMin= 2.09D-08
 ErrMax= 2.09D-08  0.00D+00 EMaxC= 1.00D-01 BMatC= 8.76D-14 BMatP= 1.37D-12
 IDIUse=1 WtCom= 1.00D+00 WtEn= 0.00D+00
 Coeff-Com:  0.182D-06-0.632D-06 0.943D-06 0.774D-05-0.953D-05 0.276D-03
 Coeff-Com:  0.158D-02-0.464D-01-0.227D-01 0.107D+01
 Coeff:      0.182D-06-0.632D-06 0.943D-06 0.774D-05-0.953D-05 0.276D-03
 Coeff:      0.158D-02-0.464D-01-0.227D-01 0.107D+01
 Gap=     0.305 Goal=   None    Shift=    0.000
 Gap=     0.305 Goal=   None    Shift=    0.000
 RMSDP=3.74D-09 MaxDP=7.52D-08 DE=-7.96D-13 OVMax= 2.18D-07

 SCF Done:  E(UM062X) =  -83.1201327210     A.U. after   10 cycles
            NFock= 10  Conv=0.37D-08     -V/T= 2.0053
 <Sx>= 0.0000 <Sy>= 0.0000 <Sz>= 0.0000 <S**2>=-0.0000 S=-0.0000
 <L.S>=  0.00000000000    
 KE= 8.268452634109D+01 PE=-2.498454359144D+02 EE= 5.545819148826D+01
 Annihilation of the first spin contaminant:
 S**2 before annihilation    -0.0000,   after    -0.0000
 Leave Link  502 at Mon Apr 21 17:39:52 2025, MaxMem=   536870912 cpu:              69.7 elap:               9.1
 (Enter /home/szhao/Apps/g16/l601.exe)
 Copying SCF densities to generalized density rwf, IOpCl= 1 IROHF=0.

 **********************************************************************

            Population analysis using the SCF density.

 **********************************************************************

 Alpha  occ. eigenvalues --  -14.73236  -7.05464  -0.96234  -0.57718  -0.54143
 Alpha  occ. eigenvalues --   -0.54142  -0.39097  -0.39097  -0.34479
 Alpha virt. eigenvalues --   -0.03962   0.02609   0.04440   0.04726   0.04726
 Alpha virt. eigenvalues --    0.08187   0.10388   0.10388   0.16631   0.17703
 Alpha virt. eigenvalues --    0.17703   0.18586   0.18586   0.22018   0.26903
 Alpha virt. eigenvalues --    0.36319   0.36320   0.41337   0.47680   0.52665
 Alpha virt. eigenvalues --    0.52665   0.56496   0.56496   0.64910   0.66357
 Alpha virt. eigenvalues --    0.76512   0.76512   0.81693   0.81693   0.85729
 Alpha virt. eigenvalues --    0.99464   1.04304   1.16229   1.16229   1.19111
 Alpha virt. eigenvalues --    1.19111   1.43478   1.55424   1.60749   1.60749
 Alpha virt. eigenvalues --    1.61648   1.70544   1.70914   1.70915   1.89021
 Alpha virt. eigenvalues --    1.89022   1.96072   1.96618   1.96618   2.09947
 Alpha virt. eigenvalues --    2.09947   2.21083   2.30444   2.50693   2.50693
 Alpha virt. eigenvalues --    2.58830   2.58831   2.62008   2.62008   2.64365
 Alpha virt. eigenvalues --    2.68852   2.68852   2.84114   2.85228   3.08177
 Alpha virt. eigenvalues --    3.08177   4.15462   4.78692   4.78693  14.55911
 Alpha virt. eigenvalues --   35.70332
  Beta  occ. eigenvalues --  -14.73236  -7.05464  -0.96234  -0.57718  -0.54143
  Beta  occ. eigenvalues --   -0.54142  -0.39097  -0.39097  -0.34479
  Beta virt. eigenvalues --   -0.03962   0.02609   0.04440   0.04726   0.04726
  Beta virt. eigenvalues --    0.08187   0.10388   0.10388   0.16631   0.17703
  Beta virt. eigenvalues --    0.17703   0.18586   0.18586   0.22018   0.26903
  Beta virt. eigenvalues --    0.36319   0.36320   0.41337   0.47680   0.52665
  Beta virt. eigenvalues --    0.52665   0.56496   0.56496   0.64910   0.66357
  Beta virt. eigenvalues --    0.76512   0.76512   0.81693   0.81693   0.85729
  Beta virt. eigenvalues --    0.99464   1.04304   1.16229   1.16229   1.19111
  Beta virt. eigenvalues --    1.19111   1.43478   1.55424   1.60749   1.60749
  Beta virt. eigenvalues --    1.61648   1.70544   1.70914   1.70915   1.89021
  Beta virt. eigenvalues --    1.89022   1.96072   1.96618   1.96618   2.09947
  Beta virt. eigenvalues --    2.09947   2.21083   2.30444   2.50693   2.50693
  Beta virt. eigenvalues --    2.58830   2.58831   2.62008   2.62008   2.64365
  Beta virt. eigenvalues --    2.68852   2.68852   2.84114   2.85228   3.08177
  Beta virt. eigenvalues --    3.08177   4.15462   4.78692   4.78693  14.55911
  Beta virt. eigenvalues --   35.70332
          Condensed to atoms (all electrons):
               1          2          3          4          5          6
     1  B    3.763484  -0.000791   0.000087   0.412974   0.000087   0.000087
     2  N   -0.000791   6.607676   0.377460  -0.000296   0.377460   0.377460
     3  H    0.000087   0.377460   0.438988   0.000010  -0.031803  -0.031802
     4  H    0.412974  -0.000296   0.000010   0.653599   0.000002   0.000010
     5  H    0.000087   0.377460  -0.031803   0.000002   0.438988  -0.031802
     6  H    0.000087   0.377460  -0.031802   0.000010  -0.031802   0.438987
     7  H    0.412976  -0.000296   0.000002  -0.032999   0.000010   0.000010
     8  H    0.412974  -0.000296   0.000010  -0.032997   0.000010   0.000002
               7          8
     1  B    0.412976   0.412974
     2  N   -0.000296  -0.000296
     3  H    0.000002   0.000010
     4  H   -0.032999  -0.032997
     5  H    0.000010   0.000010
     6  H    0.000010   0.000002
     7  H    0.653587  -0.032998
     8  H   -0.032998   0.653598
          Atomic-Atomic Spin Densities.
               1          2          3          4          5          6
     1  B   -0.000000   0.000000   0.000000   0.000000  -0.000000  -0.000000
     2  N    0.000000  -0.000000   0.000000  -0.000000  -0.000000   0.000000
     3  H    0.000000   0.000000   0.000000   0.000000   0.000000  -0.000000
     4  H    0.000000  -0.000000   0.000000   0.000000   0.000000  -0.000000
     5  H   -0.000000  -0.000000   0.000000   0.000000  -0.000000  -0.000000
     6  H   -0.000000   0.000000  -0.000000  -0.000000  -0.000000   0.000000
     7  H   -0.000000   0.000000  -0.000000   0.000000  -0.000000  -0.000000
     8  H    0.000000   0.000000  -0.000000  -0.000000  -0.000000   0.000000
               7          8
     1  B   -0.000000   0.000000
     2  N    0.000000   0.000000
     3  H   -0.000000  -0.000000
     4  H    0.000000  -0.000000
     5  H   -0.000000  -0.000000
     6  H   -0.000000   0.000000
     7  H    0.000000   0.000000
     8  H    0.000000  -0.000000
 Mulliken charges and spin densities:
               1          2
     1  B   -0.001877  -0.000000
     2  N   -0.738376  -0.000000
     3  H    0.247049   0.000000
     4  H   -0.000303   0.000000
     5  H    0.247049  -0.000000
     6  H    0.247050   0.000000
     7  H   -0.000290   0.000000
     8  H   -0.000303   0.000000
 Sum of Mulliken charges =  -0.00000   0.00000
 Mulliken charges and spin densities with hydrogens summed into heavy atoms:
               1          2
     1  B   -0.002773   0.000000
     2  N    0.002773   0.000000
 Electronic spatial extent (au):  <R**2>=            380.6557
 Charge=             -0.0000 electrons
 Dipole moment (field-independent basis, Debye):
    X=              2.5613    Y=             -0.0000    Z=              0.0000  Tot=              2.5613
 Quadrupole moment (field-independent basis, Debye-Ang):
   XX=            -11.9373   YY=            -15.8357   ZZ=            -15.8357
   XY=             -0.0000   XZ=              0.0000   YZ=              0.0000
 Traceless Quadrupole moment (field-independent basis, Debye-Ang):
   XX=              2.5990   YY=             -1.2995   ZZ=             -1.2995
   XY=             -0.0000   XZ=              0.0000   YZ=              0.0000
 Octapole moment (field-independent basis, Debye-Ang**2):
  XXX=             23.3482  YYY=             -0.9451  ZZZ=             -0.0001  XYY=              8.3615
  XXY=              0.0001  XXZ=             -0.0001  XZZ=              8.3616  YZZ=              0.9451
  YYZ=             -0.0000  XYZ=             -0.0000
 Hexadecapole moment (field-independent basis, Debye-Ang**3):
 XXXX=           -469.1619 YYYY=            -35.6452 ZZZZ=            -35.6453 XXXY=             -0.0005
 XXXZ=             -0.0005 YYYX=             -2.8356 YYYZ=              0.0000 ZZZX=              0.0001
 ZZZY=              0.0000 XXYY=            -84.2739 XXZZ=            -84.2740 YYZZ=            -11.8818
 XXYZ=              0.0001 YYXZ=              0.0000 ZZXY=              2.8356
 N-N= 2.858258536402D+01 E-N=-2.498454363937D+02  KE= 8.268452634109D+01
                          Isotropic Fermi Contact Couplings
        Atom                 a.u.       MegaHertz       Gauss      10(-4) cm-1
     1  B(11)              0.00000       0.00000       0.00000       0.00000
     2  N(14)             -0.00000      -0.00000      -0.00000      -0.00000
     3  H(1)               0.00000       0.00000       0.00000       0.00000
     4  H(1)               0.00000       0.00000       0.00000       0.00000
     5  H(1)              -0.00000      -0.00000      -0.00000      -0.00000
     6  H(1)               0.00000       0.00000       0.00000       0.00000
     7  H(1)               0.00000       0.00000       0.00000       0.00000
     8  H(1)              -0.00000      -0.00000      -0.00000      -0.00000
 --------------------------------------------------------
       Center         ----  Spin Dipole Couplings  ----
                      3XX-RR        3YY-RR        3ZZ-RR
 --------------------------------------------------------
     1   Atom        0.000000      0.000000      0.000000
     2   Atom        0.000000      0.000000      0.000000
     3   Atom        0.000000      0.000000      0.000000
     4   Atom        0.000000      0.000000      0.000000
     5   Atom        0.000000      0.000000      0.000000
     6   Atom        0.000000      0.000000      0.000000
     7   Atom        0.000000      0.000000      0.000000
     8   Atom        0.000000      0.000000      0.000000
 --------------------------------------------------------
                        XY            XZ            YZ
 --------------------------------------------------------
     1   Atom        0.000000      0.000000      0.000000
     2   Atom        0.000000      0.000000      0.000000
     3   Atom        0.000000      0.000000      0.000000
     4   Atom        0.000000      0.000000      0.000000
     5   Atom        0.000000      0.000000      0.000000
     6   Atom        0.000000      0.000000      0.000000
     7   Atom        0.000000      0.000000      0.000000
     8   Atom        0.000000      0.000000      0.000000
 --------------------------------------------------------


 ---------------------------------------------------------------------------------
              Anisotropic Spin Dipole Couplings in Principal Axis System
 ---------------------------------------------------------------------------------

       Atom             a.u.   MegaHertz   Gauss  10(-4) cm-1        Axes

              Baa     0.0000     0.000     0.000     0.000  1.0000  0.0000  0.0000
     1 B(11)  Bbb     0.0000     0.000     0.000     0.000 -0.0000  1.0000  0.0000
              Bcc     0.0000     0.000     0.000     0.000  0.0000  0.0000  1.0000
 
              Baa     0.0000     0.000     0.000     0.000  1.0000  0.0000  0.0000
     2 N(14)  Bbb     0.0000     0.000     0.000     0.000 -0.0000  1.0000  0.0000
              Bcc     0.0000     0.000     0.000     0.000  0.0000  0.0000  1.0000
 
              Baa     0.0000     0.000     0.000     0.000  1.0000  0.0000  0.0000
     3 H(1)   Bbb     0.0000     0.000     0.000     0.000 -0.0000  1.0000  0.0000
              Bcc     0.0000     0.000     0.000     0.000  0.0000  0.0000  1.0000
 
              Baa     0.0000     0.000     0.000     0.000  1.0000  0.0000  0.0000
     4 H(1)   Bbb     0.0000     0.000     0.000     0.000 -0.0000  1.0000  0.0000
              Bcc     0.0000     0.000     0.000     0.000  0.0000  0.0000  1.0000
 
              Baa     0.0000     0.000     0.000     0.000  1.0000  0.0000  0.0000
     5 H(1)   Bbb     0.0000     0.000     0.000     0.000 -0.0000  1.0000  0.0000
              Bcc     0.0000     0.000     0.000     0.000  0.0000  0.0000  1.0000
 
              Baa     0.0000     0.000     0.000     0.000  1.0000  0.0000  0.0000
     6 H(1)   Bbb     0.0000     0.000     0.000     0.000 -0.0000  1.0000  0.0000
              Bcc     0.0000     0.000     0.000     0.000  0.0000  0.0000  1.0000
 
              Baa     0.0000     0.000     0.000     0.000  1.0000  0.0000  0.0000
     7 H(1)   Bbb     0.0000     0.000     0.000     0.000 -0.0000  1.0000  0.0000
              Bcc     0.0000     0.000     0.000     0.000  0.0000  0.0000  1.0000
 
              Baa     0.0000     0.000     0.000     0.000  1.0000  0.0000  0.0000
     8 H(1)   Bbb     0.0000     0.000     0.000     0.000 -0.0000  1.0000  0.0000
              Bcc     0.0000     0.000     0.000     0.000  0.0000  0.0000  1.0000
 

 ---------------------------------------------------------------------------------

 No NMR shielding tensors so no spin-rotation constants.
 Leave Link  601 at Mon Apr 21 17:39:52 2025, MaxMem=   536870912 cpu:               1.2 elap:               0.2
 (Enter /home/szhao/Apps/g16/l701.exe)
 ... and contract with generalized density number  0.
 Compute integral first derivatives.
 Leave Link  701 at Mon Apr 21 17:39:52 2025, MaxMem=   536870912 cpu:               1.5 elap:               0.2
 (Enter /home/szhao/Apps/g16/l702.exe)
 L702 exits ... SP integral derivatives will be done elsewhere.
 Leave Link  702 at Mon Apr 21 17:39:53 2025, MaxMem=   536870912 cpu:               0.4 elap:               0.1
 (Enter /home/szhao/Apps/g16/l703.exe)
 Integral derivatives from FoFJK, PRISM(SPDF).
 Compute integral first derivatives, UseDBF=F ICtDFT=           0.
 Calling FoFJK, ICntrl=      2127 FMM=F ISym2X=0 I1Cent= 0 IOpClX= 1 NMat=1 NMatS=1 NMatT=0.
 FoFJK:  IHMeth= 1 ICntrl=    2127 DoSepK=F KAlg= 0 I1Cent=           0 FoldK=F
 IRaf=         0 NMat=       1 IRICut=       1 DoRegI=T DoRafI=F ISym2E= 0 IDoP0=0 IntGTp=1.
 FoFCou: FMM=F IPFlag=           0 FMFlag=      100000 FMFlg1=         800
         NFxFlg=           0 DoJE=F BraDBF=F KetDBF=F FulRan=T
         wScrn=  0.000000 ICntrl=      2127 IOpCl=  1 I1Cent=           0 NGrid=           0
         NMat0=    1 NMatS0=      1 NMatT0=    0 NMatD0=    1 NMtDS0=    0 NMtDT0=    0
 Symmetry not used in FoFCou.
 Leave Link  703 at Mon Apr 21 17:39:54 2025, MaxMem=   536870912 cpu:              11.5 elap:               1.5
 (Enter /home/szhao/Apps/g16/l716.exe)
 Dipole        = 1.00768372D+00-4.96436292D-07 2.33389312D-07
 -------------------------------------------------------------------
 Center     Atomic                   Forces (Hartrees/Bohr)
 Number     Number              X              Y              Z
 -------------------------------------------------------------------
      1        5          -0.000000000   -0.000000000   -0.000000000
      2        7          -0.000000000   -0.000000000   -0.000000000
      3        1          -0.000703657    0.003131762    0.000000318
      4        1           0.023459763    0.000465107   -0.000808438
      5        1          -0.000705971   -0.001562788    0.002710309
      6        1          -0.000705465   -0.001562739   -0.002709615
      7        1           0.023460443   -0.000931200   -0.000000666
      8        1           0.023459611    0.000465086    0.000807131
 -------------------------------------------------------------------
 Cartesian Forces:  Max     0.023460443 RMS     0.008378003
 Leave Link  716 at Mon Apr 21 17:39:54 2025, MaxMem=   536870912 cpu:               0.7 elap:               0.1
 (Enter /home/szhao/Apps/g16/l103.exe)

 GradGradGradGradGradGradGradGradGradGradGradGradGradGradGradGradGradGrad
 Berny optimization.
 FormGI is forming the generalized inverse of G from B-inverse, IUseBI=4.
 Internal  Forces:  Max     0.070379816 RMS     0.017299176
 Search for a local minimum.
 Step number   1 out of a maximum of   43
 All quantities printed in internal units (Hartrees-Bohrs-Radians)
 RMS Force = .13496D-01 SwitMx=.10000D-02 MixMth= 1
 Mixed Optimization -- RFO/linear search
 Second derivative matrix not updated -- first step.
 ITU=  0
     Eigenvalues ---    0.00230   0.05440   0.05440   0.06564   0.06564
     Eigenvalues ---    0.16000   0.16000   0.16000   0.16000   0.16000
     Eigenvalues ---    0.16000   0.24185   0.24185   0.24185   0.44893
     Eigenvalues ---    0.44893   0.448931000.000001000.000001000.00000
     Eigenvalues --- 1000.000001000.000001000.000001000.000001000.00000
     Eigenvalues --- 1000.000001000.000001000.000001000.000001000.00000
     Eigenvalues --- 1000.000001000.000001000.00000
 RFO step:  Lambda=-2.60934028D-02 EMin= 2.30000000D-03
 Linear search not attempted -- first point.
 Maximum step size (   0.300) exceeded in Quadratic search.
    -- Step size scaled by   0.804
 Iteration  1 RMS(Cart)=  0.09204804 RMS(Int)=  0.00967231
 Iteration  2 RMS(Cart)=  0.00848543 RMS(Int)=  0.00695416
 Iteration  3 RMS(Cart)=  0.00037107 RMS(Int)=  0.00695202
 Iteration  4 RMS(Cart)=  0.00002231 RMS(Int)=  0.00695201
 Iteration  5 RMS(Cart)=  0.00000134 RMS(Int)=  0.00695201
 Iteration  6 RMS(Cart)=  0.00000008 RMS(Int)=  0.00695201
 ITry= 1 IFail=0 DXMaxC= 3.20D-01 DCOld= 1.00D+10 DXMaxT= 3.00D-01 DXLimC= 3.00D+00 Rises=F
 Variable       Old X    -DE/DX   Delta X   Delta X   Delta X     New X
                                 (Linear)    (Quad)   (Total)
    X1       -4.02026   0.07038   0.00000   0.00000   0.00000  -4.02026
    Y1        0.00000  -0.00000   0.00000   0.00000   0.00000   0.00000
    Z1        0.00000  -0.00000   0.00000   0.00000   0.00000   0.00000
    X2        4.02026  -0.00212   0.00000   0.00000   0.00000   4.02026
    Y2        0.00000   0.00001   0.00000   0.00000   0.00000   0.00000
    Z2        0.00000   0.00000   0.00000   0.00000   0.00000   0.00000
    R1        2.28028  -0.00690   0.00000  -0.02072  -0.02072   2.25956
    R2        2.28028  -0.00690   0.00000  -0.02071  -0.02071   2.25956
    R3        2.28027  -0.00690   0.00000  -0.02071  -0.02071   2.25956
    R4        1.92100  -0.00318   0.00000  -0.00538  -0.00538   1.91562
    R5        1.92100  -0.00317   0.00000  -0.00537  -0.00537   1.91563
    R6        1.92100  -0.00317   0.00000  -0.00537  -0.00537   1.91563
    A1        1.82940  -0.03090   0.00000  -0.13354  -0.14201   1.68739
    A2        1.82940  -0.03090   0.00000  -0.13355  -0.14202   1.68738
    A3        1.82942  -0.03090   0.00000  -0.13354  -0.14201   1.68741
    A4        1.98438   0.02503   0.00000   0.10818   0.08673   2.07111
    A5        1.98439   0.02503   0.00000   0.10816   0.08672   2.07111
    A6        1.98439   0.02503   0.00000   0.10817   0.08673   2.07111
    A7        1.93655   0.00042   0.00000   0.00183   0.00183   1.93838
    A8        1.93656   0.00042   0.00000   0.00180   0.00180   1.93836
    A9        1.93654   0.00042   0.00000   0.00180   0.00180   1.93835
   A10        1.88401  -0.00044   0.00000  -0.00191  -0.00191   1.88211
   A11        1.88402  -0.00044   0.00000  -0.00191  -0.00191   1.88211
   A12        1.88402  -0.00044   0.00000  -0.00192  -0.00192   1.88210
    D1        1.04719  -0.00000   0.00000  -0.00001  -0.00001   1.04719
    D2        3.14159   0.00000   0.00000   0.00001   0.00001  -3.14159
    D3       -1.04720  -0.00000   0.00000  -0.00002  -0.00002  -1.04721
    D4        3.14158   0.00000   0.00000   0.00000   0.00000   3.14158
    D5       -1.04722   0.00000   0.00000   0.00001   0.00001  -1.04720
    D6        1.04718  -0.00000   0.00000  -0.00001  -0.00001   1.04718
    D7       -1.04721   0.00000   0.00000   0.00000   0.00000  -1.04721
    D8        1.04719   0.00000   0.00000   0.00001   0.00001   1.04720
    D9        3.14159  -0.00000   0.00000  -0.00001  -0.00001   3.14158
         Item               Value     Threshold  Converged?
 Maximum Force            0.030901     0.000450     NO 
 RMS     Force            0.013496     0.000300     NO 
 Maximum Displacement     0.320306     0.001800     NO 
 RMS     Displacement     0.097334     0.001200     NO 
 Predicted change in Energy=-1.333905D-02
 Lowest energy point so far.  Saving SCF results.
 GradGradGradGradGradGradGradGradGradGradGradGradGradGradGradGradGradGrad

 Leave Link  103 at Mon Apr 21 17:39:55 2025, MaxMem=   536870912 cpu:               0.7 elap:               0.2
 (Enter /home/szhao/Apps/g16/l202.exe)
                          Input orientation:                          
 ---------------------------------------------------------------------
 Center     Atomic      Atomic             Coordinates (Angstroms)
 Number     Number       Type             X           Y           Z
 ---------------------------------------------------------------------
      1          5           0       -2.127429    0.000000    0.000000
      2          7           0        2.127429    0.000000    0.000000
      3          1           0        2.491720   -0.945986    0.000001
      4          1           0       -2.266526   -0.593804    1.028477
      5          1           0        2.491698    0.473007   -0.819252
      6          1           0        2.491684    0.473007    0.819259
      7          1           0       -2.266518    1.187593    0.000016
      8          1           0       -2.266545   -0.593785   -1.028485
 ---------------------------------------------------------------------
                    Distance matrix (angstroms):
                    1          2          3          4          5
     1  B    0.000000
     2  N    4.254858   0.000000
     3  H    4.715022   1.013705   0.000000
     4  H    1.195708   4.551616   4.880850   0.000000
     5  H    4.715002   1.013707   1.638511   5.214680   0.000000
     6  H    4.714989   1.013707   1.638512   4.880822   1.638511
     7  H    1.195710   4.551609   5.214689   2.056966   4.880825
     8  H    1.195707   4.551633   4.880872   2.056962   4.880850
                    6          7          8
     6  H    0.000000
     7  H    4.880807   0.000000
     8  H    5.214685   2.056969   0.000000
 Symmetry turned off by external request.
 Stoichiometry    BH6N
 Framework group  C1[X(BH6N)]
 Deg. of freedom    18
 Full point group                 C1      NOp   1
 Rotational constants (GHZ):          72.5083264           3.3828781           3.3828777
 Leave Link  202 at Mon Apr 21 17:39:55 2025, MaxMem=   536870912 cpu:               0.3 elap:               0.1
 (Enter /home/szhao/Apps/g16/l301.exe)
 Standard basis: 6-311+G(d,p) (5D, 7F)
 Ernie: Thresh=  0.10000D-02 Tol=  0.10000D-05 Strict=F.
    80 basis functions,   120 primitive gaussians,    82 cartesian basis functions
     9 alpha electrons        9 beta electrons
       nuclear repulsion energy        28.7744745953 Hartrees.
 IExCor= 4336 DFT=T Ex+Corr=M062X ExCW=0 ScaHFX=  0.540000
 ScaDFX=  1.000000  1.000000  1.000000  1.000000 ScalE2=  1.000000  1.000000
 IRadAn=      7 IRanWt=     -1 IRanGd=            0 ICorTp=0 IEmpDi=  4
 NAtoms=    8 NActive=    8 NUniq=    8 SFac= 1.00D+00 NAtFMM=   60 NAOKFM=F Big=F
 Integral buffers will be    131072 words long.
 Raffenetti 2 integral format.
 Two-electron integral symmetry is turned off.
 Leave Link  301 at Mon Apr 21 17:39:55 2025, MaxMem=   536870912 cpu:               0.7 elap:               0.2
 (Enter /home/szhao/Apps/g16/l302.exe)
 NPDir=0 NMtPBC=     1 NCelOv=     1 NCel=       1 NClECP=     1 NCelD=      1
         NCelK=      1 NCelE2=     1 NClLst=     1 CellRange=     0.0.
 One-electron integrals computed using PRISM.
 NBasis=    80 RedAO= T EigKep=  3.91D-03  NBF=    80
 NBsUse=    80 1.00D-06 EigRej= -1.00D+00 NBFU=    80
 Precomputing XC quadrature grid using
 IXCGrd= 4 IRadAn=           7 IRanWt=          -1 IRanGd=           0 AccXCQ= 0.00D+00.
 Generated NRdTot=       0 NPtTot=           0 NUsed=           0 NTot=          32
 NSgBfM=    82    82    82    82    82 MxSgAt=     8 MxSgA2=     8.
 Leave Link  302 at Mon Apr 21 17:39:56 2025, MaxMem=   536870912 cpu:               2.3 elap:               0.4
 (Enter /home/szhao/Apps/g16/l303.exe)
 DipDrv:  MaxL=1.
 Leave Link  303 at Mon Apr 21 17:39:56 2025, MaxMem=   536870912 cpu:               0.4 elap:               0.1
 (Enter /home/szhao/Apps/g16/l401.exe)
 Initial guess from the checkpoint file:  "opt.chk"
 B after Tr=     0.053602    0.000002   -0.000001
         Rot=    1.000000    0.000000    0.000000   -0.000001 Ang=   0.00 deg.
 Guess basis will be translated and rotated to current coordinates.
 JPrj=2 DoOrth=T DoCkMO=T.
 Initial guess <Sx>= 0.0000 <Sy>= 0.0000 <Sz>= 0.0000 <S**2>= 0.0000 S= 0.0000
 Generating alternative initial guess.
 ExpMin= 3.15D-02 ExpMax= 6.29D+03 ExpMxC= 9.49D+02 IAcc=3 IRadAn=         5 AccDes= 0.00D+00
 Harris functional with IExCor= 1009 and IRadAn=       5 diagonalized for initial guess.
 HarFok:  IExCor= 1009 AccDes= 0.00D+00 IRadAn=         5 IDoV= 1 UseB2=F ITyADJ=14
 ICtDFT=  3500011 ScaDFX=  1.000000  1.000000  1.000000  1.000000
 FoFCou: FMM=F IPFlag=           0 FMFlag=      100000 FMFlg1=           0
         NFxFlg=           0 DoJE=T BraDBF=F KetDBF=T FulRan=T
         wScrn=  0.000000 ICntrl=       500 IOpCl=  0 I1Cent=   200000004 NGrid=           0
         NMat0=    1 NMatS0=      1 NMatT0=    0 NMatD0=    1 NMtDS0=    0 NMtDT0=    0
 Symmetry not used in FoFCou.
 Harris En= -83.1362123277314    
 Leave Link  401 at Mon Apr 21 17:39:56 2025, MaxMem=   536870912 cpu:               3.6 elap:               0.5
 (Enter /home/szhao/Apps/g16/l502.exe)
 Keep R1 and R2 ints in memory in canonical form, NReq=17776582.
 FoFCou: FMM=F IPFlag=           0 FMFlag=           0 FMFlg1=           0
         NFxFlg=           0 DoJE=F BraDBF=F KetDBF=F FulRan=T
         wScrn=  0.000000 ICntrl=       600 IOpCl=  0 I1Cent=           0 NGrid=           0
         NMat0=    1 NMatS0=   3240 NMatT0=    0 NMatD0=    1 NMtDS0=    0 NMtDT0=    0
 Symmetry not used in FoFCou.
 Two-electron integral symmetry not used.
 UHF open shell SCF:
 Using DIIS extrapolation, IDIIS=  1040.
 NGot=   536870912 LenX=   526355138 LenY=   526347973
 Requested convergence on RMS density matrix=1.00D-08 within 128 cycles.
 Requested convergence on MAX density matrix=1.00D-06.
 Requested convergence on             energy=1.00D-06.
 No special actions if energy rises.

 Cycle   1  Pass 1  IDiag  1:
 E= -83.1348898261575    
 DIIS: error= 4.44D-03 at cycle   1 NSaved=   1.
 NSaved= 1 IEnMin= 1 EnMin= -83.1348898261575     IErMin= 1 ErrMin= 4.44D-03
 ErrMax= 4.44D-03  0.00D+00 EMaxC= 1.00D-01 BMatC= 2.96D-03 BMatP= 2.96D-03
 IDIUse=3 WtCom= 9.56D-01 WtEn= 4.44D-02
 Coeff-Com:  0.100D+01
 Coeff-En:   0.100D+01
 Coeff:      0.100D+01
 Gap=     0.538 Goal=   None    Shift=    0.000
 Gap=     0.538 Goal=   None    Shift=    0.000
 GapD=    0.538 DampG=2.000 DampE=1.000 DampFc=2.0000 IDamp=-1.
 RMSDP=2.68D-04 MaxDP=5.12D-03              OVMax= 2.37D-02

 Cycle   2  Pass 1  IDiag  1:
 E= -83.1360635485792     Delta-E=       -0.001173722422 Rises=F Damp=F
 DIIS: error= 1.30D-03 at cycle   2 NSaved=   2.
 NSaved= 2 IEnMin= 2 EnMin= -83.1360635485792     IErMin= 2 ErrMin= 1.30D-03
 ErrMax= 1.30D-03  0.00D+00 EMaxC= 1.00D-01 BMatC= 2.11D-04 BMatP= 2.96D-03
 IDIUse=3 WtCom= 9.87D-01 WtEn= 1.30D-02
 Coeff-Com:  0.552D-01 0.945D+00
 Coeff-En:   0.000D+00 0.100D+01
 Coeff:      0.545D-01 0.945D+00
 Gap=     0.316 Goal=   None    Shift=    0.000
 Gap=     0.316 Goal=   None    Shift=    0.000
 RMSDP=7.78D-05 MaxDP=2.06D-03 DE=-1.17D-03 OVMax= 3.12D-03

 Cycle   3  Pass 1  IDiag  1:
 E= -83.1361148927465     Delta-E=       -0.000051344167 Rises=F Damp=F
 DIIS: error= 2.47D-04 at cycle   3 NSaved=   3.
 NSaved= 3 IEnMin= 3 EnMin= -83.1361148927465     IErMin= 3 ErrMin= 2.47D-04
 ErrMax= 2.47D-04  0.00D+00 EMaxC= 1.00D-01 BMatC= 1.65D-05 BMatP= 2.11D-04
 IDIUse=3 WtCom= 9.98D-01 WtEn= 2.47D-03
 Coeff-Com: -0.257D-01 0.137D+00 0.889D+00
 Coeff-En:   0.000D+00 0.000D+00 0.100D+01
 Coeff:     -0.256D-01 0.136D+00 0.889D+00
 Gap=     0.316 Goal=   None    Shift=    0.000
 Gap=     0.316 Goal=   None    Shift=    0.000
 RMSDP=2.16D-05 MaxDP=7.12D-04 DE=-5.13D-05 OVMax= 1.30D-03

 Cycle   4  Pass 1  IDiag  1:
 E= -83.1361196473179     Delta-E=       -0.000004754571 Rises=F Damp=F
 DIIS: error= 1.73D-04 at cycle   4 NSaved=   4.
 NSaved= 4 IEnMin= 4 EnMin= -83.1361196473179     IErMin= 4 ErrMin= 1.73D-04
 ErrMax= 1.73D-04  0.00D+00 EMaxC= 1.00D-01 BMatC= 5.04D-06 BMatP= 1.65D-05
 IDIUse=3 WtCom= 9.98D-01 WtEn= 1.73D-03
 Coeff-Com: -0.109D-01 0.977D-02 0.373D+00 0.629D+00
 Coeff-En:   0.000D+00 0.000D+00 0.000D+00 0.100D+01
 Coeff:     -0.109D-01 0.976D-02 0.372D+00 0.629D+00
 Gap=     0.316 Goal=   None    Shift=    0.000
 Gap=     0.316 Goal=   None    Shift=    0.000
 RMSDP=7.91D-06 MaxDP=2.51D-04 DE=-4.75D-06 OVMax= 3.56D-04

 Cycle   5  Pass 1  IDiag  1:
 E= -83.1361206533429     Delta-E=       -0.000001006025 Rises=F Damp=F
 DIIS: error= 4.08D-05 at cycle   5 NSaved=   5.
 NSaved= 5 IEnMin= 5 EnMin= -83.1361206533429     IErMin= 5 ErrMin= 4.08D-05
 ErrMax= 4.08D-05  0.00D+00 EMaxC= 1.00D-01 BMatC= 2.80D-07 BMatP= 5.04D-06
 IDIUse=1 WtCom= 1.00D+00 WtEn= 0.00D+00
 Coeff-Com: -0.105D-02-0.133D-01 0.436D-01 0.218D+00 0.753D+00
 Coeff:     -0.105D-02-0.133D-01 0.436D-01 0.218D+00 0.753D+00
 Gap=     0.316 Goal=   None    Shift=    0.000
 Gap=     0.316 Goal=   None    Shift=    0.000
 RMSDP=2.17D-06 MaxDP=5.08D-05 DE=-1.01D-06 OVMax= 8.40D-05

 Cycle   6  Pass 1  IDiag  1:
 E= -83.1361207190095     Delta-E=       -0.000000065667 Rises=F Damp=F
 DIIS: error= 5.04D-06 at cycle   6 NSaved=   6.
 NSaved= 6 IEnMin= 6 EnMin= -83.1361207190095     IErMin= 6 ErrMin= 5.04D-06
 ErrMax= 5.04D-06  0.00D+00 EMaxC= 1.00D-01 BMatC= 5.20D-09 BMatP= 2.80D-07
 IDIUse=1 WtCom= 1.00D+00 WtEn= 0.00D+00
 Coeff-Com:  0.442D-03-0.450D-02-0.149D-01 0.291D-02 0.126D+00 0.890D+00
 Coeff:      0.442D-03-0.450D-02-0.149D-01 0.291D-02 0.126D+00 0.890D+00
 Gap=     0.316 Goal=   None    Shift=    0.000
 Gap=     0.316 Goal=   None    Shift=    0.000
 RMSDP=4.37D-07 MaxDP=1.37D-05 DE=-6.57D-08 OVMax= 1.57D-05

 Cycle   7  Pass 1  IDiag  1:
 E= -83.1361207207681     Delta-E=       -0.000000001759 Rises=F Damp=F
 DIIS: error= 3.82D-07 at cycle   7 NSaved=   7.
 NSaved= 7 IEnMin= 7 EnMin= -83.1361207207681     IErMin= 7 ErrMin= 3.82D-07
 ErrMax= 3.82D-07  0.00D+00 EMaxC= 1.00D-01 BMatC= 2.25D-11 BMatP= 5.20D-09
 IDIUse=1 WtCom= 1.00D+00 WtEn= 0.00D+00
 Coeff-Com:  0.160D-04 0.273D-03-0.493D-03-0.381D-02-0.140D-01 0.761D-02
 Coeff-Com:  0.101D+01
 Coeff:      0.160D-04 0.273D-03-0.493D-03-0.381D-02-0.140D-01 0.761D-02
 Coeff:      0.101D+01
 Gap=     0.316 Goal=   None    Shift=    0.000
 Gap=     0.316 Goal=   None    Shift=    0.000
 RMSDP=6.33D-08 MaxDP=1.02D-06 DE=-1.76D-09 OVMax= 2.68D-06

 Cycle   8  Pass 1  IDiag  1:
 E= -83.1361207207841     Delta-E=       -0.000000000016 Rises=F Damp=F
 DIIS: error= 6.04D-08 at cycle   8 NSaved=   8.
 NSaved= 8 IEnMin= 8 EnMin= -83.1361207207841     IErMin= 8 ErrMin= 6.04D-08
 ErrMax= 6.04D-08  0.00D+00 EMaxC= 1.00D-01 BMatC= 8.69D-13 BMatP= 2.25D-11
 IDIUse=1 WtCom= 1.00D+00 WtEn= 0.00D+00
 Coeff-Com: -0.678D-05 0.659D-04 0.186D-03-0.499D-04-0.158D-02-0.143D-01
 Coeff-Com: -0.357D-01 0.105D+01
 Coeff:     -0.678D-05 0.659D-04 0.186D-03-0.499D-04-0.158D-02-0.143D-01
 Coeff:     -0.357D-01 0.105D+01
 Gap=     0.316 Goal=   None    Shift=    0.000
 Gap=     0.316 Goal=   None    Shift=    0.000
 RMSDP=1.25D-08 MaxDP=2.26D-07 DE=-1.61D-11 OVMax= 6.74D-07

 Cycle   9  Pass 1  IDiag  1:
 E= -83.1361207207847     Delta-E=       -0.000000000001 Rises=F Damp=F
 DIIS: error= 1.60D-08 at cycle   9 NSaved=   9.
 NSaved= 9 IEnMin= 9 EnMin= -83.1361207207847     IErMin= 9 ErrMin= 1.60D-08
 ErrMax= 1.60D-08  0.00D+00 EMaxC= 1.00D-01 BMatC= 2.73D-14 BMatP= 8.69D-13
 IDIUse=1 WtCom= 1.00D+00 WtEn= 0.00D+00
 Coeff-Com: -0.112D-05-0.763D-05 0.339D-04 0.172D-03 0.551D-03-0.787D-03
 Coeff-Com: -0.444D-01 0.447D-01 0.100D+01
 Coeff:     -0.112D-05-0.763D-05 0.339D-04 0.172D-03 0.551D-03-0.787D-03
 Coeff:     -0.444D-01 0.447D-01 0.100D+01
 Gap=     0.316 Goal=   None    Shift=    0.000
 Gap=     0.316 Goal=   None    Shift=    0.000
 RMSDP=3.50D-09 MaxDP=8.18D-08 DE=-5.40D-13 OVMax= 1.68D-07

 SCF Done:  E(UM062X) =  -83.1361207208     A.U. after    9 cycles
            NFock=  9  Conv=0.35D-08     -V/T= 2.0048
 <Sx>= 0.0000 <Sy>= 0.0000 <Sz>= 0.0000 <S**2>=-0.0000 S=-0.0000
 <L.S>=  0.00000000000    
 KE= 8.274105237172D+01 PE=-2.503127844123D+02 EE= 5.566113672453D+01
 Annihilation of the first spin contaminant:
 S**2 before annihilation    -0.0000,   after     0.0000
 Leave Link  502 at Mon Apr 21 17:40:05 2025, MaxMem=   536870912 cpu:              62.3 elap:               8.2
 (Enter /home/szhao/Apps/g16/l701.exe)
 ... and contract with generalized density number  0.
 Compute integral first derivatives.
 Leave Link  701 at Mon Apr 21 17:40:05 2025, MaxMem=   536870912 cpu:               1.5 elap:               0.2
 (Enter /home/szhao/Apps/g16/l702.exe)
 L702 exits ... SP integral derivatives will be done elsewhere.
 Leave Link  702 at Mon Apr 21 17:40:05 2025, MaxMem=   536870912 cpu:               0.5 elap:               0.1
 (Enter /home/szhao/Apps/g16/l703.exe)
 Integral derivatives from FoFJK, PRISM(SPDF).
 Compute integral first derivatives, UseDBF=F ICtDFT=           0.
 Calling FoFJK, ICntrl=      2127 FMM=F ISym2X=0 I1Cent= 0 IOpClX= 1 NMat=1 NMatS=1 NMatT=0.
 FoFJK:  IHMeth= 1 ICntrl=    2127 DoSepK=F KAlg= 0 I1Cent=           0 FoldK=F
 IRaf=         0 NMat=       1 IRICut=       1 DoRegI=T DoRafI=F ISym2E= 0 IDoP0=0 IntGTp=1.
 FoFCou: FMM=F IPFlag=           0 FMFlag=      100000 FMFlg1=         800
         NFxFlg=           0 DoJE=F BraDBF=F KetDBF=F FulRan=T
         wScrn=  0.000000 ICntrl=      2127 IOpCl=  1 I1Cent=           0 NGrid=           0
         NMat0=    1 NMatS0=      1 NMatT0=    0 NMatD0=    1 NMtDS0=    0 NMtDT0=    0
 Symmetry not used in FoFCou.
 Leave Link  703 at Mon Apr 21 17:40:07 2025, MaxMem=   536870912 cpu:              10.4 elap:               1.3
 (Enter /home/szhao/Apps/g16/l716.exe)
 Dipole        = 8.59370463D-01 1.39581128D-05 3.11098988D-06
 -------------------------------------------------------------------
 Center     Atomic                   Forces (Hartrees/Bohr)
 Number     Number              X              Y              Z
 -------------------------------------------------------------------
      1        5          -0.000000000   -0.000000000   -0.000000000
      2        7          -0.000000000   -0.000000000   -0.000000000
      3        1          -0.000101392    0.000639118    0.000000163
      4        1           0.010171691    0.001121853   -0.001944354
      5        1          -0.000104128   -0.000317969    0.000552266
      6        1          -0.000103943   -0.000318025   -0.000552045
      7        1           0.010170846   -0.002246458   -0.000000352
      8        1           0.010171704    0.001121859    0.001943801
 -------------------------------------------------------------------
 Cartesian Forces:  Max     0.010171704 RMS     0.003689783
 Leave Link  716 at Mon Apr 21 17:40:07 2025, MaxMem=   536870912 cpu:               0.6 elap:               0.1
 (Enter /home/szhao/Apps/g16/l103.exe)

 GradGradGradGradGradGradGradGradGradGradGradGradGradGradGradGradGradGrad
 Berny optimization.
 Using GEDIIS/GDIIS optimizer.
 FormGI is forming the generalized inverse of G from B-inverse, IUseBI=4.
 Internal  Forces:  Max     0.030514241 RMS     0.008258356
 Search for a local minimum.
 Step number   2 out of a maximum of   43
 All quantities printed in internal units (Hartrees-Bohrs-Radians)
 RMS Force = .69905D-02 SwitMx=.10000D-02 MixMth= 1
 Mixed Optimization -- RFO/linear search
 Update second derivatives using D2CorX and points    1    2
 DE= -1.60D-02 DEPred=-1.33D-02 R= 1.20D+00
 TightC=F SS=  1.41D+00  RLast= 2.91D-01 DXNew= 5.0454D-01 8.7189D-01
 Trust test= 1.20D+00 RLast= 2.91D-01 DXMaxT set to 5.05D-01
 ITU=  1  0
 Use linear search instead of GDIIS.
     Eigenvalues ---    0.00230   0.05421   0.05421   0.07754   0.07754
     Eigenvalues ---    0.09938   0.16000   0.16000   0.16000   0.16000
     Eigenvalues ---    0.16002   0.24084   0.24185   0.24185   0.44893
     Eigenvalues ---    0.44893   0.449641000.000001000.000001000.00000
     Eigenvalues --- 1000.000001000.000001000.000001000.000001000.00000
     Eigenvalues --- 1000.000001000.000001000.000001000.000001000.00000
     Eigenvalues --- 1000.000001000.000001000.00000
 RFO step:  Lambda=-8.04245599D-05 EMin= 2.30000000D-03
 Quartic linear search produced a step of  0.58991.
 Iteration  1 RMS(Cart)=  0.07102856 RMS(Int)=  0.01098913
 Iteration  2 RMS(Cart)=  0.00502428 RMS(Int)=  0.01024965
 Iteration  3 RMS(Cart)=  0.00041749 RMS(Int)=  0.01024815
 Iteration  4 RMS(Cart)=  0.00004880 RMS(Int)=  0.01024813
 Iteration  5 RMS(Cart)=  0.00000571 RMS(Int)=  0.01024813
 Iteration  6 RMS(Cart)=  0.00000067 RMS(Int)=  0.01024813
 ITry= 1 IFail=0 DXMaxC= 2.25D-01 DCOld= 1.00D+10 DXMaxT= 5.05D-01 DXLimC= 3.00D+00 Rises=F
 Variable       Old X    -DE/DX   Delta X   Delta X   Delta X     New X
                                 (Linear)    (Quad)   (Total)
    X1       -4.02026   0.03051   0.00000   0.00000   0.00000  -4.02026
    Y1        0.00000  -0.00000   0.00000   0.00000   0.00000   0.00000
    Z1        0.00000  -0.00000   0.00000   0.00000   0.00000   0.00000
    X2        4.02026  -0.00031   0.00000   0.00000   0.00000   4.02026
    Y2        0.00000   0.00000   0.00000   0.00000   0.00000   0.00000
    Z2        0.00000   0.00000   0.00000   0.00000   0.00000   0.00000
    R1        2.25956  -0.00341  -0.01222  -0.00157  -0.01379   2.24577
    R2        2.25956  -0.00341  -0.01222  -0.00158  -0.01380   2.24576
    R3        2.25956  -0.00341  -0.01222  -0.00157  -0.01379   2.24577
    R4        1.91562  -0.00063  -0.00317   0.00257  -0.00060   1.91502
    R5        1.91563  -0.00063  -0.00317   0.00257  -0.00060   1.91503
    R6        1.91563  -0.00063  -0.00317   0.00257  -0.00060   1.91503
    A1        1.68739  -0.01924  -0.08377  -0.01414  -0.09988   1.58751
    A2        1.68738  -0.01923  -0.08378  -0.01411  -0.09985   1.58753
    A3        1.68741  -0.01924  -0.08378  -0.01414  -0.09988   1.58752
    A4        2.07111   0.00760   0.05116   0.00557   0.02280   2.09391
    A5        2.07111   0.00760   0.05116   0.00558   0.02280   2.09391
    A6        2.07111   0.00760   0.05116   0.00557   0.02280   2.09392
    A7        1.93838   0.00012   0.00108  -0.00094   0.00014   1.93852
    A8        1.93836   0.00012   0.00106  -0.00097   0.00009   1.93845
    A9        1.93835   0.00012   0.00106  -0.00097   0.00009   1.93844
   A10        1.88211  -0.00013  -0.00113   0.00101  -0.00012   1.88199
   A11        1.88211  -0.00013  -0.00113   0.00101  -0.00012   1.88199
   A12        1.88210  -0.00013  -0.00113   0.00102  -0.00011   1.88200
    D1        1.04719  -0.00000  -0.00000   0.00000  -0.00000   1.04718
    D2       -3.14159   0.00000   0.00000  -0.00000   0.00000  -3.14159
    D3       -1.04721  -0.00000  -0.00001   0.00000  -0.00001  -1.04722
    D4        3.14158   0.00000   0.00000  -0.00000   0.00000   3.14158
    D5       -1.04720   0.00000   0.00001  -0.00000   0.00001  -1.04719
    D6        1.04718  -0.00000  -0.00000   0.00000  -0.00000   1.04717
    D7       -1.04721   0.00000   0.00000   0.00000   0.00000  -1.04721
    D8        1.04720   0.00000   0.00001  -0.00000   0.00001   1.04721
    D9        3.14158  -0.00000  -0.00000   0.00000  -0.00000   3.14157
         Item               Value     Threshold  Converged?
 Maximum Force            0.019236     0.000450     NO 
 RMS     Force            0.006990     0.000300     NO 
 Maximum Displacement     0.225327     0.001800     NO 
 RMS     Displacement     0.067933     0.001200     NO 
 Predicted change in Energy=-4.967016D-03
 Lowest energy point so far.  Saving SCF results.
 GradGradGradGradGradGradGradGradGradGradGradGradGradGradGradGradGradGrad

 Leave Link  103 at Mon Apr 21 17:40:07 2025, MaxMem=   536870912 cpu:               1.1 elap:               0.2
 (Enter /home/szhao/Apps/g16/l202.exe)
                          Input orientation:                          
 ---------------------------------------------------------------------
 Center     Atomic      Atomic             Coordinates (Angstroms)
 Number     Number       Type             X           Y           Z
 ---------------------------------------------------------------------
      1          5           0       -2.127429    0.000000    0.000000
      2          7           0        2.127429    0.000000    0.000000
      3          1           0        2.491734   -0.945639    0.000001
      4          1           0       -2.147289   -0.594135    1.029044
      5          1           0        2.491673    0.472846   -0.818964
      6          1           0        2.491659    0.472845    0.818970
      7          1           0       -2.147315    1.188241    0.000015
      8          1           0       -2.147307   -0.594116   -1.029054
 ---------------------------------------------------------------------
                    Distance matrix (angstroms):
                    1          2          3          4          5
     1  B    0.000000
     2  N    4.254858   0.000000
     3  H    4.714966   1.013386   0.000000
     4  H    1.188411   4.436794   4.764768   0.000000
     5  H    4.714911   1.013389   1.637927   5.106226   0.000000
     6  H    4.714899   1.013389   1.637928   4.764705   1.637933
     7  H    1.188407   4.436818   5.106292   2.058097   4.764737
     8  H    1.188411   4.436811   4.764790   2.058098   4.764732
                    6          7          8
     6  H    0.000000
     7  H    4.764720   0.000000
     8  H    5.106232   2.058100   0.000000
 Symmetry turned off by external request.
 Stoichiometry    BH6N
 Framework group  C1[X(BH6N)]
 Deg. of freedom    18
 Full point group                 C1      NOp   1
 Rotational constants (GHZ):          72.4794693           3.4231532           3.4231529
 Leave Link  202 at Mon Apr 21 17:40:08 2025, MaxMem=   536870912 cpu:               0.3 elap:               0.1
 (Enter /home/szhao/Apps/g16/l301.exe)
 Standard basis: 6-311+G(d,p) (5D, 7F)
 Ernie: Thresh=  0.10000D-02 Tol=  0.10000D-05 Strict=F.
    80 basis functions,   120 primitive gaussians,    82 cartesian basis functions
     9 alpha electrons        9 beta electrons
       nuclear repulsion energy        28.9041260516 Hartrees.
 IExCor= 4336 DFT=T Ex+Corr=M062X ExCW=0 ScaHFX=  0.540000
 ScaDFX=  1.000000  1.000000  1.000000  1.000000 ScalE2=  1.000000  1.000000
 IRadAn=      7 IRanWt=     -1 IRanGd=            0 ICorTp=0 IEmpDi=  4
 NAtoms=    8 NActive=    8 NUniq=    8 SFac= 1.00D+00 NAtFMM=   60 NAOKFM=F Big=F
 Integral buffers will be    131072 words long.
 Raffenetti 2 integral format.
 Two-electron integral symmetry is turned off.
 Leave Link  301 at Mon Apr 21 17:40:08 2025, MaxMem=   536870912 cpu:               0.6 elap:               0.1
 (Enter /home/szhao/Apps/g16/l302.exe)
 NPDir=0 NMtPBC=     1 NCelOv=     1 NCel=       1 NClECP=     1 NCelD=      1
         NCelK=      1 NCelE2=     1 NClLst=     1 CellRange=     0.0.
 One-electron integrals computed using PRISM.
 NBasis=    80 RedAO= T EigKep=  3.84D-03  NBF=    80
 NBsUse=    80 1.00D-06 EigRej= -1.00D+00 NBFU=    80
 Precomputing XC quadrature grid using
 IXCGrd= 4 IRadAn=           7 IRanWt=          -1 IRanGd=           0 AccXCQ= 0.00D+00.
 Generated NRdTot=       0 NPtTot=           0 NUsed=           0 NTot=          32
 NSgBfM=    82    82    82    82    82 MxSgAt=     8 MxSgA2=     8.
 Leave Link  302 at Mon Apr 21 17:40:08 2025, MaxMem=   536870912 cpu:               2.2 elap:               0.4
 (Enter /home/szhao/Apps/g16/l303.exe)
 DipDrv:  MaxL=1.
 Leave Link  303 at Mon Apr 21 17:40:08 2025, MaxMem=   536870912 cpu:               0.6 elap:               0.1
 (Enter /home/szhao/Apps/g16/l401.exe)
 Initial guess from the checkpoint file:  "opt.chk"
 B after Tr=     0.037547    0.000000   -0.000001
         Rot=    1.000000    0.000000    0.000000   -0.000001 Ang=   0.00 deg.
 Guess basis will be translated and rotated to current coordinates.
 JPrj=2 DoOrth=T DoCkMO=T.
 Initial guess <Sx>= 0.0000 <Sy>= 0.0000 <Sz>= 0.0000 <S**2>=-0.0000 S=-0.0000
 Generating alternative initial guess.
 ExpMin= 3.15D-02 ExpMax= 6.29D+03 ExpMxC= 9.49D+02 IAcc=3 IRadAn=         5 AccDes= 0.00D+00
 Harris functional with IExCor= 1009 and IRadAn=       5 diagonalized for initial guess.
 HarFok:  IExCor= 1009 AccDes= 0.00D+00 IRadAn=         5 IDoV= 1 UseB2=F ITyADJ=14
 ICtDFT=  3500011 ScaDFX=  1.000000  1.000000  1.000000  1.000000
 FoFCou: FMM=F IPFlag=           0 FMFlag=      100000 FMFlg1=           0
         NFxFlg=           0 DoJE=T BraDBF=F KetDBF=T FulRan=T
         wScrn=  0.000000 ICntrl=       500 IOpCl=  0 I1Cent=   200000004 NGrid=           0
         NMat0=    1 NMatS0=      1 NMatT0=    0 NMatD0=    1 NMtDS0=    0 NMtDT0=    0
 Symmetry not used in FoFCou.
 Harris En= -83.1399538966365    
 Leave Link  401 at Mon Apr 21 17:40:09 2025, MaxMem=   536870912 cpu:               3.9 elap:               0.6
 (Enter /home/szhao/Apps/g16/l502.exe)
 Keep R1 and R2 ints in memory in canonical form, NReq=17776582.
 FoFCou: FMM=F IPFlag=           0 FMFlag=           0 FMFlg1=           0
         NFxFlg=           0 DoJE=F BraDBF=F KetDBF=F FulRan=T
         wScrn=  0.000000 ICntrl=       600 IOpCl=  0 I1Cent=           0 NGrid=           0
         NMat0=    1 NMatS0=   3240 NMatT0=    0 NMatD0=    1 NMtDS0=    0 NMtDT0=    0
 Symmetry not used in FoFCou.
 Two-electron integral symmetry not used.
 UHF open shell SCF:
 Using DIIS extrapolation, IDIIS=  1040.
 NGot=   536870912 LenX=   526355138 LenY=   526347973
 Requested convergence on RMS density matrix=1.00D-08 within 128 cycles.
 Requested convergence on MAX density matrix=1.00D-06.
 Requested convergence on             energy=1.00D-06.
 No special actions if energy rises.

 Cycle   1  Pass 1  IDiag  1:
 E= -83.1392822231982    
 DIIS: error= 3.43D-03 at cycle   1 NSaved=   1.
 NSaved= 1 IEnMin= 1 EnMin= -83.1392822231982     IErMin= 1 ErrMin= 3.43D-03
 ErrMax= 3.43D-03  0.00D+00 EMaxC= 1.00D-01 BMatC= 1.33D-03 BMatP= 1.33D-03
 IDIUse=3 WtCom= 9.66D-01 WtEn= 3.43D-02
 Coeff-Com:  0.100D+01
 Coeff-En:   0.100D+01
 Coeff:      0.100D+01
 Gap=     0.536 Goal=   None    Shift=    0.000
 Gap=     0.536 Goal=   None    Shift=    0.000
 GapD=    0.536 DampG=2.000 DampE=1.000 DampFc=2.0000 IDamp=-1.
 RMSDP=1.66D-04 MaxDP=3.77D-03              OVMax= 1.64D-02

 Cycle   2  Pass 1  IDiag  1:
 E= -83.1398019343123     Delta-E=       -0.000519711114 Rises=F Damp=F
 DIIS: error= 9.67D-04 at cycle   2 NSaved=   2.
 NSaved= 2 IEnMin= 2 EnMin= -83.1398019343123     IErMin= 2 ErrMin= 9.67D-04
 ErrMax= 9.67D-04  0.00D+00 EMaxC= 1.00D-01 BMatC= 8.96D-05 BMatP= 1.33D-03
 IDIUse=3 WtCom= 9.90D-01 WtEn= 9.67D-03
 Coeff-Com:  0.385D-01 0.962D+00
 Coeff-En:   0.000D+00 0.100D+01
 Coeff:      0.381D-01 0.962D+00
 Gap=     0.317 Goal=   None    Shift=    0.000
 Gap=     0.317 Goal=   None    Shift=    0.000
 RMSDP=4.41D-05 MaxDP=9.62D-04 DE=-5.20D-04 OVMax= 1.84D-03

 Cycle   3  Pass 1  IDiag  1:
 E= -83.1398229407654     Delta-E=       -0.000021006453 Rises=F Damp=F
 DIIS: error= 1.70D-04 at cycle   3 NSaved=   3.
 NSaved= 3 IEnMin= 3 EnMin= -83.1398229407654     IErMin= 3 ErrMin= 1.70D-04
 ErrMax= 1.70D-04  0.00D+00 EMaxC= 1.00D-01 BMatC= 2.74D-06 BMatP= 8.96D-05
 IDIUse=3 WtCom= 9.98D-01 WtEn= 1.70D-03
 Coeff-Com: -0.263D-01 0.728D-01 0.953D+00
 Coeff-En:   0.000D+00 0.000D+00 0.100D+01
 Coeff:     -0.263D-01 0.727D-01 0.954D+00
 Gap=     0.317 Goal=   None    Shift=    0.000
 Gap=     0.317 Goal=   None    Shift=    0.000
 RMSDP=9.69D-06 MaxDP=3.07D-04 DE=-2.10D-05 OVMax= 8.64D-04

 Cycle   4  Pass 1  IDiag  1:
 E= -83.1398243000474     Delta-E=       -0.000001359282 Rises=F Damp=F
 DIIS: error= 2.86D-05 at cycle   4 NSaved=   4.
 NSaved= 4 IEnMin= 4 EnMin= -83.1398243000474     IErMin= 4 ErrMin= 2.86D-05
 ErrMax= 2.86D-05  0.00D+00 EMaxC= 1.00D-01 BMatC= 2.46D-07 BMatP= 2.74D-06
 IDIUse=1 WtCom= 1.00D+00 WtEn= 0.00D+00
 Coeff-Com: -0.517D-02-0.705D-02 0.211D+00 0.801D+00
 Coeff:     -0.517D-02-0.705D-02 0.211D+00 0.801D+00
 Gap=     0.317 Goal=   None    Shift=    0.000
 Gap=     0.317 Goal=   None    Shift=    0.000
 RMSDP=2.60D-06 MaxDP=8.75D-05 DE=-1.36D-06 OVMax= 9.43D-05

 Cycle   5  Pass 1  IDiag  1:
 E= -83.1398243632346     Delta-E=       -0.000000063187 Rises=F Damp=F
 DIIS: error= 1.50D-05 at cycle   5 NSaved=   5.
 NSaved= 5 IEnMin= 5 EnMin= -83.1398243632346     IErMin= 5 ErrMin= 1.50D-05
 ErrMax= 1.50D-05  0.00D+00 EMaxC= 1.00D-01 BMatC= 4.21D-08 BMatP= 2.46D-07
 IDIUse=1 WtCom= 1.00D+00 WtEn= 0.00D+00
 Coeff-Com: -0.900D-04-0.107D-01 0.148D-01 0.308D+00 0.688D+00
 Coeff:     -0.900D-04-0.107D-01 0.148D-01 0.308D+00 0.688D+00
 Gap=     0.317 Goal=   None    Shift=    0.000
 Gap=     0.317 Goal=   None    Shift=    0.000
 RMSDP=7.47D-07 MaxDP=2.54D-05 DE=-6.32D-08 OVMax= 3.91D-05

 Cycle   6  Pass 1  IDiag  1:
 E= -83.1398243717063     Delta-E=       -0.000000008472 Rises=F Damp=F
 DIIS: error= 4.97D-06 at cycle   6 NSaved=   6.
 NSaved= 6 IEnMin= 6 EnMin= -83.1398243717063     IErMin= 6 ErrMin= 4.97D-06
 ErrMax= 4.97D-06  0.00D+00 EMaxC= 1.00D-01 BMatC= 3.50D-09 BMatP= 4.21D-08
 IDIUse=1 WtCom= 1.00D+00 WtEn= 0.00D+00
 Coeff-Com:  0.545D-03-0.427D-02-0.177D-01 0.364D-01 0.267D+00 0.718D+00
 Coeff:      0.545D-03-0.427D-02-0.177D-01 0.364D-01 0.267D+00 0.718D+00
 Gap=     0.317 Goal=   None    Shift=    0.000
 Gap=     0.317 Goal=   None    Shift=    0.000
 RMSDP=2.31D-07 MaxDP=5.43D-06 DE=-8.47D-09 OVMax= 8.53D-06

 Cycle   7  Pass 1  IDiag  1:
 E= -83.1398243725259     Delta-E=       -0.000000000820 Rises=F Damp=F
 DIIS: error= 2.44D-07 at cycle   7 NSaved=   7.
 NSaved= 7 IEnMin= 7 EnMin= -83.1398243725259     IErMin= 7 ErrMin= 2.44D-07
 ErrMax= 2.44D-07  0.00D+00 EMaxC= 1.00D-01 BMatC= 1.06D-11 BMatP= 3.50D-09
 IDIUse=1 WtCom= 1.00D+00 WtEn= 0.00D+00
 Coeff-Com:  0.873D-06 0.230D-03-0.136D-03-0.697D-02-0.122D-01 0.183D-01
 Coeff-Com:  0.100D+01
 Coeff:      0.873D-06 0.230D-03-0.136D-03-0.697D-02-0.122D-01 0.183D-01
 Coeff:      0.100D+01
 Gap=     0.317 Goal=   None    Shift=    0.000
 Gap=     0.317 Goal=   None    Shift=    0.000
 RMSDP=4.00D-08 MaxDP=8.61D-07 DE=-8.20D-10 OVMax= 2.01D-06

 Cycle   8  Pass 1  IDiag  1:
 E= -83.1398243725325     Delta-E=       -0.000000000007 Rises=F Damp=F
 DIIS: error= 5.05D-08 at cycle   8 NSaved=   8.
 NSaved= 8 IEnMin= 8 EnMin= -83.1398243725325     IErMin= 8 ErrMin= 5.05D-08
 ErrMax= 5.05D-08  0.00D+00 EMaxC= 1.00D-01 BMatC= 5.65D-13 BMatP= 1.06D-11
 IDIUse=1 WtCom= 1.00D+00 WtEn= 0.00D+00
 Coeff-Com: -0.146D-04 0.133D-03 0.436D-03-0.150D-02-0.810D-02-0.197D-01
 Coeff-Com:  0.281D-01 0.100D+01
 Coeff:     -0.146D-04 0.133D-03 0.436D-03-0.150D-02-0.810D-02-0.197D-01
 Coeff:      0.281D-01 0.100D+01
 Gap=     0.317 Goal=   None    Shift=    0.000
 Gap=     0.317 Goal=   None    Shift=    0.000
 RMSDP=9.38D-09 MaxDP=1.97D-07 DE=-6.66D-12 OVMax= 5.53D-07

 SCF Done:  E(UM062X) =  -83.1398243725     A.U. after    8 cycles
            NFock=  8  Conv=0.94D-08     -V/T= 2.0045
 <Sx>= 0.0000 <Sy>= 0.0000 <Sz>= 0.0000 <S**2>=-0.0000 S=-0.0000
 <L.S>=  0.00000000000    
 KE= 8.276859745166D+01 PE=-2.506162439547D+02 EE= 5.580369607890D+01
 Annihilation of the first spin contaminant:
 S**2 before annihilation    -0.0000,   after    -0.0000
 Leave Link  502 at Mon Apr 21 17:40:17 2025, MaxMem=   536870912 cpu:              56.2 elap:               7.3
 (Enter /home/szhao/Apps/g16/l701.exe)
 ... and contract with generalized density number  0.
 Compute integral first derivatives.
 Leave Link  701 at Mon Apr 21 17:40:17 2025, MaxMem=   536870912 cpu:               1.5 elap:               0.2
 (Enter /home/szhao/Apps/g16/l702.exe)
 L702 exits ... SP integral derivatives will be done elsewhere.
 Leave Link  702 at Mon Apr 21 17:40:17 2025, MaxMem=   536870912 cpu:               0.4 elap:               0.1
 (Enter /home/szhao/Apps/g16/l703.exe)
 Integral derivatives from FoFJK, PRISM(SPDF).
 Compute integral first derivatives, UseDBF=F ICtDFT=           0.
 Calling FoFJK, ICntrl=      2127 FMM=F ISym2X=0 I1Cent= 0 IOpClX= 1 NMat=1 NMatS=1 NMatT=0.
 FoFJK:  IHMeth= 1 ICntrl=    2127 DoSepK=F KAlg= 0 I1Cent=           0 FoldK=F
 IRaf=         0 NMat=       1 IRICut=       1 DoRegI=T DoRafI=F ISym2E= 0 IDoP0=0 IntGTp=1.
 FoFCou: FMM=F IPFlag=           0 FMFlag=      100000 FMFlg1=         800
         NFxFlg=           0 DoJE=F BraDBF=F KetDBF=F FulRan=T
         wScrn=  0.000000 ICntrl=      2127 IOpCl=  1 I1Cent=           0 NGrid=           0
         NMat0=    1 NMatS0=      1 NMatT0=    0 NMatD0=    1 NMtDS0=    0 NMtDT0=    0
 Symmetry not used in FoFCou.
 Leave Link  703 at Mon Apr 21 17:40:19 2025, MaxMem=   536870912 cpu:              11.2 elap:               1.4
 (Enter /home/szhao/Apps/g16/l716.exe)
 Dipole        = 7.50825704D-01 3.39563363D-05 4.16712820D-06
 -------------------------------------------------------------------
 Center     Atomic                   Forces (Hartrees/Bohr)
 Number     Number              X              Y              Z
 -------------------------------------------------------------------
      1        5          -0.000000000   -0.000000000   -0.000000000
      2        7          -0.000000000   -0.000000000   -0.000000000
      3        1          -0.000054142    0.000364623    0.000000139
      4        1           0.000869050    0.000148009   -0.000257283
      5        1          -0.000056403   -0.000180780    0.000315884
      6        1          -0.000056299   -0.000180893   -0.000315809
      7        1           0.000868759   -0.000296899   -0.000000225
      8        1           0.000869066    0.000148163    0.000257118
 -------------------------------------------------------------------
 Cartesian Forces:  Max     0.000869066 RMS     0.000349805
 Leave Link  716 at Mon Apr 21 17:40:19 2025, MaxMem=   536870912 cpu:               0.4 elap:               0.1
 (Enter /home/szhao/Apps/g16/l103.exe)

 GradGradGradGradGradGradGradGradGradGradGradGradGradGradGradGradGradGrad
 Berny optimization.
 Using GEDIIS/GDIIS optimizer.
 FormGI is forming the generalized inverse of G from B-inverse, IUseBI=4.
 Internal  Forces:  Max     0.002606876 RMS     0.000754563
 Search for a local minimum.
 Step number   3 out of a maximum of   43
 All quantities printed in internal units (Hartrees-Bohrs-Radians)
 RMS Force = .66570D-03 SwitMx=.10000D-02 MixMth= 2
 Mixed Optimization -- En-DIIS/RFO-DIIS
 Update second derivatives using D2CorX and points    1    2    3
 DE= -3.70D-03 DEPred=-4.97D-03 R= 7.46D-01
 TightC=F SS=  1.41D+00  RLast= 1.79D-01 DXNew= 8.4853D-01 5.3712D-01
 Trust test= 7.46D-01 RLast= 1.79D-01 DXMaxT set to 5.37D-01
 ITU=  1  1  0
 Use linear search instead of GDIIS.
     Eigenvalues ---    0.00230   0.05420   0.05420   0.08107   0.08107
     Eigenvalues ---    0.16000   0.16000   0.16000   0.16000   0.16002
     Eigenvalues ---    0.17093   0.24047   0.24185   0.24185   0.44893
     Eigenvalues ---    0.44893   0.449491000.000001000.000001000.00000
     Eigenvalues --- 1000.000001000.000001000.000001000.000001000.00000
     Eigenvalues --- 1000.000001000.000001000.000001000.000001000.00000
     Eigenvalues --- 1000.000001000.000001000.00000
 RFO step:  Lambda=-1.10710818D-06 EMin= 2.30000000D-03
 Quartic linear search produced a step of  0.08443.
 Iteration  1 RMS(Cart)=  0.00618001 RMS(Int)=  0.00047631
 Iteration  2 RMS(Cart)=  0.00004181 RMS(Int)=  0.00047528
 Iteration  3 RMS(Cart)=  0.00000017 RMS(Int)=  0.00047528
 ITry= 1 IFail=0 DXMaxC= 2.04D-02 DCOld= 1.00D+10 DXMaxT= 5.37D-01 DXLimC= 3.00D+00 Rises=F
 Variable       Old X    -DE/DX   Delta X   Delta X   Delta X     New X
                                 (Linear)    (Quad)   (Total)
    X1       -4.02026   0.00261   0.00000   0.00000   0.00000  -4.02026
    Y1        0.00000  -0.00000   0.00000   0.00000   0.00000   0.00000
    Z1        0.00000  -0.00000   0.00000   0.00000   0.00000   0.00000
    X2        4.02026  -0.00017   0.00000   0.00000   0.00000   4.02026
    Y2        0.00000   0.00000   0.00000   0.00000   0.00000   0.00000
    Z2        0.00000   0.00000   0.00000   0.00000   0.00000   0.00000
    R1        2.24577  -0.00031  -0.00116  -0.00002  -0.00118   2.24459
    R2        2.24576  -0.00031  -0.00117  -0.00002  -0.00118   2.24458
    R3        2.24577  -0.00031  -0.00116  -0.00002  -0.00118   2.24459
    R4        1.91502  -0.00036  -0.00005  -0.00075  -0.00080   1.91423
    R5        1.91503  -0.00036  -0.00005  -0.00075  -0.00080   1.91423
    R6        1.91503  -0.00036  -0.00005  -0.00075  -0.00080   1.91423
    A1        1.58751  -0.00193  -0.00843  -0.00058  -0.00906   1.57845
    A2        1.58753  -0.00193  -0.00843  -0.00058  -0.00905   1.57848
    A3        1.58752  -0.00193  -0.00843  -0.00058  -0.00906   1.57846
    A4        2.09391   0.00011   0.00193   0.00004   0.00039   2.09430
    A5        2.09391   0.00011   0.00193   0.00003   0.00038   2.09429
    A6        2.09392   0.00011   0.00193   0.00003   0.00038   2.09430
    A7        1.93852   0.00007   0.00001   0.00044   0.00045   1.93897
    A8        1.93845   0.00007   0.00001   0.00041   0.00041   1.93887
    A9        1.93844   0.00007   0.00001   0.00041   0.00041   1.93885
   A10        1.88199  -0.00008  -0.00001  -0.00043  -0.00044   1.88154
   A11        1.88199  -0.00008  -0.00001  -0.00044  -0.00045   1.88154
   A12        1.88200  -0.00008  -0.00001  -0.00045  -0.00046   1.88153
    D1        1.04718  -0.00000  -0.00000  -0.00000  -0.00000   1.04718
    D2       -3.14159   0.00000   0.00000   0.00001   0.00001  -3.14157
    D3       -1.04722  -0.00000  -0.00000  -0.00002  -0.00002  -1.04724
    D4        3.14158   0.00000   0.00000  -0.00000   0.00000   3.14158
[...]
    A7        1.93897   0.00002   0.00002   0.00013   0.00015   1.93913
    A8        1.93887   0.00002   0.00002   0.00009   0.00012   1.93899
    A9        1.93885   0.00002   0.00002   0.00009   0.00012   1.93897
   A10        1.88154  -0.00002  -0.00002  -0.00011  -0.00014   1.88141
   A11        1.88154  -0.00002  -0.00002  -0.00011  -0.00014   1.88141
   A12        1.88153  -0.00002  -0.00003  -0.00011  -0.00014   1.88139
    D1        1.04718  -0.00000  -0.00000  -0.00000  -0.00000   1.04718
    D2       -3.14157   0.00000   0.00000   0.00001   0.00001  -3.14157
    D3       -1.04724  -0.00000  -0.00000  -0.00001  -0.00001  -1.04725
    D4        3.14158   0.00000   0.00000   0.00000   0.00000   3.14158
    D5       -1.04718   0.00000   0.00000   0.00001   0.00001  -1.04717
    D6        1.04716  -0.00000  -0.00000  -0.00001  -0.00001   1.04715
    D7       -1.04721   0.00000   0.00000   0.00000   0.00000  -1.04721
    D8        1.04722   0.00000   0.00000   0.00001   0.00001   1.04723
    D9        3.14156  -0.00000  -0.00000  -0.00001  -0.00001   3.14155
         Item               Value     Threshold  Converged?
 Maximum Force            0.000101     0.000450     YES
 RMS     Force            0.000037     0.000300     YES
 Maximum Displacement     0.001136     0.001800     YES
 RMS     Displacement     0.000349     0.001200     YES
 Predicted change in Energy=-8.895790D-08
 Optimization completed.
    -- Stationary point found.
                           ----------------------------
                           !   Optimized Parameters   !
                           ! (Angstroms and Degrees)  !
 --------------------------                            --------------------------
 ! Name  Definition              Value          Derivative Info.                !
 --------------------------------------------------------------------------------
 ! X1    R(1,-1)                -2.1274         -DE/DX =    0.0001              !
 ! Y1    R(1,-2)                 0.0            -DE/DX =    0.0                 !
 ! Z1    R(1,-3)                 0.0            -DE/DX =    0.0                 !
 ! X2    R(2,-1)                 2.1274         -DE/DX =    0.0001              !
 ! Y2    R(2,-2)                 0.0            -DE/DX =    0.0                 !
 ! Z2    R(2,-3)                 0.0            -DE/DX =    0.0                 !
 ! R1    R(1,4)                  1.1878         -DE/DX =    0.0                 !
 ! R2    R(1,7)                  1.1878         -DE/DX =    0.0                 !
 ! R3    R(1,8)                  1.1878         -DE/DX =    0.0                 !
 ! R4    R(2,3)                  1.013          -DE/DX =    0.0                 !
 ! R5    R(2,5)                  1.013          -DE/DX =    0.0                 !
 ! R6    R(2,6)                  1.013          -DE/DX =    0.0                 !
 ! A1    A(2,1,4)               90.4385         -DE/DX =   -0.0001              !
 ! A2    A(2,1,7)               90.4401         -DE/DX =   -0.0001              !
 ! A3    A(2,1,8)               90.4394         -DE/DX =   -0.0001              !
 ! A4    A(4,1,7)              119.9943         -DE/DX =    0.0                 !
 ! A5    A(4,1,8)              119.9937         -DE/DX =    0.0                 !
 ! A6    A(7,1,8)              119.9945         -DE/DX =    0.0                 !
 ! A7    A(1,2,3)              111.095          -DE/DX =    0.0                 !
 ! A8    A(1,2,5)              111.0889         -DE/DX =    0.0                 !
 ! A9    A(1,2,6)              111.0881         -DE/DX =    0.0                 !
 ! A10   A(3,2,5)              107.8045         -DE/DX =    0.0                 !
 ! A11   A(3,2,6)              107.8045         -DE/DX =    0.0                 !
 ! A12   A(5,2,6)              107.8039         -DE/DX =    0.0                 !
 ! D1    D(4,1,2,3)             59.9991         -DE/DX =    0.0                 !
 ! D2    D(4,1,2,5)           -179.999          -DE/DX =    0.0                 !
 ! D3    D(4,1,2,6)            -60.0024         -DE/DX =    0.0                 !
 ! D4    D(7,1,2,3)            179.9992         -DE/DX =    0.0                 !
 ! D5    D(7,1,2,5)            -59.9988         -DE/DX =    0.0                 !
 ! D6    D(7,1,2,6)             59.9978         -DE/DX =    0.0                 !
 ! D7    D(8,1,2,3)            -60.0005         -DE/DX =    0.0                 !
 ! D8    D(8,1,2,5)             60.0015         -DE/DX =    0.0                 !
 ! D9    D(8,1,2,6)            179.9981         -DE/DX =    0.0                 !
 --------------------------------------------------------------------------------
 Lowest energy point so far.  Saving SCF results.
 Largest change from initial coordinates is atom    8       0.300 Angstoms.
 GradGradGradGradGradGradGradGradGradGradGradGradGradGradGradGradGradGrad

 Leave Link  103 at Mon Apr 21 17:40:30 2025, MaxMem=   536870912 cpu:               0.5 elap:               0.1
 (Enter /home/szhao/Apps/g16/l202.exe)
                          Input orientation:                          
 ---------------------------------------------------------------------
 Center     Atomic      Atomic             Coordinates (Angstroms)
 Number     Number       Type             X           Y           Z
 ---------------------------------------------------------------------
      1          5           0       -2.127429    0.000000    0.000000
      2          7           0        2.127429    0.000000    0.000000
      3          1           0        2.492011   -0.945081    0.000002
      4          1           0       -2.136520   -0.593890    1.028614
      5          1           0        2.491912    0.472587   -0.818485
      6          1           0        2.491899    0.472586    0.818491
      7          1           0       -2.136553    1.187746    0.000013
      8          1           0       -2.136538   -0.593870   -1.028626
 ---------------------------------------------------------------------
                    Distance matrix (angstroms):
                    1          2          3          4          5
     1  B    0.000000
     2  N    4.254858   0.000000
     3  H    4.715125   1.012965   0.000000
     4  H    1.187786   4.426287   4.754437   0.000000
     5  H    4.715036   1.012968   1.636980   5.096227   0.000000
     6  H    4.715024   1.012968   1.636980   4.754344   1.636976
     7  H    1.187781   4.426317   5.096327   2.057243   4.754374
     8  H    1.187786   4.426303   4.754459   2.057240   4.754370
                    6          7          8
     6  H    0.000000
     7  H    4.754358   0.000000
     8  H    5.096233   2.057244   0.000000
 Symmetry turned off by external request.
 Stoichiometry    BH6N
 Framework group  C1[X(BH6N)]
 Deg. of freedom    18
 Full point group                 C1      NOp   1
 Rotational constants (GHZ):          72.5490689           3.4267495           3.4267490
 Leave Link  202 at Mon Apr 21 17:40:30 2025, MaxMem=   536870912 cpu:               0.2 elap:               0.1
 (Enter /home/szhao/Apps/g16/l601.exe)
 Copying SCF densities to generalized density rwf, IOpCl= 1 IROHF=0.

 **********************************************************************

            Population analysis using the SCF density.

 **********************************************************************

 Alpha  occ. eigenvalues --  -14.72711  -7.04473  -0.96009  -0.57736  -0.53839
 Alpha  occ. eigenvalues --   -0.53839  -0.40141  -0.40140  -0.34055
 Alpha virt. eigenvalues --   -0.02382   0.02692   0.04742   0.04742   0.04878
 Alpha virt. eigenvalues --    0.08550   0.10597   0.10597   0.16789   0.18055
 Alpha virt. eigenvalues --    0.18055   0.18949   0.18949   0.21910   0.27343
 Alpha virt. eigenvalues --    0.36221   0.36221   0.42053   0.46501   0.52965
 Alpha virt. eigenvalues --    0.52966   0.58444   0.58444   0.65329   0.66053
 Alpha virt. eigenvalues --    0.76989   0.76989   0.83075   0.83075   0.86553
 Alpha virt. eigenvalues --    1.00710   1.09959   1.15676   1.15676   1.16530
 Alpha virt. eigenvalues --    1.16531   1.41872   1.56233   1.60855   1.63870
 Alpha virt. eigenvalues --    1.71661   1.71662   1.77813   1.77814   1.87504
 Alpha virt. eigenvalues --    1.87504   1.92196   1.97290   1.97291   2.03343
 Alpha virt. eigenvalues --    2.03343   2.23832   2.31684   2.50898   2.50899
 Alpha virt. eigenvalues --    2.58262   2.58262   2.64861   2.69579   2.69579
 Alpha virt. eigenvalues --    2.73068   2.73068   2.83355   2.85656   3.09234
 Alpha virt. eigenvalues --    3.09234   4.16417   4.80183   4.80184  14.57855
 Alpha virt. eigenvalues --   35.71714
  Beta  occ. eigenvalues --  -14.72711  -7.04473  -0.96009  -0.57736  -0.53839
  Beta  occ. eigenvalues --   -0.53839  -0.40141  -0.40140  -0.34055
  Beta virt. eigenvalues --   -0.02382   0.02692   0.04742   0.04742   0.04878
  Beta virt. eigenvalues --    0.08550   0.10597   0.10597   0.16789   0.18055
  Beta virt. eigenvalues --    0.18055   0.18949   0.18949   0.21910   0.27343
  Beta virt. eigenvalues --    0.36221   0.36221   0.42053   0.46501   0.52965
  Beta virt. eigenvalues --    0.52966   0.58444   0.58444   0.65329   0.66053
  Beta virt. eigenvalues --    0.76989   0.76989   0.83075   0.83075   0.86553
  Beta virt. eigenvalues --    1.00710   1.09959   1.15676   1.15676   1.16530
  Beta virt. eigenvalues --    1.16531   1.41872   1.56233   1.60855   1.63870
  Beta virt. eigenvalues --    1.71661   1.71662   1.77813   1.77814   1.87504
  Beta virt. eigenvalues --    1.87504   1.92196   1.97290   1.97291   2.03343
  Beta virt. eigenvalues --    2.03343   2.23832   2.31684   2.50898   2.50899
  Beta virt. eigenvalues --    2.58262   2.58262   2.64861   2.69579   2.69579
  Beta virt. eigenvalues --    2.73068   2.73068   2.83355   2.85656   3.09234
  Beta virt. eigenvalues --    3.09234   4.16417   4.80183   4.80184  14.57855
  Beta virt. eigenvalues --   35.71714
          Condensed to atoms (all electrons):
               1          2          3          4          5          6
     1  B    3.724172  -0.001601   0.000098   0.417870   0.000098   0.000098
     2  N   -0.001601   6.594542   0.379551  -0.000339   0.379549   0.379550
     3  H    0.000098   0.379551   0.441162   0.000016  -0.032593  -0.032593
     4  H    0.417870  -0.000339   0.000016   0.648813   0.000005   0.000016
     5  H    0.000098   0.379549  -0.032593   0.000005   0.441163  -0.032594
     6  H    0.000098   0.379550  -0.032593   0.000016  -0.032594   0.441163
     7  H    0.417863  -0.000340   0.000005  -0.028862   0.000016   0.000016
     8  H    0.417870  -0.000339   0.000016  -0.028865   0.000016   0.000005
               7          8
     1  B    0.417863   0.417870
     2  N   -0.000340  -0.000339
     3  H    0.000005   0.000016
     4  H   -0.028862  -0.028865
     5  H    0.000016   0.000016
     6  H    0.000016   0.000005
     7  H    0.648831  -0.028861
     8  H   -0.028861   0.648813
          Atomic-Atomic Spin Densities.
               1          2          3          4          5          6
     1  B    0.000000   0.000000  -0.000000  -0.000000   0.000000   0.000000
     2  N    0.000000  -0.000000   0.000000  -0.000000   0.000000  -0.000000
     3  H   -0.000000   0.000000  -0.000000   0.000000  -0.000000  -0.000000
     4  H   -0.000000  -0.000000   0.000000  -0.000000  -0.000000   0.000000
     5  H    0.000000   0.000000  -0.000000  -0.000000   0.000000   0.000000
     6  H    0.000000  -0.000000  -0.000000   0.000000   0.000000   0.000000
     7  H   -0.000000   0.000000   0.000000  -0.000000  -0.000000  -0.000000
     8  H   -0.000000  -0.000000   0.000000  -0.000000  -0.000000  -0.000000
               7          8
     1  B   -0.000000  -0.000000
     2  N    0.000000  -0.000000
     3  H    0.000000   0.000000
     4  H   -0.000000  -0.000000
     5  H   -0.000000  -0.000000
     6  H   -0.000000  -0.000000
     7  H    0.000000  -0.000000
     8  H   -0.000000  -0.000000
 Mulliken charges and spin densities:
               1          2
     1  B    0.023532   0.000000
     2  N   -0.730572  -0.000000
     3  H    0.244339   0.000000
     4  H   -0.008655  -0.000000
     5  H    0.244340   0.000000
     6  H    0.244340  -0.000000
     7  H   -0.008669   0.000000
     8  H   -0.008655  -0.000000
 Sum of Mulliken charges =  -0.00000   0.00000
 Mulliken charges and spin densities with hydrogens summed into heavy atoms:
               1          2
     1  B   -0.002447  -0.000000
     2  N    0.002447   0.000000
 Electronic spatial extent (au):  <R**2>=            364.2146
 Charge=             -0.0000 electrons
 Dipole moment (field-independent basis, Debye):
    X=              1.8851    Y=              0.0001    Z=              0.0000  Tot=              1.8851
 Quadrupole moment (field-independent basis, Debye-Ang):
   XX=             -9.3121   YY=            -15.6217   ZZ=            -15.6217
   XY=              0.0001   XZ=             -0.0000   YZ=              0.0000
 Traceless Quadrupole moment (field-independent basis, Debye-Ang):
   XX=              4.2064   YY=             -2.1032   ZZ=             -2.1032
   XY=              0.0001   XZ=             -0.0000   YZ=              0.0000
 Octapole moment (field-independent basis, Debye-Ang**2):
  XXX=             11.2239  YYY=             -0.8322  ZZZ=             -0.0000  XYY=              6.9498
  XXY=             -0.0006  XXZ=              0.0000  XZZ=              6.9496  YZZ=              0.8323
  YYZ=              0.0000  XYZ=             -0.0000
 Hexadecapole moment (field-independent basis, Debye-Ang**3):
 XXXX=           -416.1686 YYYY=            -35.0122 ZZZZ=            -35.0121 XXXY=             -0.0019
 XXXZ=             -0.0006 YYYX=             -2.7088 YYYZ=             -0.0000 ZZZX=             -0.0000
 ZZZY=              0.0000 XXYY=            -79.4977 XXZZ=            -79.4986 YYZZ=            -11.6706
 XXYZ=             -0.0000 YYXZ=             -0.0000 ZZXY=              2.7088
 N-N= 2.892104819710D+01 E-N=-2.506546785034D+02  KE= 8.277292128240D+01
                          Isotropic Fermi Contact Couplings
        Atom                 a.u.       MegaHertz       Gauss      10(-4) cm-1
     1  B(11)              0.00000       0.00000       0.00000       0.00000
     2  N(14)              0.00000       0.00000       0.00000       0.00000
     3  H(1)              -0.00000      -0.00000      -0.00000      -0.00000
     4  H(1)              -0.00000      -0.00000      -0.00000      -0.00000
     5  H(1)               0.00000       0.00000       0.00000       0.00000
     6  H(1)              -0.00000      -0.00000      -0.00000      -0.00000
     7  H(1)               0.00000       0.00000       0.00000       0.00000
     8  H(1)              -0.00000      -0.00000      -0.00000      -0.00000
 --------------------------------------------------------
       Center         ----  Spin Dipole Couplings  ----
                      3XX-RR        3YY-RR        3ZZ-RR
 --------------------------------------------------------
     1   Atom        0.000000      0.000000      0.000000
     2   Atom        0.000000      0.000000      0.000000
     3   Atom        0.000000      0.000000      0.000000
     4   Atom        0.000000      0.000000      0.000000
     5   Atom        0.000000      0.000000      0.000000
     6   Atom        0.000000      0.000000      0.000000
     7   Atom        0.000000      0.000000      0.000000
     8   Atom        0.000000      0.000000      0.000000
 --------------------------------------------------------
                        XY            XZ            YZ
 --------------------------------------------------------
     1   Atom        0.000000      0.000000      0.000000
     2   Atom        0.000000      0.000000      0.000000
     3   Atom        0.000000      0.000000      0.000000
     4   Atom        0.000000      0.000000      0.000000
     5   Atom        0.000000      0.000000      0.000000
     6   Atom        0.000000      0.000000      0.000000
     7   Atom        0.000000      0.000000      0.000000
     8   Atom        0.000000      0.000000      0.000000
 --------------------------------------------------------


 ---------------------------------------------------------------------------------
              Anisotropic Spin Dipole Couplings in Principal Axis System
 ---------------------------------------------------------------------------------

       Atom             a.u.   MegaHertz   Gauss  10(-4) cm-1        Axes

              Baa     0.0000     0.000     0.000     0.000  1.0000  0.0000  0.0000
     1 B(11)  Bbb     0.0000     0.000     0.000     0.000 -0.0000  1.0000  0.0000
              Bcc     0.0000     0.000     0.000     0.000  0.0000  0.0000  1.0000
 
              Baa     0.0000     0.000     0.000     0.000  1.0000  0.0000  0.0000
     2 N(14)  Bbb     0.0000     0.000     0.000     0.000 -0.0000  1.0000  0.0000
              Bcc     0.0000     0.000     0.000     0.000  0.0000  0.0000  1.0000
 
              Baa     0.0000     0.000     0.000     0.000  1.0000  0.0000  0.0000
     3 H(1)   Bbb     0.0000     0.000     0.000     0.000 -0.0000  1.0000  0.0000
              Bcc     0.0000     0.000     0.000     0.000  0.0000  0.0000  1.0000
 
              Baa     0.0000     0.000     0.000     0.000  1.0000  0.0000  0.0000
     4 H(1)   Bbb     0.0000     0.000     0.000     0.000 -0.0000  1.0000  0.0000
              Bcc     0.0000     0.000     0.000     0.000  0.0000  0.0000  1.0000
 
              Baa     0.0000     0.000     0.000     0.000  1.0000  0.0000  0.0000
     5 H(1)   Bbb     0.0000     0.000     0.000     0.000 -0.0000  1.0000  0.0000
              Bcc     0.0000     0.000     0.000     0.000  0.0000  0.0000  1.0000
 
              Baa     0.0000     0.000     0.000     0.000  1.0000  0.0000  0.0000
     6 H(1)   Bbb     0.0000     0.000     0.000     0.000 -0.0000  1.0000  0.0000
              Bcc     0.0000     0.000     0.000     0.000  0.0000  0.0000  1.0000
 
              Baa     0.0000     0.000     0.000     0.000  1.0000  0.0000  0.0000
     7 H(1)   Bbb     0.0000     0.000     0.000     0.000 -0.0000  1.0000  0.0000
              Bcc     0.0000     0.000     0.000     0.000  0.0000  0.0000  1.0000
 
              Baa     0.0000     0.000     0.000     0.000  1.0000  0.0000  0.0000
     8 H(1)   Bbb     0.0000     0.000     0.000     0.000 -0.0000  1.0000  0.0000
              Bcc     0.0000     0.000     0.000     0.000  0.0000  0.0000  1.0000
 

 ---------------------------------------------------------------------------------

 No NMR shielding tensors so no spin-rotation constants.
 Leave Link  601 at Mon Apr 21 17:40:30 2025, MaxMem=   536870912 cpu:               1.4 elap:               0.2
 (Enter /home/szhao/Apps/g16/l9999.exe)
 1\1\GINC-NODE06\FOpt\UM062X\6-311+G(d,p)\B1H6N1\SZHAO\21-Apr-2025\0\\#
 p opt UM062X/6-311+G** nosymm int=superfine\\Title Card Required\\0,1\
 B,-2.12742901,0.,0.\N,2.12742901,0.,0.\H,2.4920106726,-0.9450807381,0.
 000002232\H,-2.1365200397,-0.5938898359,1.0286141951\H,2.4919116969,0.
 4725874213,-0.8184845861\H,2.49189858,0.4725864254,0.8184909442\H,-2.1
 365528397,1.1877462941,0.0000134051\H,-2.1365375718,-0.593869604,-1.02
 86255545\\Version=ES64L-G16RevA.03\HF=-83.1398532\S2=0.\S2-1=0.\S2A=0.
 \RMSD=2.464e-09\RMSF=2.168e-05\Dipole=0.7416548,0.0000564,0.0000049\Qu
 adrupole=3.1273699,-1.5636756,-1.5636943,0.0000984,-0.0000065,0.000001
 7\PG=C01 [X(B1H6N1)]\\@


 IN SO FAR AS QUANTUM MECHANICS IS CORRECT, CHEMICAL 
 QUESTIONS ARE PROBLEMS IN APPLIED MATHEMATICS.

                    -- EYRING, WALTER, & KIMBALL, 1944
 Job cpu time:       0 days  0 hours  5 minutes 31.2 seconds.
 Elapsed time:       0 days  0 hours  0 minutes 44.9 seconds.
 File lengths (MBytes):  RWF=     22 Int=      0 D2E=      0 Chk=      3 Scr=      2
 Normal termination of Gaussian 16 at Mon Apr 21 17:40:30 2025.
