 Entering Gaussian System, Link 0=g16
 Initial command:
 /home/szhao/Apps/g16/l1.exe "/home/szhao/tmp/Gau-27939.inp" -scrdir="/home/szhao/tmp/"
 Default is to use a total of  16 processors:
                               16 via shared-memory
                                1 via Linda
 Entering Link 1 = /home/szhao/Apps/g16/l1.exe PID=     27941.
  
 Copyright (c) 1988,1990,1992,1993,1995,1998,2003,2009,2016,
            Gaussian, Inc.  All Rights Reserved.
  
 This is part of the Gaussian(R) 16 program.  It is based on
 the Gaussian(R) 09 system (copyright 2009, Gaussian, Inc.),
 the Gaussian(R) 03 system (copyright 2003, Gaussian, Inc.),
 the Gaussian(R) 98 system (copyright 1998, Gaussian, Inc.),
 the Gaussian(R) 94 system (copyright 1995, Gaussian, Inc.),
 the Gaussian 92(TM) system (copyright 1992, Gaussian, Inc.),
 the Gaussian 90(TM) system (copyright 1990, Gaussian, Inc.),
 the Gaussian 88(TM) system (copyright 1988, Gaussian, Inc.),
 the Gaussian 86(TM) system (copyright 1986, Carnegie Mellon
 University), and the Gaussian 82(TM) system (copyright 1983,
 Carnegie Mellon University). Gaussian is a federally registered
 trademark of Gaussian, Inc.
  
 This software contains proprietary and confidential information,
 including trade secrets, belonging to Gaussian, Inc.
  
 This software is provided under written license and may be
 used, copied, transmitted, or stored only in accord with that
 written license.
  
 The following legend is applicable only to US Government
 contracts under FAR:
  
                    RESTRICTED RIGHTS LEGEND
  
 Use, reproduction and disclosure by the US Government is
 subject to restrictions as set forth in subparagraphs (a)
 and (c) of the Commercial Computer Software - Restricted
 Rights clause in FAR 52.227-19.
  
 Gaussian, Inc.
 340 Quinnipiac St., Bldg. 40, Wallingford CT 06492
  
  
 ---------------------------------------------------------------
 Warning -- This program may not be used in any manner that
 competes with the business of Gaussian, Inc. or will provide
 assistance to any competitor of Gaussian, Inc.  The licensee
 of this program is prohibited from giving any competitor of
 Gaussian, Inc. access to this program.  By using this program,
 the user acknowledges that Gaussian, Inc. is engaged in the
 business of creating and licensing software in the field of
 computational chemistry and represents and warrants to the
 licensee that it is not a competitor of Gaussian, Inc. and that
 it will not use this program in any manner prohibited above.
 ---------------------------------------------------------------
  

 Cite this work as:
 Gaussian 16, Revision A.03,
 M. J. Frisch, G. W. Trucks, H. B. Schlegel, G. E. Scuseria, 
 M. A. Robb, J. R. Cheeseman, G. Scalmani, V. Barone, 
 G. A. Petersson, H. Nakatsuji, X. Li, M. Caricato, A. V. Marenich, 
 J. Bloino, B. G. Janesko, R. Gomperts, B. Mennucci, H. P. Hratchian, 
 J. V. Ortiz, A. F. Izmaylov, J. L. Sonnenberg, D. Williams-Young, 
 F. Ding, F. Lipparini, F. Egidi, J. Goings, B. Peng, A. Petrone, 
 T. Henderson, D. Ranasinghe, V. G. Zakrzewski, J. Gao, N. Rega, 
 G. Zheng, W. Liang, M. Hada, M. Ehara, K. Toyota, R. Fukuda, 
 J. Hasegawa, M. Ishida, T. Nakajima, Y. Honda, O. Kitao, H. Nakai, 
 T. Vreven, K. Throssell, J. A. Montgomery, Jr., J. E. Peralta, 
 F. Ogliaro, M. J. Bearpark, J. J. Heyd, E. N. Brothers, K. N. Kudin, 
 V. N. Staroverov, T. A. Keith, R. Kobayashi, J. Normand, 
 K. Raghavachari, A. P. Rendell, J. C. Burant, S. S. Iyengar, 
 J. Tomasi, M. Cossi, J. M. Millam, M. Klene, C. Adamo, R. Cammi, 
 J. W. Ochterski, R. L. Martin, K. Morokuma, O. Farkas, 
 J. B. Foresman, and D. J. Fox, Gaussian, Inc., Wallingford CT, 2016.
 
 ******************************************
 Gaussian 16:  ES64L-G16RevA.03 25-Dec-2016
                19-Nov-2024 
 ******************************************
 %chk=opt.chk
 %mem=4GB
 %nprocshared=8
 Will use up to    8 processors via shared memory.
 ---------------------------------------
 #p UM062X/6-311+G** force int=superfine
 ---------------------------------------
 1/10=7,30=1,38=1/1,3;
 2/12=2,17=6,18=5,40=1/2;
 3/5=4,6=6,7=111,11=2,25=1,30=1,71=1,74=-55,75=-7,116=2/1,2,3;
 4//1;
 5/5=2,38=5/2;
 6/7=2,8=2,9=2,10=2,28=1/1;
 7/29=1/1,2,3,16;
 1/10=7,30=1/3;
 99//99;
 Leave Link    1 at Tue Nov 19 11:40:54 2024, MaxMem=   536870912 cpu:               1.0 elap:               0.1
 (Enter /home/szhao/Apps/g16/l101.exe)
 -------------------
 Title Card Required
 -------------------
 Symbolic Z-matrix:
 Charge =  0 Multiplicity = 1
 C                    -0.47064   0.        0. 
 C                     0.47064   0.        0. 
 H                    -1.12931  -0.88      0. 
 H                    -1.12936   0.87987   0. 
 H                     1.12931   0.88      0. 
 H                     1.12936  -0.87987   0. 
 
 ITRead=  0  0  0  0  0  0
 MicOpt= -1 -1 -1 -1 -1 -1
 NAtoms=      6 NQM=        6 NQMF=       0 NMMI=      0 NMMIF=      0
                NMic=       0 NMicF=      0.
                    Isotopes and Nuclear Properties:
 (Nuclear quadrupole moments (NQMom) in fm**2, nuclear magnetic moments (NMagM)
  in nuclear magnetons)

  Atom         1           2           3           4           5           6
 IAtWgt=          12          12           1           1           1           1
 AtmWgt=  12.0000000  12.0000000   1.0078250   1.0078250   1.0078250   1.0078250
 NucSpn=           0           0           1           1           1           1
 AtZEff=  -0.0000000  -0.0000000  -0.0000000  -0.0000000  -0.0000000  -0.0000000
 NQMom=    0.0000000   0.0000000   0.0000000   0.0000000   0.0000000   0.0000000
 NMagM=    0.0000000   0.0000000   2.7928460   2.7928460   2.7928460   2.7928460
 AtZNuc=   6.0000000   6.0000000   1.0000000   1.0000000   1.0000000   1.0000000
 Leave Link  101 at Tue Nov 19 11:40:55 2024, MaxMem=   536870912 cpu:               2.1 elap:               0.3
 (Enter /home/szhao/Apps/g16/l103.exe)

 GradGradGradGradGradGradGradGradGradGradGradGradGradGradGradGradGradGrad
 Berny optimization.
 Initialization pass.
 Trust Radius=3.00D-01 FncErr=1.00D-07 GrdErr=1.00D-07 EigMax=2.50D+02 EigMin=1.00D-04
 Number of steps in this run=      2 maximum allowed number of steps=      2.
 GradGradGradGradGradGradGradGradGradGradGradGradGradGradGradGradGradGrad

 Leave Link  103 at Tue Nov 19 11:40:56 2024, MaxMem=   536870912 cpu:               0.6 elap:               0.1
 (Enter /home/szhao/Apps/g16/l202.exe)
                          Input orientation:                          
 ---------------------------------------------------------------------
 Center     Atomic      Atomic             Coordinates (Angstroms)
 Number     Number       Type             X           Y           Z
 ---------------------------------------------------------------------
      1          6           0       -0.470639    0.000000    0.000000
      2          6           0        0.470639    0.000000    0.000000
      3          1           0       -1.129308   -0.879997    0.000000
      4          1           0       -1.129362    0.879869    0.000000
      5          1           0        1.129308    0.879997    0.000000
      6          1           0        1.129362   -0.879869    0.000000
 ---------------------------------------------------------------------
                    Distance matrix (angstroms):
                    1          2          3          4          5
     1  C    0.000000
     2  C    0.941278   0.000000
     3  H    1.099200   1.825986   0.000000
     4  H    1.099129   1.825972   1.759866   0.000000
     5  H    1.825986   1.099200   2.863377   2.258670   0.000000
     6  H    1.825972   1.099129   2.258670   2.863304   1.759866
                    6
     6  H    0.000000
 Stoichiometry    C2H4
 Framework group  C2H[SGH(C2H4)]
 Deg. of freedom     5
 Full point group                 C2H     NOp   4
 Largest Abelian subgroup         C2H     NOp   4
 Largest concise Abelian subgroup C2      NOp   2
                         Standard orientation:                         
 ---------------------------------------------------------------------
 Center     Atomic      Atomic             Coordinates (Angstroms)
 Number     Number       Type             X           Y           Z
 ---------------------------------------------------------------------
      1          6           0        0.000000    0.470639    0.000000
      2          6           0       -0.000000   -0.470639    0.000000
      3          1           0        0.879997    1.129308    0.000000
      4          1           0       -0.879869    1.129362    0.000000
      5          1           0       -0.879997   -1.129308    0.000000
      6          1           0        0.879869   -1.129362   -0.000000
 ---------------------------------------------------------------------
 Rotational constants (GHZ):         161.9096944          48.3267771          37.2179654
 Leave Link  202 at Tue Nov 19 11:40:56 2024, MaxMem=   536870912 cpu:               0.1 elap:               0.0
 (Enter /home/szhao/Apps/g16/l301.exe)
 Standard basis: 6-311+G(d,p) (5D, 7F)
 Ernie: Thresh=  0.10000D-02 Tol=  0.10000D-05 Strict=F.
 There are    27 symmetry adapted cartesian basis functions of AG  symmetry.
 There are     8 symmetry adapted cartesian basis functions of BG  symmetry.
 There are     8 symmetry adapted cartesian basis functions of AU  symmetry.
 There are    27 symmetry adapted cartesian basis functions of BU  symmetry.
 There are    26 symmetry adapted basis functions of AG  symmetry.
 There are     8 symmetry adapted basis functions of BG  symmetry.
 There are     8 symmetry adapted basis functions of AU  symmetry.
 There are    26 symmetry adapted basis functions of BU  symmetry.
    68 basis functions,   104 primitive gaussians,    70 cartesian basis functions
     8 alpha electrons        8 beta electrons
       nuclear repulsion energy        40.1881983220 Hartrees.
 IExCor= 4336 DFT=T Ex+Corr=M062X ExCW=0 ScaHFX=  0.540000
 ScaDFX=  1.000000  1.000000  1.000000  1.000000 ScalE2=  1.000000  1.000000
 IRadAn=      7 IRanWt=     -1 IRanGd=            0 ICorTp=0 IEmpDi=  4
 NAtoms=    6 NActive=    6 NUniq=    3 SFac= 4.00D+00 NAtFMM=   60 NAOKFM=F Big=F
 Integral buffers will be    131072 words long.
 Raffenetti 2 integral format.
 Two-electron integral symmetry is turned on.
 Leave Link  301 at Tue Nov 19 11:40:56 2024, MaxMem=   536870912 cpu:               0.7 elap:               0.1
 (Enter /home/szhao/Apps/g16/l302.exe)
 NPDir=0 NMtPBC=     1 NCelOv=     1 NCel=       1 NClECP=     1 NCelD=      1
         NCelK=      1 NCelE2=     1 NClLst=     1 CellRange=     0.0.
 One-electron integrals computed using PRISM.
 One-electron integral symmetry used in STVInt
 NBasis=    68 RedAO= T EigKep=  2.02D-05  NBF=    26     8     8    26
 NBsUse=    68 1.00D-06 EigRej= -1.00D+00 NBFU=    26     8     8    26
 Precomputing XC quadrature grid using
 IXCGrd= 4 IRadAn=           7 IRanWt=          -1 IRanGd=           0 AccXCQ= 0.00D+00.
 Generated NRdTot=       0 NPtTot=           0 NUsed=           0 NTot=          32
 NSgBfM=    70    70    70    70    70 MxSgAt=     6 MxSgA2=     6.
 Leave Link  302 at Tue Nov 19 11:40:56 2024, MaxMem=   536870912 cpu:               2.1 elap:               0.3
 (Enter /home/szhao/Apps/g16/l303.exe)
 DipDrv:  MaxL=1.
 Leave Link  303 at Tue Nov 19 11:40:56 2024, MaxMem=   536870912 cpu:               0.5 elap:               0.1
 (Enter /home/szhao/Apps/g16/l401.exe)
 ExpMin= 4.38D-02 ExpMax= 4.56D+03 ExpMxC= 6.82D+02 IAcc=3 IRadAn=         7 AccDes= 0.00D+00
 Harris functional with IExCor= 1009 and IRadAn=       7 diagonalized for initial guess.
 HarFok:  IExCor= 1009 AccDes= 0.00D+00 IRadAn=         7 IDoV= 1 UseB2=F ITyADJ=14
 ICtDFT=  3500011 ScaDFX=  1.000000  1.000000  1.000000  1.000000
 FoFCou: FMM=F IPFlag=           0 FMFlag=      100000 FMFlg1=           0
         NFxFlg=           0 DoJE=T BraDBF=F KetDBF=T FulRan=T
         wScrn=  0.000000 ICntrl=       500 IOpCl=  0 I1Cent=   200000004 NGrid=           0
         NMat0=    1 NMatS0=      1 NMatT0=    0 NMatD0=    1 NMtDS0=    0 NMtDT0=    0
 Petite list used in FoFCou.
 Harris En= -78.3845736313435    
 JPrj=0 DoOrth=F DoCkMO=F.
 Initial guess orbital symmetries:
 Alpha Orbitals:
       Occupied  (AG) (BU) (AG) (BU) (BU) (AG) (AU) (AG)
       Virtual   (BG) (BU) (AG) (BU) (AU) (AG) (AG) (AG) (BU) (BG)
                 (BU) (BU) (AG) (AG) (BU) (BU) (AU) (AG) (BU) (BU)
                 (BG) (AG) (AG) (BU) (AG) (BG) (AU) (BU) (AU) (AG)
                 (BU) (AG) (AG) (BG) (BG) (BU) (BU) (AU) (BU) (AG)
                 (AG) (AU) (AG) (BG) (BU) (BU) (AU) (AG) (BU) (BU)
                 (AG) (BG) (BU) (BU) (AG) (BU) (AG) (AG) (AG) (BU)
 Beta  Orbitals:
       Occupied  (AG) (BU) (AG) (BU) (BU) (AG) (AU) (AG)
       Virtual   (BG) (BU) (AG) (BU) (AU) (AG) (AG) (AG) (BU) (BG)
                 (BU) (BU) (AG) (AG) (BU) (BU) (AU) (AG) (BU) (BU)
                 (BG) (AG) (AG) (BU) (AG) (BG) (AU) (BU) (AU) (AG)
                 (BU) (AG) (AG) (BG) (BG) (BU) (BU) (AU) (BU) (AG)
                 (AG) (AU) (AG) (BG) (BU) (BU) (AU) (AG) (BU) (BU)
                 (AG) (BG) (BU) (BU) (AG) (BU) (AG) (AG) (AG) (BU)
 The electronic state of the initial guess is 1-AG.
 Initial guess <Sx>= 0.0000 <Sy>= 0.0000 <Sz>= 0.0000 <S**2>=-0.0000 S=-0.0000
 Leave Link  401 at Tue Nov 19 11:40:57 2024, MaxMem=   536870912 cpu:               2.4 elap:               0.4
 (Enter /home/szhao/Apps/g16/l502.exe)
 Keep R1 and R2 ints in memory in symmetry-blocked form, NReq=9935231.
 FoFCou: FMM=F IPFlag=           0 FMFlag=           0 FMFlg1=           0
         NFxFlg=           0 DoJE=F BraDBF=F KetDBF=F FulRan=T
         wScrn=  0.000000 ICntrl=       600 IOpCl=  0 I1Cent=           0 NGrid=           0
         NMat0=    1 NMatS0=   2346 NMatT0=    0 NMatD0=    1 NMtDS0=    0 NMtDT0=    0
 Petite list used in FoFCou.
 UHF open shell SCF:
 Using DIIS extrapolation, IDIIS=  1040.
 NGot=   536870912 LenX=   535358062 LenY=   535352721
 Requested convergence on RMS density matrix=1.00D-08 within 128 cycles.
 Requested convergence on MAX density matrix=1.00D-06.
 Requested convergence on             energy=1.00D-06.
 No special actions if energy rises.

 Cycle   1  Pass 1  IDiag  1:
 E= -77.8485165435704    
 DIIS: error= 1.07D-01 at cycle   1 NSaved=   1.
 NSaved= 1 IEnMin= 1 EnMin= -77.8485165435704     IErMin= 1 ErrMin= 1.07D-01
 ErrMax= 1.07D-01  0.00D+00 EMaxC= 1.00D-01 BMatC= 1.59D+00 BMatP= 1.59D+00
 IDIUse=3 WtCom= 0.00D+00 WtEn= 1.00D+00
 Coeff-Com:  0.100D+01
 Coeff-En:   0.100D+01
 Coeff:      0.100D+01
 Gap=     0.209 Goal=   None    Shift=    0.000
 Gap=     0.209 Goal=   None    Shift=    0.000
 GapD=    0.209 DampG=1.000 DampE=0.250 DampFc=0.2500 IDamp=-1.
 Damping current iteration by 2.50D-01
 RMSDP=9.96D-03 MaxDP=1.63D-01              OVMax= 3.15D-01

 Cycle   2  Pass 1  IDiag  1:
 E= -77.9718329450017     Delta-E=       -0.123316401431 Rises=F Damp=T
 DIIS: error= 5.62D-02 at cycle   2 NSaved=   2.
 NSaved= 2 IEnMin= 2 EnMin= -77.9718329450017     IErMin= 2 ErrMin= 5.62D-02
 ErrMax= 5.62D-02  0.00D+00 EMaxC= 1.00D-01 BMatC= 4.59D-01 BMatP= 1.59D+00
 IDIUse=3 WtCom= 4.38D-01 WtEn= 5.62D-01
 Coeff-Com: -0.112D+01 0.212D+01
 Coeff-En:   0.000D+00 0.100D+01
 Coeff:     -0.490D+00 0.149D+01
 Gap=     0.335 Goal=   None    Shift=    0.000
 Gap=     0.335 Goal=   None    Shift=    0.000
 RMSDP=4.81D-03 MaxDP=7.68D-02 DE=-1.23D-01 OVMax= 1.40D-01

 Cycle   3  Pass 1  IDiag  1:
 E= -78.1746650349301     Delta-E=       -0.202832089928 Rises=F Damp=F
 DIIS: error= 2.70D-02 at cycle   3 NSaved=   3.
 NSaved= 3 IEnMin= 3 EnMin= -78.1746650349301     IErMin= 3 ErrMin= 2.70D-02
 ErrMax= 2.70D-02  0.00D+00 EMaxC= 1.00D-01 BMatC= 8.12D-02 BMatP= 4.59D-01
 IDIUse=3 WtCom= 7.30D-01 WtEn= 2.70D-01
 Coeff-Com:  0.655D+00-0.771D+00 0.112D+01
 Coeff-En:   0.000D+00 0.000D+00 0.100D+01
 Coeff:      0.478D+00-0.563D+00 0.108D+01
 Gap=     0.371 Goal=   None    Shift=    0.000
 Gap=     0.371 Goal=   None    Shift=    0.000
 RMSDP=2.20D-03 MaxDP=3.45D-02 DE=-2.03D-01 OVMax= 4.67D-02

 Cycle   4  Pass 1  IDiag  1:
 E= -78.1921483664148     Delta-E=       -0.017483331485 Rises=F Damp=F
 DIIS: error= 6.60D-03 at cycle   4 NSaved=   4.
 NSaved= 4 IEnMin= 4 EnMin= -78.1921483664148     IErMin= 4 ErrMin= 6.60D-03
 ErrMax= 6.60D-03  0.00D+00 EMaxC= 1.00D-01 BMatC= 5.15D-03 BMatP= 8.12D-02
 IDIUse=3 WtCom= 9.34D-01 WtEn= 6.60D-02
 Coeff-Com: -0.262D-01 0.158D-01 0.141D+00 0.869D+00
 Coeff-En:   0.000D+00 0.000D+00 0.000D+00 0.100D+01
 Coeff:     -0.244D-01 0.147D-01 0.132D+00 0.878D+00
 Gap=     0.366 Goal=   None    Shift=    0.000
 Gap=     0.366 Goal=   None    Shift=    0.000
 RMSDP=5.13D-04 MaxDP=8.51D-03 DE=-1.75D-02 OVMax= 1.02D-02

 Cycle   5  Pass 1  IDiag  1:
 E= -78.1932939252848     Delta-E=       -0.001145558870 Rises=F Damp=F
 DIIS: error= 3.63D-04 at cycle   5 NSaved=   5.
 NSaved= 5 IEnMin= 5 EnMin= -78.1932939252848     IErMin= 5 ErrMin= 3.63D-04
 ErrMax= 3.63D-04  0.00D+00 EMaxC= 1.00D-01 BMatC= 1.26D-05 BMatP= 5.15D-03
 IDIUse=3 WtCom= 9.96D-01 WtEn= 3.63D-03
 Coeff-Com: -0.326D-02 0.460D-02-0.168D-01-0.249D-02 0.102D+01
 Coeff-En:   0.000D+00 0.000D+00 0.000D+00 0.000D+00 0.100D+01
 Coeff:     -0.325D-02 0.458D-02-0.168D-01-0.248D-02 0.102D+01
 Gap=     0.366 Goal=   None    Shift=    0.000
 Gap=     0.366 Goal=   None    Shift=    0.000
 RMSDP=3.69D-05 MaxDP=5.76D-04 DE=-1.15D-03 OVMax= 6.42D-04

 Cycle   6  Pass 1  IDiag  1:
 E= -78.1932970896826     Delta-E=       -0.000003164398 Rises=F Damp=F
 DIIS: error= 2.47D-05 at cycle   6 NSaved=   6.
 NSaved= 6 IEnMin= 6 EnMin= -78.1932970896826     IErMin= 6 ErrMin= 2.47D-05
 ErrMax= 2.47D-05  0.00D+00 EMaxC= 1.00D-01 BMatC= 2.92D-08 BMatP= 1.26D-05
 IDIUse=1 WtCom= 1.00D+00 WtEn= 0.00D+00
 Coeff-Com: -0.951D-03 0.137D-02 0.825D-03-0.550D-03-0.119D+00 0.112D+01
 Coeff:     -0.951D-03 0.137D-02 0.825D-03-0.550D-03-0.119D+00 0.112D+01
 Gap=     0.366 Goal=   None    Shift=    0.000
 Gap=     0.366 Goal=   None    Shift=    0.000
 RMSDP=6.52D-06 MaxDP=1.25D-04 DE=-3.16D-06 OVMax= 5.38D-05

 Cycle   7  Pass 1  IDiag  1:
 E= -78.1932971004595     Delta-E=       -0.000000010777 Rises=F Damp=F
 DIIS: error= 2.76D-06 at cycle   7 NSaved=   7.
 NSaved= 7 IEnMin= 7 EnMin= -78.1932971004595     IErMin= 7 ErrMin= 2.76D-06
 ErrMax= 2.76D-06  0.00D+00 EMaxC= 1.00D-01 BMatC= 4.69D-10 BMatP= 2.92D-08
 IDIUse=1 WtCom= 1.00D+00 WtEn= 0.00D+00
 Coeff-Com: -0.683D-04 0.950D-04 0.917D-04 0.306D-03-0.967D-02-0.132D+00
 Coeff-Com:  0.114D+01
 Coeff:     -0.683D-04 0.950D-04 0.917D-04 0.306D-03-0.967D-02-0.132D+00
 Coeff:      0.114D+01
 Gap=     0.366 Goal=   None    Shift=    0.000
 Gap=     0.366 Goal=   None    Shift=    0.000
 RMSDP=1.83D-06 MaxDP=3.57D-05 DE=-1.08D-08 OVMax= 7.76D-06

 Cycle   8  Pass 1  IDiag  1:
 E= -78.1932971006819     Delta-E=       -0.000000000222 Rises=F Damp=F
 DIIS: error= 1.95D-07 at cycle   8 NSaved=   8.
 NSaved= 8 IEnMin= 8 EnMin= -78.1932971006819     IErMin= 8 ErrMin= 1.95D-07
 ErrMax= 1.95D-07  0.00D+00 EMaxC= 1.00D-01 BMatC= 4.73D-12 BMatP= 4.69D-10
 IDIUse=1 WtCom= 1.00D+00 WtEn= 0.00D+00
 Coeff-Com: -0.475D-05 0.511D-05-0.113D-04 0.394D-04 0.132D-02 0.450D-02
 Coeff-Com: -0.109D+00 0.110D+01
 Coeff:     -0.475D-05 0.511D-05-0.113D-04 0.394D-04 0.132D-02 0.450D-02
 Coeff:     -0.109D+00 0.110D+01
 Gap=     0.366 Goal=   None    Shift=    0.000
 Gap=     0.366 Goal=   None    Shift=    0.000
 RMSDP=1.35D-07 MaxDP=2.58D-06 DE=-2.22D-10 OVMax= 4.73D-07

 Cycle   9  Pass 1  IDiag  1:
 E= -78.1932971006837     Delta-E=       -0.000000000002 Rises=F Damp=F
 DIIS: error= 1.77D-08 at cycle   9 NSaved=   9.
 NSaved= 9 IEnMin= 9 EnMin= -78.1932971006837     IErMin= 9 ErrMin= 1.77D-08
 ErrMax= 1.77D-08  0.00D+00 EMaxC= 1.00D-01 BMatC= 4.97D-14 BMatP= 4.73D-12
 IDIUse=1 WtCom= 1.00D+00 WtEn= 0.00D+00
 Coeff-Com: -0.519D-06 0.646D-06-0.173D-05 0.119D-05 0.167D-03 0.169D-02
 Coeff-Com: -0.154D-01 0.831D-02 0.101D+01
 Coeff:     -0.519D-06 0.646D-06-0.173D-05 0.119D-05 0.167D-03 0.169D-02
 Coeff:     -0.154D-01 0.831D-02 0.101D+01
 Gap=     0.366 Goal=   None    Shift=    0.000
 Gap=     0.366 Goal=   None    Shift=    0.000
 RMSDP=4.66D-09 MaxDP=6.18D-08 DE=-1.76D-12 OVMax= 5.65D-08

 SCF Done:  E(UM062X) =  -78.1932971007     A.U. after    9 cycles
            NFock=  9  Conv=0.47D-08     -V/T= 1.9725
 <Sx>= 0.0000 <Sy>= 0.0000 <Sz>= 0.0000 <S**2>=-0.0000 S=-0.0000
 <L.S>=  0.00000000000    
 KE= 8.040790577366D+01 PE=-2.633121686566D+02 EE= 6.452276746025D+01
 Annihilation of the first spin contaminant:
 S**2 before annihilation    -0.0000,   after     0.0000
 Leave Link  502 at Tue Nov 19 11:40:59 2024, MaxMem=   536870912 cpu:              17.3 elap:               2.3
 (Enter /home/szhao/Apps/g16/l601.exe)
 Copying SCF densities to generalized density rwf, IOpCl= 1 IROHF=0.

 **********************************************************************

            Population analysis using the SCF density.

 **********************************************************************

 Orbital symmetries:
 Alpha Orbitals:
       Occupied  (AG) (BU) (AG) (BU) (BU) (AG) (AU) (AG)
       Virtual   (AG) (BU) (BU) (AU) (BG) (AG) (AG) (BU) (BU) (AG)
                 (BG) (BU) (AG) (BU) (AG) (BU) (AG) (AU) (BU) (BU)
                 (BG) (AG) (BU) (AG) (AG) (BG) (AU) (AU) (BU) (AG)
                 (AG) (BU) (AG) (BG) (BU) (BG) (BU) (AU) (BU) (AG)
                 (AG) (AG) (AU) (BG) (BU) (BU) (AG) (AG) (BU) (BU)
                 (AU) (BG) (BU) (AG) (BU) (BU) (AG) (AG) (AG) (BU)
 Beta  Orbitals:
       Occupied  (AG) (BU) (AG) (BU) (BU) (AG) (AU) (AG)
       Virtual   (AG) (BU) (BU) (AU) (BG) (AG) (AG) (BU) (BU) (AG)
                 (BG) (BU) (AG) (BU) (AG) (BU) (AG) (AU) (BU) (BU)
                 (BG) (AG) (BU) (AG) (AG) (BG) (AU) (AU) (BU) (AG)
                 (AG) (BU) (AG) (BG) (BU) (BG) (BU) (AU) (BU) (AG)
                 (AG) (AG) (AU) (BG) (BU) (BU) (AG) (AG) (BU) (BU)
                 (AU) (BG) (BU) (AG) (BU) (BU) (AG) (AG) (AG) (BU)
 The electronic state is 1-AG.
 Alpha  occ. eigenvalues --  -10.49208 -10.47002  -0.94980  -0.62295  -0.59078
 Alpha  occ. eigenvalues --   -0.53305  -0.43773  -0.33363
 Alpha virt. eigenvalues --    0.03256   0.04141   0.04266   0.06530   0.07350
 Alpha virt. eigenvalues --    0.08929   0.09843   0.16096   0.17393   0.18363
 Alpha virt. eigenvalues --    0.20403   0.25061   0.34923   0.42171   0.42790
 Alpha virt. eigenvalues --    0.47573   0.51545   0.51580   0.59327   0.62557
 Alpha virt. eigenvalues --    0.72323   0.75896   0.78028   0.81758   0.86385
 Alpha virt. eigenvalues --    1.01667   1.23940   1.30246   1.31501   1.34716
 Alpha virt. eigenvalues --    1.56767   1.58578   1.69309   1.73785   1.75565
 Alpha virt. eigenvalues --    1.76117   1.80273   1.95840   2.11794   2.20425
 Alpha virt. eigenvalues --    2.20867   2.32869   2.35338   2.46086   2.50654
 Alpha virt. eigenvalues --    2.57220   2.59391   2.66637   2.70994   2.78524
 Alpha virt. eigenvalues --    2.81463   2.99785   3.49161   3.50928   3.52519
 Alpha virt. eigenvalues --    3.73848   3.98314   4.12079  24.07993  25.75205
  Beta  occ. eigenvalues --  -10.49208 -10.47002  -0.94980  -0.62295  -0.59078
  Beta  occ. eigenvalues --   -0.53305  -0.43773  -0.33363
  Beta virt. eigenvalues --    0.03256   0.04141   0.04266   0.06530   0.07350
  Beta virt. eigenvalues --    0.08929   0.09843   0.16096   0.17393   0.18363
  Beta virt. eigenvalues --    0.20403   0.25061   0.34923   0.42171   0.42790
  Beta virt. eigenvalues --    0.47573   0.51545   0.51580   0.59327   0.62557
  Beta virt. eigenvalues --    0.72323   0.75896   0.78028   0.81758   0.86385
  Beta virt. eigenvalues --    1.01667   1.23940   1.30246   1.31501   1.34716
  Beta virt. eigenvalues --    1.56767   1.58578   1.69309   1.73785   1.75565
  Beta virt. eigenvalues --    1.76117   1.80273   1.95840   2.11794   2.20425
  Beta virt. eigenvalues --    2.20867   2.32869   2.35338   2.46086   2.50654
  Beta virt. eigenvalues --    2.57220   2.59391   2.66637   2.70994   2.78524
  Beta virt. eigenvalues --    2.81463   2.99785   3.49161   3.50928   3.52519
  Beta virt. eigenvalues --    3.73848   3.98314   4.12079  24.07993  25.75205
          Condensed to atoms (all electrons):
               1          2          3          4          5          6
     1  C    4.809576   0.690837   0.409903   0.409914  -0.034166  -0.034151
     2  C    0.690837   4.809576  -0.034166  -0.034151   0.409903   0.409914
     3  H    0.409903  -0.034166   0.567746  -0.051814   0.015491  -0.033107
     4  H    0.409914  -0.034151  -0.051814   0.567704  -0.033107   0.015487
     5  H   -0.034166   0.409903   0.015491  -0.033107   0.567746  -0.051814
     6  H   -0.034151   0.409914  -0.033107   0.015487  -0.051814   0.567704
          Atomic-Atomic Spin Densities.
               1          2          3          4          5          6
     1  C    0.000000  -0.000000  -0.000000  -0.000000   0.000000   0.000000
     2  C   -0.000000   0.000000   0.000000   0.000000  -0.000000  -0.000000
     3  H   -0.000000   0.000000  -0.000000   0.000000  -0.000000  -0.000000
     4  H   -0.000000   0.000000   0.000000   0.000000  -0.000000  -0.000000
     5  H    0.000000  -0.000000  -0.000000  -0.000000  -0.000000   0.000000
     6  H    0.000000  -0.000000  -0.000000  -0.000000   0.000000   0.000000
 Mulliken charges and spin densities:
               1          2
     1  C   -0.251914  -0.000000
     2  C   -0.251914  -0.000000
     3  H    0.125947  -0.000000
     4  H    0.125967   0.000000
     5  H    0.125947  -0.000000
     6  H    0.125967   0.000000
 Sum of Mulliken charges =  -0.00000  -0.00000
 Mulliken charges and spin densities with hydrogens summed into heavy atoms:
               1          2
     1  C   -0.000000  -0.000000
     2  C   -0.000000  -0.000000
 Electronic spatial extent (au):  <R**2>=             67.7835
 Charge=             -0.0000 electrons
 Dipole moment (field-independent basis, Debye):
    X=              0.0000    Y=             -0.0000    Z=             -0.0000  Tot=              0.0000
 Quadrupole moment (field-independent basis, Debye-Ang):
   XX=            -12.4111   YY=            -12.5552   ZZ=            -14.0577
   XY=             -0.0003   XZ=             -0.0000   YZ=              0.0000
 Traceless Quadrupole moment (field-independent basis, Debye-Ang):
   XX=              0.5970   YY=              0.4528   ZZ=             -1.0497
   XY=             -0.0003   XZ=             -0.0000   YZ=              0.0000
 Octapole moment (field-independent basis, Debye-Ang**2):
  XXX=              0.0000  YYY=             -0.0000  ZZZ=             -0.0000  XYY=              0.0000
  XXY=             -0.0000  XXZ=             -0.0000  XZZ=              0.0000  YZZ=             -0.0000
  YYZ=             -0.0000  XYZ=              0.0000
 Hexadecapole moment (field-independent basis, Debye-Ang**3):
 XXXX=            -27.6480 YYYY=            -52.4061 ZZZZ=            -14.5029 XXXY=             -0.0012
 XXXZ=              0.0000 YYYX=             -0.0018 YYYZ=              0.0000 ZZZX=              0.0000
 ZZZY=              0.0000 XXYY=            -12.4219 XXZZ=             -7.5345 YYZZ=            -11.6948
 XXYZ=             -0.0000 YYXZ=             -0.0000 ZZXY=             -0.0005
 N-N= 4.018819832202D+01 E-N=-2.633121680769D+02  KE= 8.040790577366D+01
 Symmetry AG   KE= 4.135778965120D+01
 Symmetry BG   KE= 3.378395553383D-32
 Symmetry AU   KE= 2.511340029796D+00
 Symmetry BU   KE= 3.653877609267D+01
 Symmetry AG   SP=-3.556541497490D-16
 Symmetry BG   SP=-1.593908837910D-33
 Symmetry AU   SP=-2.927865132059D-15
 Symmetry BU   SP=-7.588895216888D-15
                          Isotropic Fermi Contact Couplings
        Atom                 a.u.       MegaHertz       Gauss      10(-4) cm-1
     1  C(13)              0.00000       0.00000       0.00000       0.00000
     2  C(13)              0.00000       0.00000       0.00000       0.00000
     3  H(1)              -0.00000      -0.00000      -0.00000      -0.00000
     4  H(1)              -0.00000      -0.00000      -0.00000      -0.00000
     5  H(1)              -0.00000      -0.00000      -0.00000      -0.00000
     6  H(1)              -0.00000      -0.00000      -0.00000      -0.00000
 --------------------------------------------------------
       Center         ----  Spin Dipole Couplings  ----
                      3XX-RR        3YY-RR        3ZZ-RR
 --------------------------------------------------------
     1   Atom        0.000000     -0.000000      0.000000
     2   Atom        0.000000     -0.000000      0.000000
     3   Atom       -0.000000      0.000000      0.000000
     4   Atom       -0.000000      0.000000      0.000000
     5   Atom       -0.000000      0.000000      0.000000
     6   Atom       -0.000000      0.000000      0.000000
 --------------------------------------------------------
                        XY            XZ            YZ
 --------------------------------------------------------
     1   Atom        0.000000      0.000000      0.000000
     2   Atom        0.000000     -0.000000     -0.000000
     3   Atom       -0.000000      0.000000      0.000000
     4   Atom        0.000000     -0.000000      0.000000
     5   Atom       -0.000000      0.000000      0.000000
     6   Atom        0.000000      0.000000     -0.000000
 --------------------------------------------------------


 ---------------------------------------------------------------------------------
              Anisotropic Spin Dipole Couplings in Principal Axis System
 ---------------------------------------------------------------------------------

       Atom             a.u.   MegaHertz   Gauss  10(-4) cm-1        Axes

              Baa    -0.0000    -0.000    -0.000    -0.000 -0.1388  0.9903 -0.0000
     1 C(13)  Bbb     0.0000     0.000     0.000     0.000  0.0000  0.0000  1.0000
              Bcc     0.0000     0.000     0.000     0.000  0.9903  0.1388 -0.0000
 
              Baa    -0.0000    -0.000    -0.000    -0.000 -0.1388  0.9903 -0.0000
     2 C(13)  Bbb     0.0000     0.000     0.000     0.000  0.0000  0.0000  1.0000
              Bcc     0.0000     0.000     0.000     0.000  0.9903  0.1388 -0.0000
 
              Baa    -0.0000    -0.000    -0.000    -0.000  0.9881  0.1536 -0.0000
     3 H(1)   Bbb     0.0000     0.000     0.000     0.000 -0.1536  0.9881 -0.0000
              Bcc     0.0000     0.000     0.000     0.000  0.0000  0.0000  1.0000
 
              Baa    -0.0000    -0.000    -0.000    -0.000  0.9407 -0.3392  0.0000
     4 H(1)   Bbb     0.0000     0.000     0.000     0.000  0.3392  0.9407  0.0000
              Bcc     0.0000     0.000     0.000     0.000  0.0000  0.0000  1.0000
 
              Baa    -0.0000    -0.000    -0.000    -0.000  0.9881  0.1536 -0.0000
     5 H(1)   Bbb     0.0000     0.000     0.000     0.000 -0.1536  0.9881  0.0000
              Bcc     0.0000     0.000     0.000     0.000  0.0000  0.0000  1.0000
 
              Baa    -0.0000    -0.000    -0.000    -0.000  0.9407 -0.3392  0.0000
     6 H(1)   Bbb     0.0000     0.000     0.000     0.000  0.3392  0.9407  0.0000
              Bcc     0.0000     0.000     0.000     0.000  0.0000  0.0000  1.0000
 

 ---------------------------------------------------------------------------------

 No NMR shielding tensors so no spin-rotation constants.
 Leave Link  601 at Tue Nov 19 11:41:00 2024, MaxMem=   536870912 cpu:               2.0 elap:               0.3
 (Enter /home/szhao/Apps/g16/l701.exe)
 ... and contract with generalized density number  0.
 Compute integral first derivatives.
 Leave Link  701 at Tue Nov 19 11:41:00 2024, MaxMem=   536870912 cpu:               1.5 elap:               0.3
 (Enter /home/szhao/Apps/g16/l702.exe)
 L702 exits ... SP integral derivatives will be done elsewhere.
 Leave Link  702 at Tue Nov 19 11:41:00 2024, MaxMem=   536870912 cpu:               0.6 elap:               0.1
 (Enter /home/szhao/Apps/g16/l703.exe)
 Integral derivatives from FoFJK, PRISM(SPDF).
 Compute integral first derivatives, UseDBF=F ICtDFT=           0.
 Calling FoFJK, ICntrl=      2127 FMM=F ISym2X=1 I1Cent= 0 IOpClX= 1 NMat=1 NMatS=1 NMatT=0.
 FoFJK:  IHMeth= 1 ICntrl=    2127 DoSepK=F KAlg= 0 I1Cent=           0 FoldK=F
 IRaf=         0 NMat=       1 IRICut=       1 DoRegI=T DoRafI=F ISym2E= 1 IDoP0=0 IntGTp=1.
 FoFCou: FMM=F IPFlag=           0 FMFlag=      100000 FMFlg1=         800
         NFxFlg=           0 DoJE=F BraDBF=F KetDBF=F FulRan=T
         wScrn=  0.000000 ICntrl=      2127 IOpCl=  1 I1Cent=           0 NGrid=           0
         NMat0=    1 NMatS0=      1 NMatT0=    0 NMatD0=    1 NMtDS0=    0 NMtDT0=    0
 Petite list used in FoFCou.
 Leave Link  703 at Tue Nov 19 11:41:01 2024, MaxMem=   536870912 cpu:               3.7 elap:               0.5
 (Enter /home/szhao/Apps/g16/l716.exe)
 Dipole        = 0.00000000D+00 0.00000000D+00-4.26968479D-42
 ***** Axes restored to original set *****
 -------------------------------------------------------------------
 Center     Atomic                   Forces (Hartrees/Bohr)
 Number     Number              X              Y              Z
 -------------------------------------------------------------------
      1        6          -1.469555310   -0.000042509   -0.000000000
      2        6           1.469555310    0.000042509    0.000000000
      3        1          -0.000039881   -0.000010102   -0.000000000
      4        1          -0.000057309    0.000041382   -0.000000000
      5        1           0.000039881    0.000010102    0.000000000
      6        1           0.000057309   -0.000041382    0.000000000
 -------------------------------------------------------------------
 Cartesian Forces:  Max     1.469555310 RMS     0.489851771
 Z-matrix is all fixed cartesians, so copy forces.
 Force constants in Cartesian coordinates: 
                1             2             3             4             5 
      1  0.557828D+01
      2 -0.374697D-04  0.765627D+00
      3  0.000000D+00  0.000000D+00  0.517604D+00
      4 -0.519309D+01  0.000000D+00  0.000000D+00  0.557828D+01
      5  0.000000D+00 -0.306083D+00  0.000000D+00 -0.374697D-04  0.765627D+00
      6  0.000000D+00  0.000000D+00 -0.357884D+00  0.000000D+00  0.000000D+00
      7 -0.192563D+00 -0.109554D+00  0.000000D+00  0.000000D+00 -0.346683D-01
      8 -0.108640D+00 -0.255708D+00  0.000000D+00  0.000000D+00  0.259489D-01
      9  0.000000D+00  0.000000D+00 -0.133315D+00  0.000000D+00  0.000000D+00
     10 -0.192624D+00  0.109591D+00  0.000000D+00  0.000000D+00  0.346677D-01
     11  0.108677D+00 -0.255739D+00  0.000000D+00  0.000000D+00  0.259543D-01
     12  0.000000D+00  0.000000D+00 -0.133340D+00  0.000000D+00  0.000000D+00
     13  0.000000D+00 -0.346683D-01  0.000000D+00 -0.192563D+00 -0.109554D+00
     14  0.000000D+00  0.259489D-01  0.000000D+00 -0.108640D+00 -0.255708D+00
     15  0.000000D+00  0.000000D+00  0.534680D-01  0.000000D+00  0.000000D+00
     16  0.000000D+00  0.346677D-01  0.000000D+00 -0.192624D+00  0.109591D+00
     17  0.000000D+00  0.259543D-01  0.000000D+00  0.108677D+00 -0.255739D+00
     18  0.000000D+00  0.000000D+00  0.534662D-01  0.000000D+00  0.000000D+00
                6             7             8             9            10 
      6  0.517604D+00
      7  0.000000D+00  0.168796D+00
      8  0.000000D+00  0.126429D+00  0.243077D+00
      9  0.534680D-01  0.000000D+00  0.000000D+00  0.694208D-01
     10  0.000000D+00  0.237668D-01 -0.177892D-01  0.000000D+00  0.168857D+00
     11  0.000000D+00  0.177933D-01 -0.133181D-01  0.000000D+00 -0.126470D+00
     12  0.534662D-01  0.000000D+00  0.000000D+00  0.104301D-01  0.000000D+00
     13  0.000000D+00  0.000000D+00  0.000000D+00  0.000000D+00  0.000000D+00
     14  0.000000D+00  0.000000D+00  0.000000D+00  0.000000D+00  0.000000D+00
     15 -0.133315D+00  0.000000D+00  0.000000D+00  0.294957D-01  0.000000D+00
     16  0.000000D+00  0.000000D+00  0.000000D+00  0.000000D+00  0.000000D+00
     17  0.000000D+00  0.000000D+00  0.000000D+00  0.000000D+00  0.000000D+00
     18 -0.133340D+00  0.000000D+00  0.000000D+00 -0.294999D-01  0.000000D+00
               11            12            13            14            15 
     11  0.243103D+00
     12  0.000000D+00  0.694393D-01
     13  0.000000D+00  0.000000D+00  0.168796D+00
     14  0.000000D+00  0.000000D+00  0.126429D+00  0.243077D+00
     15  0.000000D+00 -0.294999D-01  0.000000D+00  0.000000D+00  0.694208D-01
     16  0.000000D+00  0.000000D+00  0.237668D-01 -0.177892D-01  0.000000D+00
     17  0.000000D+00  0.000000D+00  0.177933D-01 -0.133181D-01  0.000000D+00
     18  0.000000D+00  0.295042D-01  0.000000D+00  0.000000D+00  0.104301D-01
               16            17            18 
     16  0.168857D+00
     17 -0.126470D+00  0.243103D+00
     18  0.000000D+00  0.000000D+00  0.694393D-01
 Leave Link  716 at Tue Nov 19 11:41:01 2024, MaxMem=   536870912 cpu:               0.6 elap:               0.1
 (Enter /home/szhao/Apps/g16/l103.exe)

 GradGradGradGradGradGradGradGradGradGradGradGradGradGradGradGradGradGrad
 Berny optimization.
 Search for a local minimum.
 Step number   1 out of a maximum of    2
 All quantities printed in internal units (Hartrees-Bohrs-Radians)
 Second derivative matrix not updated -- first step.
 The second derivative matrix:
                          X1        Y1        Z1        X2        Y2
           X1           5.57828
           Y1          -0.00004   0.76563
           Z1           0.00000  -0.00000   0.51760
           X2          -5.19309   0.00000  -0.00000   5.57828
           Y2           0.00000  -0.30608   0.00000  -0.00004   0.76563
           Z2          -0.00000   0.00000  -0.35788   0.00000  -0.00000
           X3          -0.19256  -0.10955  -0.00000   0.00000  -0.03467
           Y3          -0.10864  -0.25571  -0.00000  -0.00000   0.02595
           Z3          -0.00000  -0.00000  -0.13331  -0.00000  -0.00000
           X4          -0.19262   0.10959  -0.00000  -0.00000   0.03467
           Y4           0.10868  -0.25574   0.00000  -0.00000   0.02595
           Z4          -0.00000   0.00000  -0.13334  -0.00000   0.00000
           X5           0.00000  -0.03467  -0.00000  -0.19256  -0.10955
           Y5          -0.00000   0.02595  -0.00000  -0.10864  -0.25571
           Z5          -0.00000  -0.00000   0.05347  -0.00000  -0.00000
           X6          -0.00000   0.03467  -0.00000  -0.19262   0.10959
           Y6          -0.00000   0.02595  -0.00000   0.10868  -0.25574
           Z6          -0.00000   0.00000   0.05347  -0.00000   0.00000
                          Z2        X3        Y3        Z3        X4
           Z2           0.51760
           X3          -0.00000   0.16880
           Y3          -0.00000   0.12643   0.24308
           Z3           0.05347   0.00000   0.00000   0.06942
           X4          -0.00000   0.02377  -0.01779   0.00000   0.16886
           Y4          -0.00000   0.01779  -0.01332   0.00000  -0.12647
           Z4           0.05347   0.00000  -0.00000   0.01043   0.00000
           X5          -0.00000   0.00000   0.00000  -0.00000  -0.00000
           Y5          -0.00000   0.00000   0.00000  -0.00000  -0.00000
           Z5          -0.13331  -0.00000  -0.00000   0.02950   0.00000
           X6          -0.00000  -0.00000  -0.00000   0.00000   0.00000
           Y6           0.00000  -0.00000  -0.00000   0.00000   0.00000
           Z6          -0.13334   0.00000   0.00000  -0.02950  -0.00000
                          Y4        Z4        X5        Y5        Z5
           Y4           0.24310
           Z4          -0.00000   0.06944
           X5          -0.00000   0.00000   0.16880
           Y5          -0.00000   0.00000   0.12643   0.24308
           Z5           0.00000  -0.02950   0.00000   0.00000   0.06942
           X6           0.00000  -0.00000   0.02377  -0.01779   0.00000
           Y6           0.00000  -0.00000   0.01779  -0.01332   0.00000
           Z6          -0.00000   0.02950   0.00000  -0.00000   0.01043
                          X6        Y6        Z6
           X6           0.16886
           Y6          -0.12647   0.24310
           Z6           0.00000  -0.00000   0.06944
 ITU=  0
     Eigenvalues ---    0.04646   0.10971   0.11800   0.16319   0.19327
     Eigenvalues ---    0.19763   0.32995   0.56984   0.66723   0.85368
     Eigenvalues ---    1.16140  10.78070
 Quadratic step=3.470D-01 exceeds max=3.000D-01 adjusted using Lamda=-3.758D-02.
 Angle between NR and scaled steps=   7.27 degrees.
 Angle between quadratic step and forces=  48.77 degrees.
 ClnCor:  largest displacement from symmetrization is 4.02D-14 for atom     6.
 Linear search not attempted -- first point.
 ClnCor:  largest displacement from symmetrization is 4.93D-32 for atom     4.
 B after Tr=     0.000000   -0.000000   -0.000000
         Rot=    1.000000   -0.000000    0.000000   -0.000001 Ang=  -0.00 deg.
 Variable       Old X    -DE/DX   Delta X   Delta X   Delta X     New X
                                 (Linear)    (Quad)   (Total)
    X1       -0.88938  -1.46956   0.00000  -0.14018  -0.14018  -1.02956
    Y1       -0.00000  -0.00004   0.00000  -0.00002  -0.00003  -0.00003
    Z1       -0.00000  -0.00000   0.00000  -0.00000  -0.00000  -0.00000
    X2        0.88938   1.46956   0.00000   0.14018   0.14018   1.02956
    Y2        0.00000   0.00004   0.00000   0.00002   0.00003   0.00003
    Z2        0.00000   0.00000   0.00000   0.00000   0.00000   0.00000
    X3       -2.13408  -0.00004   0.00000  -0.11264  -0.11263  -2.24672
    Y3       -1.66295  -0.00001   0.00000  -0.01024  -0.01024  -1.67319
    Z3       -0.00000  -0.00000   0.00000  -0.00000  -0.00000  -0.00000
    X4       -2.13418  -0.00006   0.00000  -0.11268  -0.11269  -2.24687
    Y4        1.66271   0.00004   0.00000   0.01028   0.01028   1.67299
    Z4       -0.00000  -0.00000   0.00000  -0.00000  -0.00000  -0.00000
    X5        2.13408   0.00004   0.00000   0.11264   0.11263   2.24672
    Y5        1.66295   0.00001   0.00000   0.01024   0.01024   1.67319
    Z5        0.00000   0.00000   0.00000   0.00000   0.00000   0.00000
    X6        2.13418   0.00006   0.00000   0.11268   0.11269   2.24687
    Y6       -1.66271  -0.00004   0.00000  -0.01028  -0.01028  -1.67299
    Z6        0.00000   0.00000   0.00000   0.00000   0.00000   0.00000
         Item               Value     Threshold  Converged?
 Maximum Force            1.469555     0.000450     NO 
 RMS     Force            0.489852     0.000300     NO 
 Maximum Displacement     0.140178     0.001800     NO 
 RMS     Displacement     0.070903     0.001200     NO 
 Predicted change in Energy=-2.077116D-01
 GradGradGradGradGradGradGradGradGradGradGradGradGradGradGradGradGradGrad

 Leave Link  103 at Tue Nov 19 11:41:01 2024, MaxMem=   536870912 cpu:               0.3 elap:               0.1
 (Enter /home/szhao/Apps/g16/l9999.exe)
 1\1\GINC-NODE02\Force\UM062X\6-311+G(d,p)\C2H4\SZHAO\19-Nov-2024\0\\#p
  UM062X/6-311+G** force int=superfine\\Title Card Required\\0,1\C,-0.4
 70639,0.,0.\C,0.470639,0.,0.\H,-1.129308,-0.879997,0.\H,-1.129362,0.87
 9869,0.\H,1.129308,0.879997,0.\H,1.129362,-0.879869,0.\\Version=ES64L-
 G16RevA.03\State=1-AG\HF=-78.1932971\S2=0.\S2-1=0.\S2A=0.\RMSD=4.664e-
 09\RMSF=4.899e-01\Dipole=0.,0.,0.\Quadrupole=0.3366308,0.4438185,-0.78
 04492,-0.0002211,0.,0.\PG=C02H [SGH(C2H4)]\\@


 HE WHO LOVES TO READ, AND KNOWS HOW TO REFLECT,
 HAS LAID BY A PERPETUAL FEAST FOR HIS OLD AGE.
 -- UNCLE ESEK, "SCRIBNER'S MONTHLY", SEPT. 1880
 Job cpu time:       0 days  0 hours  0 minutes 36.1 seconds.
 Elapsed time:       0 days  0 hours  0 minutes  5.3 seconds.
 File lengths (MBytes):  RWF=     22 Int=      0 D2E=      0 Chk=      2 Scr=      2
 Normal termination of Gaussian 16 at Tue Nov 19 11:41:02 2024.
