 Entering Gaussian System, Link 0=g16
 Initial command:
 /home/szhao/Apps/g16/l1.exe "/home/szhao/tmp/Gau-194676.inp" -scrdir="/home/szhao/tmp/"
 Default is to use a total of  16 processors:
                               16 via shared-memory
                                1 via Linda
 Entering Link 1 = /home/szhao/Apps/g16/l1.exe PID=    194677.
  
 Copyright (c) 1988,1990,1992,1993,1995,1998,2003,2009,2016,
            Gaussian, Inc.  All Rights Reserved.
  
 This is part of the Gaussian(R) 16 program.  It is based on
 the Gaussian(R) 09 system (copyright 2009, Gaussian, Inc.),
 the Gaussian(R) 03 system (copyright 2003, Gaussian, Inc.),
 the Gaussian(R) 98 system (copyright 1998, Gaussian, Inc.),
 the Gaussian(R) 94 system (copyright 1995, Gaussian, Inc.),
 the Gaussian 92(TM) system (copyright 1992, Gaussian, Inc.),
 the Gaussian 90(TM) system (copyright 1990, Gaussian, Inc.),
 the Gaussian 88(TM) system (copyright 1988, Gaussian, Inc.),
 the Gaussian 86(TM) system (copyright 1986, Carnegie Mellon
 University), and the Gaussian 82(TM) system (copyright 1983,
 Carnegie Mellon University). Gaussian is a federally registered
 trademark of Gaussian, Inc.
  
 This software contains proprietary and confidential information,
 including trade secrets, belonging to Gaussian, Inc.
  
 This software is provided under written license and may be
 used, copied, transmitted, or stored only in accord with that
 written license.
  
 The following legend is applicable only to US Government
 contracts under FAR:
  
                    RESTRICTED RIGHTS LEGEND
  
 Use, reproduction and disclosure by the US Government is
 subject to restrictions as set forth in subparagraphs (a)
 and (c) of the Commercial Computer Software - Restricted
 Rights clause in FAR 52.227-19.
  
 Gaussian, Inc.
 340 Quinnipiac St., Bldg. 40, Wallingford CT 06492
  
  
 ---------------------------------------------------------------
 Warning -- This program may not be used in any manner that
 competes with the business of Gaussian, Inc. or will provide
 assistance to any competitor of Gaussian, Inc.  The licensee
 of this program is prohibited from giving any competitor of
 Gaussian, Inc. access to this program.  By using this program,
 the user acknowledges that Gaussian, Inc. is engaged in the
 business of creating and licensing software in the field of
 computational chemistry and represents and warrants to the
 licensee that it is not a competitor of Gaussian, Inc. and that
 it will not use this program in any manner prohibited above.
 ---------------------------------------------------------------
  

 Cite this work as:
 Gaussian 16, Revision A.03,
 M. J. Frisch, G. W. Trucks, H. B. Schlegel, G. E. Scuseria, 
 M. A. Robb, J. R. Cheeseman, G. Scalmani, V. Barone, 
 G. A. Petersson, H. Nakatsuji, X. Li, M. Caricato, A. V. Marenich, 
 J. Bloino, B. G. Janesko, R. Gomperts, B. Mennucci, H. P. Hratchian, 
 J. V. Ortiz, A. F. Izmaylov, J. L. Sonnenberg, D. Williams-Young, 
 F. Ding, F. Lipparini, F. Egidi, J. Goings, B. Peng, A. Petrone, 
 T. Henderson, D. Ranasinghe, V. G. Zakrzewski, J. Gao, N. Rega, 
 G. Zheng, W. Liang, M. Hada, M. Ehara, K. Toyota, R. Fukuda, 
 J. Hasegawa, M. Ishida, T. Nakajima, Y. Honda, O. Kitao, H. Nakai, 
 T. Vreven, K. Throssell, J. A. Montgomery, Jr., J. E. Peralta, 
 F. Ogliaro, M. J. Bearpark, J. J. Heyd, E. N. Brothers, K. N. Kudin, 
 V. N. Staroverov, T. A. Keith, R. Kobayashi, J. Normand, 
 K. Raghavachari, A. P. Rendell, J. C. Burant, S. S. Iyengar, 
 J. Tomasi, M. Cossi, J. M. Millam, M. Klene, C. Adamo, R. Cammi, 
 J. W. Ochterski, R. L. Martin, K. Morokuma, O. Farkas, 
 J. B. Foresman, and D. J. Fox, Gaussian, Inc., Wallingford CT, 2016.
 
 ******************************************
 Gaussian 16:  ES64L-G16RevA.03 25-Dec-2016
                21-Apr-2025 
 ******************************************
 %chk=opt.chk
 %mem=4GB
 %nprocshared=8
 Will use up to    8 processors via shared memory.
 --------------------------------------------
 #p opt UM062X/6-311+G** nosymm int=superfine
 --------------------------------------------
 1/18=20,19=15,26=5,38=1/1,3;
 2/9=110,12=2,15=1,17=6,18=5,40=1/2;
 3/5=4,6=6,7=111,11=2,25=1,30=1,71=1,74=-55,75=-7,116=2/1,2,3;
 4//1;
 5/5=2,38=5/2;
 6/7=2,8=2,9=2,10=2,28=1/1;
 7/30=1/1,2,3,16;
 1/18=20,19=15,26=5/3(2);
 2/9=110,15=1/2;
 99//99;
 2/9=110,15=1/2;
 3/5=4,6=6,7=111,11=2,25=1,30=1,71=1,74=-55,75=-7,116=2/1,2,3;
 4/5=5,16=3,69=1/1;
 5/5=2,38=5/2;
 7/30=1/1,2,3,16;
 1/18=20,19=15,26=5/3(-5);
 2/9=110,15=1/2;
 6/7=2,8=2,9=2,10=2,19=2,28=1/1;
 99/9=1/99;
 Leave Link    1 at Mon Apr 21 19:04:40 2025, MaxMem=   536870912 cpu:               1.9 elap:               0.3
 (Enter /home/szhao/Apps/g16/l101.exe)
 -------------------
 Title Card Required
 -------------------
 Symbolic Z-matrix:
 Charge =  0 Multiplicity = 1
 C                    -1   -1.83126   0.        0. 
 P                    -1    1.83126   0.        0. 
 H                    0     2.01135  -1.40534   0. 
 H                    0    -2.1814    1.01301   0.20044 
 H                    0     2.01135   0.10934   1.40108 
 H                    0    -2.18141  -0.27857  -0.99437 
 H                    0    -2.26671  -0.67759   0.73247 
 
 Add virtual bond connecting atoms P2         and C1         Dist= 6.92D+00.
 ITRead=  2  2  0  0  0  0  0
 MicOpt= -2 -2 -1 -1 -1 -1 -1
 NAtoms=      7 NQM=        5 NQMF=       2 NMMI=      0 NMMIF=      0
                NMic=       0 NMicF=      0.
                    Isotopes and Nuclear Properties:
 (Nuclear quadrupole moments (NQMom) in fm**2, nuclear magnetic moments (NMagM)
  in nuclear magnetons)

  Atom         1           2           3           4           5           6           7
 IAtWgt=          12          31           1           1           1           1           1
 AtmWgt=  12.0000000  30.9737634   1.0078250   1.0078250   1.0078250   1.0078250   1.0078250
 NucSpn=           0           1           1           1           1           1           1
 AtZEff=  -0.0000000  -0.0000000  -0.0000000  -0.0000000  -0.0000000  -0.0000000  -0.0000000
 NQMom=    0.0000000   0.0000000   0.0000000   0.0000000   0.0000000   0.0000000   0.0000000
 NMagM=    0.0000000   1.1316000   2.7928460   2.7928460   2.7928460   2.7928460   2.7928460
 AtZNuc=   6.0000000  15.0000000   1.0000000   1.0000000   1.0000000   1.0000000   1.0000000
 Leave Link  101 at Mon Apr 21 19:04:41 2025, MaxMem=   536870912 cpu:               2.9 elap:               0.4
 (Enter /home/szhao/Apps/g16/l103.exe)

 GradGradGradGradGradGradGradGradGradGradGradGradGradGradGradGradGradGrad
 Berny optimization.
 Initialization pass.
                           ----------------------------
                           !    Initial Parameters    !
                           ! (Angstroms and Degrees)  !
 --------------------------                            --------------------------
 ! Name  Definition              Value          Derivative Info.                !
 --------------------------------------------------------------------------------
 ! X1    R(1,-1)                -1.8313         Frozen                          !
 ! Y1    R(1,-2)                 0.0            Frozen                          !
 ! Z1    R(1,-3)                 0.0            Frozen                          !
 ! X2    R(2,-1)                 1.8313         Frozen                          !
 ! Y2    R(2,-2)                 0.0            Frozen                          !
 ! Z2    R(2,-3)                 0.0            Frozen                          !
 ! R1    R(1,4)                  1.0904         estimate D2E/DX2                !
 ! R2    R(1,6)                  1.0904         estimate D2E/DX2                !
 ! R3    R(1,7)                  1.0887         estimate D2E/DX2                !
 ! R4    R(2,3)                  1.4168         estimate D2E/DX2                !
 ! R5    R(2,5)                  1.4168         estimate D2E/DX2                !
 ! A1    A(2,1,4)              108.7301         estimate D2E/DX2                !
 ! A2    A(2,1,6)              108.7303         estimate D2E/DX2                !
 ! A3    A(2,1,7)              113.5765         estimate D2E/DX2                !
 ! A4    A(4,1,6)              107.5695         estimate D2E/DX2                !
 ! A5    A(4,1,7)              109.0326         estimate D2E/DX2                !
 ! A6    A(6,1,7)              109.0325         estimate D2E/DX2                !
 ! A7    A(1,2,3)               97.3022         estimate D2E/DX2                !
 ! A8    A(1,2,5)               97.3022         estimate D2E/DX2                !
 ! A9    A(3,2,5)               93.4621         estimate D2E/DX2                !
 ! D1    D(4,1,2,3)            168.8076         estimate D2E/DX2                !
 ! D2    D(4,1,2,5)             74.3454         estimate D2E/DX2                !
 ! D3    D(6,1,2,3)            -74.3502         estimate D2E/DX2                !
 ! D4    D(6,1,2,5)           -168.8124         estimate D2E/DX2                !
 ! D5    D(7,1,2,3)             47.2287         estimate D2E/DX2                !
 ! D6    D(7,1,2,5)            -47.2335         estimate D2E/DX2                !
 --------------------------------------------------------------------------------
 Trust Radius=3.00D-01 FncErr=1.00D-07 GrdErr=1.00D-07 EigMax=2.50D+02 EigMin=1.00D-04
 Number of steps in this run=     36 maximum allowed number of steps=    100.
 GradGradGradGradGradGradGradGradGradGradGradGradGradGradGradGradGradGrad

 Leave Link  103 at Mon Apr 21 19:04:41 2025, MaxMem=   536870912 cpu:               0.2 elap:               0.0
 (Enter /home/szhao/Apps/g16/l202.exe)
                          Input orientation:                          
 ---------------------------------------------------------------------
 Center     Atomic      Atomic             Coordinates (Angstroms)
 Number     Number       Type             X           Y           Z
 ---------------------------------------------------------------------
      1          6           0       -1.831264    0.000000    0.000000
      2         15           0        1.831264    0.000000    0.000000
      3          1           0        2.011347   -1.405338    0.000000
      4          1           0       -2.181403    1.013014    0.200443
      5          1           0        2.011347    0.109336    1.401080
      6          1           0       -2.181406   -0.278565   -0.994372
      7          1           0       -2.266711   -0.677591    0.732467
 ---------------------------------------------------------------------
                    Distance matrix (angstroms):
                    1          2          3          4          5
     1  C    0.000000
     2  P    3.662527   0.000000
     3  H    4.091531   1.416829   0.000000
     4  H    1.090400   4.143413   4.844353   0.000000
     5  H    4.091532   1.416831   2.063313   4.453910   0.000000
     6  H    1.090401   4.143415   4.453938   1.759477   4.844361
     7  H    1.088692   4.217705   4.400898   1.774393   4.400918
                    6          7
     6  H    0.000000
     7  H    1.774393   0.000000
 Symmetry turned off by external request.
 Stoichiometry    CH5P
 Framework group  C1[X(CH5P)]
 Deg. of freedom    15
 Full point group                 C1      NOp   1
 Rotational constants (GHZ):          72.0876045           3.3938665           3.3847757
 Leave Link  202 at Mon Apr 21 19:04:41 2025, MaxMem=   536870912 cpu:               0.2 elap:               0.0
 (Enter /home/szhao/Apps/g16/l301.exe)
 Standard basis: 6-311+G(d,p) (5D, 7F)
 Ernie: Thresh=  0.10000D-02 Tol=  0.10000D-05 Strict=F.
    82 basis functions,   126 primitive gaussians,    84 cartesian basis functions
    13 alpha electrons       13 beta electrons
       nuclear repulsion energy        42.0641851505 Hartrees.
 IExCor= 4336 DFT=T Ex+Corr=M062X ExCW=0 ScaHFX=  0.540000
 ScaDFX=  1.000000  1.000000  1.000000  1.000000 ScalE2=  1.000000  1.000000
 IRadAn=      7 IRanWt=     -1 IRanGd=            0 ICorTp=0 IEmpDi=  4
 NAtoms=    7 NActive=    7 NUniq=    7 SFac= 1.00D+00 NAtFMM=   60 NAOKFM=F Big=F
 Integral buffers will be    131072 words long.
 Raffenetti 2 integral format.
 Two-electron integral symmetry is turned off.
 Leave Link  301 at Mon Apr 21 19:04:41 2025, MaxMem=   536870912 cpu:               0.5 elap:               0.1
 (Enter /home/szhao/Apps/g16/l302.exe)
 NPDir=0 NMtPBC=     1 NCelOv=     1 NCel=       1 NClECP=     1 NCelD=      1
         NCelK=      1 NCelE2=     1 NClLst=     1 CellRange=     0.0.
 One-electron integrals computed using PRISM.
 NBasis=    82 RedAO= T EigKep=  5.62D-03  NBF=    82
 NBsUse=    82 1.00D-06 EigRej= -1.00D+00 NBFU=    82
 Precomputing XC quadrature grid using
 IXCGrd= 4 IRadAn=           7 IRanWt=          -1 IRanGd=           0 AccXCQ= 0.00D+00.
 Generated NRdTot=       0 NPtTot=           0 NUsed=           0 NTot=          32
 NSgBfM=    84    84    84    84    84 MxSgAt=     7 MxSgA2=     7.
 Leave Link  302 at Mon Apr 21 19:04:42 2025, MaxMem=   536870912 cpu:               1.5 elap:               0.3
 (Enter /home/szhao/Apps/g16/l303.exe)
 DipDrv:  MaxL=1.
 Leave Link  303 at Mon Apr 21 19:04:42 2025, MaxMem=   536870912 cpu:               0.6 elap:               0.1
 (Enter /home/szhao/Apps/g16/l401.exe)
 ExpMin= 3.48D-02 ExpMax= 7.75D+04 ExpMxC= 2.65D+03 IAcc=3 IRadAn=         7 AccDes= 0.00D+00
 Harris functional with IExCor= 1009 and IRadAn=       7 diagonalized for initial guess.
 HarFok:  IExCor= 1009 AccDes= 0.00D+00 IRadAn=         7 IDoV= 1 UseB2=F ITyADJ=14
 ICtDFT=  3500011 ScaDFX=  1.000000  1.000000  1.000000  1.000000
 FoFCou: FMM=F IPFlag=           0 FMFlag=      100000 FMFlg1=           0
         NFxFlg=           0 DoJE=T BraDBF=F KetDBF=T FulRan=T
         wScrn=  0.000000 ICntrl=       500 IOpCl=  0 I1Cent=   200000004 NGrid=           0
         NMat0=    1 NMatS0=      1 NMatT0=    0 NMatD0=    1 NMtDS0=    0 NMtDT0=    0
 Symmetry not used in FoFCou.
 Harris En= -382.178546139650    
 JPrj=0 DoOrth=F DoCkMO=F.
 Initial guess <Sx>= 0.0000 <Sy>= 0.0000 <Sz>= 0.0000 <S**2>=-0.0000 S=-0.0000
 Leave Link  401 at Mon Apr 21 19:04:42 2025, MaxMem=   536870912 cpu:               3.5 elap:               0.5
 (Enter /home/szhao/Apps/g16/l502.exe)
 Keep R1 and R2 ints in memory in canonical form, NReq=18891869.
 FoFCou: FMM=F IPFlag=           0 FMFlag=           0 FMFlg1=           0
         NFxFlg=           0 DoJE=F BraDBF=F KetDBF=F FulRan=T
         wScrn=  0.000000 ICntrl=       600 IOpCl=  0 I1Cent=           0 NGrid=           0
         NMat0=    1 NMatS0=   3403 NMatT0=    0 NMatD0=    1 NMtDS0=    0 NMtDT0=    0
 Symmetry not used in FoFCou.
 Two-electron integral symmetry not used.
 UHF open shell SCF:
 Using DIIS extrapolation, IDIIS=  1040.
 NGot=   536870912 LenX=   525271507 LenY=   525264010
 Requested convergence on RMS density matrix=1.00D-08 within 128 cycles.
 Requested convergence on MAX density matrix=1.00D-06.
 Requested convergence on             energy=1.00D-06.
 No special actions if energy rises.

 Cycle   1  Pass 1  IDiag  1:
 E= -381.900508009762    
 DIIS: error= 7.12D-02 at cycle   1 NSaved=   1.
 NSaved= 1 IEnMin= 1 EnMin= -381.900508009762     IErMin= 1 ErrMin= 7.12D-02
 ErrMax= 7.12D-02  0.00D+00 EMaxC= 1.00D-01 BMatC= 9.64D-01 BMatP= 9.64D-01
 IDIUse=3 WtCom= 2.88D-01 WtEn= 7.12D-01
 Coeff-Com:  0.100D+01
 Coeff-En:   0.100D+01
 Coeff:      0.100D+01
 Gap=    -0.291 Goal=   None    Shift=    0.000
 Gap=    -0.291 Goal=   None    Shift=    0.000
 GapD=   -0.291 DampG=0.250 DampE=0.500 DampFc=0.2500 IDamp=-1.
 Damping current iteration by 2.50D-01
 RMSDP=1.15D-02 MaxDP=3.85D-01              OVMax= 9.51D-01

 Cycle   2  Pass 1  IDiag  1:
 E= -382.075334420336     Delta-E=       -0.174826410574 Rises=F Damp=T
 DIIS: error= 2.33D-02 at cycle   2 NSaved=   2.
 NSaved= 2 IEnMin= 2 EnMin= -382.075334420336     IErMin= 2 ErrMin= 2.33D-02
 ErrMax= 2.33D-02  0.00D+00 EMaxC= 1.00D-01 BMatC= 1.66D-01 BMatP= 9.64D-01
 IDIUse=3 WtCom= 7.67D-01 WtEn= 2.33D-01
 Coeff-Com: -0.548D+00 0.155D+01
 Coeff-En:   0.000D+00 0.100D+01
 Coeff:     -0.421D+00 0.142D+01
 Gap=     0.445 Goal=   None    Shift=    0.000
 Gap=     0.445 Goal=   None    Shift=    0.000
 RMSDP=5.14D-03 MaxDP=1.13D-01 DE=-1.75D-01 OVMax= 4.72D-01

 Cycle   3  Pass 1  IDiag  1:
 E= -382.183254432023     Delta-E=       -0.107920011687 Rises=F Damp=F
 DIIS: error= 3.30D-02 at cycle   3 NSaved=   3.
 NSaved= 3 IEnMin= 3 EnMin= -382.183254432023     IErMin= 2 ErrMin= 2.33D-02
 ErrMax= 3.30D-02  0.00D+00 EMaxC= 1.00D-01 BMatC= 1.65D-01 BMatP= 1.66D-01
 IDIUse=3 WtCom= 6.70D-01 WtEn= 3.30D-01
 EnCoef did   100 forward-backward iterations
 Coeff-Com:  0.116D+00 0.291D+00 0.592D+00
 Coeff-En:   0.228D+00 0.373D-02 0.769D+00
 Coeff:      0.153D+00 0.196D+00 0.651D+00
 Gap=     0.083 Goal=   None    Shift=    0.000
 Gap=     0.083 Goal=   None    Shift=    0.000
 RMSDP=3.71D-03 MaxDP=1.28D-01 DE=-1.08D-01 OVMax= 3.61D-01

 Cycle   4  Pass 1  IDiag  1:
 E= -382.231345554891     Delta-E=       -0.048091122868 Rises=F Damp=F
 DIIS: error= 1.63D-02 at cycle   4 NSaved=   4.
 NSaved= 4 IEnMin= 4 EnMin= -382.231345554891     IErMin= 4 ErrMin= 1.63D-02
 ErrMax= 1.63D-02  0.00D+00 EMaxC= 1.00D-01 BMatC= 5.15D-02 BMatP= 1.65D-01
 IDIUse=3 WtCom= 8.37D-01 WtEn= 1.63D-01
 Coeff-Com: -0.827D-01 0.177D+00 0.287D+00 0.619D+00
 Coeff-En:   0.000D+00 0.000D+00 0.314D+00 0.686D+00
 Coeff:     -0.692D-01 0.148D+00 0.291D+00 0.630D+00
 Gap=     0.113 Goal=   None    Shift=    0.000
 Gap=     0.113 Goal=   None    Shift=    0.000
 RMSDP=1.83D-03 MaxDP=5.83D-02 DE=-4.81D-02 OVMax= 1.79D-01

 Cycle   5  Pass 1  IDiag  1:
 E= -382.253239686232     Delta-E=       -0.021894131342 Rises=F Damp=F
 DIIS: error= 5.02D-03 at cycle   5 NSaved=   5.
 NSaved= 5 IEnMin= 5 EnMin= -382.253239686232     IErMin= 5 ErrMin= 5.02D-03
 ErrMax= 5.02D-03  0.00D+00 EMaxC= 1.00D-01 BMatC= 4.57D-03 BMatP= 5.15D-02
 IDIUse=3 WtCom= 9.50D-01 WtEn= 5.02D-02
 Coeff-Com: -0.204D-01 0.189D-01-0.226D-01 0.237D+00 0.787D+00
 Coeff-En:   0.000D+00 0.000D+00 0.000D+00 0.121D+00 0.879D+00
 Coeff:     -0.194D-01 0.180D-01-0.215D-01 0.231D+00 0.792D+00
 Gap=     0.129 Goal=   None    Shift=    0.000
 Gap=     0.129 Goal=   None    Shift=    0.000
 RMSDP=4.84D-04 MaxDP=1.53D-02 DE=-2.19D-02 OVMax= 4.02D-02

 Cycle   6  Pass 1  IDiag  1:
 E= -382.255238432169     Delta-E=       -0.001998745936 Rises=F Damp=F
 DIIS: error= 2.82D-04 at cycle   6 NSaved=   6.
 NSaved= 6 IEnMin= 6 EnMin= -382.255238432169     IErMin= 6 ErrMin= 2.82D-04
 ErrMax= 2.82D-04  0.00D+00 EMaxC= 1.00D-01 BMatC= 6.26D-05 BMatP= 4.57D-03
 IDIUse=3 WtCom= 9.97D-01 WtEn= 2.82D-03
 Coeff-Com: -0.224D-02-0.235D-02-0.317D-01 0.248D-02 0.186D+00 0.848D+00
 Coeff-En:   0.000D+00 0.000D+00 0.000D+00 0.000D+00 0.000D+00 0.100D+01
 Coeff:     -0.223D-02-0.235D-02-0.316D-01 0.248D-02 0.185D+00 0.848D+00
 Gap=     0.131 Goal=   None    Shift=    0.000
 Gap=     0.131 Goal=   None    Shift=    0.000
 RMSDP=9.04D-05 MaxDP=1.19D-03 DE=-2.00D-03 OVMax= 4.15D-03

 Cycle   7  Pass 1  IDiag  1:
 E= -382.255268024993     Delta-E=       -0.000029592824 Rises=F Damp=F
 DIIS: error= 1.61D-04 at cycle   7 NSaved=   7.
 NSaved= 7 IEnMin= 7 EnMin= -382.255268024993     IErMin= 7 ErrMin= 1.61D-04
 ErrMax= 1.61D-04  0.00D+00 EMaxC= 1.00D-01 BMatC= 6.39D-06 BMatP= 6.26D-05
 IDIUse=3 WtCom= 9.98D-01 WtEn= 1.61D-03
 Coeff-Com:  0.154D-02-0.112D-02-0.198D-02-0.103D-01-0.370D-01 0.536D-01
 Coeff-Com:  0.995D+00
 Coeff-En:   0.000D+00 0.000D+00 0.000D+00 0.000D+00 0.000D+00 0.000D+00
 Coeff-En:   0.100D+01
 Coeff:      0.154D-02-0.112D-02-0.198D-02-0.103D-01-0.369D-01 0.535D-01
 Coeff:      0.995D+00
 Gap=     0.131 Goal=   None    Shift=    0.000
 Gap=     0.131 Goal=   None    Shift=    0.000
 RMSDP=3.25D-05 MaxDP=4.24D-04 DE=-2.96D-05 OVMax= 2.26D-03

 Cycle   8  Pass 1  IDiag  1:
 E= -382.255272286510     Delta-E=       -0.000004261517 Rises=F Damp=F
 DIIS: error= 9.64D-05 at cycle   8 NSaved=   8.
 NSaved= 8 IEnMin= 8 EnMin= -382.255272286510     IErMin= 8 ErrMin= 9.64D-05
 ErrMax= 9.64D-05  0.00D+00 EMaxC= 1.00D-01 BMatC= 1.64D-06 BMatP= 6.39D-06
 IDIUse=1 WtCom= 1.00D+00 WtEn= 0.00D+00
 Coeff-Com: -0.154D-03 0.278D-03 0.982D-03 0.458D-02-0.943D-02-0.693D-01
 Coeff-Com: -0.179D+00 0.125D+01
 Coeff:     -0.154D-03 0.278D-03 0.982D-03 0.458D-02-0.943D-02-0.693D-01
 Coeff:     -0.179D+00 0.125D+01
 Gap=     0.131 Goal=   None    Shift=    0.000
 Gap=     0.131 Goal=   None    Shift=    0.000
 RMSDP=1.62D-05 MaxDP=2.17D-04 DE=-4.26D-06 OVMax= 1.15D-03

 Cycle   9  Pass 1  IDiag  1:
 E= -382.255273365660     Delta-E=       -0.000001079150 Rises=F Damp=F
 DIIS: error= 7.23D-06 at cycle   9 NSaved=   9.
 NSaved= 9 IEnMin= 9 EnMin= -382.255273365660     IErMin= 9 ErrMin= 7.23D-06
 ErrMax= 7.23D-06  0.00D+00 EMaxC= 1.00D-01 BMatC= 2.37D-08 BMatP= 1.64D-06
 IDIUse=1 WtCom= 1.00D+00 WtEn= 0.00D+00
 Coeff-Com: -0.109D-03 0.721D-04 0.405D-03 0.100D-02 0.770D-03-0.546D-02
 Coeff-Com: -0.908D-01 0.128D+00 0.966D+00
 Coeff:     -0.109D-03 0.721D-04 0.405D-03 0.100D-02 0.770D-03-0.546D-02
 Coeff:     -0.908D-01 0.128D+00 0.966D+00
 Gap=     0.131 Goal=   None    Shift=    0.000
 Gap=     0.131 Goal=   None    Shift=    0.000
 RMSDP=3.15D-06 MaxDP=4.82D-05 DE=-1.08D-06 OVMax= 2.43D-04

 Cycle  10  Pass 1  IDiag  1:
 E= -382.255273389108     Delta-E=       -0.000000023448 Rises=F Damp=F
 DIIS: error= 8.13D-06 at cycle  10 NSaved=  10.
 NSaved=10 IEnMin=10 EnMin= -382.255273389108     IErMin= 9 ErrMin= 7.23D-06
 ErrMax= 8.13D-06  0.00D+00 EMaxC= 1.00D-01 BMatC= 1.42D-08 BMatP= 2.37D-08
 IDIUse=1 WtCom= 1.00D+00 WtEn= 0.00D+00
 Coeff-Com:  0.585D-06 0.224D-05 0.232D-03-0.364D-03 0.121D-03 0.576D-03
 Coeff-Com:  0.274D-03-0.598D-01 0.978D-01 0.961D+00
 Coeff:      0.585D-06 0.224D-05 0.232D-03-0.364D-03 0.121D-03 0.576D-03
 Coeff:      0.274D-03-0.598D-01 0.978D-01 0.961D+00
 Gap=     0.131 Goal=   None    Shift=    0.000
 Gap=     0.131 Goal=   None    Shift=    0.000
 RMSDP=9.00D-07 MaxDP=1.56D-05 DE=-2.34D-08 OVMax= 5.31D-05

 Cycle  11  Pass 1  IDiag  1:
 E= -382.255273395357     Delta-E=       -0.000000006249 Rises=F Damp=F
 DIIS: error= 2.44D-06 at cycle  11 NSaved=  11.
 NSaved=11 IEnMin=11 EnMin= -382.255273395357     IErMin=11 ErrMin= 2.44D-06
 ErrMax= 2.44D-06  0.00D+00 EMaxC= 1.00D-01 BMatC= 1.11D-09 BMatP= 1.42D-08
 IDIUse=1 WtCom= 1.00D+00 WtEn= 0.00D+00
 Coeff-Com: -0.498D-05 0.147D-04 0.270D-04-0.120D-03-0.320D-04 0.288D-03
 Coeff-Com:  0.505D-02-0.755D-02-0.312D-01 0.455D-01 0.988D+00
 Coeff:     -0.498D-05 0.147D-04 0.270D-04-0.120D-03-0.320D-04 0.288D-03
 Coeff:      0.505D-02-0.755D-02-0.312D-01 0.455D-01 0.988D+00
 Gap=     0.131 Goal=   None    Shift=    0.000
 Gap=     0.131 Goal=   None    Shift=    0.000
 RMSDP=2.14D-07 MaxDP=4.78D-06 DE=-6.25D-09 OVMax= 1.41D-05

 Cycle  12  Pass 1  IDiag  1:
 E= -382.255273395777     Delta-E=       -0.000000000420 Rises=F Damp=F
 DIIS: error= 2.92D-07 at cycle  12 NSaved=  12.
 NSaved=12 IEnMin=12 EnMin= -382.255273395777     IErMin=12 ErrMin= 2.92D-07
 ErrMax= 2.92D-07  0.00D+00 EMaxC= 1.00D-01 BMatC= 1.78D-11 BMatP= 1.11D-09
 IDIUse=1 WtCom= 1.00D+00 WtEn= 0.00D+00
 Coeff-Com: -0.157D-05 0.404D-05 0.210D-05-0.185D-04-0.163D-04 0.118D-04
 Coeff-Com:  0.884D-03-0.114D-02-0.765D-02-0.212D-01 0.114D+00 0.915D+00
 Coeff:     -0.157D-05 0.404D-05 0.210D-05-0.185D-04-0.163D-04 0.118D-04
 Coeff:      0.884D-03-0.114D-02-0.765D-02-0.212D-01 0.114D+00 0.915D+00
 Gap=     0.131 Goal=   None    Shift=    0.000
 Gap=     0.131 Goal=   None    Shift=    0.000
 RMSDP=3.93D-08 MaxDP=5.13D-07 DE=-4.20D-10 OVMax= 2.04D-06

 Cycle  13  Pass 1  IDiag  1:
 E= -382.255273395785     Delta-E=       -0.000000000008 Rises=F Damp=F
 DIIS: error= 4.50D-08 at cycle  13 NSaved=  13.
 NSaved=13 IEnMin=13 EnMin= -382.255273395785     IErMin=13 ErrMin= 4.50D-08
 ErrMax= 4.50D-08  0.00D+00 EMaxC= 1.00D-01 BMatC= 4.98D-13 BMatP= 1.78D-11
 IDIUse=1 WtCom= 1.00D+00 WtEn= 0.00D+00
 Coeff-Com:  0.126D-07-0.229D-06-0.560D-06 0.179D-05 0.442D-05-0.144D-04
 Coeff-Com: -0.190D-03-0.299D-04 0.243D-02 0.299D-02-0.521D-01-0.773D-02
 Coeff-Com:  0.105D+01
 Coeff:      0.126D-07-0.229D-06-0.560D-06 0.179D-05 0.442D-05-0.144D-04
 Coeff:     -0.190D-03-0.299D-04 0.243D-02 0.299D-02-0.521D-01-0.773D-02
 Coeff:      0.105D+01
 Gap=     0.131 Goal=   None    Shift=    0.000
 Gap=     0.131 Goal=   None    Shift=    0.000
 RMSDP=8.24D-09 MaxDP=1.49D-07 DE=-7.62D-12 OVMax= 3.75D-07

 SCF Done:  E(UM062X) =  -382.255273396     A.U. after   13 cycles
            NFock= 13  Conv=0.82D-08     -V/T= 2.0022
 <Sx>= 0.0000 <Sy>= 0.0000 <Sz>= 0.0000 <S**2>=-0.0000 S=-0.0000
 <L.S>=  0.00000000000    
 KE= 3.814096162132D+02 PE=-9.904619722786D+02 EE= 1.847328975192D+02
 Annihilation of the first spin contaminant:
 S**2 before annihilation    -0.0000,   after     0.0000
 Leave Link  502 at Mon Apr 21 19:04:55 2025, MaxMem=   536870912 cpu:              91.3 elap:              12.1
 (Enter /home/szhao/Apps/g16/l601.exe)
 Copying SCF densities to generalized density rwf, IOpCl= 1 IROHF=0.

 **********************************************************************

            Population analysis using the SCF density.

 **********************************************************************

 Alpha  occ. eigenvalues --  -78.04957 -10.57619  -6.87301  -4.98854  -4.98726
 Alpha  occ. eigenvalues --   -4.98535  -0.77337  -0.70812  -0.47278  -0.46897
 Alpha  occ. eigenvalues --   -0.45150  -0.35639  -0.25687
 Alpha virt. eigenvalues --   -0.12572   0.02037   0.03422   0.04039   0.04748
 Alpha virt. eigenvalues --    0.06389   0.06740   0.07227   0.07423   0.12319
 Alpha virt. eigenvalues --    0.16609   0.18673   0.19238   0.25277   0.29866
 Alpha virt. eigenvalues --    0.30679   0.33349   0.37929   0.42915   0.44768
 Alpha virt. eigenvalues --    0.45055   0.53421   0.58476   0.64051   0.64051
 Alpha virt. eigenvalues --    0.64935   0.67886   0.68637   0.70872   0.82886
 Alpha virt. eigenvalues --    0.87684   0.95984   1.06494   1.06950   1.37781
 Alpha virt. eigenvalues --    1.37800   1.44183   1.48654   1.49959   1.50506
 Alpha virt. eigenvalues --    1.56710   1.56810   1.61463   1.63325   1.67864
 Alpha virt. eigenvalues --    1.70903   1.71472   2.01031   2.01984   2.12206
 Alpha virt. eigenvalues --    2.18818   2.19388   2.39842   2.47719   2.48701
 Alpha virt. eigenvalues --    2.54614   2.54783   2.56726   2.64003   2.72210
 Alpha virt. eigenvalues --    2.98376   3.74894   3.77001   7.01178  14.00339
 Alpha virt. eigenvalues --   14.03513  14.04042  23.95520 163.28263
  Beta  occ. eigenvalues --  -78.04957 -10.57619  -6.87301  -4.98854  -4.98726
  Beta  occ. eigenvalues --   -4.98535  -0.77337  -0.70812  -0.47278  -0.46897
  Beta  occ. eigenvalues --   -0.45150  -0.35639  -0.25687
  Beta virt. eigenvalues --   -0.12572   0.02037   0.03422   0.04039   0.04748
  Beta virt. eigenvalues --    0.06389   0.06740   0.07227   0.07423   0.12319
  Beta virt. eigenvalues --    0.16609   0.18673   0.19238   0.25277   0.29866
  Beta virt. eigenvalues --    0.30679   0.33349   0.37929   0.42915   0.44768
  Beta virt. eigenvalues --    0.45055   0.53421   0.58476   0.64051   0.64051
  Beta virt. eigenvalues --    0.64935   0.67886   0.68637   0.70872   0.82886
  Beta virt. eigenvalues --    0.87684   0.95984   1.06494   1.06950   1.37781
  Beta virt. eigenvalues --    1.37800   1.44183   1.48654   1.49959   1.50506
  Beta virt. eigenvalues --    1.56710   1.56810   1.61463   1.63325   1.67864
  Beta virt. eigenvalues --    1.70903   1.71472   2.01031   2.01984   2.12206
  Beta virt. eigenvalues --    2.18818   2.19388   2.39842   2.47719   2.48701
  Beta virt. eigenvalues --    2.54614   2.54783   2.56726   2.64003   2.72210
  Beta virt. eigenvalues --    2.98376   3.74894   3.77001   7.01178  14.00339
  Beta virt. eigenvalues --   14.03513  14.04042  23.95520 163.28263
          Condensed to atoms (all electrons):
               1          2          3          4          5          6
     1  C    5.226460   0.145637  -0.005282   0.384987  -0.005282   0.384988
     2  P    0.145637  14.324334   0.260196  -0.002869   0.260200  -0.002869
     3  H   -0.005282   0.260196   0.766049   0.000047  -0.022062   0.000053
     4  H    0.384987  -0.002869   0.000047   0.518648   0.000053  -0.032762
     5  H   -0.005282   0.260200  -0.022062   0.000053   0.766048   0.000047
     6  H    0.384988  -0.002869   0.000053  -0.032762   0.000047   0.518648
     7  H    0.382375  -0.005040   0.000143  -0.031505   0.000143  -0.031505
               7
     1  C    0.382375
     2  P   -0.005040
     3  H    0.000143
     4  H   -0.031505
     5  H    0.000143
     6  H   -0.031505
     7  H    0.520429
          Atomic-Atomic Spin Densities.
               1          2          3          4          5          6
     1  C   -0.000000   0.000000   0.000000   0.000000  -0.000000   0.000000
     2  P    0.000000   0.000000   0.000000  -0.000000   0.000000  -0.000000
     3  H    0.000000   0.000000  -0.000000   0.000000  -0.000000   0.000000
     4  H    0.000000  -0.000000   0.000000   0.000000   0.000000  -0.000000
     5  H   -0.000000   0.000000  -0.000000   0.000000  -0.000000   0.000000
     6  H    0.000000  -0.000000   0.000000  -0.000000   0.000000   0.000000
     7  H    0.000000  -0.000000   0.000000  -0.000000   0.000000  -0.000000
               7
     1  C    0.000000
     2  P   -0.000000
     3  H    0.000000
     4  H   -0.000000
     5  H    0.000000
     6  H   -0.000000
     7  H    0.000000
 Mulliken charges and spin densities:
               1          2
     1  C   -0.513882  -0.000000
     2  P    0.020411   0.000000
     3  H    0.000857  -0.000000
     4  H    0.163400   0.000000
     5  H    0.000854  -0.000000
     6  H    0.163400   0.000000
     7  H    0.164960   0.000000
 Sum of Mulliken charges =  -0.00000   0.00000
 Mulliken charges and spin densities with hydrogens summed into heavy atoms:
               1          2
     1  C   -0.022122  -0.000000
     2  P    0.022122   0.000000
 Electronic spatial extent (au):  <R**2>=            405.5812
 Charge=             -0.0000 electrons
 Dipole moment (field-independent basis, Debye):
    X=             -0.3065    Y=             -0.5149    Z=              0.5567  Tot=              0.8179
 Quadrupole moment (field-independent basis, Debye-Ang):
   XX=            -18.4487   YY=            -22.7175   ZZ=            -22.8406
   XY=             -1.4277   XZ=              1.5435   YZ=              0.7883
 Traceless Quadrupole moment (field-independent basis, Debye-Ang):
   XX=              2.8869   YY=             -1.3819   ZZ=             -1.5050
   XY=             -1.4277   XZ=              1.5435   YZ=              0.7883
 Octapole moment (field-independent basis, Debye-Ang**2):
  XXX=            -39.7818  YYY=              3.2726  ZZZ=             -3.3741  XYY=            -12.8528
  XXY=             -2.2008  XXZ=              2.3791  XZZ=            -13.1039  YZZ=              0.3401
  YYZ=             -0.5315  XYZ=              1.6090
 Hexadecapole moment (field-independent basis, Debye-Ang**3):
 XXXX=           -501.9761 YYYY=            -48.4938 ZZZZ=            -48.8428 XXXY=             -1.0290
 XXXZ=              1.1123 YYYX=              3.3270 YYYZ=              1.0505 ZZZX=             -4.0045
 ZZZY=              1.1853 XXYY=            -90.0628 XXZZ=            -90.5000 YYZZ=            -16.7949
 XXYZ=              2.8005 YYXZ=             -2.8110 ZZXY=              2.9773
 N-N= 4.206418515045D+01 E-N=-9.904619745676D+02  KE= 3.814096162132D+02
                          Isotropic Fermi Contact Couplings
        Atom                 a.u.       MegaHertz       Gauss      10(-4) cm-1
     1  C(13)             -0.00000      -0.00000      -0.00000      -0.00000
     2  P(31)              0.00000       0.00000       0.00000       0.00000
     3  H(1)              -0.00000      -0.00000      -0.00000      -0.00000
     4  H(1)              -0.00000      -0.00000      -0.00000      -0.00000
     5  H(1)              -0.00000      -0.00000      -0.00000      -0.00000
     6  H(1)               0.00000       0.00000       0.00000       0.00000
     7  H(1)              -0.00000      -0.00000      -0.00000      -0.00000
 --------------------------------------------------------
       Center         ----  Spin Dipole Couplings  ----
                      3XX-RR        3YY-RR        3ZZ-RR
 --------------------------------------------------------
     1   Atom        0.000000      0.000000      0.000000
     2   Atom        0.000000      0.000000      0.000000
     3   Atom        0.000000      0.000000      0.000000
     4   Atom        0.000000      0.000000      0.000000
     5   Atom        0.000000      0.000000      0.000000
     6   Atom        0.000000      0.000000      0.000000
     7   Atom        0.000000      0.000000      0.000000
 --------------------------------------------------------
                        XY            XZ            YZ
 --------------------------------------------------------
     1   Atom        0.000000      0.000000      0.000000
     2   Atom        0.000000      0.000000      0.000000
     3   Atom        0.000000      0.000000      0.000000
     4   Atom        0.000000      0.000000      0.000000
     5   Atom        0.000000      0.000000      0.000000
     6   Atom        0.000000      0.000000      0.000000
     7   Atom        0.000000      0.000000      0.000000
 --------------------------------------------------------


 ---------------------------------------------------------------------------------
              Anisotropic Spin Dipole Couplings in Principal Axis System
 ---------------------------------------------------------------------------------

       Atom             a.u.   MegaHertz   Gauss  10(-4) cm-1        Axes

              Baa     0.0000     0.000     0.000     0.000  1.0000  0.0000  0.0000
     1 C(13)  Bbb     0.0000     0.000     0.000     0.000 -0.0000  1.0000  0.0000
              Bcc     0.0000     0.000     0.000     0.000  0.0000  0.0000  1.0000
 
              Baa     0.0000     0.000     0.000     0.000  1.0000  0.0000  0.0000
     2 P(31)  Bbb     0.0000     0.000     0.000     0.000 -0.0000  1.0000  0.0000
              Bcc     0.0000     0.000     0.000     0.000  0.0000  0.0000  1.0000
 
              Baa     0.0000     0.000     0.000     0.000  1.0000  0.0000  0.0000
     3 H(1)   Bbb     0.0000     0.000     0.000     0.000 -0.0000  1.0000  0.0000
              Bcc     0.0000     0.000     0.000     0.000  0.0000  0.0000  1.0000
 
              Baa     0.0000     0.000     0.000     0.000  1.0000  0.0000  0.0000
     4 H(1)   Bbb     0.0000     0.000     0.000     0.000 -0.0000  1.0000  0.0000
              Bcc     0.0000     0.000     0.000     0.000  0.0000  0.0000  1.0000
 
              Baa     0.0000     0.000     0.000     0.000  1.0000  0.0000  0.0000
     5 H(1)   Bbb     0.0000     0.000     0.000     0.000 -0.0000  1.0000  0.0000
              Bcc     0.0000     0.000     0.000     0.000  0.0000  0.0000  1.0000
 
              Baa     0.0000     0.000     0.000     0.000  1.0000  0.0000  0.0000
     6 H(1)   Bbb     0.0000     0.000     0.000     0.000 -0.0000  1.0000  0.0000
              Bcc     0.0000     0.000     0.000     0.000  0.0000  0.0000  1.0000
 
              Baa     0.0000     0.000     0.000     0.000  1.0000  0.0000  0.0000
     7 H(1)   Bbb     0.0000     0.000     0.000     0.000 -0.0000  1.0000  0.0000
              Bcc     0.0000     0.000     0.000     0.000  0.0000  0.0000  1.0000
 

 ---------------------------------------------------------------------------------

 No NMR shielding tensors so no spin-rotation constants.
 Leave Link  601 at Mon Apr 21 19:04:55 2025, MaxMem=   536870912 cpu:               1.1 elap:               0.2
 (Enter /home/szhao/Apps/g16/l701.exe)
 ... and contract with generalized density number  0.
 Compute integral first derivatives.
 Leave Link  701 at Mon Apr 21 19:04:56 2025, MaxMem=   536870912 cpu:               1.1 elap:               0.2
 (Enter /home/szhao/Apps/g16/l702.exe)
 L702 exits ... SP integral derivatives will be done elsewhere.
 Leave Link  702 at Mon Apr 21 19:04:56 2025, MaxMem=   536870912 cpu:               0.3 elap:               0.1
 (Enter /home/szhao/Apps/g16/l703.exe)
 Integral derivatives from FoFJK, PRISM(SPDF).
 Compute integral first derivatives, UseDBF=F ICtDFT=           0.
 Calling FoFJK, ICntrl=      2127 FMM=F ISym2X=0 I1Cent= 0 IOpClX= 1 NMat=1 NMatS=1 NMatT=0.
 FoFJK:  IHMeth= 1 ICntrl=    2127 DoSepK=F KAlg= 0 I1Cent=           0 FoldK=F
 IRaf=         0 NMat=       1 IRICut=       1 DoRegI=T DoRafI=F ISym2E= 0 IDoP0=0 IntGTp=1.
 FoFCou: FMM=F IPFlag=           0 FMFlag=      100000 FMFlg1=         800
         NFxFlg=           0 DoJE=F BraDBF=F KetDBF=F FulRan=T
         wScrn=  0.000000 ICntrl=      2127 IOpCl=  1 I1Cent=           0 NGrid=           0
         NMat0=    1 NMatS0=      1 NMatT0=    0 NMatD0=    1 NMtDS0=    0 NMtDT0=    0
 Symmetry not used in FoFCou.
 Leave Link  703 at Mon Apr 21 19:04:57 2025, MaxMem=   536870912 cpu:              12.0 elap:               1.6
 (Enter /home/szhao/Apps/g16/l716.exe)
 Dipole        =-1.20586583D-01-2.02580360D-01 2.19009341D-01
 -------------------------------------------------------------------
 Center     Atomic                   Forces (Hartrees/Bohr)
 Number     Number              X              Y              Z
 -------------------------------------------------------------------
      1        6          -0.000000000   -0.000000000   -0.000000000
      2       15          -0.000000000   -0.000000000   -0.000000000
      3        1          -0.002492650   -0.001072542    0.002030504
      4        1           0.017480842    0.004639093    0.003242215
      5        1          -0.002493784   -0.001961238    0.001222042
      6        1           0.017481481   -0.003591109   -0.004375013
      7        1           0.016219239   -0.004886875    0.005282321
 -------------------------------------------------------------------
 Cartesian Forces:  Max     0.017481481 RMS     0.006945864
 Leave Link  716 at Mon Apr 21 19:04:58 2025, MaxMem=   536870912 cpu:               0.6 elap:               0.2
 (Enter /home/szhao/Apps/g16/l103.exe)

 GradGradGradGradGradGradGradGradGradGradGradGradGradGradGradGradGradGrad
 Berny optimization.
 FormGI is forming the generalized inverse of G from B-inverse, IUseBI=4.
 Internal  Forces:  Max     0.051181562 RMS     0.013638838
 Search for a local minimum.
 Step number   1 out of a maximum of   36
 All quantities printed in internal units (Hartrees-Bohrs-Radians)
 RMS Force = .10342D-01 SwitMx=.10000D-02 MixMth= 1
 Mixed Optimization -- RFO/linear search
 Second derivative matrix not updated -- first step.
 ITU=  0
     Eigenvalues ---    0.00230   0.06270   0.06704   0.07377   0.16000
     Eigenvalues ---    0.16000   0.16000   0.16000   0.16000   0.21118
     Eigenvalues ---    0.21118   0.34766   0.34766   0.349641000.00000
     Eigenvalues --- 1000.000001000.000001000.000001000.000001000.00000
     Eigenvalues --- 1000.000001000.000001000.000001000.000001000.00000
     Eigenvalues --- 1000.00000
 RFO step:  Lambda=-1.26240100D-02 EMin= 2.30000000D-03
 Linear search not attempted -- first point.
 Iteration  1 RMS(Cart)=  0.08179049 RMS(Int)=  0.00582762
 Iteration  2 RMS(Cart)=  0.00593789 RMS(Int)=  0.00331107
 Iteration  3 RMS(Cart)=  0.00006284 RMS(Int)=  0.00331083
 Iteration  4 RMS(Cart)=  0.00000077 RMS(Int)=  0.00331083
 ITry= 1 IFail=0 DXMaxC= 2.18D-01 DCOld= 1.00D+10 DXMaxT= 3.00D-01 DXLimC= 3.00D+00 Rises=F
 Variable       Old X    -DE/DX   Delta X   Delta X   Delta X     New X
                                 (Linear)    (Quad)   (Total)
    X1       -3.46059   0.05118   0.00000   0.00000   0.00000  -3.46059
    Y1        0.00000  -0.00278   0.00000   0.00000   0.00000   0.00000
    Z1        0.00000   0.00301   0.00000   0.00000   0.00000   0.00000
    X2        3.46059  -0.00499   0.00000   0.00000   0.00000   3.46059
    Y2        0.00000  -0.00408   0.00000   0.00000   0.00000   0.00000
    Z2        0.00000   0.00440   0.00000   0.00000   0.00000   0.00000
    R1        2.06056  -0.00071   0.00000  -0.00196  -0.00196   2.05859
    R2        2.06056  -0.00071   0.00000  -0.00196  -0.00196   2.05860
    R3        2.05733   0.00011   0.00000   0.00030   0.00030   2.05763
    R4        2.67742   0.00075   0.00000   0.00334   0.00334   2.68076
    R5        2.67742   0.00074   0.00000   0.00331   0.00331   2.68073
    A1        1.89770  -0.01831   0.00000  -0.10375  -0.10954   1.78816
    A2        1.89770  -0.01831   0.00000  -0.10376  -0.10955   1.78815
    A3        1.98228  -0.01739   0.00000  -0.10570  -0.11192   1.87036
    A4        1.87744   0.01920   0.00000   0.12206   0.11524   1.99268
    A5        1.90298   0.01834   0.00000   0.10147   0.09345   1.99643
    A6        1.90298   0.01834   0.00000   0.10148   0.09346   1.99643
    A7        1.69824  -0.00712   0.00000  -0.04410  -0.04423   1.65402
    A8        1.69824  -0.00712   0.00000  -0.04411  -0.04423   1.65401
    A9        1.63122  -0.00098   0.00000  -0.02674  -0.02820   1.60302
    D1        2.94625  -0.00282   0.00000  -0.03496  -0.03408   2.91217
    D2        1.29757   0.00015   0.00000   0.00447   0.00439   1.30196
    D3       -1.29766  -0.00014   0.00000  -0.00401  -0.00393  -1.30158
    D4       -2.94633   0.00283   0.00000   0.03542   0.03454  -2.91179
    D5        0.82430  -0.00148   0.00000  -0.01949  -0.01900   0.80529
    D6       -0.82438   0.00149   0.00000   0.01995   0.01946  -0.80492
         Item               Value     Threshold  Converged?
 Maximum Force            0.019202     0.000450     NO 
 RMS     Force            0.010342     0.000300     NO 
 Maximum Displacement     0.217741     0.001800     NO 
 RMS     Displacement     0.085443     0.001200     NO 
 Predicted change in Energy=-6.750078D-03
 Lowest energy point so far.  Saving SCF results.
 GradGradGradGradGradGradGradGradGradGradGradGradGradGradGradGradGradGrad

 Leave Link  103 at Mon Apr 21 19:04:58 2025, MaxMem=   536870912 cpu:               0.5 elap:               0.1
 (Enter /home/szhao/Apps/g16/l202.exe)
                          Input orientation:                          
 ---------------------------------------------------------------------
 Center     Atomic      Atomic             Coordinates (Angstroms)
 Number     Number       Type             X           Y           Z
 ---------------------------------------------------------------------
      1          6           0       -1.831264    0.000000    0.000000
      2         15           0        1.831264    0.000000    0.000000
      3          1           0        1.949182   -1.413424    0.027182
      4          1           0       -2.066189    1.040316    0.221948
      5          1           0        1.949175    0.082852    1.411242
      6          1           0       -2.066182   -0.302587   -1.019787
      7          1           0       -2.152590   -0.706307    0.763855
 ---------------------------------------------------------------------
                    Distance matrix (angstroms):
                    1          2          3          4          5
     1  C    0.000000
     2  P    3.662527   0.000000
     3  H    4.036122   1.418595   0.000000
     4  H    1.089361   4.040007   4.709775   0.000000
     5  H    4.036110   1.418581   2.038250   4.295848   0.000000
     6  H    1.089363   4.040001   4.295725   1.829015   4.709731
     7  H    1.088850   4.117455   4.226966   1.830798   4.226862
                    6          7
     6  H    0.000000
     7  H    1.830802   0.000000
 Symmetry turned off by external request.
 Stoichiometry    CH5P
 Framework group  C1[X(CH5P)]
 Deg. of freedom    15
 Full point group                 C1      NOp   1
 Rotational constants (GHZ):          69.4618684           3.4425033           3.4358843
 Leave Link  202 at Mon Apr 21 19:04:58 2025, MaxMem=   536870912 cpu:               0.1 elap:               0.0
 (Enter /home/szhao/Apps/g16/l301.exe)
 Standard basis: 6-311+G(d,p) (5D, 7F)
 Ernie: Thresh=  0.10000D-02 Tol=  0.10000D-05 Strict=F.
    82 basis functions,   126 primitive gaussians,    84 cartesian basis functions
    13 alpha electrons       13 beta electrons
       nuclear repulsion energy        42.2188609854 Hartrees.
 IExCor= 4336 DFT=T Ex+Corr=M062X ExCW=0 ScaHFX=  0.540000
 ScaDFX=  1.000000  1.000000  1.000000  1.000000 ScalE2=  1.000000  1.000000
 IRadAn=      7 IRanWt=     -1 IRanGd=            0 ICorTp=0 IEmpDi=  4
 NAtoms=    7 NActive=    7 NUniq=    7 SFac= 1.00D+00 NAtFMM=   60 NAOKFM=F Big=F
 Integral buffers will be    131072 words long.
 Raffenetti 2 integral format.
 Two-electron integral symmetry is turned off.
 Leave Link  301 at Mon Apr 21 19:04:58 2025, MaxMem=   536870912 cpu:               0.7 elap:               0.1
 (Enter /home/szhao/Apps/g16/l302.exe)
 NPDir=0 NMtPBC=     1 NCelOv=     1 NCel=       1 NClECP=     1 NCelD=      1
         NCelK=      1 NCelE2=     1 NClLst=     1 CellRange=     0.0.
 One-electron integrals computed using PRISM.
 NBasis=    82 RedAO= T EigKep=  5.07D-03  NBF=    82
 NBsUse=    82 1.00D-06 EigRej= -1.00D+00 NBFU=    82
 Precomputing XC quadrature grid using
 IXCGrd= 4 IRadAn=           7 IRanWt=          -1 IRanGd=           0 AccXCQ= 0.00D+00.
 Generated NRdTot=       0 NPtTot=           0 NUsed=           0 NTot=          32
 NSgBfM=    84    84    84    84    84 MxSgAt=     7 MxSgA2=     7.
 Leave Link  302 at Mon Apr 21 19:04:59 2025, MaxMem=   536870912 cpu:               1.8 elap:               0.3
 (Enter /home/szhao/Apps/g16/l303.exe)
 DipDrv:  MaxL=1.
 Leave Link  303 at Mon Apr 21 19:04:59 2025, MaxMem=   536870912 cpu:               0.9 elap:               0.2
 (Enter /home/szhao/Apps/g16/l401.exe)
 Initial guess from the checkpoint file:  "opt.chk"
 B after Tr=     0.016180   -0.003476    0.003739
         Rot=    1.000000    0.000051    0.000478    0.000444 Ang=   0.07 deg.
 Guess basis will be translated and rotated to current coordinates.
 JPrj=2 DoOrth=T DoCkMO=T.
 Initial guess <Sx>= 0.0000 <Sy>= 0.0000 <Sz>= 0.0000 <S**2>=-0.0000 S=-0.0000
 Generating alternative initial guess.
 ExpMin= 3.48D-02 ExpMax= 7.75D+04 ExpMxC= 2.65D+03 IAcc=3 IRadAn=         5 AccDes= 0.00D+00
 Harris functional with IExCor= 1009 and IRadAn=       5 diagonalized for initial guess.
 HarFok:  IExCor= 1009 AccDes= 0.00D+00 IRadAn=         5 IDoV= 1 UseB2=F ITyADJ=14
 ICtDFT=  3500011 ScaDFX=  1.000000  1.000000  1.000000  1.000000
 FoFCou: FMM=F IPFlag=           0 FMFlag=      100000 FMFlg1=           0
         NFxFlg=           0 DoJE=T BraDBF=F KetDBF=T FulRan=T
         wScrn=  0.000000 ICntrl=       500 IOpCl=  0 I1Cent=   200000004 NGrid=           0
         NMat0=    1 NMatS0=      1 NMatT0=    0 NMatD0=    1 NMtDS0=    0 NMtDT0=    0
 Symmetry not used in FoFCou.
 Harris En= -382.178378559275    
 Leave Link  401 at Mon Apr 21 19:05:00 2025, MaxMem=   536870912 cpu:               3.5 elap:               0.5
 (Enter /home/szhao/Apps/g16/l502.exe)
 Keep R1 and R2 ints in memory in canonical form, NReq=18891869.
 FoFCou: FMM=F IPFlag=           0 FMFlag=           0 FMFlg1=           0
         NFxFlg=           0 DoJE=F BraDBF=F KetDBF=F FulRan=T
         wScrn=  0.000000 ICntrl=       600 IOpCl=  0 I1Cent=           0 NGrid=           0
         NMat0=    1 NMatS0=   3403 NMatT0=    0 NMatD0=    1 NMtDS0=    0 NMtDT0=    0
 Symmetry not used in FoFCou.
 Two-electron integral symmetry not used.
 UHF open shell SCF:
 Using DIIS extrapolation, IDIIS=  1040.
 NGot=   536870912 LenX=   525271507 LenY=   525264010
 Requested convergence on RMS density matrix=1.00D-08 within 128 cycles.
 Requested convergence on MAX density matrix=1.00D-06.
 Requested convergence on             energy=1.00D-06.
 No special actions if energy rises.

 Cycle   1  Pass 1  IDiag  1:
 E= -382.262669470377    
 DIIS: error= 6.64D-03 at cycle   1 NSaved=   1.
 NSaved= 1 IEnMin= 1 EnMin= -382.262669470377     IErMin= 1 ErrMin= 6.64D-03
 ErrMax= 6.64D-03  0.00D+00 EMaxC= 1.00D-01 BMatC= 6.57D-03 BMatP= 6.57D-03
 IDIUse=3 WtCom= 9.34D-01 WtEn= 6.64D-02
 Coeff-Com:  0.100D+01
 Coeff-En:   0.100D+01
 Coeff:      0.100D+01
 Gap=     0.432 Goal=   None    Shift=    0.000
 Gap=     0.432 Goal=   None    Shift=    0.000
 GapD=    0.432 DampG=2.000 DampE=1.000 DampFc=2.0000 IDamp=-1.
 RMSDP=6.12D-04 MaxDP=8.97D-03              OVMax= 3.65D-02

 Cycle   2  Pass 1  IDiag  1:
 E= -382.265013674243     Delta-E=       -0.002344203867 Rises=F Damp=F
 DIIS: error= 1.91D-03 at cycle   2 NSaved=   2.
 NSaved= 2 IEnMin= 2 EnMin= -382.265013674243     IErMin= 2 ErrMin= 1.91D-03
 ErrMax= 1.91D-03  0.00D+00 EMaxC= 1.00D-01 BMatC= 6.63D-04 BMatP= 6.57D-03
 IDIUse=3 WtCom= 9.81D-01 WtEn= 1.91D-02
 Coeff-Com:  0.671D-02 0.993D+00
 Coeff-En:   0.000D+00 0.100D+01
 Coeff:      0.659D-02 0.993D+00
 Gap=     0.130 Goal=   None    Shift=    0.000
 Gap=     0.130 Goal=   None    Shift=    0.000
 RMSDP=5.42D-04 MaxDP=1.75D-02 DE=-2.34D-03 OVMax= 4.90D-02

 Cycle   3  Pass 1  IDiag  1:
 E= -382.263413944478     Delta-E=        0.001599729766 Rises=F Damp=F
 DIIS: error= 4.98D-03 at cycle   3 NSaved=   3.
 NSaved= 3 IEnMin= 2 EnMin= -382.265013674243     IErMin= 2 ErrMin= 1.91D-03
 ErrMax= 4.98D-03  0.00D+00 EMaxC= 1.00D-01 BMatC= 4.62D-03 BMatP= 6.63D-04
 IDIUse=3 WtCom= 1.24D-01 WtEn= 8.76D-01
 Coeff-Com: -0.509D-01 0.784D+00 0.267D+00
 Coeff-En:   0.000D+00 0.817D+00 0.183D+00
 Coeff:     -0.632D-02 0.813D+00 0.194D+00
 Gap=     0.130 Goal=   None    Shift=    0.000
 Gap=     0.130 Goal=   None    Shift=    0.000
 RMSDP=3.00D-04 MaxDP=9.85D-03 DE= 1.60D-03 OVMax= 2.95D-02

 Cycle   4  Pass 1  IDiag  1:
 E= -382.265238112609     Delta-E=       -0.001824168131 Rises=F Damp=F
 DIIS: error= 1.07D-03 at cycle   4 NSaved=   4.
 NSaved= 4 IEnMin= 4 EnMin= -382.265238112609     IErMin= 4 ErrMin= 1.07D-03
 ErrMax= 1.07D-03  0.00D+00 EMaxC= 1.00D-01 BMatC= 2.09D-04 BMatP= 6.63D-04
 IDIUse=3 WtCom= 9.89D-01 WtEn= 1.07D-02
 Coeff-Com: -0.238D-01 0.102D+00-0.203D+00 0.112D+01
 Coeff-En:   0.000D+00 0.226D+00 0.000D+00 0.774D+00
 Coeff:     -0.236D-01 0.103D+00-0.201D+00 0.112D+01
 Gap=     0.131 Goal=   None    Shift=    0.000
 Gap=     0.131 Goal=   None    Shift=    0.000
 RMSDP=1.07D-04 MaxDP=3.29D-03 DE=-1.82D-03 OVMax= 9.86D-03

 Cycle   5  Pass 1  IDiag  1:
 E= -382.265335867066     Delta-E=       -0.000097754457 Rises=F Damp=F
 DIIS: error= 1.35D-04 at cycle   5 NSaved=   5.
 NSaved= 5 IEnMin= 5 EnMin= -382.265335867066     IErMin= 5 ErrMin= 1.35D-04
 ErrMax= 1.35D-04  0.00D+00 EMaxC= 1.00D-01 BMatC= 3.47D-06 BMatP= 2.09D-04
 IDIUse=3 WtCom= 9.99D-01 WtEn= 1.35D-03
 Coeff-Com: -0.378D-03-0.404D-01-0.289D-01 0.167D+00 0.903D+00
 Coeff-En:   0.000D+00 0.000D+00 0.000D+00 0.000D+00 0.100D+01
 Coeff:     -0.378D-03-0.404D-01-0.289D-01 0.167D+00 0.903D+00
 Gap=     0.131 Goal=   None    Shift=    0.000
 Gap=     0.131 Goal=   None    Shift=    0.000
 RMSDP=1.87D-05 MaxDP=3.20D-04 DE=-9.78D-05 OVMax= 1.12D-03

 Cycle   6  Pass 1  IDiag  1:
 E= -382.265337799657     Delta-E=       -0.000001932591 Rises=F Damp=F
 DIIS: error= 4.16D-05 at cycle   6 NSaved=   6.
 NSaved= 6 IEnMin= 6 EnMin= -382.265337799657     IErMin= 6 ErrMin= 4.16D-05
 ErrMax= 4.16D-05  0.00D+00 EMaxC= 1.00D-01 BMatC= 3.60D-07 BMatP= 3.47D-06
 IDIUse=1 WtCom= 1.00D+00 WtEn= 0.00D+00
 Coeff-Com:  0.298D-02-0.257D-01 0.225D-01-0.102D+00 0.188D+00 0.915D+00
 Coeff:      0.298D-02-0.257D-01 0.225D-01-0.102D+00 0.188D+00 0.915D+00
 Gap=     0.131 Goal=   None    Shift=    0.000
 Gap=     0.131 Goal=   None    Shift=    0.000
 RMSDP=7.47D-06 MaxDP=1.06D-04 DE=-1.93D-06 OVMax= 5.46D-04

 Cycle   7  Pass 1  IDiag  1:
 E= -382.265338050537     Delta-E=       -0.000000250881 Rises=F Damp=F
 DIIS: error= 5.32D-06 at cycle   7 NSaved=   7.
 NSaved= 7 IEnMin= 7 EnMin= -382.265338050537     IErMin= 7 ErrMin= 5.32D-06
 ErrMax= 5.32D-06  0.00D+00 EMaxC= 1.00D-01 BMatC= 9.08D-09 BMatP= 3.60D-07
 IDIUse=1 WtCom= 1.00D+00 WtEn= 0.00D+00
 Coeff-Com: -0.502D-03 0.813D-02-0.565D-03 0.176D-03-0.101D+00-0.177D+00
 Coeff-Com:  0.127D+01
 Coeff:     -0.502D-03 0.813D-02-0.565D-03 0.176D-03-0.101D+00-0.177D+00
 Coeff:      0.127D+01
 Gap=     0.131 Goal=   None    Shift=    0.000
 Gap=     0.131 Goal=   None    Shift=    0.000
 RMSDP=2.96D-06 MaxDP=4.03D-05 DE=-2.51D-07 OVMax= 2.25D-04

 Cycle   8  Pass 1  IDiag  1:
 E= -382.265338068847     Delta-E=       -0.000000018309 Rises=F Damp=F
 DIIS: error= 3.38D-06 at cycle   8 NSaved=   8.
 NSaved= 8 IEnMin= 8 EnMin= -382.265338068847     IErMin= 8 ErrMin= 3.38D-06
 ErrMax= 3.38D-06  0.00D+00 EMaxC= 1.00D-01 BMatC= 2.19D-09 BMatP= 9.08D-09
 IDIUse=1 WtCom= 1.00D+00 WtEn= 0.00D+00
 Coeff-Com: -0.121D-03 0.133D-02-0.168D-02 0.474D-02-0.133D-01-0.274D-01
 Coeff-Com:  0.460D-02 0.103D+01
 Coeff:     -0.121D-03 0.133D-02-0.168D-02 0.474D-02-0.133D-01-0.274D-01
 Coeff:      0.460D-02 0.103D+01
 Gap=     0.131 Goal=   None    Shift=    0.000
 Gap=     0.131 Goal=   None    Shift=    0.000
 RMSDP=4.92D-07 MaxDP=8.49D-06 DE=-1.83D-08 OVMax= 2.71D-05

 Cycle   9  Pass 1  IDiag  1:
 E= -382.265338069937     Delta-E=       -0.000000001091 Rises=F Damp=F
 DIIS: error= 1.25D-07 at cycle   9 NSaved=   9.
 NSaved= 9 IEnMin= 9 EnMin= -382.265338069937     IErMin= 9 ErrMin= 1.25D-07
 ErrMax= 1.25D-07  0.00D+00 EMaxC= 1.00D-01 BMatC= 4.95D-12 BMatP= 2.19D-09
 IDIUse=1 WtCom= 1.00D+00 WtEn= 0.00D+00
 Coeff-Com: -0.336D-08-0.600D-04-0.650D-04 0.264D-03 0.798D-03 0.207D-02
 Coeff-Com: -0.212D-01 0.305D-01 0.988D+00
 Coeff:     -0.336D-08-0.600D-04-0.650D-04 0.264D-03 0.798D-03 0.207D-02
 Coeff:     -0.212D-01 0.305D-01 0.988D+00
 Gap=     0.131 Goal=   None    Shift=    0.000
 Gap=     0.131 Goal=   None    Shift=    0.000
 RMSDP=5.69D-08 MaxDP=1.05D-06 DE=-1.09D-09 OVMax= 2.00D-06

 Cycle  10  Pass 1  IDiag  1:
 E= -382.265338069942     Delta-E=       -0.000000000005 Rises=F Damp=F
 DIIS: error= 3.11D-08 at cycle  10 NSaved=  10.
 NSaved=10 IEnMin=10 EnMin= -382.265338069942     IErMin=10 ErrMin= 3.11D-08
 ErrMax= 3.11D-08  0.00D+00 EMaxC= 1.00D-01 BMatC= 4.40D-13 BMatP= 4.95D-12
 IDIUse=1 WtCom= 1.00D+00 WtEn= 0.00D+00
 Coeff-Com:  0.569D-05-0.673D-04 0.691D-04-0.205D-03 0.736D-03 0.103D-02
 Coeff-Com: -0.143D-02-0.467D-01 0.673D-01 0.979D+00
 Coeff:      0.569D-05-0.673D-04 0.691D-04-0.205D-03 0.736D-03 0.103D-02
 Coeff:     -0.143D-02-0.467D-01 0.673D-01 0.979D+00
 Gap=     0.131 Goal=   None    Shift=    0.000
 Gap=     0.131 Goal=   None    Shift=    0.000
 RMSDP=1.53D-08 MaxDP=2.55D-07 DE=-5.12D-12 OVMax= 6.24D-07

 Cycle  11  Pass 1  IDiag  1:
 E= -382.265338069943     Delta-E=       -0.000000000000 Rises=F Damp=F
 DIIS: error= 1.59D-08 at cycle  11 NSaved=  11.
 NSaved=11 IEnMin=11 EnMin= -382.265338069943     IErMin=11 ErrMin= 1.59D-08
 ErrMax= 1.59D-08  0.00D+00 EMaxC= 1.00D-01 BMatC= 4.64D-14 BMatP= 4.40D-13
 IDIUse=1 WtCom= 1.00D+00 WtEn= 0.00D+00
 Coeff-Com:  0.641D-06-0.489D-05 0.124D-05-0.106D-04 0.396D-04 0.140D-03
 Coeff-Com:  0.303D-03-0.262D-02-0.358D-01 0.301D-01 0.101D+01
 Coeff:      0.641D-06-0.489D-05 0.124D-05-0.106D-04 0.396D-04 0.140D-03
 Coeff:      0.303D-03-0.262D-02-0.358D-01 0.301D-01 0.101D+01
 Gap=     0.131 Goal=   None    Shift=    0.000
 Gap=     0.131 Goal=   None    Shift=    0.000
 RMSDP=3.33D-09 MaxDP=5.50D-08 DE=-3.41D-13 OVMax= 1.92D-07

 SCF Done:  E(UM062X) =  -382.265338070     A.U. after   11 cycles
            NFock= 11  Conv=0.33D-08     -V/T= 2.0023
 <Sx>= 0.0000 <Sy>= 0.0000 <Sz>= 0.0000 <S**2>=-0.0000 S=-0.0000
 <L.S>=  0.00000000000    
 KE= 3.814030898403D+02 PE=-9.908308850534D+02 EE= 1.849435961578D+02
 Annihilation of the first spin contaminant:
 S**2 before annihilation    -0.0000,   after     0.0000
 Leave Link  502 at Mon Apr 21 19:05:11 2025, MaxMem=   536870912 cpu:              81.2 elap:              10.9
 (Enter /home/szhao/Apps/g16/l701.exe)
 ... and contract with generalized density number  0.
 Compute integral first derivatives.
 Leave Link  701 at Mon Apr 21 19:05:11 2025, MaxMem=   536870912 cpu:               1.1 elap:               0.2
 (Enter /home/szhao/Apps/g16/l702.exe)
 L702 exits ... SP integral derivatives will be done elsewhere.
 Leave Link  702 at Mon Apr 21 19:05:11 2025, MaxMem=   536870912 cpu:               0.4 elap:               0.1
 (Enter /home/szhao/Apps/g16/l703.exe)
 Integral derivatives from FoFJK, PRISM(SPDF).
 Compute integral first derivatives, UseDBF=F ICtDFT=           0.
 Calling FoFJK, ICntrl=      2127 FMM=F ISym2X=0 I1Cent= 0 IOpClX= 1 NMat=1 NMatS=1 NMatT=0.
 FoFJK:  IHMeth= 1 ICntrl=    2127 DoSepK=F KAlg= 0 I1Cent=           0 FoldK=F
 IRaf=         0 NMat=       1 IRICut=       1 DoRegI=T DoRafI=F ISym2E= 0 IDoP0=0 IntGTp=1.
 FoFCou: FMM=F IPFlag=           0 FMFlag=      100000 FMFlg1=         800
         NFxFlg=           0 DoJE=F BraDBF=F KetDBF=F FulRan=T
         wScrn=  0.000000 ICntrl=      2127 IOpCl=  1 I1Cent=           0 NGrid=           0
         NMat0=    1 NMatS0=      1 NMatT0=    0 NMatD0=    1 NMtDS0=    0 NMtDT0=    0
 Symmetry not used in FoFCou.
 Leave Link  703 at Mon Apr 21 19:05:13 2025, MaxMem=   536870912 cpu:              12.4 elap:               1.6
 (Enter /home/szhao/Apps/g16/l716.exe)
 Dipole        =-3.61819317D-01-2.00770997D-01 2.17047227D-01
 -------------------------------------------------------------------
 Center     Atomic                   Forces (Hartrees/Bohr)
 Number     Number              X              Y              Z
 -------------------------------------------------------------------
      1        6          -0.000000000   -0.000000000   -0.000000000
      2       15          -0.000000000   -0.000000000   -0.000000000
      3        1          -0.001972921   -0.000437130    0.000028846
      4        1           0.010117202   -0.001483886    0.000232089
      5        1          -0.001969299    0.000002740    0.000435042
      6        1           0.010117569   -0.000115391    0.001497432
      7        1           0.010185575    0.000062692   -0.000070598
 -------------------------------------------------------------------
 Cartesian Forces:  Max     0.010185575 RMS     0.003910553
 Leave Link  716 at Mon Apr 21 19:05:13 2025, MaxMem=   536870912 cpu:               0.5 elap:               0.1
 (Enter /home/szhao/Apps/g16/l103.exe)

 GradGradGradGradGradGradGradGradGradGradGradGradGradGradGradGradGradGrad
 Berny optimization.
 Using GEDIIS/GDIIS optimizer.
 FormGI is forming the generalized inverse of G from B-inverse, IUseBI=4.
 Internal  Forces:  Max     0.030420346 RMS     0.008258013
 Search for a local minimum.
 Step number   2 out of a maximum of   36
 All quantities printed in internal units (Hartrees-Bohrs-Radians)
 RMS Force = .64336D-02 SwitMx=.10000D-02 MixMth= 1
 Mixed Optimization -- RFO/linear search
 Update second derivatives using D2CorX and points    1    2
 DE= -1.01D-02 DEPred=-6.75D-03 R= 1.49D+00
 TightC=F SS=  1.41D+00  RLast= 2.74D-01 DXNew= 5.0454D-01 8.2236D-01
 Trust test= 1.49D+00 RLast= 2.74D-01 DXMaxT set to 5.05D-01
 ITU=  1  0
 Use linear search instead of GDIIS.
     Eigenvalues ---    0.00230   0.06264   0.06600   0.08037   0.08613
     Eigenvalues ---    0.16000   0.16000   0.16000   0.16100   0.21118
     Eigenvalues ---    0.21120   0.34766   0.34875   0.355311000.00000
     Eigenvalues --- 1000.000001000.000001000.000001000.000001000.00000
     Eigenvalues --- 1000.000001000.000001000.000001000.000001000.00000
     Eigenvalues --- 1000.00000
 RFO step:  Lambda=-1.01141176D-03 EMin= 2.30000357D-03
 Quartic linear search produced a step of  1.30604.
 Iteration  1 RMS(Cart)=  0.13139005 RMS(Int)=  0.02141916
 Iteration  2 RMS(Cart)=  0.01075425 RMS(Int)=  0.01869898
 Iteration  3 RMS(Cart)=  0.00051190 RMS(Int)=  0.01869748
 Iteration  4 RMS(Cart)=  0.00008677 RMS(Int)=  0.01869744
 Iteration  5 RMS(Cart)=  0.00001470 RMS(Int)=  0.01869744
 Iteration  6 RMS(Cart)=  0.00000249 RMS(Int)=  0.01869744
 Iteration  7 RMS(Cart)=  0.00000042 RMS(Int)=  0.01869744
 ITry= 1 IFail=0 DXMaxC= 3.62D-01 DCOld= 1.00D+10 DXMaxT= 5.05D-01 DXLimC= 3.00D+00 Rises=F
 Variable       Old X    -DE/DX   Delta X   Delta X   Delta X     New X
                                 (Linear)    (Quad)   (Total)
    X1       -3.46059   0.03042   0.00000   0.00000   0.00000  -3.46059
    Y1        0.00000  -0.00083   0.00000   0.00000   0.00000   0.00000
    Z1        0.00000   0.00090   0.00000   0.00000   0.00000   0.00000
    X2        3.46059  -0.00394   0.00000   0.00000   0.00000   3.46059
    Y2        0.00000  -0.00114   0.00000   0.00000   0.00000   0.00000
    Z2        0.00000   0.00123   0.00000   0.00000   0.00000   0.00000
    R1        2.05859  -0.00355  -0.00256  -0.02130  -0.02387   2.03473
    R2        2.05860  -0.00355  -0.00256  -0.02131  -0.02387   2.03473
    R3        2.05763  -0.00310   0.00039  -0.02107  -0.02068   2.03695
    R4        2.68076   0.00027   0.00436  -0.00152   0.00284   2.68360
    R5        2.68073   0.00027   0.00432  -0.00151   0.00281   2.68354
    A1        1.78816  -0.01233  -0.14306  -0.01399  -0.17016   1.61799
    A2        1.78815  -0.01233  -0.14308  -0.01401  -0.17019   1.61796
    A3        1.87036  -0.01244  -0.14617  -0.01948  -0.17898   1.69139
    A4        1.99268   0.00936   0.15051  -0.00297   0.09626   2.08894
    A5        1.99643   0.00970   0.12205   0.01963   0.08744   2.08387
    A6        1.99643   0.00970   0.12206   0.01958   0.08739   2.08382
    A7        1.65402  -0.00532  -0.05776  -0.01719  -0.07500   1.57902
    A8        1.65401  -0.00531  -0.05777  -0.01703  -0.07485   1.57917
    A9        1.60302   0.00053  -0.03683   0.04674   0.00456   1.60758
    D1        2.91217  -0.00071  -0.04451   0.02671  -0.01482   2.89735
    D2        1.30196  -0.00032   0.00573  -0.01740  -0.01226   1.28970
    D3       -1.30158   0.00032  -0.00513   0.01307   0.00853  -1.29306
    D4       -2.91179   0.00071   0.04511  -0.03104   0.01109  -2.90071
    D5        0.80529  -0.00020  -0.02482   0.01986  -0.00317   0.80212
    D6       -0.80492   0.00019   0.02542  -0.02425  -0.00061  -0.80553
         Item               Value     Threshold  Converged?
 Maximum Force            0.012444     0.000450     NO 
 RMS     Force            0.006434     0.000300     NO 
 Maximum Displacement     0.362180     0.001800     NO 
 RMS     Displacement     0.132926     0.001200     NO 
 Predicted change in Energy=-6.022632D-03
 Lowest energy point so far.  Saving SCF results.
 GradGradGradGradGradGradGradGradGradGradGradGradGradGradGradGradGradGrad

 Leave Link  103 at Mon Apr 21 19:05:14 2025, MaxMem=   536870912 cpu:               0.6 elap:               0.1
 (Enter /home/szhao/Apps/g16/l202.exe)
                          Input orientation:                          
 ---------------------------------------------------------------------
 Center     Atomic      Atomic             Coordinates (Angstroms)
 Number     Number       Type             X           Y           Z
 ---------------------------------------------------------------------
      1          6           0       -1.831264    0.000000    0.000000
      2         15           0        1.831264    0.000000    0.000000
      3          1           0        1.842938   -1.419719    0.030742
      4          1           0       -1.882064    1.048996    0.237438
      5          1           0        1.843149    0.083029    1.417590
      6          1           0       -1.882024   -0.317217   -1.027692
      7          1           0       -1.960933   -0.727077    0.785131
 ---------------------------------------------------------------------
                    Distance matrix (angstroms):
                    1          2          3          4          5
     1  C    0.000000
     2  P    3.662527   0.000000
     3  H    3.939074   1.420100   0.000000
     4  H    1.076731   3.865950   4.473580   0.000000
     5  H    3.939260   1.420069   2.044896   4.025303   0.000000
     6  H    1.076733   3.865913   4.026306   1.862013   4.473983
     7  H    1.077908   3.940282   3.939326   1.860275   3.940472
                    6          7
     6  H    0.000000
     7  H    1.860253   0.000000
 Symmetry turned off by external request.
 Stoichiometry    CH5P
 Framework group  C1[X(CH5P)]
 Deg. of freedom    15
 Full point group                 C1      NOp   1
 Rotational constants (GHZ):          68.0026992           3.5259570           3.5191610
 Leave Link  202 at Mon Apr 21 19:05:14 2025, MaxMem=   536870912 cpu:               0.1 elap:               0.1
 (Enter /home/szhao/Apps/g16/l301.exe)
 Standard basis: 6-311+G(d,p) (5D, 7F)
 Ernie: Thresh=  0.10000D-02 Tol=  0.10000D-05 Strict=F.
    82 basis functions,   126 primitive gaussians,    84 cartesian basis functions
    13 alpha electrons       13 beta electrons
       nuclear repulsion energy        42.6388726802 Hartrees.
 IExCor= 4336 DFT=T Ex+Corr=M062X ExCW=0 ScaHFX=  0.540000
 ScaDFX=  1.000000  1.000000  1.000000  1.000000 ScalE2=  1.000000  1.000000
 IRadAn=      7 IRanWt=     -1 IRanGd=            0 ICorTp=0 IEmpDi=  4
 NAtoms=    7 NActive=    7 NUniq=    7 SFac= 1.00D+00 NAtFMM=   60 NAOKFM=F Big=F
 Integral buffers will be    131072 words long.
 Raffenetti 2 integral format.
 Two-electron integral symmetry is turned off.
 Leave Link  301 at Mon Apr 21 19:05:14 2025, MaxMem=   536870912 cpu:               0.6 elap:               0.1
 (Enter /home/szhao/Apps/g16/l302.exe)
 NPDir=0 NMtPBC=     1 NCelOv=     1 NCel=       1 NClECP=     1 NCelD=      1
         NCelK=      1 NCelE2=     1 NClLst=     1 CellRange=     0.0.
 One-electron integrals computed using PRISM.
 NBasis=    82 RedAO= T EigKep=  4.62D-03  NBF=    82
 NBsUse=    82 1.00D-06 EigRej= -1.00D+00 NBFU=    82
 Precomputing XC quadrature grid using
 IXCGrd= 4 IRadAn=           7 IRanWt=          -1 IRanGd=           0 AccXCQ= 0.00D+00.
 Generated NRdTot=       0 NPtTot=           0 NUsed=           0 NTot=          32
 NSgBfM=    84    84    84    84    84 MxSgAt=     7 MxSgA2=     7.
 Leave Link  302 at Mon Apr 21 19:05:14 2025, MaxMem=   536870912 cpu:               1.4 elap:               0.2
 (Enter /home/szhao/Apps/g16/l303.exe)
 DipDrv:  MaxL=1.
 Leave Link  303 at Mon Apr 21 19:05:15 2025, MaxMem=   536870912 cpu:               0.4 elap:               0.1
 (Enter /home/szhao/Apps/g16/l401.exe)
 Initial guess from the checkpoint file:  "opt.chk"
 B after Tr=     0.025508   -0.001249    0.001494
         Rot=    1.000000    0.000127    0.000634    0.000568 Ang=   0.10 deg.
 Guess basis will be translated and rotated to current coordinates.
 JPrj=2 DoOrth=T DoCkMO=T.
 Initial guess <Sx>= 0.0000 <Sy>= 0.0000 <Sz>= 0.0000 <S**2>= 0.0000 S= 0.0000
 Generating alternative initial guess.
 ExpMin= 3.48D-02 ExpMax= 7.75D+04 ExpMxC= 2.65D+03 IAcc=3 IRadAn=         5 AccDes= 0.00D+00
 Harris functional with IExCor= 1009 and IRadAn=       5 diagonalized for initial guess.
 HarFok:  IExCor= 1009 AccDes= 0.00D+00 IRadAn=         5 IDoV= 1 UseB2=F ITyADJ=14
 ICtDFT=  3500011 ScaDFX=  1.000000  1.000000  1.000000  1.000000
 FoFCou: FMM=F IPFlag=           0 FMFlag=      100000 FMFlg1=           0
         NFxFlg=           0 DoJE=T BraDBF=F KetDBF=T FulRan=T
         wScrn=  0.000000 ICntrl=       500 IOpCl=  0 I1Cent=   200000004 NGrid=           0
         NMat0=    1 NMatS0=      1 NMatT0=    0 NMatD0=    1 NMtDS0=    0 NMtDT0=    0
 Symmetry not used in FoFCou.
 Harris En= -382.178894500819    
 Leave Link  401 at Mon Apr 21 19:05:15 2025, MaxMem=   536870912 cpu:               2.9 elap:               0.4
 (Enter /home/szhao/Apps/g16/l502.exe)
 Keep R1 and R2 ints in memory in canonical form, NReq=18891869.
 FoFCou: FMM=F IPFlag=           0 FMFlag=           0 FMFlg1=           0
         NFxFlg=           0 DoJE=F BraDBF=F KetDBF=F FulRan=T
         wScrn=  0.000000 ICntrl=       600 IOpCl=  0 I1Cent=           0 NGrid=           0
         NMat0=    1 NMatS0=   3403 NMatT0=    0 NMatD0=    1 NMtDS0=    0 NMtDT0=    0
 Symmetry not used in FoFCou.
 Two-electron integral symmetry not used.
 UHF open shell SCF:
 Using DIIS extrapolation, IDIIS=  1040.
 NGot=   536870912 LenX=   525271507 LenY=   525264010
 Requested convergence on RMS density matrix=1.00D-08 within 128 cycles.
 Requested convergence on MAX density matrix=1.00D-06.
 Requested convergence on             energy=1.00D-06.
 No special actions if energy rises.

 Cycle   1  Pass 1  IDiag  1:
 E= -382.263764472028    
 DIIS: error= 9.91D-03 at cycle   1 NSaved=   1.
 NSaved= 1 IEnMin= 1 EnMin= -382.263764472028     IErMin= 1 ErrMin= 9.91D-03
 ErrMax= 9.91D-03  0.00D+00 EMaxC= 1.00D-01 BMatC= 1.73D-02 BMatP= 1.73D-02
 IDIUse=3 WtCom= 9.01D-01 WtEn= 9.91D-02
 Coeff-Com:  0.100D+01
 Coeff-En:   0.100D+01
 Coeff:      0.100D+01
 Gap=     0.419 Goal=   None    Shift=    0.000
 Gap=     0.419 Goal=   None    Shift=    0.000
 GapD=    0.419 DampG=2.000 DampE=1.000 DampFc=2.0000 IDamp=-1.
 RMSDP=9.89D-04 MaxDP=1.37D-02              OVMax= 4.34D-02

 Cycle   2  Pass 1  IDiag  1:
 E= -382.270504465887     Delta-E=       -0.006739993859 Rises=F Damp=F
 DIIS: error= 1.82D-03 at cycle   2 NSaved=   2.
 NSaved= 2 IEnMin= 2 EnMin= -382.270504465887     IErMin= 2 ErrMin= 1.82D-03
 ErrMax= 1.82D-03  0.00D+00 EMaxC= 1.00D-01 BMatC= 4.92D-04 BMatP= 1.73D-02
 IDIUse=3 WtCom= 9.82D-01 WtEn= 1.82D-02
 Coeff-Com: -0.727D-01 0.107D+01
 Coeff-En:   0.000D+00 0.100D+01
 Coeff:     -0.713D-01 0.107D+01
 Gap=     0.128 Goal=   None    Shift=    0.000
 Gap=     0.128 Goal=   None    Shift=    0.000
 RMSDP=4.14D-04 MaxDP=8.78D-03 DE=-6.74D-03 OVMax= 1.98D-02

 Cycle   3  Pass 1  IDiag  1:
 E= -382.270607804416     Delta-E=       -0.000103338529 Rises=F Damp=F
 DIIS: error= 1.82D-03 at cycle   3 NSaved=   3.
 NSaved= 3 IEnMin= 3 EnMin= -382.270607804416     IErMin= 3 ErrMin= 1.82D-03
 ErrMax= 1.82D-03  0.00D+00 EMaxC= 1.00D-01 BMatC= 5.25D-04 BMatP= 4.92D-04
 IDIUse=3 WtCom= 9.82D-01 WtEn= 1.82D-02
 Coeff-Com: -0.486D-01 0.589D+00 0.459D+00
 Coeff-En:   0.000D+00 0.274D+00 0.726D+00
 Coeff:     -0.477D-01 0.584D+00 0.464D+00
 Gap=     0.128 Goal=   None    Shift=    0.000
 Gap=     0.128 Goal=   None    Shift=    0.000
 RMSDP=2.53D-04 MaxDP=8.48D-03 DE=-1.03D-04 OVMax= 2.49D-02

 Cycle   4  Pass 1  IDiag  1:
 E= -382.270668997012     Delta-E=       -0.000061192595 Rises=F Damp=F
 DIIS: error= 1.66D-03 at cycle   4 NSaved=   4.
 NSaved= 4 IEnMin= 4 EnMin= -382.270668997012     IErMin= 4 ErrMin= 1.66D-03
 ErrMax= 1.66D-03  0.00D+00 EMaxC= 1.00D-01 BMatC= 4.64D-04 BMatP= 4.92D-04
 IDIUse=3 WtCom= 9.83D-01 WtEn= 1.66D-02
 Coeff-Com: -0.227D-01 0.100D+00 0.460D+00 0.462D+00
 Coeff-En:   0.000D+00 0.000D+00 0.448D+00 0.552D+00
 Coeff:     -0.223D-01 0.988D-01 0.460D+00 0.464D+00
 Gap=     0.128 Goal=   None    Shift=    0.000
 Gap=     0.128 Goal=   None    Shift=    0.000
 RMSDP=1.12D-04 MaxDP=3.51D-03 DE=-6.12D-05 OVMax= 1.03D-02

 Cycle   5  Pass 1  IDiag  1:
 E= -382.270851021974     Delta-E=       -0.000182024962 Rises=F Damp=F
 DIIS: error= 1.30D-04 at cycle   5 NSaved=   5.
 NSaved= 5 IEnMin= 5 EnMin= -382.270851021974     IErMin= 5 ErrMin= 1.30D-04
 ErrMax= 1.30D-04  0.00D+00 EMaxC= 1.00D-01 BMatC= 3.17D-06 BMatP= 4.64D-04
 IDIUse=3 WtCom= 9.99D-01 WtEn= 1.30D-03
 Coeff-Com:  0.384D-02-0.584D-01 0.221D-01-0.946D-02 0.104D+01
 Coeff-En:   0.000D+00 0.000D+00 0.000D+00 0.000D+00 0.100D+01
 Coeff:      0.384D-02-0.583D-01 0.220D-01-0.945D-02 0.104D+01
 Gap=     0.128 Goal=   None    Shift=    0.000
 Gap=     0.128 Goal=   None    Shift=    0.000
 RMSDP=3.14D-05 MaxDP=5.69D-04 DE=-1.82D-04 OVMax= 1.75D-03

 Cycle   6  Pass 1  IDiag  1:
 E= -382.270853799893     Delta-E=       -0.000002777919 Rises=F Damp=F
 DIIS: error= 2.78D-05 at cycle   6 NSaved=   6.
 NSaved= 6 IEnMin= 6 EnMin= -382.270853799893     IErMin= 6 ErrMin= 2.78D-05
 ErrMax= 2.78D-05  0.00D+00 EMaxC= 1.00D-01 BMatC= 3.35D-07 BMatP= 3.17D-06
 IDIUse=1 WtCom= 1.00D+00 WtEn= 0.00D+00
 Coeff-Com:  0.258D-02-0.234D-01-0.241D-01-0.373D-01 0.274D+00 0.808D+00
 Coeff:      0.258D-02-0.234D-01-0.241D-01-0.373D-01 0.274D+00 0.808D+00
 Gap=     0.128 Goal=   None    Shift=    0.000
 Gap=     0.128 Goal=   None    Shift=    0.000
 RMSDP=6.82D-06 MaxDP=9.57D-05 DE=-2.78D-06 OVMax= 5.07D-04

 Cycle   7  Pass 1  IDiag  1:
 E= -382.270854035315     Delta-E=       -0.000000235423 Rises=F Damp=F
 DIIS: error= 8.16D-06 at cycle   7 NSaved=   7.
 NSaved= 7 IEnMin= 7 EnMin= -382.270854035315     IErMin= 7 ErrMin= 8.16D-06
 ErrMax= 8.16D-06  0.00D+00 EMaxC= 1.00D-01 BMatC= 2.16D-08 BMatP= 3.35D-07
 IDIUse=1 WtCom= 1.00D+00 WtEn= 0.00D+00
 Coeff-Com: -0.798D-03 0.108D-01-0.233D-02 0.351D-02-0.172D+00-0.689D-01
 Coeff-Com:  0.123D+01
 Coeff:     -0.798D-03 0.108D-01-0.233D-02 0.351D-02-0.172D+00-0.689D-01
 Coeff:      0.123D+01
 Gap=     0.128 Goal=   None    Shift=    0.000
 Gap=     0.128 Goal=   None    Shift=    0.000
 RMSDP=4.19D-06 MaxDP=6.01D-05 DE=-2.35D-07 OVMax= 3.15D-04

 Cycle   8  Pass 1  IDiag  1:
 E= -382.270854072492     Delta-E=       -0.000000037176 Rises=F Damp=F
 DIIS: error= 2.07D-06 at cycle   8 NSaved=   8.
 NSaved= 8 IEnMin= 8 EnMin= -382.270854072492     IErMin= 8 ErrMin= 2.07D-06
 ErrMax= 2.07D-06  0.00D+00 EMaxC= 1.00D-01 BMatC= 9.84D-10 BMatP= 2.16D-08
 IDIUse=1 WtCom= 1.00D+00 WtEn= 0.00D+00
 Coeff-Com: -0.257D-04 0.736D-04 0.670D-03 0.215D-02-0.461D-03-0.127D-01
 Coeff-Com: -0.728D-01 0.108D+01
 Coeff:     -0.257D-04 0.736D-04 0.670D-03 0.215D-02-0.461D-03-0.127D-01
 Coeff:     -0.728D-01 0.108D+01
 Gap=     0.128 Goal=   None    Shift=    0.000
 Gap=     0.128 Goal=   None    Shift=    0.000
 RMSDP=5.48D-07 MaxDP=9.05D-06 DE=-3.72D-08 OVMax= 2.57D-05

 Cycle   9  Pass 1  IDiag  1:
 E= -382.270854073143     Delta-E=       -0.000000000651 Rises=F Damp=F
 DIIS: error= 2.34D-07 at cycle   9 NSaved=   9.
 NSaved= 9 IEnMin= 9 EnMin= -382.270854073143     IErMin= 9 ErrMin= 2.34D-07
 ErrMax= 2.34D-07  0.00D+00 EMaxC= 1.00D-01 BMatC= 1.72D-11 BMatP= 9.84D-10
 IDIUse=1 WtCom= 1.00D+00 WtEn= 0.00D+00
 Coeff-Com:  0.206D-04-0.318D-03 0.144D-03 0.237D-03 0.450D-02-0.122D-02
 Coeff-Com: -0.473D-01 0.137D+00 0.907D+00
 Coeff:      0.206D-04-0.318D-03 0.144D-03 0.237D-03 0.450D-02-0.122D-02
 Coeff:     -0.473D-01 0.137D+00 0.907D+00
 Gap=     0.128 Goal=   None    Shift=    0.000
 Gap=     0.128 Goal=   None    Shift=    0.000
 RMSDP=9.74D-08 MaxDP=1.76D-06 DE=-6.51D-10 OVMax= 3.74D-06

 Cycle  10  Pass 1  IDiag  1:
 E= -382.270854073157     Delta-E=       -0.000000000014 Rises=F Damp=F
 DIIS: error= 7.27D-08 at cycle  10 NSaved=  10.
 NSaved=10 IEnMin=10 EnMin= -382.270854073157     IErMin=10 ErrMin= 7.27D-08
 ErrMax= 7.27D-08  0.00D+00 EMaxC= 1.00D-01 BMatC= 1.54D-12 BMatP= 1.72D-11
 IDIUse=1 WtCom= 1.00D+00 WtEn= 0.00D+00
 Coeff-Com:  0.488D-05-0.502D-04-0.126D-04-0.873D-04 0.722D-03 0.111D-02
 Coeff-Com:  0.114D-02-0.609D-01 0.777D-01 0.980D+00
 Coeff:      0.488D-05-0.502D-04-0.126D-04-0.873D-04 0.722D-03 0.111D-02
 Coeff:      0.114D-02-0.609D-01 0.777D-01 0.980D+00
 Gap=     0.128 Goal=   None    Shift=    0.000
 Gap=     0.128 Goal=   None    Shift=    0.000
 RMSDP=2.53D-08 MaxDP=4.55D-07 DE=-1.42D-11 OVMax= 1.24D-06

 Cycle  11  Pass 1  IDiag  1:
 E= -382.270854073158     Delta-E=       -0.000000000001 Rises=F Damp=F
 DIIS: error= 1.17D-08 at cycle  11 NSaved=  11.
 NSaved=11 IEnMin=11 EnMin= -382.270854073158     IErMin=11 ErrMin= 1.17D-08
 ErrMax= 1.17D-08  0.00D+00 EMaxC= 1.00D-01 BMatC= 4.59D-14 BMatP= 1.54D-12
 IDIUse=1 WtCom= 1.00D+00 WtEn= 0.00D+00
 Coeff-Com: -0.458D-06 0.949D-05-0.799D-05-0.123D-04-0.196D-03 0.144D-03
 Coeff-Com:  0.181D-02-0.106D-01-0.290D-01 0.551D-01 0.983D+00
 Coeff:     -0.458D-06 0.949D-05-0.799D-05-0.123D-04-0.196D-03 0.144D-03
 Coeff:      0.181D-02-0.106D-01-0.290D-01 0.551D-01 0.983D+00
 Gap=     0.128 Goal=   None    Shift=    0.000
 Gap=     0.128 Goal=   None    Shift=    0.000
 RMSDP=4.97D-09 MaxDP=8.09D-08 DE=-1.42D-12 OVMax= 2.03D-07

 SCF Done:  E(UM062X) =  -382.270854073     A.U. after   11 cycles
            NFock= 11  Conv=0.50D-08     -V/T= 2.0022
 <Sx>= 0.0000 <Sy>= 0.0000 <Sz>= 0.0000 <S**2>=-0.0000 S=-0.0000
 <L.S>=  0.00000000000    
 KE= 3.814504858818D+02 PE=-9.917453312415D+02 EE= 1.853851186063D+02
 Annihilation of the first spin contaminant:
 S**2 before annihilation    -0.0000,   after     0.0000
 Leave Link  502 at Mon Apr 21 19:05:26 2025, MaxMem=   536870912 cpu:              80.7 elap:              10.8
 (Enter /home/szhao/Apps/g16/l701.exe)
 ... and contract with generalized density number  0.
 Compute integral first derivatives.
 Leave Link  701 at Mon Apr 21 19:05:27 2025, MaxMem=   536870912 cpu:               1.7 elap:               0.3
 (Enter /home/szhao/Apps/g16/l702.exe)
 L702 exits ... SP integral derivatives will be done elsewhere.
 Leave Link  702 at Mon Apr 21 19:05:27 2025, MaxMem=   536870912 cpu:               0.4 elap:               0.1
 (Enter /home/szhao/Apps/g16/l703.exe)
 Integral derivatives from FoFJK, PRISM(SPDF).
 Compute integral first derivatives, UseDBF=F ICtDFT=           0.
 Calling FoFJK, ICntrl=      2127 FMM=F ISym2X=0 I1Cent= 0 IOpClX= 1 NMat=1 NMatS=1 NMatT=0.
 FoFJK:  IHMeth= 1 ICntrl=    2127 DoSepK=F KAlg= 0 I1Cent=           0 FoldK=F
 IRaf=         0 NMat=       1 IRICut=       1 DoRegI=T DoRafI=F ISym2E= 0 IDoP0=0 IntGTp=1.
 FoFCou: FMM=F IPFlag=           0 FMFlag=      100000 FMFlg1=         800
         NFxFlg=           0 DoJE=F BraDBF=F KetDBF=F FulRan=T
         wScrn=  0.000000 ICntrl=      2127 IOpCl=  1 I1Cent=           0 NGrid=           0
         NMat0=    1 NMatS0=      1 NMatT0=    0 NMatD0=    1 NMtDS0=    0 NMtDT0=    0
 Symmetry not used in FoFCou.
 Leave Link  703 at Mon Apr 21 19:05:28 2025, MaxMem=   536870912 cpu:              12.7 elap:               1.6
 (Enter /home/szhao/Apps/g16/l716.exe)
 Dipole        =-5.37391786D-01-2.11578962D-01 2.29277703D-01
 -------------------------------------------------------------------
 Center     Atomic                   Forces (Hartrees/Bohr)
 Number     Number              X              Y              Z
 -------------------------------------------------------------------
      1        6          -0.000000000   -0.000000000   -0.000000000
      2       15          -0.000000000   -0.000000000   -0.000000000
      3        1          -0.000727644    0.000287874    0.000176868
      4        1          -0.000098939    0.002605000    0.000204796
      5        1          -0.000731961   -0.000200210   -0.000270286
      6        1          -0.000096064   -0.000401631   -0.002580590
      7        1           0.000188908   -0.001364986    0.001476044
 -------------------------------------------------------------------
 Cartesian Forces:  Max     0.002605000 RMS     0.000952136
 Leave Link  716 at Mon Apr 21 19:05:29 2025, MaxMem=   536870912 cpu:               0.6 elap:               0.1
 (Enter /home/szhao/Apps/g16/l103.exe)

 GradGradGradGradGradGradGradGradGradGradGradGradGradGradGradGradGradGrad
 Berny optimization.
 Using GEDIIS/GDIIS optimizer.
 FormGI is forming the generalized inverse of G from B-inverse, IUseBI=4.
 Internal  Forces:  Max     0.002587728 RMS     0.001083756
 Search for a local minimum.
 Step number   3 out of a maximum of   36
 All quantities printed in internal units (Hartrees-Bohrs-Radians)
 RMS Force = .11423D-02 SwitMx=.10000D-02 MixMth= 1
 Mixed Optimization -- RFO/linear search
 Update second derivatives using D2CorX and points    2    3
 DE= -5.52D-03 DEPred=-6.02D-03 R= 9.16D-01
 TightC=F SS=  1.41D+00  RLast= 3.58D-01 DXNew= 8.4853D-01 1.0729D+00
 Trust test= 9.16D-01 RLast= 3.58D-01 DXMaxT set to 8.49D-01
 ITU=  1  1  0
 Use linear search instead of GDIIS.
     Eigenvalues ---    0.00230   0.06682   0.07272   0.09477   0.09680
     Eigenvalues ---    0.16000   0.16000   0.16000   0.16212   0.21118
     Eigenvalues ---    0.21124   0.34766   0.34897   0.357911000.00000
[...]
 DIIS inversion failure, remove point   4.
 InvSVX:  RCond= 8.57D-08 Info=           0 Equed=N FErr=  3.31D-14 BErr=  2.91D-17
 DIIS inversion failure, remove point   3.
 InvSVX:  RCond= 2.39D-06 Info=           0 Equed=N FErr=  1.40D-15 BErr=  1.53D-17
 RFO-DIIS uses    2 points instead of    7
 DidBck=F Rises=F RFO-DIIS coefs:    1.19521   -0.19521    0.00000    0.00000    0.00000
                  RFO-DIIS coefs:    0.00000    0.00000
 Iteration  1 RMS(Cart)=  0.00028016 RMS(Int)=  0.00000006
 Iteration  2 RMS(Cart)=  0.00000005 RMS(Int)=  0.00000004
 ITry= 1 IFail=0 DXMaxC= 8.59D-04 DCOld= 1.00D+10 DXMaxT= 8.49D-01 DXLimC= 3.00D+00 Rises=F
 Variable       Old X    -DE/DX   Delta X   Delta X   Delta X     New X
                                 (Linear)    (Quad)   (Total)
    X1       -3.46059   0.00001  -0.00000   0.00000   0.00000  -3.46059
    Y1        0.00000   0.00006   0.00000   0.00000   0.00000   0.00000
    Z1        0.00000  -0.00006   0.00000   0.00000   0.00000   0.00000
    X2        3.46059   0.00001   0.00000   0.00000   0.00000   3.46059
    Y2        0.00000   0.00000   0.00000   0.00000   0.00000   0.00000
    Z2        0.00000  -0.00000   0.00000   0.00000   0.00000   0.00000
    R1        2.04139   0.00008   0.00003   0.00015   0.00018   2.04157
    R2        2.04139   0.00008   0.00003   0.00015   0.00018   2.04157
    R3        2.04180   0.00005   0.00002   0.00009   0.00011   2.04192
    R4        2.68237  -0.00001  -0.00000  -0.00002  -0.00002   2.68235
    R5        2.68232  -0.00001  -0.00000  -0.00002  -0.00002   2.68230
    A1        1.63219  -0.00001   0.00016  -0.00017  -0.00001   1.63219
    A2        1.63209  -0.00001   0.00016  -0.00016   0.00000   1.63209
    A3        1.65598  -0.00002  -0.00048   0.00006  -0.00043   1.65556
    A4        2.08493  -0.00003   0.00001  -0.00027  -0.00026   2.08467
    A5        2.08670   0.00002   0.00001   0.00017   0.00018   2.08688
    A6        2.08670   0.00002   0.00001   0.00017   0.00018   2.08688
    A7        1.52539   0.00001   0.00015   0.00008   0.00022   1.52561
    A8        1.52540   0.00001   0.00015   0.00008   0.00023   1.52563
    A9        1.60449  -0.00001  -0.00002  -0.00007  -0.00008   1.60441
    D1        2.89993   0.00001   0.00003   0.00025   0.00028   2.90021
    D2        1.29330   0.00002   0.00006   0.00032   0.00038   1.29369
    D3       -1.29185  -0.00002   0.00008  -0.00005   0.00002  -1.29183
    D4       -2.89848  -0.00001   0.00011   0.00002   0.00013  -2.89835
    D5        0.80403  -0.00000   0.00005   0.00010   0.00015   0.80418
    D6       -0.80260   0.00000   0.00008   0.00017   0.00026  -0.80234
         Item               Value     Threshold  Converged?
 Maximum Force            0.000079     0.000450     YES
 RMS     Force            0.000030     0.000300     YES
 Maximum Displacement     0.000859     0.001800     YES
 RMS     Displacement     0.000280     0.001200     YES
 Predicted change in Energy=-3.506314D-08
 Optimization completed.
    -- Stationary point found.
                           ----------------------------
                           !   Optimized Parameters   !
                           ! (Angstroms and Degrees)  !
 --------------------------                            --------------------------
 ! Name  Definition              Value          Derivative Info.                !
 --------------------------------------------------------------------------------
 ! X1    R(1,-1)                -1.8313         -DE/DX =    0.0                 !
 ! Y1    R(1,-2)                 0.0            -DE/DX =    0.0001              !
 ! Z1    R(1,-3)                 0.0            -DE/DX =   -0.0001              !
 ! X2    R(2,-1)                 1.8313         -DE/DX =    0.0                 !
 ! Y2    R(2,-2)                 0.0            -DE/DX =    0.0                 !
 ! Z2    R(2,-3)                 0.0            -DE/DX =    0.0                 !
 ! R1    R(1,4)                  1.0803         -DE/DX =    0.0001              !
 ! R2    R(1,6)                  1.0803         -DE/DX =    0.0001              !
 ! R3    R(1,7)                  1.0805         -DE/DX =    0.0001              !
 ! R4    R(2,3)                  1.4194         -DE/DX =    0.0                 !
 ! R5    R(2,5)                  1.4194         -DE/DX =    0.0                 !
 ! A1    A(2,1,4)               93.5179         -DE/DX =    0.0                 !
 ! A2    A(2,1,6)               93.5117         -DE/DX =    0.0                 !
 ! A3    A(2,1,7)               94.8809         -DE/DX =    0.0                 !
 ! A4    A(4,1,6)              119.4577         -DE/DX =    0.0                 !
 ! A5    A(4,1,7)              119.5592         -DE/DX =    0.0                 !
 ! A6    A(6,1,7)              119.5589         -DE/DX =    0.0                 !
 ! A7    A(1,2,3)               87.3983         -DE/DX =    0.0                 !
 ! A8    A(1,2,5)               87.3992         -DE/DX =    0.0                 !
 ! A9    A(3,2,5)               91.9307         -DE/DX =    0.0                 !
 ! D1    D(4,1,2,3)            166.1538         -DE/DX =    0.0                 !
 ! D2    D(4,1,2,5)             74.1008         -DE/DX =    0.0                 !
 ! D3    D(6,1,2,3)            -74.0175         -DE/DX =    0.0                 !
 ! D4    D(6,1,2,5)           -166.0705         -DE/DX =    0.0                 !
 ! D5    D(7,1,2,3)             46.0676         -DE/DX =    0.0                 !
 ! D6    D(7,1,2,5)            -45.9855         -DE/DX =    0.0                 !
 --------------------------------------------------------------------------------
 Lowest energy point so far.  Saving SCF results.
 Largest change from initial coordinates is atom    7       0.352 Angstoms.
 GradGradGradGradGradGradGradGradGradGradGradGradGradGradGradGradGradGrad

 Leave Link  103 at Mon Apr 21 19:07:07 2025, MaxMem=   536870912 cpu:               0.5 elap:               0.1
 (Enter /home/szhao/Apps/g16/l202.exe)
                          Input orientation:                          
 ---------------------------------------------------------------------
 Center     Atomic      Atomic             Coordinates (Angstroms)
 Number     Number       Type             X           Y           Z
 ---------------------------------------------------------------------
      1          6           0       -1.831264    0.000000    0.000000
      2         15           0        1.831264    0.000000    0.000000
      3          1           0        1.766832   -1.417681    0.029346
      4          1           0       -1.897548    1.052006    0.236315
      5          1           0        1.766855    0.080114    1.415697
      6          1           0       -1.897432   -0.318271   -1.030183
      7          1           0       -1.923196   -0.730722    0.790584
 ---------------------------------------------------------------------
                    Distance matrix (angstroms):
                    1          2          3          4          5
     1  C    0.000000
     2  P    3.662527   0.000000
     3  H    3.867424   1.419448   0.000000
     4  H    1.080257   3.881571   4.423784   0.000000
     5  H    3.867438   1.419424   2.040921   3.970310   0.000000
     6  H    1.080255   3.881461   3.969651   1.865925   4.423578
     7  H    1.080476   3.905758   3.829844   1.867080   3.829452
                    6          7
     6  H    0.000000
     7  H    1.867076   0.000000
 Symmetry turned off by external request.
 Stoichiometry    CH5P
 Framework group  C1[X(CH5P)]
 Deg. of freedom    15
 Full point group                 C1      NOp   1
 Rotational constants (GHZ):          67.8488965           3.5350954           3.5287203
 Leave Link  202 at Mon Apr 21 19:07:07 2025, MaxMem=   536870912 cpu:               0.1 elap:               0.1
 (Enter /home/szhao/Apps/g16/l601.exe)
 Copying SCF densities to generalized density rwf, IOpCl= 1 IROHF=0.

 **********************************************************************

            Population analysis using the SCF density.

 **********************************************************************

 Alpha  occ. eigenvalues --  -78.03254 -10.59352  -6.85629  -4.97157  -4.97079
 Alpha  occ. eigenvalues --   -4.96895  -0.78615  -0.69420  -0.50720  -0.50666
 Alpha  occ. eigenvalues --   -0.43590  -0.34688  -0.24482
 Alpha virt. eigenvalues --   -0.11677   0.02127   0.03938   0.03989   0.04568
 Alpha virt. eigenvalues --    0.06310   0.06878   0.07181   0.07275   0.11586
 Alpha virt. eigenvalues --    0.17313   0.18391   0.18483   0.23312   0.30216
 Alpha virt. eigenvalues --    0.31001   0.33493   0.38864   0.42848   0.43447
 Alpha virt. eigenvalues --    0.43593   0.50727   0.58917   0.64456   0.64858
 Alpha virt. eigenvalues --    0.65584   0.67925   0.69077   0.70052   0.81564
 Alpha virt. eigenvalues --    0.89223   0.96706   1.09225   1.09250   1.39423
 Alpha virt. eigenvalues --    1.43126   1.45050   1.45746   1.46651   1.50141
 Alpha virt. eigenvalues --    1.51650   1.53718   1.62580   1.63510   1.68124
 Alpha virt. eigenvalues --    1.73432   1.89764   1.89812   2.01947   2.01948
 Alpha virt. eigenvalues --    2.03474   2.12144   2.44554   2.46522   2.46596
 Alpha virt. eigenvalues --    2.58080   2.62938   2.65408   2.65489   2.75507
 Alpha virt. eigenvalues --    2.87529   3.74720   3.74852   7.03828  14.01922
 Alpha virt. eigenvalues --   14.05074  14.05407  23.95655 163.31191
  Beta  occ. eigenvalues --  -78.03254 -10.59352  -6.85629  -4.97157  -4.97079
  Beta  occ. eigenvalues --   -4.96895  -0.78615  -0.69420  -0.50720  -0.50666
  Beta  occ. eigenvalues --   -0.43590  -0.34688  -0.24482
  Beta virt. eigenvalues --   -0.11677   0.02127   0.03938   0.03989   0.04568
  Beta virt. eigenvalues --    0.06310   0.06878   0.07181   0.07275   0.11586
  Beta virt. eigenvalues --    0.17313   0.18391   0.18483   0.23312   0.30216
  Beta virt. eigenvalues --    0.31001   0.33493   0.38864   0.42848   0.43447
  Beta virt. eigenvalues --    0.43593   0.50727   0.58917   0.64456   0.64858
  Beta virt. eigenvalues --    0.65584   0.67925   0.69077   0.70052   0.81564
  Beta virt. eigenvalues --    0.89223   0.96706   1.09225   1.09250   1.39423
  Beta virt. eigenvalues --    1.43126   1.45050   1.45746   1.46651   1.50141
  Beta virt. eigenvalues --    1.51650   1.53718   1.62580   1.63510   1.68124
  Beta virt. eigenvalues --    1.73432   1.89764   1.89812   2.01947   2.01948
  Beta virt. eigenvalues --    2.03474   2.12144   2.44554   2.46522   2.46596
  Beta virt. eigenvalues --    2.58080   2.62938   2.65408   2.65489   2.75507
  Beta virt. eigenvalues --    2.87529   3.74720   3.74852   7.03828  14.01922
  Beta virt. eigenvalues --   14.05074  14.05407  23.95655 163.31191
          Condensed to atoms (all electrons):
               1          2          3          4          5          6
     1  C    5.231762   0.149962  -0.008881   0.385219  -0.008879   0.385219
     2  P    0.149962  14.378579   0.265988  -0.004530   0.265984  -0.004533
     3  H   -0.008881   0.265988   0.767810   0.000166  -0.026267   0.000240
     4  H    0.385219  -0.004530   0.000166   0.475266   0.000239  -0.021592
     5  H   -0.008879   0.265984  -0.026267   0.000239   0.767811   0.000166
     6  H    0.385219  -0.004533   0.000240  -0.021592   0.000166   0.475271
     7  H    0.383077  -0.006325   0.000362  -0.022645   0.000363  -0.022646
               7
     1  C    0.383077
     2  P   -0.006325
     3  H    0.000362
     4  H   -0.022645
     5  H    0.000363
     6  H   -0.022646
     7  H    0.482128
          Atomic-Atomic Spin Densities.
               1          2          3          4          5          6
     1  C   -0.000000   0.000000   0.000000   0.000000   0.000000   0.000000
     2  P    0.000000   0.000000   0.000000  -0.000000   0.000000  -0.000000
     3  H    0.000000   0.000000  -0.000000   0.000000   0.000000   0.000000
     4  H    0.000000  -0.000000   0.000000   0.000000   0.000000  -0.000000
     5  H    0.000000   0.000000   0.000000   0.000000  -0.000000   0.000000
     6  H    0.000000  -0.000000   0.000000  -0.000000   0.000000   0.000000
     7  H    0.000000  -0.000000   0.000000  -0.000000   0.000000  -0.000000
               7
     1  C    0.000000
     2  P   -0.000000
     3  H    0.000000
     4  H   -0.000000
     5  H    0.000000
     6  H   -0.000000
     7  H    0.000000
 Mulliken charges and spin densities:
               1          2
     1  C   -0.517479  -0.000000
     2  P   -0.045126   0.000000
     3  H    0.000582  -0.000000
     4  H    0.187878   0.000000
     5  H    0.000584  -0.000000
     6  H    0.187876   0.000000
     7  H    0.185685   0.000000
 Sum of Mulliken charges =  -0.00000   0.00000
 Mulliken charges and spin densities with hydrogens summed into heavy atoms:
               1          2
     1  C    0.043960  -0.000000
     2  P   -0.043960   0.000000
 Electronic spatial extent (au):  <R**2>=            389.3864
 Charge=             -0.0000 electrons
 Dipole moment (field-independent basis, Debye):
    X=             -1.3849    Y=             -0.5637    Z=              0.6090  Tot=              1.6144
 Quadrupole moment (field-independent basis, Debye-Ang):
   XX=            -22.2361   YY=            -22.3701   ZZ=            -22.4789
   XY=             -1.2122   XZ=              1.3096   YZ=              0.7030
 Traceless Quadrupole moment (field-independent basis, Debye-Ang):
   XX=              0.1256   YY=             -0.0084   ZZ=             -0.1172
   XY=             -1.2122   XZ=              1.3096   YZ=              0.7030
 Octapole moment (field-independent basis, Debye-Ang**2):
  XXX=            -42.8212  YYY=              3.7064  ZZZ=             -3.7344  XYY=            -14.5383
  XXY=             -1.8302  XXZ=              1.9785  XZZ=            -14.7378  YZZ=              0.0040
  YYZ=             -0.2741  XYZ=              1.2907
 Hexadecapole moment (field-independent basis, Debye-Ang**3):
 XXXX=           -523.6291 YYYY=            -48.7802 ZZZZ=            -49.1227 XXXY=             -0.9311
 XXXZ=              1.0046 YYYX=              3.0710 YYYZ=              1.0554 ZZZX=             -3.7535
 ZZZY=              1.1619 XXYY=            -87.6630 XXZZ=            -88.0705 YYZZ=            -16.7729
 XXYZ=              2.6310 YYXZ=             -2.8157 ZZXY=              3.0099
 N-N= 4.266090356908D+01 E-N=-9.917809683859D+02  KE= 3.814386417455D+02
                          Isotropic Fermi Contact Couplings
        Atom                 a.u.       MegaHertz       Gauss      10(-4) cm-1
     1  C(13)             -0.00000      -0.00000      -0.00000      -0.00000
     2  P(31)             -0.00000      -0.00000      -0.00000      -0.00000
     3  H(1)              -0.00000      -0.00000      -0.00000      -0.00000
     4  H(1)               0.00000       0.00000       0.00000       0.00000
     5  H(1)              -0.00000      -0.00000      -0.00000      -0.00000
     6  H(1)               0.00000       0.00000       0.00000       0.00000
     7  H(1)               0.00000       0.00000       0.00000       0.00000
 --------------------------------------------------------
       Center         ----  Spin Dipole Couplings  ----
                      3XX-RR        3YY-RR        3ZZ-RR
 --------------------------------------------------------
     1   Atom       -0.000000      0.000000      0.000000
     2   Atom        0.000000     -0.000000     -0.000000
     3   Atom       -0.000000      0.000000     -0.000000
     4   Atom        0.000000     -0.000000      0.000000
     5   Atom       -0.000000     -0.000000      0.000000
     6   Atom        0.000000      0.000000     -0.000000
     7   Atom        0.000000      0.000000     -0.000000
 --------------------------------------------------------
                        XY            XZ            YZ
 --------------------------------------------------------
     1   Atom        0.000000     -0.000000      0.000000
     2   Atom       -0.000000      0.000000     -0.000000
     3   Atom        0.000000      0.000000      0.000000
     4   Atom        0.000000     -0.000000     -0.000000
     5   Atom       -0.000000     -0.000000      0.000000
     6   Atom        0.000000     -0.000000     -0.000000
     7   Atom       -0.000000      0.000000      0.000000
 --------------------------------------------------------


 ---------------------------------------------------------------------------------
              Anisotropic Spin Dipole Couplings in Principal Axis System
 ---------------------------------------------------------------------------------

       Atom             a.u.   MegaHertz   Gauss  10(-4) cm-1        Axes

              Baa    -0.0000    -0.000    -0.000    -0.000  0.9999 -0.0095  0.0104
     1 C(13)  Bbb     0.0000     0.000     0.000     0.000 -0.0141 -0.6688  0.7433
              Bcc     0.0000     0.000     0.000     0.000  0.0001  0.7434  0.6689
 
              Baa    -0.0000    -0.000    -0.000    -0.000 -0.0924 -0.6868  0.7209
     2 P(31)  Bbb    -0.0000    -0.000    -0.000    -0.000 -0.0013  0.7241  0.6897
              Bcc     0.0000     0.000     0.000     0.000  0.9957 -0.0628  0.0678
 
              Baa    -0.0000    -0.000    -0.000    -0.000 -0.0826 -0.0055  0.9966
     3 H(1)   Bbb    -0.0000    -0.000    -0.000    -0.000  0.9870 -0.1386  0.0810
              Bcc     0.0000     0.000     0.000     0.000  0.1376  0.9903  0.0169
 
              Baa    -0.0000    -0.000    -0.000    -0.000 -0.0211  0.9756  0.2186
     4 H(1)   Bbb     0.0000     0.000     0.000     0.000  0.9996  0.0168  0.0212
              Bcc     0.0000     0.000     0.000     0.000 -0.0170 -0.2189  0.9756
 
              Baa    -0.0000    -0.000    -0.000    -0.000  0.0826  0.9932 -0.0824
     5 H(1)   Bbb    -0.0000    -0.000    -0.000    -0.000  0.9870 -0.0701  0.1444
              Bcc     0.0000     0.000     0.000     0.000 -0.1376  0.0932  0.9861
 
              Baa    -0.0000    -0.000    -0.000    -0.000  0.0209  0.2946  0.9554
     6 H(1)   Bbb     0.0000     0.000     0.000     0.000  0.9996 -0.0223 -0.0150
              Bcc     0.0000     0.000     0.000     0.000  0.0169  0.9554 -0.2949
 
              Baa    -0.0000    -0.000    -0.000    -0.000 -0.0355 -0.6783  0.7339
     7 H(1)   Bbb     0.0000     0.000     0.000     0.000  0.9994 -0.0240  0.0261
              Bcc     0.0000     0.000     0.000     0.000 -0.0001  0.7344  0.6788
 

 ---------------------------------------------------------------------------------

 No NMR shielding tensors so no spin-rotation constants.
 Leave Link  601 at Mon Apr 21 19:07:08 2025, MaxMem=   536870912 cpu:               1.7 elap:               0.2
 (Enter /home/szhao/Apps/g16/l9999.exe)
 1\1\GINC-NODE06\FOpt\UM062X\6-311+G(d,p)\C1H5P1\SZHAO\21-Apr-2025\0\\#
 p opt UM062X/6-311+G** nosymm int=superfine\\Title Card Required\\0,1\
 C,-1.83126351,0.,0.\P,1.83126351,0.,0.\H,1.7668315713,-1.4176807634,0.
 029345765\H,-1.8975477263,1.0520056077,0.2363148738\H,1.7668551569,0.0
 801136834,1.4156973015\H,-1.8974319307,-0.3182714634,-1.0301828885\H,-
 1.9231964381,-0.7307215678,0.7905841982\\Version=ES64L-G16RevA.03\HF=-
 382.2709989\S2=0.\S2-1=0.\S2A=0.\RMSD=7.622e-10\RMSF=2.921e-05\Dipole=
 -0.544847,-0.2217707,0.2395857\Quadrupole=0.0934096,-0.0062639,-0.0871
 457,-0.9012352,0.9736229,0.5226269\PG=C01 [X(C1H5P1)]\\@


 THE 2ND LAW OF THERMODYNAMICS HAS THE SAME
 DEGREE OF TRUTH AS THE STATEMENT THAT IF YOU THROW
 A TUMBLERFULL OF WATER INTO THE SEA, YOU CANNOT GET
 THE SAME TUMBLERFULL OF WATER OUT AGAIN.
          - J.C. MAXWELL, LETTER TO LORD RAYLEIGH, DECEMBER 6,1870
 Job cpu time:       0 days  0 hours 16 minutes 16.6 seconds.
 Elapsed time:       0 days  0 hours  2 minutes 13.2 seconds.
 File lengths (MBytes):  RWF=     22 Int=      0 D2E=      0 Chk=      3 Scr=      2
 Normal termination of Gaussian 16 at Mon Apr 21 19:07:08 2025.
