Title Card Required                                                     
Force     UM062X                                                      6-311+G(d,p)        
Number of atoms                            I                6
Info1-9                                    I   N=           9
          15          15           0           0           0         100
           5          18        -502
Full Title                                 C   N=           2
Title Card Required     
Route                                      C   N=           4
#p UM062X/6-311+G** force int=superfine         
Charge                                     I                0
Multiplicity                               I                1
Number of electrons                        I               16
Number of alpha electrons                  I                8
Number of beta electrons                   I                8
Number of basis functions                  I               68
Number of independent functions            I               68
Number of point charges in /Mol/           I                0
Number of translation vectors              I                0
Atomic numbers                             I   N=           6
           6           6           1           1           1           1
Nuclear charges                            R   N=           6
  6.00000000E+00  6.00000000E+00  1.00000000E+00  1.00000000E+00  1.00000000E+00
  1.00000000E+00
Current cartesian coordinates              R   N=          18
 -5.53368535E-21  1.25264654E+00  0.00000000E+00 -1.53395734E-16 -1.25264654E+00
  0.00000000E+00 -1.74451390E+00  2.32671395E+00  0.00000000E+00  1.74578758E+00
  2.32512091E+00  0.00000000E+00  1.74451390E+00 -2.32671395E+00  0.00000000E+00
 -1.74578758E+00 -2.32512091E+00  0.00000000E+00
Number of symbols in /Mol/                 I                0
Force Field                                I                0
Atom Types                                 C   N=           6
                                                            
            
Int Atom Types                             I   N=           6
           0           0           0           0           0           0
MM charges                                 R   N=           6
  0.00000000E+00  0.00000000E+00  0.00000000E+00  0.00000000E+00  0.00000000E+00
  0.00000000E+00
Integer atomic weights                     I   N=           6
          12          12           1           1           1           1
Real atomic weights                        R   N=           6
  1.20000000E+01  1.20000000E+01  1.00782504E+00  1.00782504E+00  1.00782504E+00
  1.00782504E+00
Atom fragment info                         I   N=           6
           0           0           0           0           0           0
Atom residue num                           I   N=           6
           0           0           0           0           0           0
Nuclear spins                              I   N=           6
           0           0           1           1           1           1
Nuclear ZEff                               R   N=           6
 -3.60000000E+00 -3.60000000E+00 -1.00000000E+00 -1.00000000E+00 -1.00000000E+00
 -1.00000000E+00
Nuclear ZNuc                               R   N=           6
  6.00000000E+00  6.00000000E+00  1.00000000E+00  1.00000000E+00  1.00000000E+00
  1.00000000E+00
Nuclear QMom                               R   N=           6
  0.00000000E+00  0.00000000E+00  0.00000000E+00  0.00000000E+00  0.00000000E+00
  0.00000000E+00
Nuclear GFac                               R   N=           6
  0.00000000E+00  0.00000000E+00  2.79284600E+00  2.79284600E+00  2.79284600E+00
  2.79284600E+00
MicOpt                                     I   N=           6
          -1          -1          -1          -1          -1          -1
Number of residues                         I                0
Number of secondary structures             I                0
SymInf integers                            I   N=          26
           2           4           1           1           1          -1
          -1           1           1           1          -1          -1
          -1          -1           0           0           0           0
           0           0           0           0           0           0
           0           0
RotTr to input orientation                 R   N=          12
  4.06803406E-17  1.00000000E+00  0.00000000E+00 -1.00000000E+00  4.06788681E-17
  0.00000000E+00  0.00000000E+00  0.00000000E+00  1.00000000E+00  2.77555756E-17
  0.00000000E+00  0.00000000E+00
Number of contracted shells                I               28
Number of primitive shells                 I               50
Pure/Cartesian d shells                    I                0
Pure/Cartesian f shells                    I                0
Highest angular momentum                   I                2
Largest degree of contraction              I                6
Shell types                                I   N=          28
           0          -1          -1          -1          -1          -2
           0          -1          -1          -1          -1          -2
           0           0           0           1           0           0
           0           1           0           0           0           1
           0           0           0           1
Number of primitives per shell             I   N=          28
           6           3           1           1           1           1
           6           3           1           1           1           1
           3           1           1           1           3           1
           1           1           3           1           1           1
           3           1           1           1
Shell to atom map                          I   N=          28
           1           1           1           1           1           1
           2           2           2           2           2           2
           3           3           3           3           4           4
           4           4           5           5           5           5
           6           6           6           6
Primitive exponents                        R   N=          50
  4.56324000E+03  6.82024000E+02  1.54973000E+02  4.44553000E+01  1.30290000E+01
  1.82773000E+00  2.09642000E+01  4.80331000E+00  1.45933000E+00  4.83456000E-01
  1.45585000E-01  4.38000000E-02  6.26000000E-01  4.56324000E+03  6.82024000E+02
  1.54973000E+02  4.44553000E+01  1.30290000E+01  1.82773000E+00  2.09642000E+01
  4.80331000E+00  1.45933000E+00  4.83456000E-01  1.45585000E-01  4.38000000E-02
  6.26000000E-01  3.38650000E+01  5.09479000E+00  1.15879000E+00  3.25840000E-01
  1.02741000E-01  7.50000000E-01  3.38650000E+01  5.09479000E+00  1.15879000E+00
  3.25840000E-01  1.02741000E-01  7.50000000E-01  3.38650000E+01  5.09479000E+00
  1.15879000E+00  3.25840000E-01  1.02741000E-01  7.50000000E-01  3.38650000E+01
  5.09479000E+00  1.15879000E+00  3.25840000E-01  1.02741000E-01  7.50000000E-01
Contraction coefficients                   R   N=          50
  1.96665025E-03  1.52306019E-02  7.61269097E-02  2.60801033E-01  6.16462078E-01
  2.21006028E-01  1.14660081E-01  9.19999648E-01 -3.03068213E-03  1.00000000E+00
  1.00000000E+00  1.00000000E+00  1.00000000E+00  1.96665025E-03  1.52306019E-02
  7.61269097E-02  2.60801033E-01  6.16462078E-01  2.21006028E-01  1.14660081E-01
  9.19999648E-01 -3.03068213E-03  1.00000000E+00  1.00000000E+00  1.00000000E+00
  1.00000000E+00  2.54938145E-02  1.90373109E-01  8.52161486E-01  1.00000000E+00
  1.00000000E+00  1.00000000E+00  2.54938145E-02  1.90373109E-01  8.52161486E-01
  1.00000000E+00  1.00000000E+00  1.00000000E+00  2.54938145E-02  1.90373109E-01
  8.52161486E-01  1.00000000E+00  1.00000000E+00  1.00000000E+00  2.54938145E-02
  1.90373109E-01  8.52161486E-01  1.00000000E+00  1.00000000E+00  1.00000000E+00
P(S=P) Contraction coefficients            R   N=          50
  0.00000000E+00  0.00000000E+00  0.00000000E+00  0.00000000E+00  0.00000000E+00
  0.00000000E+00  4.02486927E-02  2.37593957E-01  8.15853851E-01  1.00000000E+00
  1.00000000E+00  1.00000000E+00  0.00000000E+00  0.00000000E+00  0.00000000E+00
  0.00000000E+00  0.00000000E+00  0.00000000E+00  0.00000000E+00  4.02486927E-02
  2.37593957E-01  8.15853851E-01  1.00000000E+00  1.00000000E+00  1.00000000E+00
  0.00000000E+00  0.00000000E+00  0.00000000E+00  0.00000000E+00  0.00000000E+00
  0.00000000E+00  0.00000000E+00  0.00000000E+00  0.00000000E+00  0.00000000E+00
  0.00000000E+00  0.00000000E+00  0.00000000E+00  0.00000000E+00  0.00000000E+00
  0.00000000E+00  0.00000000E+00  0.00000000E+00  0.00000000E+00  0.00000000E+00
  0.00000000E+00  0.00000000E+00  0.00000000E+00  0.00000000E+00  0.00000000E+00
Coordinates of each shell                  R   N=          84
 -3.68912357E-21  1.25264654E+00  0.00000000E+00 -3.68912357E-21  1.25264654E+00
  0.00000000E+00 -3.68912357E-21  1.25264654E+00  0.00000000E+00 -3.68912357E-21
  1.25264654E+00  0.00000000E+00 -3.68912357E-21  1.25264654E+00  0.00000000E+00
 -3.68912357E-21  1.25264654E+00  0.00000000E+00 -1.53397579E-16 -1.25264654E+00
  0.00000000E+00 -1.53397579E-16 -1.25264654E+00  0.00000000E+00 -1.53397579E-16
 -1.25264654E+00  0.00000000E+00 -1.53397579E-16 -1.25264654E+00  0.00000000E+00
 -1.53397579E-16 -1.25264654E+00  0.00000000E+00 -1.53397579E-16 -1.25264654E+00
  0.00000000E+00 -1.74451390E+00  2.32671395E+00  0.00000000E+00 -1.74451390E+00
  2.32671395E+00  0.00000000E+00 -1.74451390E+00  2.32671395E+00  0.00000000E+00
 -1.74451390E+00  2.32671395E+00  0.00000000E+00  1.74578758E+00  2.32512091E+00
  0.00000000E+00  1.74578758E+00  2.32512091E+00  0.00000000E+00  1.74578758E+00
  2.32512091E+00  0.00000000E+00  1.74578758E+00  2.32512091E+00  0.00000000E+00
  1.74451390E+00 -2.32671395E+00  0.00000000E+00  1.74451390E+00 -2.32671395E+00
  0.00000000E+00  1.74451390E+00 -2.32671395E+00  0.00000000E+00  1.74451390E+00
 -2.32671395E+00  0.00000000E+00 -1.74578758E+00 -2.32512091E+00  0.00000000E+00
 -1.74578758E+00 -2.32512091E+00  0.00000000E+00 -1.74578758E+00 -2.32512091E+00
  0.00000000E+00 -1.74578758E+00 -2.32512091E+00  0.00000000E+00
Num ILSW                                   I              100
ILSW                                       I   N=         100
           1           0           0           0           2           0
           0           0           0           0        4336          -1
           7           0           0           0           2           0
           0           0           0           0           1           0
           1           0           0           0           0           0
           0           0      100000           0          -1           0
           0           0           0           0           0           0
           0           0           0           1           0           0
           0 -2000000000           1           0           0           0
           0           0           4          52           0           0
           0           0          55           0           0           0
           0           0           0           6           0           1
           0           0           0           0           0           0
           0           0           0           0           0           0
           0           0           0           0           0           0
           0           0           0           0           0           0
           0           0           0           0
Num RLSW                                   I               52
RLSW                                       R   N=          52
  1.00000000E+00  1.00000000E+00  1.00000000E+00  1.00000000E+00  5.40000000E-01
  0.00000000E+00  0.00000000E+00  1.00000000E+00  0.00000000E+00  0.00000000E+00
  0.00000000E+00  0.00000000E+00  1.00000000E+00  0.00000000E+00  0.00000000E+00
  0.00000000E+00  0.00000000E+00  1.00000000E+00  0.00000000E+00  0.00000000E+00
  0.00000000E+00  0.00000000E+00  1.00000000E+00  0.00000000E+00  0.00000000E+00
  0.00000000E+00  0.00000000E+00  1.00000000E+00  0.00000000E+00  0.00000000E+00
  0.00000000E+00  0.00000000E+00  1.00000000E+00  0.00000000E+00  0.00000000E+00
  0.00000000E+00  0.00000000E+00  0.00000000E+00  1.00000000E+00  1.00000000E+00
  0.00000000E+00  1.00000000E+00  0.00000000E+00  0.00000000E+00  0.00000000E+00
  0.00000000E+00  0.00000000E+00  0.00000000E+00  0.00000000E+00  0.00000000E+00
  0.00000000E+00  0.00000000E+00
MxBond                                     I                3
NBond                                      I   N=           6
           3           3           1           1           1           1
IBond                                      I   N=          18
           2           3           4           1           5           6
           1           0           0           1           0           0
           2           0           0           2           0           0
RBond                                      R   N=          18
  2.00000000E+00  1.00000000E+00  1.00000000E+00  2.00000000E+00  1.00000000E+00
  1.00000000E+00  1.00000000E+00  0.00000000E+00  0.00000000E+00  1.00000000E+00
  0.00000000E+00  0.00000000E+00  1.00000000E+00  0.00000000E+00  0.00000000E+00
  1.00000000E+00  0.00000000E+00  0.00000000E+00
Virial Ratio                               R      2.004528023531372E+00
SCF Energy                                 R     -7.856355703078822E+01
Total Energy                               R     -7.856355703078822E+01
S**2                                       R     -2.131628207280301E-14
S**2 after annihilation                    R     -9.237055564881204E-14
RMS Force                                  R      8.016003234063285E-05
RMS Density                                R      4.429048081003078E-09
Job Status                                 I                1
Nuclear derivative order                   I                1
External E-field                           R   N=          35
  0.00000000E+00  0.00000000E+00  0.00000000E+00  0.00000000E+00  0.00000000E+00
  0.00000000E+00  0.00000000E+00  0.00000000E+00  0.00000000E+00  0.00000000E+00
  0.00000000E+00  0.00000000E+00  0.00000000E+00  0.00000000E+00  0.00000000E+00
  0.00000000E+00  0.00000000E+00  0.00000000E+00  0.00000000E+00  0.00000000E+00
  0.00000000E+00  0.00000000E+00  0.00000000E+00  0.00000000E+00  0.00000000E+00
  0.00000000E+00  0.00000000E+00  0.00000000E+00  0.00000000E+00  0.00000000E+00
  0.00000000E+00  0.00000000E+00  0.00000000E+00  0.00000000E+00  0.00000000E+00
IOpCl                                      I                1
IROHF                                      I                0
Alpha Orbital Energies                     R   N=          68
 -1.05385213E+01 -1.05373590E+01 -8.61770456E-01 -6.62869773E-01 -5.43597941E-01
 -4.86860595E-01 -4.17885323E-01 -3.35873130E-01  2.77033112E-02  3.39947507E-02
  4.08209566E-02  5.11106817E-02  7.70859919E-02  8.20326670E-02  9.72702063E-02
  1.34980471E-01  1.60471481E-01  1.73691310E-01  2.00058310E-01  2.31653012E-01
  3.14026897E-01  3.61258134E-01  4.40197678E-01  4.44575758E-01  5.49303652E-01
  5.63366052E-01  5.78414587E-01  6.44076320E-01  6.56494155E-01  7.42706621E-01
  7.56743038E-01  7.64539293E-01  7.99005863E-01  9.15036977E-01  1.05063833E+00
  1.15492772E+00  1.17081761E+00  1.41950897E+00  1.47027162E+00  1.47691611E+00
  1.62414260E+00  1.64549364E+00  1.64830519E+00  1.66124323E+00  1.80481893E+00
  1.82727214E+00  2.00260825E+00  2.06814344E+00  2.13591051E+00  2.17854821E+00
  2.19051928E+00  2.25503391E+00  2.39412686E+00  2.47758742E+00  2.57592663E+00
  2.58354276E+00  2.66839933E+00  2.71757164E+00  2.79152390E+00  2.84125184E+00
  2.95398174E+00  3.18247652E+00  3.49961040E+00  3.69223824E+00  3.87826684E+00
  4.14875719E+00  2.38292404E+01  2.43627843E+01
Beta Orbital Energies                      R   N=          68
 -1.05385213E+01 -1.05373590E+01 -8.61770456E-01 -6.62869773E-01 -5.43597941E-01
 -4.86860595E-01 -4.17885323E-01 -3.35873130E-01  2.77033112E-02  3.39947507E-02
  4.08209566E-02  5.11106817E-02  7.70859919E-02  8.20326670E-02  9.72702063E-02
  1.34980471E-01  1.60471481E-01  1.73691310E-01  2.00058310E-01  2.31653012E-01
  3.14026897E-01  3.61258134E-01  4.40197678E-01  4.44575758E-01  5.49303652E-01
  5.63366052E-01  5.78414587E-01  6.44076320E-01  6.56494155E-01  7.42706621E-01
  7.56743038E-01  7.64539293E-01  7.99005863E-01  9.15036977E-01  1.05063833E+00
  1.15492772E+00  1.17081761E+00  1.41950897E+00  1.47027162E+00  1.47691611E+00
  1.62414260E+00  1.64549364E+00  1.64830519E+00  1.66124323E+00  1.80481893E+00
  1.82727214E+00  2.00260825E+00  2.06814344E+00  2.13591051E+00  2.17854821E+00
  2.19051928E+00  2.25503391E+00  2.39412686E+00  2.47758742E+00  2.57592663E+00
  2.58354276E+00  2.66839933E+00  2.71757164E+00  2.79152390E+00  2.84125184E+00
  2.95398174E+00  3.18247652E+00  3.49961040E+00  3.69223824E+00  3.87826684E+00
  4.14875719E+00  2.38292404E+01  2.43627843E+01
Alpha MO coefficients                      R   N=        4624
  3.98780885E-01  3.27991273E-01 -3.06752982E-08 -3.31379412E-04  0.00000000E+00
  8.92752299E-03 -7.43119586E-07  1.65996189E-03  0.00000000E+00 -2.27889803E-03
 -2.48454969E-06  2.47994894E-04  0.00000000E+00 -6.20505833E-04  1.04802164E-06
 -7.74201800E-04  0.00000000E+00 -7.22433150E-04  0.00000000E+00  0.00000000E+00
  7.28903809E-04 -2.49565078E-06  3.98780885E-01  3.27991273E-01  3.06752982E-08
  3.31379412E-04  0.00000000E+00  8.92752299E-03  7.43119586E-07 -1.65996189E-03
  0.00000000E+00 -2.27889803E-03  2.48454969E-06 -2.47994894E-04  0.00000000E+00
 -6.20505833E-04 -1.04802164E-06  7.74201800E-04  0.00000000E+00 -7.22433150E-04
  0.00000000E+00  0.00000000E+00  7.28903809E-04 -2.49565078E-06  1.67160998E-04
 -2.42132051E-03  1.60318850E-03 -1.28663190E-03  7.15394118E-04  0.00000000E+00
  1.67527430E-04 -2.41570388E-03  1.60163742E-03  1.28550833E-03  7.13126670E-04
  0.00000000E+00  1.67160998E-04 -2.42132051E-03  1.60318850E-03  1.28663190E-03
 -7.15394118E-04  0.00000000E+00  1.67527430E-04 -2.41570388E-03  1.60163742E-03
 -1.28550833E-03 -7.13126670E-04  0.00000000E+00  3.98949804E-01  3.27773713E-01
  1.07794224E-07  8.93603774E-04  0.00000000E+00  9.86521094E-03 -7.49226728E-07
 -4.29028457E-03  0.00000000E+00 -2.28562905E-03  3.70307810E-07  1.10012184E-03
  0.00000000E+00  2.56963438E-03 -1.43806348E-08 -9.75487870E-04  0.00000000E+00
 -1.63858011E-03  0.00000000E+00  0.00000000E+00 -2.01537959E-03 -7.54404025E-07
 -3.98949804E-01 -3.27773713E-01  1.07794224E-07  8.93603774E-04  0.00000000E+00
 -9.86521094E-03 -7.49226728E-07 -4.29028457E-03  0.00000000E+00  2.28562905E-03
  3.70307810E-07  1.10012184E-03  0.00000000E+00 -2.56963438E-03 -1.43806348E-08
 -9.75487870E-04  0.00000000E+00  1.63858011E-03  0.00000000E+00  0.00000000E+00
  2.01537959E-03  7.54404025E-07  4.06365913E-04 -1.06850724E-03  6.50175979E-04
 -6.18918099E-04  2.34120129E-04  0.00000000E+00  4.06919163E-04 -1.06741536E-03
  6.49362054E-04  6.17825411E-04  2.33853778E-04  0.00000000E+00 -4.06365913E-04
  1.06850724E-03 -6.50175979E-04 -6.18918099E-04  2.34120129E-04  0.00000000E+00
 -4.06919163E-04  1.06741536E-03 -6.49362054E-04  6.17825411E-04  2.33853778E-04
  0.00000000E+00 -8.57731816E-02 -1.37329687E-01  2.41301706E-06 -5.07267073E-02
  0.00000000E+00  3.52167278E-01 -2.98801394E-06 -6.56383153E-02  0.00000000E+00
  1.90305981E-01 -1.61464311E-05 -1.61381560E-02  0.00000000E+00  9.59586140E-04
 -5.15922488E-06  7.76829744E-03  0.00000000E+00 -1.08987651E-02  0.00000000E+00
  0.00000000E+00 -8.49496922E-03 -9.10635402E-06 -8.57731816E-02 -1.37329687E-01
 -2.41301706E-06  5.07267073E-02  0.00000000E+00  3.52167278E-01  2.98801394E-06
  6.56383153E-02  0.00000000E+00  1.90305981E-01  1.61464311E-05  1.61381560E-02
  0.00000000E+00  9.59586140E-04  5.15922488E-06 -7.76829744E-03  0.00000000E+00
 -1.08987651E-02  0.00000000E+00  0.00000000E+00 -8.49496922E-03 -9.10635402E-06
  5.26024398E-02  5.79449257E-02 -5.38338989E-04  7.27042356E-03 -6.56209304E-03
  0.00000000E+00  5.26065105E-02  5.79647122E-02 -5.23932634E-04 -7.28476172E-03
 -6.56044580E-03  0.00000000E+00  5.26024398E-02  5.79449257E-02 -5.38338989E-04
 -7.27042356E-03  6.56209304E-03  0.00000000E+00  5.26065105E-02  5.79647122E-02
 -5.23932634E-04  7.28476172E-03  6.56044580E-03  0.00000000E+00 -6.59454694E-02
 -1.07128890E-01 -1.74692984E-05  7.42814453E-02  0.00000000E+00  2.81596246E-01
 -1.89558052E-05  1.10110196E-01  0.00000000E+00  2.21995020E-01 -9.26135851E-06
  5.12846915E-02  0.00000000E+00 -7.74853419E-02 -9.85917128E-07  2.37106496E-02
  0.00000000E+00 -5.38130203E-03  0.00000000E+00  0.00000000E+00  9.04504726E-03
 -8.65132174E-06  6.59454694E-02  1.07128890E-01 -1.74692984E-05  7.42814453E-02
  0.00000000E+00 -2.81596246E-01 -1.89558052E-05  1.10110196E-01  0.00000000E+00
 -2.21995020E-01 -9.26135851E-06  5.12846915E-02  0.00000000E+00  7.74853419E-02
 -9.85917128E-07  2.37106496E-02  0.00000000E+00  5.38130203E-03  0.00000000E+00
  0.00000000E+00 -9.04504726E-03  8.65132174E-06  9.11315099E-02  1.13195421E-01
  1.74319903E-02  1.26840134E-02 -4.16676845E-03  0.00000000E+00  9.10513856E-02
  1.13099399E-01  1.74240904E-02 -1.26793594E-02 -4.14731046E-03  0.00000000E+00
 -9.11315099E-02 -1.13195421E-01 -1.74319903E-02  1.26840134E-02 -4.16676845E-03
  0.00000000E+00 -9.10513856E-02 -1.13099399E-01 -1.74240904E-02 -1.26793594E-02
 -4.14731046E-03  0.00000000E+00 -9.17898809E-06 -1.52190651E-05  1.49196785E-01
 -1.37944443E-05  0.00000000E+00  4.13009081E-05  2.12031117E-01  5.11682264E-06
  0.00000000E+00  5.09242873E-05  1.23720283E-01  3.60803045E-07  0.00000000E+00
  1.11647405E-04  5.78251155E-03 -2.83853579E-05  0.00000000E+00 -1.63857574E-06
  0.00000000E+00  0.00000000E+00  1.94552245E-05 -3.84017319E-03  9.17898809E-06
  1.52190651E-05  1.49196785E-01 -1.37944443E-05  0.00000000E+00 -4.13009081E-05
  2.12031117E-01  5.11682264E-06  0.00000000E+00 -5.09242873E-05  1.23720283E-01
  3.60803045E-07  0.00000000E+00 -1.11647405E-04  5.78251155E-03 -2.83853579E-05
  0.00000000E+00  1.63857574E-06  0.00000000E+00  0.00000000E+00 -1.94552245E-05
  3.84017319E-03 -9.71168989E-02 -1.32256364E-01 -3.05398762E-02 -9.10076154E-03
  9.59058092E-03  0.00000000E+00  9.71754576E-02  1.32331801E-01  3.05547292E-02
 -9.11216244E-03 -9.57750892E-03  0.00000000E+00  9.71168989E-02  1.32256364E-01
  3.05398762E-02 -9.10076154E-03  9.59058092E-03  0.00000000E+00 -9.71754576E-02
 -1.32331801E-01 -3.05547292E-02 -9.11216244E-03 -9.57750892E-03  0.00000000E+00
  7.15580311E-03  1.18012954E-02 -1.59318155E-04  1.92995176E-01  0.00000000E+00
 -3.48634594E-02 -2.04792425E-04  2.67439719E-01  0.00000000E+00  2.71628694E-02
 -1.57086180E-04  1.51048415E-01  0.00000000E+00  6.04142401E-03 -4.28144144E-05
  2.02694087E-03  0.00000000E+00  1.37895542E-03  0.00000000E+00  0.00000000E+00
  1.68878569E-02 -3.93843076E-05  7.15580311E-03  1.18012954E-02  1.59318155E-04
 -1.92995176E-01  0.00000000E+00 -3.48634594E-02  2.04792425E-04 -2.67439719E-01
  0.00000000E+00  2.71628694E-02  1.57086180E-04 -1.51048415E-01  0.00000000E+00
  6.04142401E-03  4.28144144E-05 -2.02694087E-03  0.00000000E+00  1.37895542E-03
  0.00000000E+00  0.00000000E+00  1.68878569E-02 -3.93843076E-05  7.76554534E-02
  1.10602461E-01  3.99926662E-02  1.15230693E-02  3.38969323E-03  0.00000000E+00
  7.73004631E-02  1.10096852E-01  3.98661114E-02 -1.14885507E-02  3.43294418E-03
  0.00000000E+00  7.76554534E-02  1.10602461E-01  3.99926662E-02 -1.15230693E-02
 -3.38969323E-03  0.00000000E+00  7.73004631E-02  1.10096852E-01  3.98661114E-02
  1.14885507E-02 -3.43294418E-03  0.00000000E+00  2.20013688E-05  3.61840954E-05
  1.39718446E-01  2.38845434E-04  0.00000000E+00 -1.05300067E-04  2.01873271E-01
  3.36858094E-04  0.00000000E+00 -2.68461079E-05  1.65004847E-01  2.12259292E-04
  0.00000000E+00  1.06771671E-05  2.35681215E-02  1.96186824E-06  0.00000000E+00
  5.53805343E-07  0.00000000E+00  0.00000000E+00  4.44147882E-05  3.36995596E-02
  2.20013688E-05  3.61840954E-05 -1.39718446E-01 -2.38845434E-04  0.00000000E+00
 -1.05300067E-04 -2.01873271E-01 -3.36858094E-04  0.00000000E+00 -2.68461079E-05
 -1.65004847E-01 -2.12259292E-04  0.00000000E+00  1.06771671E-05 -2.35681215E-02
 -1.96186824E-06  0.00000000E+00  5.53805343E-07  0.00000000E+00  0.00000000E+00
  4.44147882E-05  3.36995596E-02 -1.17576345E-01 -1.71658600E-01 -7.96430946E-02
 -4.67154826E-03  7.45772159E-03  0.00000000E+00  1.17802093E-01  1.72008578E-01
  7.98201248E-02 -4.71750177E-03 -7.43809977E-03  0.00000000E+00 -1.17576345E-01
 -1.71658600E-01 -7.96430946E-02  4.67154826E-03 -7.45772159E-03  0.00000000E+00
  1.17802093E-01  1.72008578E-01  7.98201248E-02  4.71750177E-03  7.43809977E-03
  0.00000000E+00  0.00000000E+00  0.00000000E+00  0.00000000E+00  0.00000000E+00
  1.77088477E-01  0.00000000E+00  0.00000000E+00  0.00000000E+00  2.82856736E-01
  0.00000000E+00  0.00000000E+00  0.00000000E+00  2.44522136E-01  0.00000000E+00
  0.00000000E+00  0.00000000E+00  2.70892024E-02  0.00000000E+00  1.21537331E-06
 -2.24225032E-02  0.00000000E+00  0.00000000E+00  0.00000000E+00  0.00000000E+00
  0.00000000E+00  0.00000000E+00  1.77088477E-01  0.00000000E+00  0.00000000E+00
  0.00000000E+00  2.82856736E-01  0.00000000E+00  0.00000000E+00  0.00000000E+00
  2.44522136E-01  0.00000000E+00  0.00000000E+00  0.00000000E+00  2.70892024E-02
  0.00000000E+00 -1.21537331E-06  2.24225032E-02  0.00000000E+00  0.00000000E+00
  0.00000000E+00  0.00000000E+00  0.00000000E+00  0.00000000E+00  0.00000000E+00
  1.26244574E-02  0.00000000E+00  0.00000000E+00  0.00000000E+00  0.00000000E+00
  0.00000000E+00  1.26217022E-02  0.00000000E+00  0.00000000E+00  0.00000000E+00
  0.00000000E+00  0.00000000E+00  1.26244574E-02  0.00000000E+00  0.00000000E+00
  0.00000000E+00  0.00000000E+00  0.00000000E+00  1.26217022E-02  0.00000000E+00
  0.00000000E+00  0.00000000E+00  0.00000000E+00  1.44788400E-01  0.00000000E+00
  0.00000000E+00  0.00000000E+00  2.35855374E-01  0.00000000E+00  0.00000000E+00
  0.00000000E+00  3.77950357E-01  0.00000000E+00  0.00000000E+00  0.00000000E+00
  9.81370858E-01  0.00000000E+00  1.61039807E-06  2.82338700E-02  0.00000000E+00
  0.00000000E+00  0.00000000E+00  0.00000000E+00  0.00000000E+00  0.00000000E+00
 -1.44788400E-01  0.00000000E+00  0.00000000E+00  0.00000000E+00 -2.35855374E-01
  0.00000000E+00  0.00000000E+00  0.00000000E+00 -3.77950357E-01  0.00000000E+00
  0.00000000E+00  0.00000000E+00 -9.81370858E-01  0.00000000E+00  1.61039807E-06
  2.82338700E-02  0.00000000E+00  0.00000000E+00  0.00000000E+00  0.00000000E+00
  0.00000000E+00  0.00000000E+00  0.00000000E+00  2.00603150E-02  0.00000000E+00
  0.00000000E+00  0.00000000E+00  0.00000000E+00  0.00000000E+00  2.00478014E-02
  0.00000000E+00  0.00000000E+00  0.00000000E+00  0.00000000E+00  0.00000000E+00
 -2.00603150E-02  0.00000000E+00  0.00000000E+00  0.00000000E+00  0.00000000E+00
  0.00000000E+00 -2.00478014E-02  1.73945146E-02  2.97058090E-02 -9.04863604E-06
 -4.01657997E-02  0.00000000E+00 -8.31457964E-02  2.65060486E-05 -6.21454350E-02
  0.00000000E+00 -2.94306232E-01 -4.66011606E-04 -1.43118539E-01  0.00000000E+00
  1.20205067E+00 -1.47610482E-03  6.80511567E-01  0.00000000E+00  1.26877912E-02
  0.00000000E+00  0.00000000E+00 -6.88077129E-03  1.98967306E-05  1.73945146E-02
  2.97058090E-02  9.04863604E-06  4.01657997E-02  0.00000000E+00 -8.31457964E-02
 -2.65060486E-05  6.21454350E-02  0.00000000E+00 -2.94306232E-01  4.66011606E-04
  1.43118539E-01  0.00000000E+00  1.20205067E+00  1.47610482E-03 -6.80511567E-01
  0.00000000E+00  1.26877912E-02  0.00000000E+00  0.00000000E+00 -6.88077129E-03
  1.98967306E-05 -2.20699336E-02  8.29972690E-02 -3.93968616E-01 -1.61798081E-03
  1.89061987E-03  0.00000000E+00 -2.20521827E-02  8.29806389E-02 -3.92483546E-01
  1.62157874E-03  1.88044859E-03  0.00000000E+00 -2.20699336E-02  8.29972690E-02
 -3.93968616E-01  1.61798081E-03 -1.89061987E-03  0.00000000E+00 -2.20521827E-02
  8.29806389E-02 -3.92483546E-01 -1.62157874E-03 -1.88044859E-03  0.00000000E+00
 -1.96115386E-02 -3.37436667E-02 -2.98135237E-05  1.61920099E-02  0.00000000E+00
  1.14028613E-01 -6.85885449E-05  2.88310492E-02  0.00000000E+00 -9.14863488E-02
 -7.64795384E-05  2.10098664E-01  0.00000000E+00  1.05782242E+01  3.89479415E-04
 -3.66700217E+00  0.00000000E+00  2.61597109E-03  0.00000000E+00  0.00000000E+00
  1.46734387E-02 -1.01299406E-05  1.96115386E-02  3.37436667E-02 -2.98135237E-05
  1.61920099E-02  0.00000000E+00 -1.14028613E-01 -6.85885449E-05  2.88310492E-02
  0.00000000E+00  9.14863488E-02 -7.64795384E-05  2.10098664E-01  0.00000000E+00
 -1.05782242E+01  3.89479415E-04 -3.66700217E+00  0.00000000E+00 -2.61597109E-03
  0.00000000E+00  0.00000000E+00 -1.46734387E-02  1.01299406E-05  1.09101169E-02
 -4.98244894E-02  1.82526135E-01  2.01205963E-03 -1.00679540E-02  0.00000000E+00
  1.08959061E-02 -4.96122855E-02  1.81863782E-01 -2.01681952E-03 -1.00632274E-02
  0.00000000E+00 -1.09101169E-02  4.98244894E-02 -1.82526135E-01  2.01205963E-03
 -1.00679540E-02  0.00000000E+00 -1.08959061E-02  4.96122855E-02 -1.81863782E-01
 -2.01681952E-03 -1.00632274E-02  0.00000000E+00  1.05057523E-05  1.82193375E-05
 -5.67303871E-02 -4.34105828E-06  0.00000000E+00 -5.78907313E-05 -9.59842999E-02
 -1.03767375E-05  0.00000000E+00  1.80243680E-05 -1.61560914E-01 -3.05095569E-05
  0.00000000E+00  3.41334279E-03  8.28559848E-01 -4.28680230E-04  0.00000000E+00
  3.54379620E-06  0.00000000E+00  0.00000000E+00 -2.97564738E-05 -3.75706838E-03
 -1.05057523E-05 -1.82193375E-05 -5.67303871E-02 -4.34105828E-06  0.00000000E+00
  5.78907313E-05 -9.59842999E-02 -1.03767375E-05  0.00000000E+00 -1.80243680E-05
 -1.61560914E-01 -3.05095569E-05  0.00000000E+00 -3.41334279E-03  8.28559848E-01
 -4.28680230E-04  0.00000000E+00 -3.54379620E-06  0.00000000E+00  0.00000000E+00