Title Card Required                                                     
FOpt      UM062X                                                      6-311+G(d,p)        
Number of atoms                            I                4
Info1-9                                    I   N=           9
          13          13           0           0           0         110
           2          18        -502
Full Title                                 C   N=           2
Title Card Required     
Route                                      C   N=           4
#p opt UM062X/6-311+G** nosymm int=superfine    
Charge                                     I                1
Multiplicity                               I                2
Number of electrons                        I               13
Number of alpha electrons                  I                7
Number of beta electrons                   I                6
Number of basis functions                  I               56
Number of independent functions            I               56
Number of point charges in /Mol/           I                0
Number of translation vectors              I                0
Atomic numbers                             I   N=           4
           6           6           1           1
Nuclear charges                            R   N=           4
  6.00000000E+00  6.00000000E+00  1.00000000E+00  1.00000000E+00
Current cartesian coordinates              R   N=          12
 -3.46228062E+00  0.00000000E+00  0.00000000E+00  3.46228062E+00  0.00000000E+00
  0.00000000E+00 -5.57448529E+00  2.08238074E-10  6.40177309E-11  5.57448360E+00
 -7.88293419E-11  4.47063106E-11
Number of symbols in /Mol/                 I                0
Force Field                                I                0
Atom Types                                 C   N=           4
                                                
Int Atom Types                             I   N=           4
           0           0           0           0
MM charges                                 R   N=           4
  0.00000000E+00  0.00000000E+00  0.00000000E+00  0.00000000E+00
Integer atomic weights                     I   N=           4
          12          12           1           1
Real atomic weights                        R   N=           4
  1.20000000E+01  1.20000000E+01  1.00782504E+00  1.00782504E+00
Atom fragment info                         I   N=           4
           0           0           0           0
Atom residue num                           I   N=           4
           0           0           0           0
Nuclear spins                              I   N=           4
           0           0           1           1
Nuclear ZEff                               R   N=           4
 -3.60000000E+00 -3.60000000E+00 -1.00000000E+00 -1.00000000E+00
Nuclear ZNuc                               R   N=           4
  6.00000000E+00  6.00000000E+00  1.00000000E+00  1.00000000E+00
Nuclear QMom                               R   N=           4
  0.00000000E+00  0.00000000E+00  0.00000000E+00  0.00000000E+00
Nuclear GFac                               R   N=           4
  0.00000000E+00  0.00000000E+00  2.79284600E+00  2.79284600E+00
MicOpt                                     I   N=           4
          -2          -2          -1          -1
Number of residues                         I                0
Number of secondary structures             I                0
Redundant internal dimensions              I   N=           4
          12           8           4           0
Redundant internal coordinate indices      I   N=          48
           1          -1           0           0           1          -2
           0           0           1          -3           0           0
           2          -1           0           0           2          -2
           0           0           2          -3           0           0
           1           3           0           0           2           4
           0           0           2           1           3          -4
           1           2           4          -4           2           1
           3          -8           1           2           4          -8
Redundant internal coordinates             R   N=          12
 -3.46228062E+00  0.00000000E+00  0.00000000E+00  3.46228062E+00  0.00000000E+00
  0.00000000E+00  2.11220468E+00  2.11220298E+00  3.14159265E+00  3.14159265E+00
  3.14159265E+00  3.14159265E+00
ZRed-IntVec                                I   N=          12
          -1          -1          -1          -1          -1          -1
           0           0           0           0           0           0
ZRed-FPVec                                 R   N=          12
  0.00000000E+00  0.00000000E+00  0.00000000E+00  0.00000000E+00  0.00000000E+00
  0.00000000E+00  0.00000000E+00  0.00000000E+00  0.00000000E+00  0.00000000E+00
  0.00000000E+00  0.00000000E+00
ZRed-Constraint1                           R   N=          12
 -3.46228062E+00  0.00000000E+00  0.00000000E+00  3.46228062E+00  0.00000000E+00
  0.00000000E+00  2.08057524E+00  2.08053366E+00  3.14159265E+00  3.14159265E+00
  3.14159265E+00  3.14159265E+00
ZRed-Constraint2                           R   N=          12
 -3.46228062E+00  0.00000000E+00  0.00000000E+00  3.46228062E+00  0.00000000E+00
  0.00000000E+00  0.00000000E+00  0.00000000E+00  0.00000000E+00  0.00000000E+00
  0.00000000E+00  0.00000000E+00
Number of contracted shells                I               20
Number of primitive shells                 I               38
Pure/Cartesian d shells                    I                0
Pure/Cartesian f shells                    I                0
Highest angular momentum                   I                2
Largest degree of contraction              I                6
Shell types                                I   N=          20
           0          -1          -1          -1          -1          -2
           0          -1          -1          -1          -1          -2
           0           0           0           1           0           0
           0           1
Number of primitives per shell             I   N=          20
           6           3           1           1           1           1
           6           3           1           1           1           1
           3           1           1           1           3           1
           1           1
Shell to atom map                          I   N=          20
           1           1           1           1           1           1
           2           2           2           2           2           2
           3           3           3           3           4           4
           4           4
Primitive exponents                        R   N=          38
  4.56324000E+03  6.82024000E+02  1.54973000E+02  4.44553000E+01  1.30290000E+01
  1.82773000E+00  2.09642000E+01  4.80331000E+00  1.45933000E+00  4.83456000E-01
  1.45585000E-01  4.38000000E-02  6.26000000E-01  4.56324000E+03  6.82024000E+02
  1.54973000E+02  4.44553000E+01  1.30290000E+01  1.82773000E+00  2.09642000E+01
  4.80331000E+00  1.45933000E+00  4.83456000E-01  1.45585000E-01  4.38000000E-02
  6.26000000E-01  3.38650000E+01  5.09479000E+00  1.15879000E+00  3.25840000E-01
  1.02741000E-01  7.50000000E-01  3.38650000E+01  5.09479000E+00  1.15879000E+00
  3.25840000E-01  1.02741000E-01  7.50000000E-01
Contraction coefficients                   R   N=          38
  1.96665025E-03  1.52306019E-02  7.61269097E-02  2.60801033E-01  6.16462078E-01
  2.21006028E-01  1.14660081E-01  9.19999648E-01 -3.03068213E-03  1.00000000E+00
  1.00000000E+00  1.00000000E+00  1.00000000E+00  1.96665025E-03  1.52306019E-02
  7.61269097E-02  2.60801033E-01  6.16462078E-01  2.21006028E-01  1.14660081E-01
  9.19999648E-01 -3.03068213E-03  1.00000000E+00  1.00000000E+00  1.00000000E+00
  1.00000000E+00  2.54938145E-02  1.90373109E-01  8.52161486E-01  1.00000000E+00
  1.00000000E+00  1.00000000E+00  2.54938145E-02  1.90373109E-01  8.52161486E-01
  1.00000000E+00  1.00000000E+00  1.00000000E+00
P(S=P) Contraction coefficients            R   N=          38
  0.00000000E+00  0.00000000E+00  0.00000000E+00  0.00000000E+00  0.00000000E+00
  0.00000000E+00  4.02486927E-02  2.37593957E-01  8.15853851E-01  1.00000000E+00
  1.00000000E+00  1.00000000E+00  0.00000000E+00  0.00000000E+00  0.00000000E+00
  0.00000000E+00  0.00000000E+00  0.00000000E+00  0.00000000E+00  4.02486927E-02
  2.37593957E-01  8.15853851E-01  1.00000000E+00  1.00000000E+00  1.00000000E+00
  0.00000000E+00  0.00000000E+00  0.00000000E+00  0.00000000E+00  0.00000000E+00
  0.00000000E+00  0.00000000E+00  0.00000000E+00  0.00000000E+00  0.00000000E+00
  0.00000000E+00  0.00000000E+00  0.00000000E+00
Coordinates of each shell                  R   N=          60
 -3.46228062E+00  0.00000000E+00  0.00000000E+00 -3.46228062E+00  0.00000000E+00
  0.00000000E+00 -3.46228062E+00  0.00000000E+00  0.00000000E+00 -3.46228062E+00
  0.00000000E+00  0.00000000E+00 -3.46228062E+00  0.00000000E+00  0.00000000E+00
 -3.46228062E+00  0.00000000E+00  0.00000000E+00  3.46228062E+00  0.00000000E+00
  0.00000000E+00  3.46228062E+00  0.00000000E+00  0.00000000E+00  3.46228062E+00
  0.00000000E+00  0.00000000E+00  3.46228062E+00  0.00000000E+00  0.00000000E+00
  3.46228062E+00  0.00000000E+00  0.00000000E+00  3.46228062E+00  0.00000000E+00
  0.00000000E+00 -5.57448529E+00  2.08238074E-10  6.40177309E-11 -5.57448529E+00
  2.08238074E-10  6.40177309E-11 -5.57448529E+00  2.08238074E-10  6.40177309E-11
 -5.57448529E+00  2.08238074E-10  6.40177309E-11  5.57448360E+00 -7.88293419E-11
  4.47063106E-11  5.57448360E+00 -7.88293419E-11  4.47063106E-11  5.57448360E+00
 -7.88293419E-11  4.47063106E-11  5.57448360E+00 -7.88293419E-11  4.47063106E-11
Num ILSW                                   I              100
ILSW                                       I   N=         100
           1           0           0           0           2           0
           0           0           0           0        4336          -1
           7           0           0           0           2           0
           0           0           0           0           1           0
           1           1           0           0           0           0
           0           0      100000           0          -1           0
           0           0           0           0           0           0
           0           0           0           1           0           0
           0 -2000000000           1           0           0           0
           0           0           4          52           0           0
           0           0          55           0           0           0
           0           0           0           4           0           1
           0           0           0           0           0           0
           0           0           0           0           0           0
           0           0           0           0           0           0
           0           0           0           0           0           0
           0           0           0           0
Num RLSW                                   I               52
RLSW                                       R   N=          52
  1.00000000E+00  1.00000000E+00  1.00000000E+00  1.00000000E+00  5.40000000E-01
  0.00000000E+00  0.00000000E+00  1.00000000E+00  0.00000000E+00  0.00000000E+00
  0.00000000E+00  0.00000000E+00  1.00000000E+00  0.00000000E+00  0.00000000E+00
  0.00000000E+00  0.00000000E+00  1.00000000E+00  0.00000000E+00  0.00000000E+00
  0.00000000E+00  0.00000000E+00  1.00000000E+00  0.00000000E+00  0.00000000E+00
  0.00000000E+00  0.00000000E+00  1.00000000E+00  0.00000000E+00  0.00000000E+00
  0.00000000E+00  0.00000000E+00  1.00000000E+00  0.00000000E+00  0.00000000E+00
  0.00000000E+00  0.00000000E+00  0.00000000E+00  1.00000000E+00  1.00000000E+00
  0.00000000E+00  1.00000000E+00  0.00000000E+00  0.00000000E+00  0.00000000E+00
  0.00000000E+00  0.00000000E+00  0.00000000E+00  0.00000000E+00  0.00000000E+00
  0.00000000E+00  0.00000000E+00
MxBond                                     I                2
NBond                                      I   N=           4
           2           2           1           1
IBond                                      I   N=           8
           2           3           1           4           1           0
           2           0
RBond                                      R   N=           8
  1.00000000E-01  1.00000000E+00  1.00000000E-01  1.00000000E+00  1.00000000E+00
  0.00000000E+00  1.00000000E+00  0.00000000E+00
Virial Ratio                               R      2.002968695958423E+00
SCF Energy                                 R     -7.658551444319805E+01
Total Energy                               R     -7.658551444319805E+01
S**2                                       R      7.512937662507042E-01
S**2 after annihilation                    R      7.500011980954174E-01
RMS Force                                  R      1.226300095888234E-04
RMS Density                                R      3.666035268078517E-10
Job Status                                 I                1
Nuclear derivative order                   I                1
External E-field                           R   N=          35
  0.00000000E+00  0.00000000E+00  0.00000000E+00  0.00000000E+00  0.00000000E+00
  0.00000000E+00  0.00000000E+00  0.00000000E+00  0.00000000E+00  0.00000000E+00
  0.00000000E+00  0.00000000E+00  0.00000000E+00  0.00000000E+00  0.00000000E+00
  0.00000000E+00  0.00000000E+00  0.00000000E+00  0.00000000E+00  0.00000000E+00
  0.00000000E+00  0.00000000E+00  0.00000000E+00  0.00000000E+00  0.00000000E+00
  0.00000000E+00  0.00000000E+00  0.00000000E+00  0.00000000E+00  0.00000000E+00
  0.00000000E+00  0.00000000E+00  0.00000000E+00  0.00000000E+00  0.00000000E+00
IOpCl                                      I                1
IROHF                                      I                0
Alpha Orbital Energies                     R   N=          56
 -1.09460305E+01 -1.09460233E+01 -9.82883006E-01 -9.81148445E-01 -6.43581874E-01
 -6.26614120E-01 -4.83689387E-01 -4.05331546E-01 -3.35053938E-01 -3.30627884E-01
 -1.24079045E-01 -1.14034611E-01 -7.75865651E-02 -7.29171855E-02 -5.35596272E-02
 -4.80989863E-02 -4.45132671E-02 -1.57329580E-02 -5.12404781E-03  5.91724484E-02
  2.46411711E-01  3.01057358E-01  3.53384999E-01  3.59143288E-01  3.67862687E-01
  3.81276542E-01  3.89944928E-01  5.14017389E-01  5.25791344E-01  5.95908457E-01
  8.94053817E-01  8.95280400E-01  8.95576542E-01  8.97970776E-01  1.07611471E+00
  1.07674271E+00  1.08665863E+00  1.08727788E+00  1.34785160E+00  1.36398490E+00
  1.62683862E+00  1.62860296E+00  1.62986083E+00  1.63138417E+00  2.16864418E+00
  2.17444100E+00  2.26687319E+00  2.32726796E+00  2.42967820E+00  2.44421971E+00
  2.45186154E+00  2.46606684E+00  2.90063467E+00  3.01370603E+00  2.32531282E+01
  2.32705283E+01
Beta Orbital Energies                      R   N=          56
 -1.09419280E+01 -1.09419252E+01 -9.58928726E-01 -9.58080475E-01 -6.30270955E-01
 -6.12489862E-01 -3.16932576E-01 -3.11384460E-01 -3.01099910E-01 -2.94824931E-01
 -1.28909614E-01 -1.13257330E-01 -7.18812268E-02 -6.43192236E-02 -6.08518430E-02
 -4.08200539E-02 -3.15626766E-02 -2.10424469E-02  1.07773997E-02  7.48444417E-02
  2.38852427E-01  3.06338864E-01  3.63592705E-01  3.65851808E-01  3.83138716E-01
  3.86947334E-01  3.88879815E-01  5.22890075E-01  5.51096798E-01  6.20502243E-01
  9.66837097E-01  9.67833852E-01  9.75903232E-01  9.76873157E-01  1.10906116E+00
  1.10907179E+00  1.10917062E+00  1.10917476E+00  1.35135135E+00  1.36845893E+00
  1.64454966E+00  1.64637107E+00  1.65119542E+00  1.65300835E+00  2.30824178E+00
  2.32671234E+00  2.33072415E+00  2.38713209E+00  2.45602288E+00  2.47743899E+00
  2.47960857E+00  2.50032661E+00  3.00638122E+00  3.10744593E+00  2.32663762E+01
  2.32838074E+01
Alpha MO coefficients                      R   N=        3136
  4.02572185E-01  3.31646009E-01 -1.39575163E-03  3.44867132E-13 -5.96685342E-15
  6.79408566E-03 -8.95823242E-04 -3.64485746E-14  9.52577612E-14 -3.28234790E-03
 -9.70174265E-06  5.17301701E-14 -1.72557835E-14 -4.36913147E-06  7.81122691E-04
 -1.03679693E-13 -1.34276612E-14 -3.28371101E-04  5.43167247E-14  1.36980210E-06
  5.92862576E-04 -1.31733416E-13  3.95047450E-01  3.25447366E-01  1.36896646E-03
 -2.48639879E-13 -7.91904879E-15  6.66387340E-03  8.81877522E-04  7.93856419E-15
  6.91986508E-14 -3.20637507E-03  1.15994551E-05 -6.57303322E-14 -3.03137151E-14
 -3.73071303E-05 -7.44192034E-04  7.93855002E-14 -1.57248251E-15 -3.22676306E-04
 -6.20594708E-14  1.33394049E-06  5.82374002E-04  1.09288292E-13  2.92398978E-04
 -2.00260431E-03  2.21846462E-03 -1.30020863E-03  1.39721013E-13  4.01454132E-14
  2.86976398E-04 -1.96866673E-03  2.17210869E-03  1.27740181E-03 -5.75584551E-14
  9.31199692E-14 -3.95048264E-01 -3.25428261E-01  1.40657019E-03 -3.34311483E-13
  6.03426497E-15 -6.83814250E-03  7.31197472E-04  4.32037179E-14 -9.23572127E-14
  3.99586816E-03 -1.00702817E-04 -2.05569978E-14  1.82070035E-14 -1.74570725E-03
 -1.95014090E-03  8.19839224E-14  2.51285114E-14  2.98866674E-04 -5.64447789E-14
 -1.86771142E-06 -5.50548470E-04  1.19456279E-13  4.02572983E-01  3.31627259E-01
  1.43265251E-03 -2.54364794E-13 -7.56983988E-15  6.96511159E-03  7.47976357E-04
 -1.84525086E-15  6.86715646E-14 -4.05708208E-03 -1.00502178E-04 -4.63469100E-14
 -2.97436967E-14  1.74531156E-03 -1.96453153E-03  2.58466454E-14 -1.63620318E-14
 -3.05010690E-04 -6.54647528E-14  1.89283428E-06  5.61639195E-04  1.20396905E-13
 -2.84590250E-04  1.78057492E-03 -2.43649482E-03  1.19695633E-03 -1.23902483E-13
 -3.55352807E-14  2.90054706E-04 -1.81805059E-03  2.47792152E-03  1.22127988E-03
 -5.23678329E-14  9.23720762E-14 -8.00581986E-02 -1.30641664E-01 -5.51179595E-02
  5.49746711E-12  5.73341983E-12  3.84515879E-01 -8.49044934E-02  9.11756905E-12
  9.70165909E-12  2.47772649E-01 -2.79982476E-02  3.30149579E-12  3.18135775E-12
 -2.32446461E-03 -5.26625281E-03  1.49330406E-14 -1.06696933E-13 -4.58633993E-03
  1.51749595E-12 -5.63114095E-05  6.94821570E-03 -2.01077049E-12 -8.00672509E-02
 -1.30656425E-01  5.51244699E-02 -1.16106642E-11  4.80736567E-12  3.84559144E-01
  8.49144429E-02 -1.50926861E-11  8.69790201E-12  2.47801795E-01  2.80022691E-02
 -9.29108378E-12  2.48747696E-12 -2.32713142E-03  5.26884822E-03  1.72175964E-12
  3.38775983E-14 -4.58687958E-03  3.49548864E-13 -5.63040701E-05  6.94908928E-03
  1.09427306E-12  9.73768612E-02  1.22548172E-01 -7.79858505E-03  1.68801466E-02
 -9.48020005E-13 -4.92709206E-13  9.73881546E-02  1.22562015E-01 -7.80045787E-03
 -1.68820118E-02  1.89349674E-12 -1.01705879E-12 -7.99112051E-02 -1.30342262E-01
 -5.65532895E-02  4.47564593E-12  5.75656478E-12  3.82447663E-01 -8.68882030E-02
  7.79177506E-12  9.67465453E-12  2.58596450E-01 -3.54172896E-02  1.70660795E-12
  3.46077352E-12 -2.37631550E-02 -2.30653838E-02  1.28049945E-12 -2.47112841E-13
 -4.63657943E-03  1.48300795E-12 -2.69773985E-05  7.55295599E-03 -2.26186979E-12
  7.99020995E-02  1.30327400E-01 -5.65471282E-02  1.24486793E-11 -4.82677944E-12
 -3.82403871E-01 -8.68786620E-02  1.64017571E-11 -8.69314216E-12 -2.58568141E-01
 -3.54141249E-02  1.11380153E-11 -2.71413140E-12  2.37628880E-02 -2.30647799E-02
 -2.21826038E-12  1.25300720E-13  4.63607341E-03 -4.07727391E-13  2.69608393E-05
 -7.55218601E-03 -1.10335905E-12  9.83876818E-02  1.21241093E-01 -1.64803269E-02
  1.63575184E-02 -8.89180588E-13 -4.69575862E-13 -9.83767579E-02 -1.21227254E-01
  1.64794517E-02  1.63556090E-02 -1.85846979E-12  1.00765190E-12 -4.00862622E-02
 -6.67695934E-02  1.65075350E-01 -1.88091573E-11  1.78001572E-11  2.05786664E-01
  2.45454912E-01 -2.69573597E-11  2.87178366E-11  2.47061387E-01  1.45727374E-01
 -1.52881026E-11  2.15750664E-11  1.82422609E-02 -5.39401410E-04  1.66479371E-12
  2.88918909E-13  1.39585424E-02  2.07495898E-12 -1.72671054E-05 -2.44816914E-02
  5.59781065E-12 -4.00863380E-02 -6.67697212E-02 -1.65075550E-01 -5.64244058E-11
  1.57199587E-11  2.05787047E-01 -2.45455162E-01 -8.34078019E-11  2.34938460E-11
  2.47061986E-01 -1.45727458E-01 -6.37950149E-11  2.04826167E-11  1.82422894E-02
  5.39425181E-04 -3.97148720E-14 -4.42335498E-13  1.39585631E-02 -5.84912683E-13
 -1.72661568E-05 -2.44817286E-02  1.83595944E-12 -9.46410793E-02 -1.65216086E-01
 -6.77458908E-02 -8.15395545E-03  1.29571502E-13  1.56505754E-12 -9.46411589E-02
 -1.65216196E-01 -6.77459837E-02  8.15395268E-03 -4.76363764E-12  1.14601520E-12
 -4.38057484E-02 -7.30771744E-02  1.69526243E-01 -2.85864573E-11  1.99674173E-11
  2.27949416E-01  2.47457827E-01 -4.21708573E-11  3.22107954E-11  2.57437601E-01
  1.55215042E-01 -2.91813343E-11  2.43455256E-11  2.10579169E-02  6.77759912E-03
  1.70076597E-12 -3.03994933E-13  1.57754915E-02  2.02375188E-12  1.95188794E-05
 -2.69795274E-02  6.32713756E-12  4.38057275E-02  7.30771412E-02  1.69526077E-01
  6.55629457E-11 -1.73787170E-11 -2.27949301E-01  2.47457532E-01  9.73642897E-11
 -2.61325121E-11 -2.57437597E-01  1.55214820E-01  7.57685282E-11 -2.26232363E-11
 -2.10579224E-02  6.77759460E-03 -7.91851469E-14  9.15320714E-13 -1.57754797E-02
  4.44308059E-13 -1.95186585E-05  2.69795086E-02 -1.42679548E-12 -9.63274297E-02
 -1.70132330E-01 -6.26300123E-02 -7.57874162E-03 -5.35262360E-13  1.70744040E-12
  9.63272972E-02  1.70132055E-01  6.26299199E-02 -7.57872118E-03  5.34554260E-12
 -1.23671586E-12  7.14222658E-13  1.12872825E-12  2.15957554E-11  2.06758368E-01
 -1.16785585E-02 -3.84077079E-12  3.29088600E-11  3.24795154E-01 -1.83455734E-02
 -1.83219438E-11  4.39767833E-11  2.96906417E-01 -1.67705516E-02 -8.08757470E-12
  1.80977116E-11  2.16943219E-02 -1.22538249E-03 -1.26612720E-12  8.94982114E-04
  2.53476622E-12 -3.27710250E-12 -1.58459994E-02 -1.21806228E-11 -2.01763994E-11
 -2.94615245E-11  2.06758558E-01 -1.16758601E-02  6.01148554E-11 -4.99959250E-11
  3.24795463E-01 -1.83413248E-02  4.32637398E-11 -6.16613764E-11  2.96906699E-01
 -1.67667325E-02 -7.36421985E-12 -1.03284260E-11  2.16943440E-02 -1.22508978E-03
  8.52452184E-12 -8.94761285E-04  2.50860073E-12 -3.03413709E-12  1.58460319E-02
  6.06209087E-13  3.01059208E-12  3.33091648E-11  1.43988137E-12  1.51562001E-02
 -8.56112118E-04 -2.02609369E-11 -2.39117435E-11  2.80581478E-11 -4.41220850E-12
  1.51562275E-02 -8.55912486E-04 -3.25860816E-12 -5.74290320E-12  2.99622345E-11
  2.08694895E-01 -1.17877124E-02  2.17268619E-11  4.45327445E-11  3.28793836E-01
 -1.85710619E-02 -1.03086706E-11  4.28710260E-11  2.95968949E-01 -1.67172782E-02
  2.47718610E-11  5.15847241E-11  3.05166870E-02 -1.72362603E-03  5.17120904E-13
  1.13327154E-03  2.54496594E-12 -6.33845296E-12 -2.00652495E-02  1.56765543E-11
  2.62081899E-11  3.74550990E-11 -2.08695003E-01  1.17848225E-02 -8.29608929E-11
  6.13503688E-11 -3.28794015E-01  1.85665131E-02 -4.37650543E-11  6.77023089E-11
 -2.95969118E-01  1.67131266E-02 -3.21096534E-11  4.57115847E-11 -3.05166993E-02
  1.72328330E-03 -1.03655046E-11  1.13300853E-03 -2.50151218E-12  6.10817861E-12
 -2.00652759E-02 -4.38793373E-12 -1.22043842E-11  3.25692951E-11  1.81897521E-12
  1.66841080E-02 -9.42395227E-04  2.55126373E-11  3.57147693E-11 -3.29583433E-11
  5.27333867E-12 -1.66841295E-02  9.42167038E-04  4.68928897E-12  7.64334827E-12
 -6.64667524E-12  1.09280162E-02  1.93469406E-01 -1.94533798E-11 -6.76626666E-12
  1.76212963E-02  3.11963886E-01 -3.96863937E-11  1.32311429E-13  1.69904967E-02
  3.00801871E-01 -5.44248134E-12  7.58638460E-13  3.00801842E-03  5.32530351E-02
  3.68961894E-12 -1.59491971E-02  3.12294976E-12 -1.71111323E-13 -9.00958592E-04
  2.99252583E-12  4.78428861E-12  5.64222193E-12  1.09251490E-02  1.93467898E-01
 -1.21539271E-11  9.75031120E-12  1.76166672E-02  3.11961450E-01 -1.57152804E-11
  3.49696992E-12  1.69861276E-02  3.00799583E-01 -5.74838189E-12  1.19610221E-11
  3.00714495E-03  5.32525722E-02  3.61576951E-12  1.59490742E-02 -6.25613318E-12
  1.04476055E-12  9.00700605E-04  7.28975275E-12  2.27293221E-11  1.37390315E-11
  2.97534188E-12  9.32025548E-04  1.65009837E-02  3.97830601E-12  1.23753777E-11
 -7.34328270E-12 -2.52507277E-13  9.31778093E-04  1.65008658E-02 -5.29788484E-12
 -8.67584030E-12  7.66277597E-12 -1.11303575E-02 -1.97060385E-01  2.28699024E-11
  8.35723435E-12 -1.79989007E-02 -3.18663149E-01  4.44663591E-11 -5.11419451E-13
 -1.70830653E-02 -3.02451623E-01  1.52108471E-11  1.98601928E-12 -3.54991597E-03
 -6.28511686E-02 -3.51756696E-12  1.76466313E-02 -3.02838494E-12 -1.66788821E-13
  9.96768370E-04  3.80231092E-12  6.13416788E-12  7.17047289E-12  1.11279636E-02
  1.97062133E-01 -1.61346139E-11  1.25482732E-11  1.79950397E-02  3.18665971E-01
 -2.63551205E-11  1.09264933E-12  1.70793168E-02  3.02454374E-01 -6.72773931E-12
  6.91111388E-12  3.54926378E-03  6.28516688E-02  3.41993512E-12  1.76467870E-02
 -6.38378565E-12  1.40326322E-12  9.96572229E-04 -8.22009154E-12 -2.47569384E-11
 -1.92802422E-11 -3.00228437E-12 -9.67437113E-04 -1.71287555E-02  5.12492949E-12
  1.57154691E-11  2.37806804E-12 -3.93926959E-13  9.67233069E-04  1.71289178E-02
  2.99548497E-02  5.07611633E-02  3.33767698E-02 -6.22309185E-12 -1.16487227E-12
 -1.59921709E-01  8.10100860E-02 -1.09523569E-11 -3.06141848E-12 -5.09911538E-01
  9.90788993E-02 -2.23549021E-11 -8.68062236E-13  9.63048224E-01 -3.13536832E-01
  5.72845641E-11  1.32554389E-11  2.10620015E-03  2.92250675E-13 -2.35261890E-04
 -7.79897177E-03  2.80801127E-12  2.99547470E-02  5.07609917E-02 -3.33763172E-02
  2.65073760E-12 -8.59027702E-13 -1.59921150E-01 -8.10094388E-02  1.54706249E-12
 -2.64504424E-12 -5.09910090E-01 -9.90777065E-02  9.07907670E-12  4.32313118E-13
  9.63047109E-01  3.13533241E-01 -5.38757781E-11  1.18949126E-11  2.10620138E-03
 -1.37536537E-12 -2.35210444E-04 -7.79897406E-03  3.08460520E-12  5.65498415E-03
  1.53194886E-01 -1.20402125E-01 -3.94829103E-03  1.20123431E-12  7.50297127E-13
  5.65488043E-03  1.53194250E-01 -1.20402287E-01  3.94817919E-03 -4.94837909E-13
  4.35220778E-13 -2.06514111E-02 -3.58162152E-02 -6.35074191E-02  7.58266661E-12
  1.07767262E-12  1.29862354E-01 -1.11855712E-01  3.23163536E-12  2.89184121E-12
  2.40669988E-01 -1.46753441E-01  4.50728336E-11  2.97834372E-12 -4.19779932E-01
  9.02834971E-01 -1.09975722E-10 -1.49935113E-11 -3.83088744E-03 -1.10029780E-12
  1.52698459E-04  9.32900104E-03 -3.17256886E-12  2.06515231E-02  3.58164088E-02
 -6.35073789E-02  6.21046041E-12 -1.04832047E-12 -1.29863019E-01 -1.11855868E-01
  7.12039147E-12 -3.19059496E-12 -2.40671543E-01 -1.46753030E-01  1.92172221E-11
 -1.26197342E-12  4.19785102E-01  9.02836592E-01 -3.80841457E-11  1.50819253E-11
  3.83091311E-03 -6.68742182E-13 -1.52662423E-04 -9.32907393E-03  4.56958175E-12
  4.53996396E-03 -1.21495559E-01  2.46810965E-01  1.28344773E-02 -3.03393985E-12
 -1.00037458E-12 -4.54008824E-03  1.21495910E-01 -2.46813043E-01  1.28344535E-02
 -2.99065193E-14  4.88134349E-13 -1.23564081E-12 -1.87242619E-12 -5.84610646E-12
 -5.09814558E-03 -9.02610303E-02  1.07236755E-12 -7.95687953E-12 -5.98926499E-03
 -1.06035047E-01  4.68249899E-11 -3.24760293E-11 -1.69461932E-02 -3.00029858E-01
  2.36058153E-11  5.14565180E-12  4.09334166E-02  7.24710333E-01 -1.34590626E-12
  1.06339076E-02 -1.18473679E-12  2.81738896E-13  6.00674669E-04 -7.68525618E-13
 -1.07912429E-12  3.83347807E-12 -5.09797026E-03 -9.02609993E-02 -6.95769171E-13
  2.98639613E-12 -5.98891005E-03 -1.06035023E-01  3.43013351E-11  2.72819019E-11
 -1.69456957E-02 -3.00029765E-01  1.43656450E-11 -5.21099617E-12  4.09324379E-02
  7.24709908E-01 -1.61876455E-12 -1.06339163E-02  2.21234901E-12 -3.63703916E-14
 -6.00664843E-04 -4.24862919E-12 -7.93841149E-12 -7.84742043E-11 -8.23318361E-13
 -6.60985250E-06 -1.17203595E-04 -2.57951859E-12 -5.25603942E-12 -5.60210734E-11
  1.00530023E-13 -6.59850387E-06 -1.17219644E-04 -4.05549772E-12 -6.68401709E-12
  4.12792455E-12 -8.30466766E-02  4.69058822E-03  2.23063800E-11 -2.61070882E-12
 -8.52219428E-02  4.81327602E-03  5.06881818E-11  7.17594129E-11 -2.84099750E-01
  1.60464954E-02 -8.61031441E-11 -7.26922258E-11  7.26756770E-01 -4.10480378E-02
  2.73863489E-12 -5.64478312E-04 -6.15660962E-13 -2.15556779E-12  9.99484630E-03
  1.01866130E-12  1.64540624E-12 -1.85167825E-11 -8.30466232E-02  4.69078656E-03
 -3.73292855E-12 -1.86148207E-11 -8.52218807E-02  4.81366915E-03 -1.37447297E-11
 -5.30612596E-11 -2.84099589E-01  1.60470784E-02  5.82395594E-11  1.62038271E-10
  7.26756240E-01 -4.10492710E-02 -6.80166291E-13  5.64490967E-04 -6.75422094E-13
 -2.01752021E-12 -9.99485388E-03 -3.60171741E-12  2.79188563E-11  8.93400635E-12
  1.39061120E-12  1.39204040E-03 -7.86161768E-05 -1.54572071E-12  6.90414129E-12
 -5.39765203E-12  4.92668244E-12  1.39202613E-03 -7.86036631E-05  9.64520810E-03
  1.63256186E-02 -9.98807829E-02  1.71870522E-11  5.22104782E-12 -5.86146768E-02
 -9.76057280E-02  9.38599533E-12  5.56529655E-12 -7.16024050E-03 -5.25601721E-01
  1.14903705E-10  2.40763276E-11  3.47569041E-01  6.29106954E-01 -3.07477950E-10
 -1.69943415E-11 -4.93308299E-03 -2.17199671E-13 -1.41255196E-04  6.05079285E-03
  8.80444029E-13  9.64520655E-03  1.63256157E-02  9.98805568E-02 -4.00517618E-11
  5.75378208E-12 -5.86146462E-02  9.76054395E-02 -3.93420981E-11  6.94447825E-12
 -7.16017790E-03  5.25600858E-01 -1.88840769E-10  2.46880000E-11  3.47566219E-01
 -6.29107193E-01  5.17665224E-10 -4.08088480E-11 -4.93311158E-03  2.66705326E-12
 -1.41226805E-04  6.05084365E-03 -2.69771597E-12  1.22687542E-03 -9.03071871E-02
 -4.63999547E-01  1.27265397E-02 -5.36428312E-12  1.15350771E-13  1.22707968E-03
 -9.03069191E-02 -4.63997369E-01 -1.27265181E-02  3.62421873E-12 -3.40132294E-13
 -4.90657239E-13 -6.25708687E-13 -5.52151385E-12 -4.78968018E-03 -8.48012463E-02
 -1.57673084E-12 -4.57837125E-12 -5.32059328E-03 -9.41982631E-02  2.32380172E-11
 -2.95408746E-11 -1.82373740E-02 -3.22893606E-01  6.54916060E-11  2.90190025E-11
  5.95742773E-02  1.05475521E+00 -8.28809724E-13  6.07298463E-04 -1.20060696E-12