 Entering Gaussian System, Link 0=g16
 Initial command:
 /home/szhao/Apps/g16/l1.exe "/home/szhao/tmp/Gau-17387.inp" -scrdir="/home/szhao/tmp/"
 Default is to use a total of  16 processors:
                               16 via shared-memory
                                1 via Linda
 Entering Link 1 = /home/szhao/Apps/g16/l1.exe PID=     17388.
  
 Copyright (c) 1988,1990,1992,1993,1995,1998,2003,2009,2016,
            Gaussian, Inc.  All Rights Reserved.
  
 This is part of the Gaussian(R) 16 program.  It is based on
 the Gaussian(R) 09 system (copyright 2009, Gaussian, Inc.),
 the Gaussian(R) 03 system (copyright 2003, Gaussian, Inc.),
 the Gaussian(R) 98 system (copyright 1998, Gaussian, Inc.),
 the Gaussian(R) 94 system (copyright 1995, Gaussian, Inc.),
 the Gaussian 92(TM) system (copyright 1992, Gaussian, Inc.),
 the Gaussian 90(TM) system (copyright 1990, Gaussian, Inc.),
 the Gaussian 88(TM) system (copyright 1988, Gaussian, Inc.),
 the Gaussian 86(TM) system (copyright 1986, Carnegie Mellon
 University), and the Gaussian 82(TM) system (copyright 1983,
 Carnegie Mellon University). Gaussian is a federally registered
 trademark of Gaussian, Inc.
  
 This software contains proprietary and confidential information,
 including trade secrets, belonging to Gaussian, Inc.
  
 This software is provided under written license and may be
 used, copied, transmitted, or stored only in accord with that
 written license.
  
 The following legend is applicable only to US Government
 contracts under FAR:
  
                    RESTRICTED RIGHTS LEGEND
  
 Use, reproduction and disclosure by the US Government is
 subject to restrictions as set forth in subparagraphs (a)
 and (c) of the Commercial Computer Software - Restricted
 Rights clause in FAR 52.227-19.
  
 Gaussian, Inc.
 340 Quinnipiac St., Bldg. 40, Wallingford CT 06492
  
  
 ---------------------------------------------------------------
 Warning -- This program may not be used in any manner that
 competes with the business of Gaussian, Inc. or will provide
 assistance to any competitor of Gaussian, Inc.  The licensee
 of this program is prohibited from giving any competitor of
 Gaussian, Inc. access to this program.  By using this program,
 the user acknowledges that Gaussian, Inc. is engaged in the
 business of creating and licensing software in the field of
 computational chemistry and represents and warrants to the
 licensee that it is not a competitor of Gaussian, Inc. and that
 it will not use this program in any manner prohibited above.
 ---------------------------------------------------------------
  

 Cite this work as:
 Gaussian 16, Revision A.03,
 M. J. Frisch, G. W. Trucks, H. B. Schlegel, G. E. Scuseria, 
 M. A. Robb, J. R. Cheeseman, G. Scalmani, V. Barone, 
 G. A. Petersson, H. Nakatsuji, X. Li, M. Caricato, A. V. Marenich, 
 J. Bloino, B. G. Janesko, R. Gomperts, B. Mennucci, H. P. Hratchian, 
 J. V. Ortiz, A. F. Izmaylov, J. L. Sonnenberg, D. Williams-Young, 
 F. Ding, F. Lipparini, F. Egidi, J. Goings, B. Peng, A. Petrone, 
 T. Henderson, D. Ranasinghe, V. G. Zakrzewski, J. Gao, N. Rega, 
 G. Zheng, W. Liang, M. Hada, M. Ehara, K. Toyota, R. Fukuda, 
 J. Hasegawa, M. Ishida, T. Nakajima, Y. Honda, O. Kitao, H. Nakai, 
 T. Vreven, K. Throssell, J. A. Montgomery, Jr., J. E. Peralta, 
 F. Ogliaro, M. J. Bearpark, J. J. Heyd, E. N. Brothers, K. N. Kudin, 
 V. N. Staroverov, T. A. Keith, R. Kobayashi, J. Normand, 
 K. Raghavachari, A. P. Rendell, J. C. Burant, S. S. Iyengar, 
 J. Tomasi, M. Cossi, J. M. Millam, M. Klene, C. Adamo, R. Cammi, 
 J. W. Ochterski, R. L. Martin, K. Morokuma, O. Farkas, 
 J. B. Foresman, and D. J. Fox, Gaussian, Inc., Wallingford CT, 2016.
 
 ******************************************
 Gaussian 16:  ES64L-G16RevA.03 25-Dec-2016
                 7-Nov-2024 
 ******************************************
 %chk=opt.chk
 %mem=24GB
 %nprocshared=32
 Will use up to   32 processors via shared memory.
 --------------------------------------------
 #p opt UM062X/6-311+G** nosymm int=superfine
 --------------------------------------------
 1/18=20,19=15,26=5,38=1/1,3;
 2/9=110,12=2,15=1,17=6,18=5,40=1/2;
 3/5=4,6=6,7=111,11=2,25=1,30=1,71=1,74=-55,75=-7,116=2/1,2,3;
 4//1;
 5/5=2,38=5/2;
 6/7=2,8=2,9=2,10=2,28=1/1;
 7/30=1/1,2,3,16;
 1/18=20,19=15,26=5/3(2);
 2/9=110,15=1/2;
 99//99;
 2/9=110,15=1/2;
 3/5=4,6=6,7=111,11=2,25=1,30=1,71=1,74=-55,75=-7,116=2/1,2,3;
 4/5=5,16=3,69=1/1;
 5/5=2,38=5/2;
 7/30=1/1,2,3,16;
 1/18=20,19=15,26=5/3(-5);
 2/9=110,15=1/2;
 6/7=2,8=2,9=2,10=2,19=2,28=1/1;
 99/9=1/99;
 Leave Link    1 at Thu Nov  7 19:11:02 2024, MaxMem=  3221225472 cpu:               3.5 elap:               0.1
 (Enter /home/szhao/Apps/g16/l101.exe)
 -------------------
 Title Card Required
 -------------------
 Symbolic Z-matrix:
 Charge =  1 Multiplicity = 2
 C                    -1   -1.64066   0.        0. 
 C                    -1    1.64066   0.        0. 
 C                    0    -0.00001  -2.10939   0. 
 C                    0    -0.00005  -3.49739  -0.00003 
 C                    0    -1.30293  -4.30979   0.23684 
 C                    0    -1.45691  -1.47743   0.21181 
 C                    0     0.76132  -5.70448  -0.14038 
 H                    0     1.47659  -6.5777   -0.2759 
 C                    0    -1.78898   0.79909   1.19498 
 C                    0    -0.76146  -5.70446   0.14058 
 H                    0    -1.47675  -6.57766   0.27615 
 C                    0     1.30282  -4.30982  -0.23673 
 C                    0     1.45692  -1.47746  -0.21171 
 C                    0     1.98097   2.22016  -1.26415 
 C                    0    -1.82506   0.36305  -1.38864 
 C                    0    -2.15176   2.83478   2.52156 
 H                    0    -2.31459   3.90897   2.54871 
 C                    0    -2.67683  -3.68593   0.4942 
 H                    0    -3.72312  -4.24085   0.69215 
 C                    0    -1.858     1.69173  -1.92531 
 C                    0     2.72918  -2.26364  -0.46777 
 H                    0     3.82979  -1.77391  -0.61586 
 C                    0     1.82502   0.3632    1.38857 
 C                    0     1.8578    1.69193   1.92515 
 C                    0     2.67681  -3.68601  -0.49385 
 H                    0     3.72312  -4.24096  -0.69161 
 C                    0    -1.98149   2.22018   1.26398 
 C                    0    -1.70122   0.11336   2.44139 
 H                    0    -1.50654  -0.95248   2.4446 
 C                    0     1.94109  -0.69941   2.34047 
 H                    0     1.95831  -1.72224   1.99671 
 C                    0    -2.11493   2.12466   3.70315 
 H                    0    -2.25993   2.63347   4.65106 
 C                    0    -2.72915  -2.26355   0.46808 
 H                    0    -3.82972  -1.77379   0.61631 
 C                    0    -1.94241   1.87111  -3.32211 
 H                    0    -1.94374   2.88569  -3.70324 
 C                    0     1.78891   0.79903  -1.19506 
 C                    0    -1.94815   3.1367    0.15424 
 H                    0    -1.99805   4.18084   0.44852 
 C                    0    -2.05372   0.81744  -4.20129 
 H                    0    -2.14197   0.99792  -5.26661 
 C                    0    -1.859     2.91654  -1.17257 
 H                    0    -1.83705   3.80967  -1.78987 
 C                    0     1.94259   1.8714    3.32191 
 H                    0     1.9438    2.886     3.70299 
 C                    0    -1.86569   0.74609   3.65571 
 H                    0    -1.79493   0.1676    4.56943 
 C                    0    -1.94097  -0.69962  -2.3405 
 H                    0    -1.95832  -1.72244  -1.99669 
 C                    0     2.05429   0.81779   4.20113 
 H                    0     2.14291   0.99835   5.26641 
 C                    0     2.15142   2.83471  -2.52174 
 H                    0     2.31399   3.90894  -2.54891 
 C                    0     2.07292  -0.48542   3.69308 
 H                    0     2.1861   -1.33314   4.36005 
 C                    0     2.11505   2.12451  -3.70328 
 H                    0     2.26017   2.63328  -4.6512 
 C                    0     1.94702   3.13678  -0.1545 
 H                    0     1.99629   4.18091  -0.44887 
 C                    0    -2.07248  -0.48573  -3.69314 
 H                    0    -2.18548  -1.33351  -4.36006 
 C                    0     1.85805   2.91669   1.17233 
 H                    0     1.83555   3.80985   1.78957 
 C                    0     1.7016    0.11321  -2.44145 
 H                    0     1.50727  -0.95266  -2.44466 
 C                    0     1.86615   0.74591  -3.65577 
 H                    0     1.79569   0.16733  -4.56946 
 
 ITRead=  2  2  0  0  0  0  0  0  0  0  0  0  0  0  0  0  0  0  0  0
 ITRead=  0  0  0  0  0  0  0  0  0  0  0  0  0  0  0  0  0  0  0  0
 ITRead=  0  0  0  0  0  0  0  0  0  0  0  0  0  0  0  0  0  0  0  0
 ITRead=  0  0  0  0  0  0  0  0
 MicOpt= -2 -2 -1 -1 -1 -1 -1 -1 -1 -1 -1 -1 -1 -1 -1 -1 -1 -1 -1 -1
 MicOpt= -1 -1 -1 -1 -1 -1 -1 -1 -1 -1 -1 -1 -1 -1 -1 -1 -1 -1 -1 -1
 MicOpt= -1 -1 -1 -1 -1 -1 -1 -1 -1 -1 -1 -1 -1 -1 -1 -1 -1 -1 -1 -1
 MicOpt= -1 -1 -1 -1 -1 -1 -1 -1
 NAtoms=     68 NQM=       66 NQMF=       2 NMMI=      0 NMMIF=      0
                NMic=       0 NMicF=      0.
                    Isotopes and Nuclear Properties:
 (Nuclear quadrupole moments (NQMom) in fm**2, nuclear magnetic moments (NMagM)
  in nuclear magnetons)

  Atom         1           2           3           4           5           6           7           8           9          10
 IAtWgt=          12          12          12          12          12          12          12           1          12          12
 AtmWgt=  12.0000000  12.0000000  12.0000000  12.0000000  12.0000000  12.0000000  12.0000000   1.0078250  12.0000000  12.0000000
 NucSpn=           0           0           0           0           0           0           0           1           0           0
 AtZEff=  -0.0000000  -0.0000000  -0.0000000  -0.0000000  -0.0000000  -0.0000000  -0.0000000  -0.0000000  -0.0000000  -0.0000000
 NQMom=    0.0000000   0.0000000   0.0000000   0.0000000   0.0000000   0.0000000   0.0000000   0.0000000   0.0000000   0.0000000
 NMagM=    0.0000000   0.0000000   0.0000000   0.0000000   0.0000000   0.0000000   0.0000000   2.7928460   0.0000000   0.0000000
 AtZNuc=   6.0000000   6.0000000   6.0000000   6.0000000   6.0000000   6.0000000   6.0000000   1.0000000   6.0000000   6.0000000

  Atom        11          12          13          14          15          16          17          18          19          20
 IAtWgt=           1          12          12          12          12          12           1          12           1          12
 AtmWgt=   1.0078250  12.0000000  12.0000000  12.0000000  12.0000000  12.0000000   1.0078250  12.0000000   1.0078250  12.0000000
 NucSpn=           1           0           0           0           0           0           1           0           1           0
 AtZEff=  -0.0000000  -0.0000000  -0.0000000  -0.0000000  -0.0000000  -0.0000000  -0.0000000  -0.0000000  -0.0000000  -0.0000000
 NQMom=    0.0000000   0.0000000   0.0000000   0.0000000   0.0000000   0.0000000   0.0000000   0.0000000   0.0000000   0.0000000
 NMagM=    2.7928460   0.0000000   0.0000000   0.0000000   0.0000000   0.0000000   2.7928460   0.0000000   2.7928460   0.0000000
 AtZNuc=   1.0000000   6.0000000   6.0000000   6.0000000   6.0000000   6.0000000   1.0000000   6.0000000   1.0000000   6.0000000

  Atom        21          22          23          24          25          26          27          28          29          30
 IAtWgt=          12           1          12          12          12           1          12          12           1          12
 AtmWgt=  12.0000000   1.0078250  12.0000000  12.0000000  12.0000000   1.0078250  12.0000000  12.0000000   1.0078250  12.0000000
 NucSpn=           0           1           0           0           0           1           0           0           1           0
 AtZEff=  -0.0000000  -0.0000000  -0.0000000  -0.0000000  -0.0000000  -0.0000000  -0.0000000  -0.0000000  -0.0000000  -0.0000000
 NQMom=    0.0000000   0.0000000   0.0000000   0.0000000   0.0000000   0.0000000   0.0000000   0.0000000   0.0000000   0.0000000
 NMagM=    0.0000000   2.7928460   0.0000000   0.0000000   0.0000000   2.7928460   0.0000000   0.0000000   2.7928460   0.0000000
 AtZNuc=   6.0000000   1.0000000   6.0000000   6.0000000   6.0000000   1.0000000   6.0000000   6.0000000   1.0000000   6.0000000

  Atom        31          32          33          34          35          36          37          38          39          40
 IAtWgt=           1          12           1          12           1          12           1          12          12           1
 AtmWgt=   1.0078250  12.0000000   1.0078250  12.0000000   1.0078250  12.0000000   1.0078250  12.0000000  12.0000000   1.0078250
 NucSpn=           1           0           1           0           1           0           1           0           0           1
 AtZEff=  -0.0000000  -0.0000000  -0.0000000  -0.0000000  -0.0000000  -0.0000000  -0.0000000  -0.0000000  -0.0000000  -0.0000000
 NQMom=    0.0000000   0.0000000   0.0000000   0.0000000   0.0000000   0.0000000   0.0000000   0.0000000   0.0000000   0.0000000
 NMagM=    2.7928460   0.0000000   2.7928460   0.0000000   2.7928460   0.0000000   2.7928460   0.0000000   0.0000000   2.7928460
 AtZNuc=   1.0000000   6.0000000   1.0000000   6.0000000   1.0000000   6.0000000   1.0000000   6.0000000   6.0000000   1.0000000

  Atom        41          42          43          44          45          46          47          48          49          50
 IAtWgt=          12           1          12           1          12           1          12           1          12           1
 AtmWgt=  12.0000000   1.0078250  12.0000000   1.0078250  12.0000000   1.0078250  12.0000000   1.0078250  12.0000000   1.0078250
 NucSpn=           0           1           0           1           0           1           0           1           0           1
 AtZEff=  -0.0000000  -0.0000000  -0.0000000  -0.0000000  -0.0000000  -0.0000000  -0.0000000  -0.0000000  -0.0000000  -0.0000000
 NQMom=    0.0000000   0.0000000   0.0000000   0.0000000   0.0000000   0.0000000   0.0000000   0.0000000   0.0000000   0.0000000
 NMagM=    0.0000000   2.7928460   0.0000000   2.7928460   0.0000000   2.7928460   0.0000000   2.7928460   0.0000000   2.7928460
 AtZNuc=   6.0000000   1.0000000   6.0000000   1.0000000   6.0000000   1.0000000   6.0000000   1.0000000   6.0000000   1.0000000

  Atom        51          52          53          54          55          56          57          58          59          60
 IAtWgt=          12           1          12           1          12           1          12           1          12           1
 AtmWgt=  12.0000000   1.0078250  12.0000000   1.0078250  12.0000000   1.0078250  12.0000000   1.0078250  12.0000000   1.0078250
 NucSpn=           0           1           0           1           0           1           0           1           0           1
 AtZEff=  -0.0000000  -0.0000000  -0.0000000  -0.0000000  -0.0000000  -0.0000000  -0.0000000  -0.0000000  -0.0000000  -0.0000000
 NQMom=    0.0000000   0.0000000   0.0000000   0.0000000   0.0000000   0.0000000   0.0000000   0.0000000   0.0000000   0.0000000
 NMagM=    0.0000000   2.7928460   0.0000000   2.7928460   0.0000000   2.7928460   0.0000000   2.7928460   0.0000000   2.7928460
 AtZNuc=   6.0000000   1.0000000   6.0000000   1.0000000   6.0000000   1.0000000   6.0000000   1.0000000   6.0000000   1.0000000

  Atom        61          62          63          64          65          66          67          68
 IAtWgt=          12           1          12           1          12           1          12           1
 AtmWgt=  12.0000000   1.0078250  12.0000000   1.0078250  12.0000000   1.0078250  12.0000000   1.0078250
 NucSpn=           0           1           0           1           0           1           0           1
 AtZEff=  -0.0000000  -0.0000000  -0.0000000  -0.0000000  -0.0000000  -0.0000000  -0.0000000  -0.0000000
 NQMom=    0.0000000   0.0000000   0.0000000   0.0000000   0.0000000   0.0000000   0.0000000   0.0000000
 NMagM=    0.0000000   2.7928460   0.0000000   2.7928460   0.0000000   2.7928460   0.0000000   2.7928460
 AtZNuc=   6.0000000   1.0000000   6.0000000   1.0000000   6.0000000   1.0000000   6.0000000   1.0000000
 Leave Link  101 at Thu Nov  7 19:11:03 2024, MaxMem=  3221225472 cpu:              38.2 elap:               1.2
 (Enter /home/szhao/Apps/g16/l103.exe)

 GradGradGradGradGradGradGradGradGradGradGradGradGradGradGradGradGradGrad
 Berny optimization.
 Initialization pass.
                           ----------------------------
                           !    Initial Parameters    !
                           ! (Angstroms and Degrees)  !
 --------------------------                            --------------------------
 ! Name  Definition              Value          Derivative Info.                !
 --------------------------------------------------------------------------------
 ! X1    R(1,-1)                -1.6407         Frozen                          !
 ! Y1    R(1,-2)                 0.0            Frozen                          !
 ! Z1    R(1,-3)                 0.0            Frozen                          !
 ! X2    R(2,-1)                 1.6407         Frozen                          !
 ! Y2    R(2,-2)                 0.0            Frozen                          !
 ! Z2    R(2,-3)                 0.0            Frozen                          !
 ! R1    R(1,6)                  1.5038         estimate D2E/DX2                !
 ! R2    R(1,9)                  1.4452         estimate D2E/DX2                !
 ! R3    R(1,15)                 1.4471         estimate D2E/DX2                !
 ! R4    R(2,13)                 1.5038         estimate D2E/DX2                !
 ! R5    R(2,23)                 1.4471         estimate D2E/DX2                !
 ! R6    R(2,38)                 1.4452         estimate D2E/DX2                !
 ! R7    R(3,4)                  1.388          estimate D2E/DX2                !
 ! R8    R(3,6)                  1.6021         estimate D2E/DX2                !
 ! R9    R(3,13)                 1.6021         estimate D2E/DX2                !
 ! R10   R(4,5)                  1.5536         estimate D2E/DX2                !
 ! R11   R(4,12)                 1.5536         estimate D2E/DX2                !
 ! R12   R(5,10)                 1.4992         estimate D2E/DX2                !
 ! R13   R(5,18)                 1.5307         estimate D2E/DX2                !
 ! R14   R(6,34)                 1.5173         estimate D2E/DX2                !
 ! R15   R(7,8)                  1.1369         estimate D2E/DX2                !
 ! R16   R(7,10)                 1.5485         estimate D2E/DX2                !
 ! R17   R(7,12)                 1.4992         estimate D2E/DX2                !
 ! R18   R(9,27)                 1.4357         estimate D2E/DX2                !
 ! R19   R(9,28)                 1.4253         estimate D2E/DX2                !
 ! R20   R(10,11)                1.1369         estimate D2E/DX2                !
 ! R21   R(12,25)                1.5307         estimate D2E/DX2                !
 ! R22   R(13,21)                1.5173         estimate D2E/DX2                !
 ! R23   R(14,38)                1.4357         estimate D2E/DX2                !
 ! R24   R(14,53)                1.4101         estimate D2E/DX2                !
 ! R25   R(14,59)                1.4397         estimate D2E/DX2                !
 ! R26   R(15,20)                1.4333         estimate D2E/DX2                !
 ! R27   R(15,49)                1.4313         estimate D2E/DX2                !
 ! R28   R(16,17)                1.0868         estimate D2E/DX2                !
 ! R29   R(16,27)                1.41           estimate D2E/DX2                !
 ! R30   R(16,32)                1.379          estimate D2E/DX2                !
 ! R31   R(18,19)                1.2008         estimate D2E/DX2                !
 ! R32   R(18,34)                1.4236         estimate D2E/DX2                !
 ! R33   R(20,36)                1.4108         estimate D2E/DX2                !
 ! R34   R(20,43)                1.4376         estimate D2E/DX2                !
 ! R35   R(21,22)                1.2137         estimate D2E/DX2                !
 ! R36   R(21,25)                1.4236         estimate D2E/DX2                !
 ! R37   R(23,24)                1.4334         estimate D2E/DX2                !
 ! R38   R(23,30)                1.4313         estimate D2E/DX2                !
 ! R39   R(24,45)                1.4108         estimate D2E/DX2                !
 ! R40   R(24,63)                1.4376         estimate D2E/DX2                !
 ! R41   R(25,26)                1.2008         estimate D2E/DX2                !
 ! R42   R(27,39)                1.4397         estimate D2E/DX2                !
 ! R43   R(28,29)                1.0835         estimate D2E/DX2                !
 ! R44   R(28,47)                1.3791         estimate D2E/DX2                !
 ! R45   R(30,31)                1.0792         estimate D2E/DX2                !
 ! R46   R(30,55)                1.3758         estimate D2E/DX2                !
 ! R47   R(32,33)                1.0856         estimate D2E/DX2                !
 ! R48   R(32,47)                1.4017         estimate D2E/DX2                !
 ! R49   R(34,35)                1.2137         estimate D2E/DX2                !
 ! R50   R(36,37)                1.0838         estimate D2E/DX2                !
 ! R51   R(36,41)                1.3768         estimate D2E/DX2                !
 ! R52   R(38,65)                1.4253         estimate D2E/DX2                !
 ! R53   R(39,40)                1.086          estimate D2E/DX2                !
 ! R54   R(39,43)                1.3479         estimate D2E/DX2                !
 ! R55   R(41,42)                1.0841         estimate D2E/DX2                !
 ! R56   R(41,61)                1.3989         estimate D2E/DX2                !
 ! R57   R(43,44)                1.0859         estimate D2E/DX2                !
 ! R58   R(45,46)                1.0838         estimate D2E/DX2                !
 ! R59   R(45,51)                1.3768         estimate D2E/DX2                !
 ! R60   R(47,48)                1.0838         estimate D2E/DX2                !
 ! R61   R(49,50)                1.0792         estimate D2E/DX2                !
 ! R62   R(49,61)                1.3757         estimate D2E/DX2                !
 ! R63   R(51,52)                1.0841         estimate D2E/DX2                !
 ! R64   R(51,55)                1.3989         estimate D2E/DX2                !
 ! R65   R(53,54)                1.0868         estimate D2E/DX2                !
 ! R66   R(53,57)                1.379          estimate D2E/DX2                !
 ! R67   R(55,56)                1.0846         estimate D2E/DX2                !
 ! R68   R(57,58)                1.0856         estimate D2E/DX2                !
 ! R69   R(57,67)                1.4017         estimate D2E/DX2                !
 ! R70   R(59,60)                1.086          estimate D2E/DX2                !
 ! R71   R(59,63)                1.3479         estimate D2E/DX2                !
 ! R72   R(61,62)                1.0846         estimate D2E/DX2                !
 ! R73   R(63,64)                1.0859         estimate D2E/DX2                !
 ! R74   R(65,66)                1.0835         estimate D2E/DX2                !
 ! R75   R(65,67)                1.3791         estimate D2E/DX2                !
 ! R76   R(67,68)                1.0838         estimate D2E/DX2                !
 ! A1    A(6,1,9)              116.0604         estimate D2E/DX2                !
 ! A2    A(6,1,15)             113.4037         estimate D2E/DX2                !
 ! A3    A(9,1,15)             129.9162         estimate D2E/DX2                !
 ! A4    A(13,2,23)            113.4063         estimate D2E/DX2                !
 ! A5    A(13,2,38)            116.0602         estimate D2E/DX2                !
 ! A6    A(23,2,38)            129.9146         estimate D2E/DX2                !
 ! A7    A(4,3,6)              113.2303         estimate D2E/DX2                !
 ! A8    A(4,3,13)             113.232          estimate D2E/DX2                !
 ! A9    A(6,3,13)             133.5378         estimate D2E/DX2                !
 ! A10   A(3,4,5)              121.5297         estimate D2E/DX2                !
 ! A11   A(3,4,12)             121.5289         estimate D2E/DX2                !
 ! A12   A(5,4,12)             116.9414         estimate D2E/DX2                !
 ! A13   A(4,5,10)             100.0078         estimate D2E/DX2                !
 ! A14   A(4,5,18)             124.4191         estimate D2E/DX2                !
 ! A15   A(10,5,18)            135.5713         estimate D2E/DX2                !
 ! A16   A(1,6,3)              118.6868         estimate D2E/DX2                !
 ! A17   A(1,6,34)             115.4899         estimate D2E/DX2                !
 ! A18   A(3,6,34)             125.4817         estimate D2E/DX2                !
 ! A19   A(8,7,10)             129.8179         estimate D2E/DX2                !
 ! A20   A(8,7,12)             118.6609         estimate D2E/DX2                !
 ! A21   A(10,7,12)            111.5212         estimate D2E/DX2                !
 ! A22   A(1,9,27)             126.9275         estimate D2E/DX2                !
 ! A23   A(1,9,28)             116.7918         estimate D2E/DX2                !
 ! A24   A(27,9,28)            116.2594         estimate D2E/DX2                !
 ! A25   A(5,10,7)             111.5211         estimate D2E/DX2                !
 ! A26   A(5,10,11)            118.6607         estimate D2E/DX2                !
 ! A27   A(7,10,11)            129.8181         estimate D2E/DX2                !
 ! A28   A(4,12,7)             100.0079         estimate D2E/DX2                !
 ! A29   A(4,12,25)            124.419          estimate D2E/DX2                !
 ! A30   A(7,12,25)            135.5714         estimate D2E/DX2                !
 ! A31   A(2,13,3)             118.6868         estimate D2E/DX2                !
 ! A32   A(2,13,21)            115.4906         estimate D2E/DX2                !
 ! A33   A(3,13,21)            125.4808         estimate D2E/DX2                !
 ! A34   A(38,14,53)           119.3736         estimate D2E/DX2                !
 ! A35   A(38,14,59)           126.1549         estimate D2E/DX2                !
 ! A36   A(53,14,59)           114.3797         estimate D2E/DX2                !
 ! A37   A(1,15,20)            126.497          estimate D2E/DX2                !
 ! A38   A(1,15,49)            117.5293         estimate D2E/DX2                !
 ! A39   A(20,15,49)           115.9352         estimate D2E/DX2                !
 ! A40   A(17,16,27)           118.1112         estimate D2E/DX2                !
 ! A41   A(17,16,32)           119.4433         estimate D2E/DX2                !
 ! A42   A(27,16,32)           122.4453         estimate D2E/DX2                !
 ! A43   A(5,18,19)            128.4231         estimate D2E/DX2                !
 ! A44   A(5,18,34)            115.9205         estimate D2E/DX2                !
 ! A45   A(19,18,34)           115.6419         estimate D2E/DX2                !
 ! A46   A(15,20,36)           119.337          estimate D2E/DX2                !
 ! A47   A(15,20,43)           126.4212         estimate D2E/DX2                !
 ! A48   A(36,20,43)           114.2071         estimate D2E/DX2                !
 ! A49   A(13,21,22)           124.8814         estimate D2E/DX2                !
 ! A50   A(13,21,25)           119.3367         estimate D2E/DX2                !
 ! A51   A(22,21,25)           115.739          estimate D2E/DX2                !
 ! A52   A(2,23,24)            126.4985         estimate D2E/DX2                !
 ! A53   A(2,23,30)            117.5263         estimate D2E/DX2                !
 ! A54   A(24,23,30)           115.9367         estimate D2E/DX2                !
 ! A55   A(23,24,45)           119.3364         estimate D2E/DX2                !
 ! A56   A(23,24,63)           126.4211         estimate D2E/DX2                !
 ! A57   A(45,24,63)           114.2081         estimate D2E/DX2                !
 ! A58   A(12,25,21)           115.9211         estimate D2E/DX2                !
 ! A59   A(12,25,26)           128.4233         estimate D2E/DX2                !
 ! A60   A(21,25,26)           115.6411         estimate D2E/DX2                !
 ! A61   A(9,27,16)            119.3725         estimate D2E/DX2                !
 ! A62   A(9,27,39)            126.1554         estimate D2E/DX2                !
 ! A63   A(16,27,39)           114.3802         estimate D2E/DX2                !
 ! A64   A(9,28,29)            119.1392         estimate D2E/DX2                !
 ! A65   A(9,28,47)            122.814          estimate D2E/DX2                !
 ! A66   A(29,28,47)           118.0442         estimate D2E/DX2                !
 ! A67   A(23,30,31)           119.5425         estimate D2E/DX2                !
 ! A68   A(23,30,55)           123.1034         estimate D2E/DX2                !
 ! A69   A(31,30,55)           117.3269         estimate D2E/DX2                !
 ! A70   A(16,32,33)           120.2147         estimate D2E/DX2                !
 ! A71   A(16,32,47)           118.828          estimate D2E/DX2                !
 ! A72   A(33,32,47)           120.9487         estimate D2E/DX2                !
 ! A73   A(6,34,18)            119.3368         estimate D2E/DX2                !
 ! A74   A(6,34,35)            124.8816         estimate D2E/DX2                !
 ! A75   A(18,34,35)           115.7388         estimate D2E/DX2                !
 ! A76   A(20,36,37)           117.8569         estimate D2E/DX2                !
 ! A77   A(20,36,41)           122.6675         estimate D2E/DX2                !
 ! A78   A(37,36,41)           119.457          estimate D2E/DX2                !
 ! A79   A(2,38,14)            126.9264         estimate D2E/DX2                !
 ! A80   A(2,38,65)            116.7953         estimate D2E/DX2                !
 ! A81   A(14,38,65)           116.2571         estimate D2E/DX2                !
 ! A82   A(27,39,40)           113.7133         estimate D2E/DX2                !
 ! A83   A(27,39,43)           131.0197         estimate D2E/DX2                !
 ! A84   A(40,39,43)           115.2659         estimate D2E/DX2                !
 ! A85   A(36,41,42)           120.4431         estimate D2E/DX2                !
 ! A86   A(36,41,61)           118.8206         estimate D2E/DX2                !
 ! A87   A(42,41,61)           120.7283         estimate D2E/DX2                !
 ! A88   A(20,43,39)           130.8897         estimate D2E/DX2                !
 ! A89   A(20,43,44)           113.769          estimate D2E/DX2                !
 ! A90   A(39,43,44)           115.2499         estimate D2E/DX2                !
 ! A91   A(24,45,46)           117.8575         estimate D2E/DX2                !
 ! A92   A(24,45,51)           122.6674         estimate D2E/DX2                !
 ! A93   A(46,45,51)           119.4566         estimate D2E/DX2                !
 ! A94   A(28,47,32)           120.1473         estimate D2E/DX2                !
 ! A95   A(28,47,48)           119.3187         estimate D2E/DX2                !
 ! A96   A(32,47,48)           120.5333         estimate D2E/DX2                !
 ! A97   A(15,49,50)           119.5434         estimate D2E/DX2                !
 ! A98   A(15,49,61)           123.1039         estimate D2E/DX2                !
 ! A99   A(50,49,61)           117.3255         estimate D2E/DX2                !
 ! A100  A(45,51,52)           120.443          estimate D2E/DX2                !
 ! A101  A(45,51,55)           118.8212         estimate D2E/DX2                !
 ! A102  A(52,51,55)           120.7279         estimate D2E/DX2                !
 ! A103  A(14,53,54)           118.1108         estimate D2E/DX2                !
 ! A104  A(14,53,57)           122.4455         estimate D2E/DX2                !
 ! A105  A(54,53,57)           119.4435         estimate D2E/DX2                !
 ! A106  A(30,55,51)           120.0468         estimate D2E/DX2                !
 ! A107  A(30,55,56)           119.5406         estimate D2E/DX2                !
 ! A108  A(51,55,56)           120.4119         estimate D2E/DX2                !
 ! A109  A(53,57,58)           120.2157         estimate D2E/DX2                !
 ! A110  A(53,57,67)           118.8265         estimate D2E/DX2                !
 ! A111  A(58,57,67)           120.9491         estimate D2E/DX2                !
 ! A112  A(14,59,60)           113.7133         estimate D2E/DX2                !
 ! A113  A(14,59,63)           131.0195         estimate D2E/DX2                !
 ! A114  A(60,59,63)           115.2661         estimate D2E/DX2                !
 ! A115  A(41,61,49)           120.0472         estimate D2E/DX2                !
 ! A116  A(41,61,62)           120.4122         estimate D2E/DX2                !
 ! A117  A(49,61,62)           119.5399         estimate D2E/DX2                !
 ! A118  A(24,63,59)           130.8879         estimate D2E/DX2                !
 ! A119  A(24,63,64)           113.7695         estimate D2E/DX2                !
 ! A120  A(59,63,64)           115.2513         estimate D2E/DX2                !
 ! A121  A(38,65,66)           119.1401         estimate D2E/DX2                !
 ! A122  A(38,65,67)           122.8153         estimate D2E/DX2                !
 ! A123  A(66,65,67)           118.0421         estimate D2E/DX2                !
 ! A124  A(57,67,65)           120.1482         estimate D2E/DX2                !
 ! A125  A(57,67,68)           120.5331         estimate D2E/DX2                !
 ! A126  A(65,67,68)           119.3179         estimate D2E/DX2                !
 ! D1    D(9,1,6,3)           -105.445          estimate D2E/DX2                !
 ! D2    D(9,1,6,34)            80.8962         estimate D2E/DX2                !
 ! D3    D(15,1,6,3)            82.6717         estimate D2E/DX2                !
 ! D4    D(15,1,6,34)          -90.987          estimate D2E/DX2                !
 ! D5    D(6,1,9,27)          -179.724          estimate D2E/DX2                !
 ! D6    D(6,1,9,28)             2.0262         estimate D2E/DX2                !
 ! D7    D(15,1,9,27)           -9.4503         estimate D2E/DX2                !
 ! D8    D(15,1,9,28)          172.2999         estimate D2E/DX2                !
 ! D9    D(6,1,15,20)         -171.6926         estimate D2E/DX2                !
 ! D10   D(6,1,15,49)            5.9483         estimate D2E/DX2                !
 ! D11   D(9,1,15,20)           17.8261         estimate D2E/DX2                !
 ! D12   D(9,1,15,49)         -164.533          estimate D2E/DX2                !
 ! D13   D(23,2,13,3)           82.676          estimate D2E/DX2                !
 ! D14   D(23,2,13,21)         -90.9814         estimate D2E/DX2                !
 ! D15   D(38,2,13,3)         -105.4359         estimate D2E/DX2                !
 ! D16   D(38,2,13,21)          80.9067         estimate D2E/DX2                !
 ! D17   D(13,2,23,24)        -171.6851         estimate D2E/DX2                !
 ! D18   D(13,2,23,30)           5.9565         estimate D2E/DX2                !
 ! D19   D(38,2,23,24)          17.8278         estimate D2E/DX2                !
 ! D20   D(38,2,23,30)        -164.5307         estimate D2E/DX2                !
 ! D21   D(13,2,38,14)        -179.7448         estimate D2E/DX2                !
 ! D22   D(13,2,38,65)           2.003          estimate D2E/DX2                !
 ! D23   D(23,2,38,14)          -9.4648         estimate D2E/DX2                !
 ! D24   D(23,2,38,65)         172.283          estimate D2E/DX2                !
 ! D25   D(6,3,4,5)             -2.0337         estimate D2E/DX2                !
 ! D26   D(6,3,4,12)           177.9751         estimate D2E/DX2                !
 ! D27   D(13,3,4,5)           177.9636         estimate D2E/DX2                !
 ! D28   D(13,3,4,12)           -2.0276         estimate D2E/DX2                !
 ! D29   D(4,3,6,1)           -169.6914         estimate D2E/DX2                !
 ! D30   D(4,3,6,34)             3.2759         estimate D2E/DX2                !
 ! D31   D(13,3,6,1)            10.312          estimate D2E/DX2                !
 ! D32   D(13,3,6,34)         -176.7207         estimate D2E/DX2                !
 ! D33   D(4,3,13,2)          -169.6993         estimate D2E/DX2                !
 ! D34   D(4,3,13,21)            3.2667         estimate D2E/DX2                !
 ! D35   D(6,3,13,2)            10.2973         estimate D2E/DX2                !
 ! D36   D(6,3,13,21)         -176.7367         estimate D2E/DX2                !
 ! D37   D(3,4,5,10)          -179.9149         estimate D2E/DX2                !
 ! D38   D(3,4,5,18)            -0.3367         estimate D2E/DX2                !
 ! D39   D(12,4,5,10)            0.0766         estimate D2E/DX2                !
 ! D40   D(12,4,5,18)          179.6548         estimate D2E/DX2                !
 ! D41   D(3,4,12,7)          -179.9245         estimate D2E/DX2                !
 ! D42   D(3,4,12,25)           -0.3363         estimate D2E/DX2                !
 ! D43   D(5,4,12,7)             0.0839         estimate D2E/DX2                !
 ! D44   D(5,4,12,25)          179.6721         estimate D2E/DX2                !
 ! D45   D(4,5,10,7)            -0.2076         estimate D2E/DX2                !
 ! D46   D(4,5,10,11)          179.7179         estimate D2E/DX2                !
 ! D47   D(18,5,10,7)         -179.7105         estimate D2E/DX2                !
 ! D48   D(18,5,10,11)           0.215          estimate D2E/DX2                !
 ! D49   D(4,5,18,19)         -179.5668         estimate D2E/DX2                !
 ! D50   D(4,5,18,34)            1.896          estimate D2E/DX2                !
 ! D51   D(10,5,18,19)          -0.1602         estimate D2E/DX2                !
 ! D52   D(10,5,18,34)        -178.6974         estimate D2E/DX2                !
 ! D53   D(1,6,34,18)          171.3074         estimate D2E/DX2                !
 ! D54   D(1,6,34,35)           -6.2038         estimate D2E/DX2                !
 ! D55   D(3,6,34,18)           -1.8588         estimate D2E/DX2                !
 ! D56   D(3,6,34,35)         -179.37           estimate D2E/DX2                !
 ! D57   D(8,7,10,5)          -179.6231         estimate D2E/DX2                !
 ! D58   D(8,7,10,11)            0.4619         estimate D2E/DX2                !
 ! D59   D(12,7,10,5)            0.2906         estimate D2E/DX2                !
 ! D60   D(12,7,10,11)        -179.6243         estimate D2E/DX2                !
 ! D61   D(8,7,12,4)           179.7129         estimate D2E/DX2                !
 ! D62   D(8,7,12,25)            0.1981         estimate D2E/DX2                !
 ! D63   D(10,7,12,4)           -0.2117         estimate D2E/DX2                !
 ! D64   D(10,7,12,25)        -179.7264         estimate D2E/DX2                !
 ! D65   D(1,9,27,16)          177.9461         estimate D2E/DX2                !
 ! D66   D(1,9,27,39)           -5.746          estimate D2E/DX2                !
 ! D67   D(28,9,27,16)          -3.796          estimate D2E/DX2                !
 ! D68   D(28,9,27,39)         172.5119         estimate D2E/DX2                !
 ! D69   D(1,9,28,29)            1.4721         estimate D2E/DX2                !
 ! D70   D(1,9,28,47)         -177.932          estimate D2E/DX2                !
 ! D71   D(27,9,28,29)        -176.9678         estimate D2E/DX2                !
 ! D72   D(27,9,28,47)           3.628          estimate D2E/DX2                !
 ! D73   D(4,12,25,21)           1.8908         estimate D2E/DX2                !
 ! D74   D(4,12,25,26)        -179.57           estimate D2E/DX2                !
 ! D75   D(7,12,25,21)        -178.6885         estimate D2E/DX2                !
 ! D76   D(7,12,25,26)          -0.1493         estimate D2E/DX2                !
 ! D77   D(2,13,21,22)          -6.2015         estimate D2E/DX2                !
 ! D78   D(2,13,21,25)         171.311          estimate D2E/DX2                !
 ! D79   D(3,13,21,22)        -179.3664         estimate D2E/DX2                !
 ! D80   D(3,13,21,25)          -1.8539         estimate D2E/DX2                !
 ! D81   D(53,14,38,2)         177.9375         estimate D2E/DX2                !
 ! D82   D(53,14,38,65)         -3.8021         estimate D2E/DX2                !
 ! D83   D(59,14,38,2)          -5.754          estimate D2E/DX2                !
 ! D84   D(59,14,38,65)        172.5064         estimate D2E/DX2                !
 ! D85   D(38,14,53,54)       -178.867          estimate D2E/DX2                !
 ! D86   D(38,14,53,57)          1.312          estimate D2E/DX2                !
 ! D87   D(59,14,53,54)          4.4049         estimate D2E/DX2                !
 ! D88   D(59,14,53,57)       -175.4161         estimate D2E/DX2                !
 ! D89   D(38,14,59,60)       -172.8928         estimate D2E/DX2                !
 ! D90   D(38,14,59,63)          6.7014         estimate D2E/DX2                !
 ! D91   D(53,14,59,60)          3.5756         estimate D2E/DX2                !
 ! D92   D(53,14,59,63)       -176.8302         estimate D2E/DX2                !
 ! D93   D(1,15,20,36)         175.0571         estimate D2E/DX2                !
 ! D94   D(1,15,20,43)          -7.2155         estimate D2E/DX2                !
 ! D95   D(49,15,20,36)         -2.6167         estimate D2E/DX2                !
 ! D96   D(49,15,20,43)        175.1107         estimate D2E/DX2                !
 ! D97   D(1,15,49,50)           4.2679         estimate D2E/DX2                !
 ! D98   D(1,15,49,61)        -177.6822         estimate D2E/DX2                !
 ! D99   D(20,15,49,50)       -177.8408         estimate D2E/DX2                !
 ! D100  D(20,15,49,61)          0.2091         estimate D2E/DX2                !
 ! D101  D(17,16,27,9)        -178.8718         estimate D2E/DX2                !
 ! D102  D(17,16,27,39)          4.4007         estimate D2E/DX2                !
 ! D103  D(32,16,27,9)           1.3058         estimate D2E/DX2                !
 ! D104  D(32,16,27,39)       -175.4217         estimate D2E/DX2                !
 ! D105  D(17,16,32,33)          0.7641         estimate D2E/DX2                !
 ! D106  D(17,16,32,47)       -178.1786         estimate D2E/DX2                !
 ! D107  D(27,16,32,33)       -179.4158         estimate D2E/DX2                !
 ! D108  D(27,16,32,47)          1.6415         estimate D2E/DX2                !
 ! D109  D(5,18,34,6)           -0.7249         estimate D2E/DX2                !
 ! D110  D(5,18,34,35)         177.0086         estimate D2E/DX2                !
 ! D111  D(19,18,34,6)        -179.4537         estimate D2E/DX2                !
 ! D112  D(19,18,34,35)         -1.7201         estimate D2E/DX2                !
 ! D113  D(15,20,36,37)       -178.6816         estimate D2E/DX2                !
 ! D114  D(15,20,36,41)          2.8957         estimate D2E/DX2                !
 ! D115  D(43,20,36,37)          3.3232         estimate D2E/DX2                !
 ! D116  D(43,20,36,41)       -175.0994         estimate D2E/DX2                !
 ! D117  D(15,20,43,39)         -6.5912         estimate D2E/DX2                !
 ! D118  D(15,20,43,44)        177.1094         estimate D2E/DX2                !
 ! D119  D(36,20,43,39)        171.2367         estimate D2E/DX2                !
 ! D120  D(36,20,43,44)         -5.0626         estimate D2E/DX2                !
 ! D121  D(13,21,25,12)         -0.7226         estimate D2E/DX2                !
 ! D122  D(13,21,25,26)       -179.4531         estimate D2E/DX2                !
 ! D123  D(22,21,25,12)        177.0122         estimate D2E/DX2                !
 ! D124  D(22,21,25,26)         -1.7184         estimate D2E/DX2                !
 ! D125  D(2,23,24,45)         175.0755         estimate D2E/DX2                !
 ! D126  D(2,23,24,63)          -7.1867         estimate D2E/DX2                !
 ! D127  D(30,23,24,45)         -2.5988         estimate D2E/DX2                !
 ! D128  D(30,23,24,63)        175.139          estimate D2E/DX2                !
 ! D129  D(2,23,30,31)           4.2518         estimate D2E/DX2                !
 ! D130  D(2,23,30,55)        -177.699          estimate D2E/DX2                !
 ! D131  D(24,23,30,31)       -177.8563         estimate D2E/DX2                !
 ! D132  D(24,23,30,55)          0.1929         estimate D2E/DX2                !
 ! D133  D(23,24,45,46)       -178.6825         estimate D2E/DX2                !
 ! D134  D(23,24,45,51)          2.8885         estimate D2E/DX2                !
 ! D135  D(63,24,45,46)          3.3133         estimate D2E/DX2                !
 ! D136  D(63,24,45,51)       -175.1158         estimate D2E/DX2                !
 ! D137  D(23,24,63,59)         -6.6211         estimate D2E/DX2                !
 ! D138  D(23,24,63,64)        177.0771         estimate D2E/DX2                !
 ! D139  D(45,24,63,59)        171.2168         estimate D2E/DX2                !
 ! D140  D(45,24,63,64)         -5.0851         estimate D2E/DX2                !
 ! D141  D(9,27,39,40)        -172.9153         estimate D2E/DX2                !
 ! D142  D(9,27,39,43)           6.6744         estimate D2E/DX2                !
 ! D143  D(16,27,39,40)          3.5524         estimate D2E/DX2                !
 ! D144  D(16,27,39,43)       -176.8579         estimate D2E/DX2                !
 ! D145  D(9,28,47,32)          -0.8048         estimate D2E/DX2                !
 ! D146  D(9,28,47,48)         179.5154         estimate D2E/DX2                !
 ! D147  D(29,28,47,32)        179.7849         estimate D2E/DX2                !
 ! D148  D(29,28,47,48)          0.1051         estimate D2E/DX2                !
 ! D149  D(23,30,55,51)          2.1028         estimate D2E/DX2                !
 ! D150  D(23,30,55,56)       -178.1954         estimate D2E/DX2                !
 ! D151  D(31,30,55,51)       -179.8075         estimate D2E/DX2                !
 ! D152  D(31,30,55,56)         -0.1058         estimate D2E/DX2                !
 ! D153  D(16,32,47,28)         -1.9091         estimate D2E/DX2                !
 ! D154  D(16,32,47,48)        177.7668         estimate D2E/DX2                !
 ! D155  D(33,32,47,28)        179.1562         estimate D2E/DX2                !
 ! D156  D(33,32,47,48)         -1.1679         estimate D2E/DX2                !
 ! D157  D(20,36,41,42)        178.4082         estimate D2E/DX2                !
 ! D158  D(20,36,41,61)         -0.5722         estimate D2E/DX2                !
 ! D159  D(37,36,41,42)          0.0098         estimate D2E/DX2                !
 ! D160  D(37,36,41,61)       -178.9706         estimate D2E/DX2                !
 ! D161  D(2,38,65,66)           1.4744         estimate D2E/DX2                !
 ! D162  D(2,38,65,67)        -177.928          estimate D2E/DX2                !
 ! D163  D(14,38,65,66)       -176.9677         estimate D2E/DX2                !
 ! D164  D(14,38,65,67)          3.6299         estimate D2E/DX2                !
 ! D165  D(27,39,43,20)          4.7784         estimate D2E/DX2                !
 ! D166  D(27,39,43,44)       -178.9662         estimate D2E/DX2                !
 ! D167  D(40,39,43,20)       -175.637          estimate D2E/DX2                !
 ! D168  D(40,39,43,44)          0.6184         estimate D2E/DX2                !
 ! D169  D(36,41,61,49)         -1.9169         estimate D2E/DX2                !
 ! D170  D(36,41,61,62)        178.3849         estimate D2E/DX2                !
 ! D171  D(42,41,61,49)        179.1057         estimate D2E/DX2                !
 ! D172  D(42,41,61,62)         -0.5924         estimate D2E/DX2                !
 ! D173  D(24,45,51,52)        178.4034         estimate D2E/DX2                !
 ! D174  D(24,45,51,55)         -0.5789         estimate D2E/DX2                !
 ! D175  D(46,45,51,52)         -0.0015         estimate D2E/DX2                !
 ! D176  D(46,45,51,55)       -178.9838         estimate D2E/DX2                !
 ! D177  D(15,49,61,41)          2.0998         estimate D2E/DX2                !
 ! D178  D(15,49,61,62)       -178.1994         estimate D2E/DX2                !
 ! D179  D(50,49,61,41)       -179.8098         estimate D2E/DX2                !
 ! D180  D(50,49,61,62)         -0.109          estimate D2E/DX2                !
 ! D181  D(45,51,55,30)         -1.9081         estimate D2E/DX2                !
 ! D182  D(45,51,55,56)        178.3928         estimate D2E/DX2                !
 ! D183  D(52,51,55,30)        179.1126         estimate D2E/DX2                !
 ! D184  D(52,51,55,56)         -0.5865         estimate D2E/DX2                !
 ! D185  D(14,53,57,58)       -179.4161         estimate D2E/DX2                !
 ! D186  D(14,53,57,67)          1.6399         estimate D2E/DX2                !
 ! D187  D(54,53,57,58)          0.7651         estimate D2E/DX2                !
 ! D188  D(54,53,57,67)       -178.1788         estimate D2E/DX2                !
 ! D189  D(53,57,67,65)         -1.9119         estimate D2E/DX2                !
 ! D190  D(53,57,67,68)        177.7634         estimate D2E/DX2                !
 ! D191  D(58,57,67,65)        179.1522         estimate D2E/DX2                !
 ! D192  D(58,57,67,68)         -1.1725         estimate D2E/DX2                !
 ! D193  D(14,59,63,24)          4.7727         estimate D2E/DX2                !
 ! D194  D(14,59,63,64)       -178.9694         estimate D2E/DX2                !
 ! D195  D(60,59,63,24)       -175.6381         estimate D2E/DX2                !
 ! D196  D(60,59,63,64)          0.6198         estimate D2E/DX2                !
 ! D197  D(38,65,67,57)         -0.8022         estimate D2E/DX2                !
 ! D198  D(38,65,67,68)        179.5186         estimate D2E/DX2                !
 ! D199  D(66,65,67,57)        179.7892         estimate D2E/DX2                !
 ! D200  D(66,65,67,68)          0.11           estimate D2E/DX2                !
 --------------------------------------------------------------------------------
 Trust Radius=3.00D-01 FncErr=1.00D-07 GrdErr=1.00D-07 EigMax=2.50D+02 EigMin=1.00D-04
 Number of steps in this run=    408 maximum allowed number of steps=    408.
 GradGradGradGradGradGradGradGradGradGradGradGradGradGradGradGradGradGrad

 Leave Link  103 at Thu Nov  7 19:11:04 2024, MaxMem=  3221225472 cpu:               2.0 elap:               0.1
 (Enter /home/szhao/Apps/g16/l202.exe)
 Symmetry turned off by external request.
 Stoichiometry    C42H26(1+,2)
 Framework group  C1[X(C42H26)]
 Deg. of freedom   198
 Full point group                 C1      NOp   1
                          Input orientation:                          
 ---------------------------------------------------------------------
 Center     Atomic      Atomic             Coordinates (Angstroms)
 Number     Number       Type             X           Y           Z
 ---------------------------------------------------------------------
      1          6           0       -1.640656    0.000000    0.000000
      2          6           0        1.640656    0.000000    0.000000
      3          6           0       -0.000010   -2.109392    0.000000
      4          6           0       -0.000049   -3.497395   -0.000029
      5          6           0       -1.302928   -4.309788    0.236839
      6          6           0       -1.456915   -1.477433    0.211809
      7          6           0        0.761323   -5.704481   -0.140375
      8          1           0        1.476590   -6.577701   -0.275902
      9          6           0       -1.788981    0.799092    1.194979
     10          6           0       -0.761460   -5.704458    0.140581
     11          1           0       -1.476753   -6.577655    0.276153
     12          6           0        1.302820   -4.309825   -0.236731
     13          6           0        1.456921   -1.477462   -0.211712
     14          6           0        1.980974    2.220158   -1.264147
     15          6           0       -1.825061    0.363050   -1.388636
     16          6           0       -2.151758    2.834779    2.521563
     17          1           0       -2.314585    3.908975    2.548709
     18          6           0       -2.676827   -3.685935    0.494201
     19          1           0       -3.723118   -4.240854    0.692154
     20          6           0       -1.858000    1.691726   -1.925314
     21          6           0        2.729177   -2.263635   -0.467768
     22          1           0        3.829793   -1.773911   -0.615865
     23          6           0        1.825024    0.363202    1.388568
     24          6           0        1.857797    1.691926    1.925151
     25          6           0        2.676808   -3.686005   -0.493849
     26          1           0        3.723124   -4.240956   -0.691614
     27          6           0       -1.981486    2.220175    1.263982
     28          6           0       -1.701219    0.113358    2.441394
     29          1           0       -1.506542   -0.952476    2.444599
     30          6           0        1.941095   -0.699406    2.340474
     31          1           0        1.958315   -1.722241    1.996709
     32          6           0       -2.114932    2.124657    3.703149
     33          1           0       -2.259933    2.633472    4.651059
     34          6           0       -2.729151   -2.263552    0.468083
     35          1           0       -3.829722   -1.773795    0.616310
     36          6           0       -1.942406    1.871107   -3.322115
     37          1           0       -1.943739    2.885689   -3.703238
     38          6           0        1.788905    0.799030   -1.195056
     39          6           0       -1.948147    3.136699    0.154244
     40          1           0       -1.998054    4.180840    0.448517
     41          6           0       -2.053720    0.817439   -4.201294
     42          1           0       -2.141969    0.997918   -5.266608
     43          6           0       -1.859002    2.916545   -1.172567
     44          1           0       -1.837046    3.809671   -1.789867
     45          6           0        1.942590    1.871404    3.321911
     46          1           0        1.943804    2.886001    3.702988
     47          6           0       -1.865690    0.746094    3.655710
     48          1           0       -1.794931    0.167599    4.569435
     49          6           0       -1.940975   -0.699621   -2.340499
     50          1           0       -1.958324   -1.722437   -1.996685
     51          6           0        2.054294    0.817792    4.201131
     52          1           0        2.142911    0.998353    5.266407
     53          6           0        2.151422    2.834714   -2.521737
     54          1           0        2.313989    3.908938   -2.548910
     55          6           0        2.072922   -0.485419    3.693077
     56          1           0        2.186100   -1.333138    4.360047
     57          6           0        2.115053    2.124506   -3.703280
     58          1           0        2.260168    2.633276   -4.651201
     59          6           0        1.947024    3.136777   -0.154498
     60          1           0        1.996290    4.180909   -0.448873
     61          6           0       -2.072476   -0.485733   -3.693140
     62          1           0       -2.185483   -1.333505   -4.360064
     63          6           0        1.858052    2.916694    1.172328
     64          1           0        1.835545    3.809855    1.789566
     65          6           0        1.701604    0.113212   -2.441448
     66          1           0        1.507266   -0.952664   -2.444656
     67          6           0        1.866145    0.745909   -3.655774
     68          1           0        1.795687    0.167329   -4.569464
 ---------------------------------------------------------------------
 Rotational constants (GHZ):           0.1116530           0.0973148           0.0859640
 Leave Link  202 at Thu Nov  7 19:11:04 2024, MaxMem=  3221225472 cpu:               2.8 elap:               0.1
 (Enter /home/szhao/Apps/g16/l301.exe)
 Standard basis: 6-311+G(d,p) (5D, 7F)
 Ernie: Thresh=  0.10000D-02 Tol=  0.10000D-05 Strict=F.
  1080 basis functions,  1720 primitive gaussians,  1122 cartesian basis functions
   139 alpha electrons      138 beta electrons
       nuclear repulsion energy      4709.9966270010 Hartrees.
 IExCor= 4336 DFT=T Ex+Corr=M062X ExCW=0 ScaHFX=  0.540000
 ScaDFX=  1.000000  1.000000  1.000000  1.000000 ScalE2=  1.000000  1.000000
 IRadAn=      7 IRanWt=     -1 IRanGd=            0 ICorTp=0 IEmpDi=  4
 NAtoms=   68 NActive=   68 NUniq=   68 SFac= 1.00D+00 NAtFMM=   60 NAOKFM=T Big=T
 Integral buffers will be    131072 words long.
 Raffenetti 2 integral format.
 Two-electron integral symmetry is turned off.
 Leave Link  301 at Thu Nov  7 19:11:04 2024, MaxMem=  3221225472 cpu:               4.2 elap:               0.2
 (Enter /home/szhao/Apps/g16/l302.exe)
 NPDir=0 NMtPBC=     1 NCelOv=     1 NCel=       1 NClECP=     1 NCelD=      1
         NCelK=      1 NCelE2=     1 NClLst=     1 CellRange=     0.0.
 One-electron integrals computed using PRISM.
 NBasis=  1080 RedAO= T EigKep=  1.15D-06  NBF=  1080
 NBsUse=  1054 1.00D-06 EigRej=  7.01D-07 NBFU=  1054
 Precomputing XC quadrature grid using
 IXCGrd= 4 IRadAn=           7 IRanWt=          -1 IRanGd=           0 AccXCQ= 0.00D+00.
 Generated NRdTot=       0 NPtTot=           0 NUsed=           0 NTot=          32
 NSgBfM=  1111  1110  1110  1110  1111 MxSgAt=    68 MxSgA2=    68.
 Leave Link  302 at Thu Nov  7 19:11:08 2024, MaxMem=  3221225472 cpu:             110.6 elap:               3.5
 (Enter /home/szhao/Apps/g16/l303.exe)
 DipDrv:  MaxL=1.
 Leave Link  303 at Thu Nov  7 19:11:10 2024, MaxMem=  3221225472 cpu:              16.6 elap:               0.6
 (Enter /home/szhao/Apps/g16/l401.exe)
 ExpMin= 4.38D-02 ExpMax= 4.56D+03 ExpMxC= 6.82D+02 IAcc=3 IRadAn=         7 AccDes= 0.00D+00
 Harris functional with IExCor= 1009 and IRadAn=       7 diagonalized for initial guess.
 HarFok:  IExCor= 1009 AccDes= 0.00D+00 IRadAn=         7 IDoV= 1 UseB2=F ITyADJ=14
 ICtDFT=  3500011 ScaDFX=  1.000000  1.000000  1.000000  1.000000
 FoFCou: FMM=F IPFlag=           0 FMFlag=      100000 FMFlg1=        2001
         NFxFlg=           0 DoJE=T BraDBF=F KetDBF=T FulRan=T
         wScrn=  0.000000 ICntrl=       500 IOpCl=  0 I1Cent=   200000004 NGrid=           0
         NMat0=    1 NMatS0=      1 NMatT0=    0 NMatD0=    1 NMtDS0=    0 NMtDT0=    0
 Symmetry not used in FoFCou.
 Harris En= -1614.43715983108    
 JPrj=0 DoOrth=F DoCkMO=F.
 Initial guess <Sx>= 0.0000 <Sy>= 0.0000 <Sz>= 0.5000 <S**2>= 0.7500 S= 0.5000
 Leave Link  401 at Thu Nov  7 19:11:25 2024, MaxMem=  3221225472 cpu:             474.9 elap:              15.0
 (Enter /home/szhao/Apps/g16/l502.exe)
 Two-electron integral symmetry not used.
 UHF open shell SCF:
 Using DIIS extrapolation, IDIIS=  1040.
 NGot=  3221225472 LenX=  3218664046 LenY=  3217404040
 Requested convergence on RMS density matrix=1.00D-08 within 128 cycles.
 Requested convergence on MAX density matrix=1.00D-06.
 Requested convergence on             energy=1.00D-06.
 No special actions if energy rises.
 Fock matrices will be formed incrementally for  20 cycles.

 Cycle   1  Pass 1  IDiag  1:
 FoFJK:  IHMeth= 1 ICntrl=       0 DoSepK=F KAlg= 0 I1Cent=           0 FoldK=F
 IRaf= 870000000 NMat=       1 IRICut=       1 DoRegI=T DoRafI=F ISym2E= 0 IDoP0=0 IntGTp=1.
 FoFCou: FMM=T IPFlag=           0 FMFlag=      100000 FMFlg1=        2001
         NFxFlg=           0 DoJE=F BraDBF=F KetDBF=F FulRan=T
         wScrn=  0.000000 ICntrl=         0 IOpCl=  1 I1Cent=           0 NGrid=           0
         NMat0=    1 NMatS0=      1 NMatT0=    0 NMatD0=    1 NMtDS0=    0 NMtDT0=    0
 Symmetry not used in FoFCou.
 FMM levels:  10  Number of levels for PrismC:   9
 E= -1614.63616509121    
 DIIS: error= 2.08D-02 at cycle   1 NSaved=   1.
 NSaved= 1 IEnMin= 1 EnMin= -1614.63616509121     IErMin= 1 ErrMin= 2.08D-02
 ErrMax= 2.08D-02  0.00D+00 EMaxC= 1.00D-01 BMatC= 3.48D+00 BMatP= 3.48D+00
 IDIUse=3 WtCom= 7.92D-01 WtEn= 2.08D-01
 Coeff-Com:  0.100D+01
 Coeff-En:   0.100D+01
 Coeff:      0.100D+01
 Gap=     0.084 Goal=   None    Shift=    0.000
 Gap=     0.105 Goal=   None    Shift=    0.000
 GapD=    0.084 DampG=0.500 DampE=0.500 DampFc=0.2500 IDamp=-1.
 Damping current iteration by 2.50D-01
 RMSDP=2.57D-02 MaxDP=2.42D+00              OVMax= 2.75D-01

 Cycle   2  Pass 1  IDiag  1:
 RMSU=  5.82D-03    CP:  9.53D-01
 E= -1614.87201560699     Delta-E=       -0.235850515784 Rises=F Damp=T
 DIIS: error= 1.31D-02 at cycle   2 NSaved=   2.
 NSaved= 2 IEnMin= 2 EnMin= -1614.87201560699     IErMin= 2 ErrMin= 1.31D-02
 ErrMax= 1.31D-02  0.00D+00 EMaxC= 1.00D-01 BMatC= 1.36D+00 BMatP= 3.48D+00
 IDIUse=3 WtCom= 8.69D-01 WtEn= 1.31D-01
 Coeff-Com: -0.125D+01 0.225D+01
 Coeff-En:   0.000D+00 0.100D+01
 Coeff:     -0.109D+01 0.209D+01
 Gap=     0.097 Goal=   None    Shift=    0.000
 Gap=     0.165 Goal=   None    Shift=    0.000
 RMSDP=1.78D-02 MaxDP=1.80D+00 DE=-2.36D-01 OVMax= 3.30D-01

 Cycle   3  Pass 1  IDiag  1:
 RMSU=  9.35D-03    CP:  6.92D-01  1.37D+00
 E= -1615.16003211044     Delta-E=       -0.288016503447 Rises=F Damp=F
 DIIS: error= 2.29D-02 at cycle   3 NSaved=   3.
 NSaved= 3 IEnMin= 3 EnMin= -1615.16003211044     IErMin= 2 ErrMin= 1.31D-02
 ErrMax= 2.29D-02  0.00D+00 EMaxC= 1.00D-01 BMatC= 6.88D-01 BMatP= 1.36D+00
 IDIUse=3 WtCom= 7.71D-01 WtEn= 2.29D-01
 Coeff-Com: -0.878D+00 0.142D+01 0.454D+00
 Coeff-En:   0.000D+00 0.000D+00 0.100D+01
 Coeff:     -0.677D+00 0.110D+01 0.579D+00
 Gap=     0.089 Goal=   None    Shift=    0.000
 Gap=     0.120 Goal=   None    Shift=    0.000
 RMSDP=1.03D-02 MaxDP=6.08D-01 DE=-2.88D-01 OVMax= 2.91D-01

 Cycle   4  Pass 1  IDiag  1:
 RMSU=  5.98D-03    CP:  6.87D-01  2.70D+00  6.37D-01
 E= -1615.23455185138     Delta-E=       -0.074519740940 Rises=F Damp=F
 DIIS: error= 1.93D-02 at cycle   4 NSaved=   4.
 NSaved= 4 IEnMin= 4 EnMin= -1615.23455185138     IErMin= 2 ErrMin= 1.31D-02
 ErrMax= 1.93D-02  0.00D+00 EMaxC= 1.00D-01 BMatC= 4.30D-01 BMatP= 6.88D-01
 IDIUse=3 WtCom= 8.07D-01 WtEn= 1.93D-01
 Coeff-Com: -0.184D+00 0.295D+00 0.433D+00 0.457D+00
 Coeff-En:   0.000D+00 0.000D+00 0.414D+00 0.586D+00
 Coeff:     -0.149D+00 0.238D+00 0.429D+00 0.481D+00
 Gap=     0.085 Goal=   None    Shift=    0.000
 Gap=     0.125 Goal=   None    Shift=    0.000
 RMSDP=7.59D-03 MaxDP=5.47D-01 DE=-7.45D-02 OVMax= 1.43D-01

 Cycle   5  Pass 1  IDiag  1:
 RMSU=  2.28D-03    CP:  6.56D-01  1.80D+00  7.25D-01  2.38D-01
 E= -1615.35431628960     Delta-E=       -0.119764438215 Rises=F Damp=F
 DIIS: error= 1.56D-03 at cycle   5 NSaved=   5.
 NSaved= 5 IEnMin= 5 EnMin= -1615.35431628960     IErMin= 5 ErrMin= 1.56D-03
 ErrMax= 1.56D-03  0.00D+00 EMaxC= 1.00D-01 BMatC= 4.57D-03 BMatP= 4.30D-01
 IDIUse=3 WtCom= 9.84D-01 WtEn= 1.56D-02
 Coeff-Com: -0.128D-01 0.202D-01 0.148D+00 0.203D+00 0.642D+00
 Coeff-En:   0.000D+00 0.000D+00 0.000D+00 0.000D+00 0.100D+01
 Coeff:     -0.126D-01 0.199D-01 0.146D+00 0.200D+00 0.647D+00
 Gap=     0.084 Goal=   None    Shift=    0.000
 Gap=     0.123 Goal=   None    Shift=    0.000
 RMSDP=8.73D-04 MaxDP=7.60D-02 DE=-1.20D-01 OVMax= 1.81D-02

 Cycle   6  Pass 1  IDiag  1:
 RMSU=  7.64D-04    CP:  6.52D-01  1.82D+00  7.26D-01  2.78D-01  9.09D-01
 E= -1615.35533008094     Delta-E=       -0.001013791340 Rises=F Damp=F
 DIIS: error= 7.99D-04 at cycle   6 NSaved=   6.
 NSaved= 6 IEnMin= 6 EnMin= -1615.35533008094     IErMin= 6 ErrMin= 7.99D-04
 ErrMax= 7.99D-04  0.00D+00 EMaxC= 1.00D-01 BMatC= 1.29D-03 BMatP= 4.57D-03
 IDIUse=3 WtCom= 9.92D-01 WtEn= 7.99D-03
 Coeff-Com:  0.122D-01-0.196D-01 0.416D-02 0.188D-01 0.362D+00 0.622D+00
 Coeff-En:   0.000D+00 0.000D+00 0.000D+00 0.000D+00 0.187D+00 0.813D+00
 Coeff:      0.121D-01-0.195D-01 0.413D-02 0.187D-01 0.361D+00 0.624D+00
 Gap=     0.084 Goal=   None    Shift=    0.000
 Gap=     0.123 Goal=   None    Shift=    0.000
 RMSDP=4.14D-04 MaxDP=4.07D-02 DE=-1.01D-03 OVMax= 7.55D-03

 Cycle   7  Pass 1  IDiag  1:
 RMSU=  2.96D-04    CP:  6.53D-01  1.82D+00  7.29D-01  2.88D-01  9.66D-01
                    CP:  6.94D-01
 E= -1615.35572331333     Delta-E=       -0.000393232399 Rises=F Damp=F
 DIIS: error= 3.35D-04 at cycle   7 NSaved=   7.
 NSaved= 7 IEnMin= 7 EnMin= -1615.35572331333     IErMin= 7 ErrMin= 3.35D-04
 ErrMax= 3.35D-04  0.00D+00 EMaxC= 1.00D-01 BMatC= 1.41D-04 BMatP= 1.29D-03
 IDIUse=3 WtCom= 9.97D-01 WtEn= 3.35D-03
 Coeff-Com:  0.566D-02-0.905D-02-0.123D-01-0.123D-01 0.120D+00 0.320D+00
 Coeff-Com:  0.588D+00
 Coeff-En:   0.000D+00 0.000D+00 0.000D+00 0.000D+00 0.000D+00 0.000D+00
 Coeff-En:   0.100D+01
 Coeff:      0.564D-02-0.902D-02-0.123D-01-0.122D-01 0.120D+00 0.319D+00
 Coeff:      0.590D+00
 Gap=     0.084 Goal=   None    Shift=    0.000
 Gap=     0.125 Goal=   None    Shift=    0.000
 RMSDP=1.62D-04 MaxDP=1.11D-02 DE=-3.93D-04 OVMax= 3.31D-03

 Cycle   8  Pass 1  IDiag  1:
 RMSU=  1.16D-04    CP:  6.53D-01  1.82D+00  7.25D-01  2.79D-01  9.82D-01
                    CP:  7.91D-01  1.07D+00
 E= -1615.35578488436     Delta-E=       -0.000061571026 Rises=F Damp=F
 DIIS: error= 1.83D-04 at cycle   8 NSaved=   8.
 NSaved= 8 IEnMin= 8 EnMin= -1615.35578488436     IErMin= 8 ErrMin= 1.83D-04
 ErrMax= 1.83D-04  0.00D+00 EMaxC= 1.00D-01 BMatC= 2.03D-05 BMatP= 1.41D-04
 IDIUse=3 WtCom= 9.98D-01 WtEn= 1.83D-03
 Coeff-Com: -0.851D-03 0.137D-02-0.655D-02-0.110D-01-0.454D-01-0.352D-01
 Coeff-Com:  0.185D+00 0.913D+00
 Coeff-En:   0.000D+00 0.000D+00 0.000D+00 0.000D+00 0.000D+00 0.000D+00
 Coeff-En:   0.000D+00 0.100D+01
 Coeff:     -0.849D-03 0.137D-02-0.654D-02-0.110D-01-0.454D-01-0.351D-01
 Coeff:      0.185D+00 0.913D+00
 Gap=     0.084 Goal=   None    Shift=    0.000
 Gap=     0.125 Goal=   None    Shift=    0.000
 RMSDP=1.75D-04 MaxDP=1.30D-02 DE=-6.16D-05 OVMax= 3.83D-03

 Cycle   9  Pass 1  IDiag  1:
 RMSU=  5.69D-05    CP:  6.52D-01  1.82D+00  7.23D-01  2.77D-01  1.00D+00
                    CP:  8.17D-01  1.50D+00  1.66D+00
 E= -1615.35581325587     Delta-E=       -0.000028371508 Rises=F Damp=F
 DIIS: error= 8.34D-05 at cycle   9 NSaved=   9.
 NSaved= 9 IEnMin= 9 EnMin= -1615.35581325587     IErMin= 9 ErrMin= 8.34D-05
 ErrMax= 8.34D-05  0.00D+00 EMaxC= 1.00D-01 BMatC= 6.67D-06 BMatP= 2.03D-05
 IDIUse=1 WtCom= 1.00D+00 WtEn= 0.00D+00
 Coeff-Com: -0.121D-02 0.194D-02 0.225D-02 0.148D-02-0.457D-01-0.110D+00
 Coeff-Com: -0.168D+00 0.192D+00 0.113D+01
 Coeff:     -0.121D-02 0.194D-02 0.225D-02 0.148D-02-0.457D-01-0.110D+00
 Coeff:     -0.168D+00 0.192D+00 0.113D+01
 Gap=     0.084 Goal=   None    Shift=    0.000
 Gap=     0.126 Goal=   None    Shift=    0.000
 RMSDP=1.80D-04 MaxDP=1.15D-02 DE=-2.84D-05 OVMax= 3.80D-03

 Cycle  10  Pass 1  IDiag  1:
 RMSU=  3.49D-05    CP:  6.51D-01  1.82D+00  7.22D-01  2.77D-01  1.02D+00
                    CP:  8.42D-01  1.92D+00  2.50D+00  2.00D+00
 E= -1615.35582710703     Delta-E=       -0.000013851165 Rises=F Damp=F
 DIIS: error= 5.70D-05 at cycle  10 NSaved=  10.
 NSaved=10 IEnMin=10 EnMin= -1615.35582710703     IErMin=10 ErrMin= 5.70D-05
 ErrMax= 5.70D-05  0.00D+00 EMaxC= 1.00D-01 BMatC= 2.38D-06 BMatP= 6.67D-06
 IDIUse=1 WtCom= 1.00D+00 WtEn= 0.00D+00
 Coeff-Com: -0.246D-03 0.413D-03 0.315D-02 0.415D-02-0.792D-02-0.443D-01
 Coeff-Com: -0.141D+00-0.169D+00 0.545D+00 0.809D+00
 Coeff:     -0.246D-03 0.413D-03 0.315D-02 0.415D-02-0.792D-02-0.443D-01
 Coeff:     -0.141D+00-0.169D+00 0.545D+00 0.809D+00
 Gap=     0.084 Goal=   None    Shift=    0.000
 Gap=     0.126 Goal=   None    Shift=    0.000
 RMSDP=1.13D-04 MaxDP=8.27D-03 DE=-1.39D-05 OVMax= 2.10D-03

 Cycle  11  Pass 1  IDiag  1:
 RMSU=  2.87D-05    CP:  6.51D-01  1.82D+00  7.22D-01  2.78D-01  1.03D+00
                    CP:  8.46D-01  2.15D+00  3.00D+00  2.74D+00  1.63D+00
 E= -1615.35583098181     Delta-E=       -0.000003874777 Rises=F Damp=F
 DIIS: error= 3.75D-05 at cycle  11 NSaved=  11.
 NSaved=11 IEnMin=11 EnMin= -1615.35583098181     IErMin=11 ErrMin= 3.75D-05
 ErrMax= 3.75D-05  0.00D+00 EMaxC= 1.00D-01 BMatC= 7.39D-07 BMatP= 2.38D-06
 IDIUse=1 WtCom= 1.00D+00 WtEn= 0.00D+00
 Coeff-Com:  0.158D-03-0.241D-03 0.933D-03 0.154D-02 0.987D-02 0.117D-01
 Coeff-Com: -0.992D-02-0.115D+00-0.101D+00 0.300D+00 0.902D+00
 Coeff:      0.158D-03-0.241D-03 0.933D-03 0.154D-02 0.987D-02 0.117D-01
 Coeff:     -0.992D-02-0.115D+00-0.101D+00 0.300D+00 0.902D+00
 Gap=     0.084 Goal=   None    Shift=    0.000
 Gap=     0.126 Goal=   None    Shift=    0.000
 RMSDP=8.07D-05 MaxDP=6.83D-03 DE=-3.87D-06 OVMax= 1.05D-03

 Cycle  12  Pass 1  IDiag  1:
 RMSU=  4.24D-05    CP:  6.52D-01  1.82D+00  7.22D-01  2.79D-01  1.04D+00
                    CP:  8.44D-01  2.30D+00  3.00D+00  3.00D+00  2.31D+00
                    CP:  2.18D+00
 E= -1615.35583231030     Delta-E=       -0.000001328491 Rises=F Damp=F
 DIIS: error= 2.03D-05 at cycle  12 NSaved=  12.
 NSaved=12 IEnMin=12 EnMin= -1615.35583231030     IErMin=12 ErrMin= 2.03D-05
 ErrMax= 2.03D-05  0.00D+00 EMaxC= 1.00D-01 BMatC= 3.73D-07 BMatP= 7.39D-07
 IDIUse=1 WtCom= 1.00D+00 WtEn= 0.00D+00
 Coeff-Com:  0.193D-03-0.310D-03-0.979D-03-0.111D-02 0.103D-01 0.293D-01
 Coeff-Com:  0.631D-01 0.140D-01-0.322D+00-0.236D+00 0.567D+00 0.876D+00
 Coeff:      0.193D-03-0.310D-03-0.979D-03-0.111D-02 0.103D-01 0.293D-01
 Coeff:      0.631D-01 0.140D-01-0.322D+00-0.236D+00 0.567D+00 0.876D+00
 Gap=     0.084 Goal=   None    Shift=    0.000
 Gap=     0.126 Goal=   None    Shift=    0.000
 RMSDP=7.07D-05 MaxDP=5.93D-03 DE=-1.33D-06 OVMax= 7.76D-04

 Cycle  13  Pass 1  IDiag  1:
 RMSU=  1.90D-05    CP:  6.52D-01  1.82D+00  7.22D-01  2.80D-01  1.05D+00
                    CP:  8.43D-01  2.43D+00  3.00D+00  3.00D+00  3.00D+00
                    CP:  3.00D+00  1.90D+00
 E= -1615.35583298677     Delta-E=       -0.000000676467 Rises=F Damp=F
 DIIS: error= 1.74D-05 at cycle  13 NSaved=  13.
 NSaved=13 IEnMin=13 EnMin= -1615.35583298677     IErMin=13 ErrMin= 1.74D-05
 ErrMax= 1.74D-05  0.00D+00 EMaxC= 1.00D-01 BMatC= 9.81D-08 BMatP= 3.73D-07
 IDIUse=1 WtCom= 1.00D+00 WtEn= 0.00D+00
 Coeff-Com:  0.838D-05-0.265D-04-0.644D-03-0.784D-03 0.126D-02 0.829D-02
 Coeff-Com:  0.246D-01 0.298D-01-0.914D-01-0.172D+00 0.304D-01 0.286D+00
 Coeff-Com:  0.884D+00
 Coeff:      0.838D-05-0.265D-04-0.644D-03-0.784D-03 0.126D-02 0.829D-02
 Coeff:      0.246D-01 0.298D-01-0.914D-01-0.172D+00 0.304D-01 0.286D+00
 Coeff:      0.884D+00
 Gap=     0.084 Goal=   None    Shift=    0.000
 Gap=     0.126 Goal=   None    Shift=    0.000
 RMSDP=3.70D-05 MaxDP=3.38D-03 DE=-6.76D-07 OVMax= 5.76D-04

 Cycle  14  Pass 1  IDiag  1:
 RMSU=  1.75D-05    CP:  6.52D-01  1.82D+00  7.22D-01  2.81D-01  1.05D+00
                    CP:  8.41D-01  2.49D+00  3.00D+00  3.00D+00  3.00D+00
                    CP:  3.00D+00  2.36D+00  1.85D+00
 E= -1615.35583320216     Delta-E=       -0.000000215389 Rises=F Damp=F
 DIIS: error= 1.34D-05 at cycle  14 NSaved=  14.
 NSaved=14 IEnMin=14 EnMin= -1615.35583320216     IErMin=14 ErrMin= 1.34D-05
 ErrMax= 1.34D-05  0.00D+00 EMaxC= 1.00D-01 BMatC= 6.74D-08 BMatP= 9.81D-08
 IDIUse=1 WtCom= 1.00D+00 WtEn= 0.00D+00
 Coeff-Com: -0.898D-04 0.133D-03 0.244D-04 0.433D-04-0.481D-02-0.993D-02
 Coeff-Com: -0.176D-01 0.117D-01 0.114D+00 0.113D-02-0.255D+00-0.285D+00
 Coeff-Com:  0.577D+00 0.868D+00
 Coeff:     -0.898D-04 0.133D-03 0.244D-04 0.433D-04-0.481D-02-0.993D-02
 Coeff:     -0.176D-01 0.117D-01 0.114D+00 0.113D-02-0.255D+00-0.285D+00
 Coeff:      0.577D+00 0.868D+00
 Gap=     0.084 Goal=   None    Shift=    0.000
 Gap=     0.126 Goal=   None    Shift=    0.000
 RMSDP=2.96D-05 MaxDP=2.67D-03 DE=-2.15D-07 OVMax= 5.38D-04

 Cycle  15  Pass 1  IDiag  1:
 RMSU=  3.09D-06    CP:  6.52D-01  1.82D+00  7.22D-01  2.81D-01  1.05D+00
                    CP:  8.41D-01  2.54D+00  3.00D+00  3.00D+00  3.00D+00
                    CP:  3.00D+00  2.72D+00  2.57D+00  1.81D+00
 E= -1615.35583336472     Delta-E=       -0.000000162566 Rises=F Damp=F
 DIIS: error= 1.10D-05 at cycle  15 NSaved=  15.
 NSaved=15 IEnMin=15 EnMin= -1615.35583336472     IErMin=15 ErrMin= 1.10D-05
 ErrMax= 1.10D-05  0.00D+00 EMaxC= 1.00D-01 BMatC= 2.37D-08 BMatP= 6.74D-08
 IDIUse=1 WtCom= 1.00D+00 WtEn= 0.00D+00
 Coeff-Com: -0.189D-05 0.116D-04 0.275D-03 0.357D-03-0.104D-02-0.440D-02
 Coeff-Com: -0.117D-01-0.133D-01 0.490D-01 0.809D-01-0.210D-01-0.168D+00
 Coeff-Com: -0.394D+00 0.615D-01 0.142D+01
 Coeff:     -0.189D-05 0.116D-04 0.275D-03 0.357D-03-0.104D-02-0.440D-02
 Coeff:     -0.117D-01-0.133D-01 0.490D-01 0.809D-01-0.210D-01-0.168D+00
 Coeff:     -0.394D+00 0.615D-01 0.142D+01
 Gap=     0.084 Goal=   None    Shift=    0.000
 Gap=     0.126 Goal=   None    Shift=    0.000
 RMSDP=2.29D-05 MaxDP=2.09D-03 DE=-1.63D-07 OVMax= 5.72D-04

 Cycle  16  Pass 1  IDiag  1:
 RMSU=  3.54D-06    CP:  6.52D-01  1.82D+00  7.22D-01  2.81D-01  1.05D+00
                    CP:  8.40D-01  2.58D+00  3.00D+00  3.00D+00  3.00D+00
                    CP:  3.00D+00  2.98D+00  3.00D+00  2.44D+00  1.96D+00
 E= -1615.35583349572     Delta-E=       -0.000000131001 Rises=F Damp=F
 DIIS: error= 7.02D-06 at cycle  16 NSaved=  16.
 NSaved=16 IEnMin=16 EnMin= -1615.35583349572     IErMin=16 ErrMin= 7.02D-06
 ErrMax= 7.02D-06  0.00D+00 EMaxC= 1.00D-01 BMatC= 1.52D-08 BMatP= 2.37D-08
 IDIUse=1 WtCom= 1.00D+00 WtEn= 0.00D+00
 Coeff-Com:  0.455D-04-0.612D-04 0.165D-03 0.193D-03 0.161D-02 0.184D-02
 Coeff-Com:  0.125D-02-0.127D-01-0.232D-01 0.509D-01 0.879D-01 0.285D-01
 Coeff-Com: -0.487D+00-0.314D+00 0.817D+00 0.847D+00
 Coeff:      0.455D-04-0.612D-04 0.165D-03 0.193D-03 0.161D-02 0.184D-02
 Coeff:      0.125D-02-0.127D-01-0.232D-01 0.509D-01 0.879D-01 0.285D-01
 Coeff:     -0.487D+00-0.314D+00 0.817D+00 0.847D+00
 Gap=     0.084 Goal=   None    Shift=    0.000
 Gap=     0.126 Goal=   None    Shift=    0.000
 RMSDP=1.09D-05 MaxDP=9.58D-04 DE=-1.31D-07 OVMax= 3.80D-04

 Cycle  17  Pass 1  IDiag  1:
 RMSU=  5.41D-06    CP:  6.52D-01  1.82D+00  7.22D-01  2.81D-01  1.05D+00
                    CP:  8.40D-01  2.59D+00  3.00D+00  3.00D+00  3.00D+00
                    CP:  3.00D+00  3.00D+00  3.00D+00  2.74D+00  2.63D+00
                    CP:  2.23D+00
 E= -1615.35583355763     Delta-E=       -0.000000061904 Rises=F Damp=F
 DIIS: error= 5.07D-06 at cycle  17 NSaved=  17.
 NSaved=17 IEnMin=17 EnMin= -1615.35583355763     IErMin=17 ErrMin= 5.07D-06
 ErrMax= 5.07D-06  0.00D+00 EMaxC= 1.00D-01 BMatC= 9.09D-09 BMatP= 1.52D-08
 IDIUse=1 WtCom= 1.00D+00 WtEn= 0.00D+00
 Coeff-Com:  0.302D-04-0.446D-04-0.474D-05-0.520D-04 0.184D-02 0.366D-02
 Coeff-Com:  0.741D-02-0.129D-02-0.449D-01-0.430D-02 0.619D-01 0.125D+00
 Coeff-Com: -0.126D+00-0.235D+00-0.302D+00 0.572D+00 0.941D+00
 Coeff:      0.302D-04-0.446D-04-0.474D-05-0.520D-04 0.184D-02 0.366D-02
 Coeff:      0.741D-02-0.129D-02-0.449D-01-0.430D-02 0.619D-01 0.125D+00
 Coeff:     -0.126D+00-0.235D+00-0.302D+00 0.572D+00 0.941D+00
 Gap=     0.084 Goal=   None    Shift=    0.000
 Gap=     0.126 Goal=   None    Shift=    0.000
 RMSDP=6.15D-06 MaxDP=4.66D-04 DE=-6.19D-08 OVMax= 3.72D-04

 Cycle  18  Pass 1  IDiag  1:
 RMSU=  1.67D-06    CP:  6.52D-01  1.82D+00  7.22D-01  2.81D-01  1.05D+00
                    CP:  8.40D-01  2.60D+00  3.00D+00  3.00D+00  3.00D+00
                    CP:  3.00D+00  3.00D+00  3.00D+00  2.90D+00  3.00D+00
                    CP:  3.00D+00  1.51D+00
 E= -1615.35583359587     Delta-E=       -0.000000038242 Rises=F Damp=F
 DIIS: error= 3.01D-06 at cycle  18 NSaved=  18.
 NSaved=18 IEnMin=18 EnMin= -1615.35583359587     IErMin=18 ErrMin= 3.01D-06
 ErrMax= 3.01D-06  0.00D+00 EMaxC= 1.00D-01 BMatC= 4.91D-09 BMatP= 9.09D-09
 IDIUse=1 WtCom= 1.00D+00 WtEn= 0.00D+00
 Coeff-Com: -0.894D-06-0.106D-05-0.537D-04-0.108D-03 0.580D-03 0.147D-02
 Coeff-Com:  0.412D-02 0.429D-02-0.198D-01-0.206D-01-0.533D-03 0.766D-01
 Coeff-Com:  0.111D+00-0.136D-01-0.566D+00-0.878D-02 0.677D+00 0.754D+00
 Coeff:     -0.894D-06-0.106D-05-0.537D-04-0.108D-03 0.580D-03 0.147D-02
 Coeff:      0.412D-02 0.429D-02-0.198D-01-0.206D-01-0.533D-03 0.766D-01
 Coeff:      0.111D+00-0.136D-01-0.566D+00-0.878D-02 0.677D+00 0.754D+00
 Gap=     0.084 Goal=   None    Shift=    0.000
 Gap=     0.126 Goal=   None    Shift=    0.000
 RMSDP=2.22D-06 MaxDP=2.38D-04 DE=-3.82D-08 OVMax= 2.37D-04

 Cycle  19  Pass 1  IDiag  1:
 RMSU=  1.47D-06    CP:  6.52D-01  1.82D+00  7.22D-01  2.81D-01  1.05D+00
                    CP:  8.40D-01  2.60D+00  3.00D+00  3.00D+00  3.00D+00
                    CP:  3.00D+00  3.00D+00  3.00D+00  2.92D+00  3.00D+00
                    CP:  3.00D+00  1.51D+00  1.92D+00
 E= -1615.35583361018     Delta-E=       -0.000000014315 Rises=F Damp=F
 DIIS: error= 1.93D-06 at cycle  19 NSaved=  19.
 NSaved=19 IEnMin=19 EnMin= -1615.35583361018     IErMin=19 ErrMin= 1.93D-06
 ErrMax= 1.93D-06  0.00D+00 EMaxC= 1.00D-01 BMatC= 1.62D-09 BMatP= 4.91D-09
 IDIUse=1 WtCom= 1.00D+00 WtEn= 0.00D+00
 Coeff-Com: -0.141D-04 0.191D-04-0.232D-04-0.285D-04-0.832D-03-0.163D-02
 Coeff-Com: -0.260D-02 0.274D-02 0.177D-01-0.624D-02-0.399D-01-0.364D-01
 Coeff-Com:  0.121D+00 0.143D+00-0.880D-01-0.361D+00-0.212D+00 0.392D+00
 Coeff-Com:  0.107D+01
 Coeff:     -0.141D-04 0.191D-04-0.232D-04-0.285D-04-0.832D-03-0.163D-02
 Coeff:     -0.260D-02 0.274D-02 0.177D-01-0.624D-02-0.399D-01-0.364D-01
 Coeff:      0.121D+00 0.143D+00-0.880D-01-0.361D+00-0.212D+00 0.392D+00
 Coeff:      0.107D+01
 Gap=     0.084 Goal=   None    Shift=    0.000
 Gap=     0.126 Goal=   None    Shift=    0.000
 RMSDP=3.88D-06 MaxDP=3.43D-04 DE=-1.43D-08 OVMax= 1.77D-04

 Cycle  20  Pass 1  IDiag  1:
 RMSU=  1.40D-06    CP:  6.52D-01  1.82D+00  7.22D-01  2.81D-01  1.05D+00
                    CP:  8.40D-01  2.60D+00  3.00D+00  3.00D+00  3.00D+00
                    CP:  3.00D+00  3.00D+00  3.00D+00  2.84D+00  3.00D+00
                    CP:  3.00D+00  1.14D+00  2.88D+00  1.57D+00
 E= -1615.35583361624     Delta-E=       -0.000000006054 Rises=F Damp=F
 DIIS: error= 8.22D-07 at cycle  20 NSaved=  20.
 NSaved=20 IEnMin=20 EnMin= -1615.35583361624     IErMin=20 ErrMin= 8.22D-07
 ErrMax= 8.22D-07  0.00D+00 EMaxC= 1.00D-01 BMatC= 4.84D-10 BMatP= 1.62D-09
 IDIUse=1 WtCom= 1.00D+00 WtEn= 0.00D+00
 Coeff-Com: -0.703D-06 0.155D-05 0.325D-05 0.188D-04-0.281D-03-0.540D-03
 Coeff-Com: -0.130D-02-0.823D-03 0.758D-02 0.316D-02-0.130D-02-0.285D-01
 Coeff-Com: -0.195D-01 0.137D-01 0.172D+00-0.283D-01-0.234D+00-0.199D+00
 Coeff-Com:  0.909D-01 0.123D+01
 Coeff:     -0.703D-06 0.155D-05 0.325D-05 0.188D-04-0.281D-03-0.540D-03
 Coeff:     -0.130D-02-0.823D-03 0.758D-02 0.316D-02-0.130D-02-0.285D-01
 Coeff:     -0.195D-01 0.137D-01 0.172D+00-0.283D-01-0.234D+00-0.199D+00
 Coeff:      0.909D-01 0.123D+01
 Gap=     0.084 Goal=   None    Shift=    0.000
 Gap=     0.126 Goal=   None    Shift=    0.000
 RMSDP=4.23D-06 MaxDP=4.13D-04 DE=-6.05D-09 OVMax= 7.32D-05

 Cycle  21  Pass 1  IDiag  1:
 Restarting incremental Fock formation.
 E= -1615.35583361785     Delta-E=       -0.000000001611 Rises=F Damp=F
 DIIS: error= 4.32D-07 at cycle  21 NSaved=  20.
 NSaved=20 IEnMin=20 EnMin= -1615.35583361785     IErMin=20 ErrMin= 4.32D-07
 ErrMax= 4.32D-07  0.00D+00 EMaxC= 1.00D-01 BMatC= 2.79D-10 BMatP= 4.84D-10
 IDIUse=1 WtCom= 1.00D+00 WtEn= 0.00D+00
 Coeff-Com:  0.174D-05 0.119D-04 0.218D-04 0.263D-03 0.623D-03 0.795D-03
 Coeff-Com: -0.175D-02-0.577D-02 0.315D-02 0.221D-01 0.452D-02-0.667D-01
[...]
              Bcc     0.0044     0.590     0.211     0.197  0.8268  0.5407 -0.1547
 
              Baa    -0.0006    -0.087    -0.031    -0.029  0.8363  0.1050 -0.5381
     7 C(13)  Bbb    -0.0001    -0.009    -0.003    -0.003  0.5248  0.1308  0.8411
              Bcc     0.0007     0.096     0.034     0.032 -0.1587  0.9858 -0.0543
 
              Baa    -0.0003    -0.179    -0.064    -0.060  0.5604  0.0544  0.8265
     8 H(1)   Bbb    -0.0003    -0.178    -0.063    -0.059  0.8124  0.1579 -0.5612
              Bcc     0.0007     0.357     0.127     0.119 -0.1610  0.9860  0.0443
 
              Baa    -0.0392    -5.264    -1.878    -1.756  0.9944  0.1019 -0.0264
     9 C(13)  Bbb     0.0154     2.063     0.736     0.688 -0.0961  0.7763 -0.6230
              Bcc     0.0239     3.202     1.142     1.068 -0.0430  0.6221  0.7818
 
              Baa    -0.0006    -0.087    -0.031    -0.029  0.8360 -0.1038 -0.5388
    10 C(13)  Bbb    -0.0001    -0.009    -0.003    -0.003  0.5252 -0.1327  0.8406
              Bcc     0.0007     0.097     0.034     0.032  0.1587  0.9857  0.0564
 
              Baa    -0.0003    -0.179    -0.064    -0.060  0.5572 -0.0555  0.8285
    11 H(1)   Bbb    -0.0003    -0.178    -0.063    -0.059  0.8146 -0.1569 -0.5584
              Bcc     0.0007     0.356     0.127     0.119  0.1610  0.9860 -0.0422
 
              Baa    -0.0016    -0.217    -0.077    -0.072  0.9962  0.0615  0.0611
    12 C(13)  Bbb     0.0002     0.028     0.010     0.009 -0.0114  0.7915 -0.6111
              Bcc     0.0014     0.189     0.067     0.063 -0.0860  0.6081  0.7892
 
              Baa    -0.0052    -0.696    -0.248    -0.232  0.0843 -0.1548  0.9843
    13 C(13)  Bbb     0.0008     0.106     0.038     0.035  0.5559  0.8271  0.0824
              Bcc     0.0044     0.590     0.211     0.197  0.8269 -0.5403 -0.1558
 
              Baa    -0.0380    -5.096    -1.819    -1.700  0.0360  0.7631  0.6453
    14 C(13)  Bbb    -0.0362    -4.860    -1.734    -1.621 -0.0248 -0.6448  0.7639
              Bcc     0.0742     9.957     3.553     3.321  0.9990 -0.0435 -0.0043
 
              Baa    -0.0481    -6.460    -2.305    -2.155  0.9958 -0.0094 -0.0908
    15 C(13)  Bbb     0.0193     2.594     0.926     0.865  0.0447  0.9176  0.3950
              Bcc     0.0288     3.866     1.380     1.290  0.0796 -0.3975  0.9142
 
              Baa    -0.0229    -3.070    -1.095    -1.024  0.9944  0.1056  0.0022
    16 C(13)  Bbb     0.0096     1.290     0.460     0.430 -0.1011  0.9574 -0.2704
              Bcc     0.0133     1.780     0.635     0.594 -0.0306  0.2686  0.9628
 
              Baa    -0.0017    -0.894    -0.319    -0.298  0.8797  0.4750 -0.0223
    17 H(1)   Bbb    -0.0005    -0.255    -0.091    -0.085 -0.4365  0.7879 -0.4343
              Bcc     0.0022     1.149     0.410     0.383 -0.1887  0.3918  0.9005
 
              Baa    -0.0036    -0.480    -0.171    -0.160  0.2005 -0.0686  0.9773
    18 C(13)  Bbb    -0.0011    -0.154    -0.055    -0.051  0.9678 -0.1413 -0.2084
              Bcc     0.0047     0.634     0.226     0.211  0.1523  0.9876  0.0380
 
              Baa    -0.0008    -0.404    -0.144    -0.135  0.1724  0.0255  0.9847
    19 H(1)   Bbb    -0.0006    -0.305    -0.109    -0.102  0.8770 -0.4591 -0.1417
              Bcc     0.0013     0.709     0.253     0.236  0.4484  0.8880 -0.1015
 
              Baa    -0.0430    -5.764    -2.057    -1.923  0.0622  0.9344  0.3508
    20 C(13)  Bbb    -0.0398    -5.343    -1.907    -1.782 -0.0581 -0.3475  0.9359
              Bcc     0.0828    11.107     3.963     3.705  0.9964 -0.0786  0.0327
 
              Baa    -0.0056    -0.746    -0.266    -0.249  0.9289  0.3677  0.0442
    21 C(13)  Bbb    -0.0041    -0.548    -0.196    -0.183  0.1199 -0.4115  0.9035
              Bcc     0.0096     1.295     0.462     0.432 -0.3504  0.8340  0.4263
 
              Baa    -0.0028    -1.515    -0.541    -0.505  0.3779  0.1241  0.9175
    22 H(1)   Bbb    -0.0020    -1.054    -0.376    -0.352  0.6042  0.7178 -0.3459
              Bcc     0.0048     2.569     0.917     0.857  0.7015 -0.6851 -0.1963
 
              Baa    -0.0481    -6.461    -2.305    -2.155  0.9958  0.0096 -0.0908
    23 C(13)  Bbb     0.0193     2.594     0.926     0.865 -0.0447  0.9184 -0.3931
              Bcc     0.0288     3.866     1.380     1.290  0.0796  0.3956  0.9150
 
              Baa    -0.0430    -5.765    -2.057    -1.923 -0.0623  0.9351 -0.3489
    24 C(13)  Bbb    -0.0398    -5.343    -1.907    -1.782 -0.0580  0.3456  0.9366
              Bcc     0.0828    11.108     3.964     3.705  0.9964  0.0786  0.0327
 
              Baa    -0.0036    -0.480    -0.171    -0.160  0.2003  0.0664  0.9775
    25 C(13)  Bbb    -0.0011    -0.154    -0.055    -0.051  0.9678  0.1417 -0.2080
              Bcc     0.0047     0.634     0.226     0.211 -0.1523  0.9877 -0.0359
 
              Baa    -0.0008    -0.404    -0.144    -0.135  0.1723 -0.0276  0.9847
    26 H(1)   Bbb    -0.0006    -0.305    -0.109    -0.102  0.8771  0.4594 -0.1405
              Bcc     0.0013     0.709     0.253     0.236 -0.4484  0.8878  0.1034
 
              Baa    -0.0380    -5.097    -1.819    -1.700 -0.0362  0.7644 -0.6437
    27 C(13)  Bbb    -0.0362    -4.861    -1.734    -1.621 -0.0249  0.6433  0.7652
              Bcc     0.0742     9.958     3.553     3.322  0.9990  0.0438 -0.0043
 
              Baa    -0.0359    -4.824    -1.721    -1.609 -0.1481  0.9873  0.0580
    28 C(13)  Bbb    -0.0344    -4.616    -1.647    -1.540  0.0103 -0.0571  0.9983
              Bcc     0.0703     9.440     3.368     3.149  0.9889  0.1485 -0.0017
 
              Baa    -0.0036    -1.910    -0.682    -0.637  0.2651  0.2618  0.9280
    29 H(1)   Bbb    -0.0006    -0.318    -0.114    -0.106  0.9531  0.0747 -0.2933
              Bcc     0.0042     2.229     0.795     0.743 -0.1462  0.9622 -0.2298
 
              Baa    -0.0281    -3.776    -1.348    -1.260 -0.0462  0.9594  0.2782
    30 C(13)  Bbb    -0.0260    -3.490    -1.245    -1.164  0.1048 -0.2723  0.9565
              Bcc     0.0541     7.266     2.593     2.424  0.9934  0.0734 -0.0880
 
              Baa    -0.0022    -1.184    -0.422    -0.395 -0.3013  0.0004  0.9535
    31 H(1)   Bbb    -0.0012    -0.630    -0.225    -0.210  0.9329  0.2072  0.2947
              Bcc     0.0034     1.814     0.647     0.605 -0.1974  0.9783 -0.0628
 
              Baa    -0.0414    -5.555    -1.982    -1.853 -0.1205  0.8579 -0.4994
    32 C(13)  Bbb    -0.0366    -4.910    -1.752    -1.638 -0.0388  0.4987  0.8659
              Bcc     0.0780    10.465     3.734     3.491  0.9920  0.1237 -0.0268
 
              Baa    -0.0062    -3.293    -1.175    -1.098 -0.0823  0.8678 -0.4901
    33 H(1)   Bbb    -0.0005    -0.282    -0.101    -0.094  0.9909  0.1237  0.0526
              Bcc     0.0067     3.575     1.276     1.193 -0.1063  0.4813  0.8701
 
              Baa    -0.0056    -0.746    -0.266    -0.249  0.9289 -0.3678  0.0432
    34 C(13)  Bbb    -0.0041    -0.548    -0.196    -0.183  0.1201  0.4096  0.9043
              Bcc     0.0096     1.295     0.462     0.432  0.3503  0.8348 -0.4247
 
              Baa    -0.0028    -1.515    -0.541    -0.505  0.3780 -0.1261  0.9172
    35 H(1)   Bbb    -0.0020    -1.054    -0.376    -0.351 -0.6041  0.7171  0.3475
              Bcc     0.0048     2.569     0.917     0.857  0.7015  0.6855 -0.1949
 
              Baa    -0.0266    -3.573    -1.275    -1.192  0.9991 -0.0428 -0.0070
    36 C(13)  Bbb     0.0109     1.463     0.522     0.488  0.0428  0.9991  0.0012
              Bcc     0.0157     2.110     0.753     0.704  0.0069 -0.0015  1.0000
 
              Baa    -0.0016    -0.876    -0.313    -0.292  0.6428  0.7640 -0.0557
    37 H(1)   Bbb    -0.0005    -0.284    -0.101    -0.095  0.7412 -0.6387 -0.2065
              Bcc     0.0022     1.160     0.414     0.387  0.1933 -0.0914  0.9769
 
              Baa    -0.0392    -5.265    -1.879    -1.756  0.9945 -0.1017 -0.0266
    38 C(13)  Bbb     0.0154     2.063     0.736     0.688  0.0960  0.7750  0.6246
              Bcc     0.0239     3.202     1.143     1.068 -0.0429 -0.6237  0.7805
 
              Baa    -0.0160    -2.146    -0.766    -0.716 -0.0554 -0.1414  0.9884
    39 C(13)  Bbb    -0.0147    -1.977    -0.705    -0.659 -0.0020  0.9899  0.1415
              Bcc     0.0307     4.123     1.471     1.375  0.9985 -0.0059  0.0551
 
              Baa    -0.0028    -1.510    -0.539    -0.504 -0.0517 -0.2832  0.9577
    40 H(1)   Bbb    -0.0009    -0.486    -0.173    -0.162  0.9819  0.1607  0.1005
              Bcc     0.0037     1.996     0.712     0.666 -0.1824  0.9455  0.2698
 
              Baa    -0.0372    -4.987    -1.779    -1.663  0.0518  0.9810  0.1869
    41 C(13)  Bbb    -0.0323    -4.337    -1.548    -1.447  0.0103 -0.1877  0.9822
              Bcc     0.0695     9.324     3.327     3.110  0.9986 -0.0490 -0.0199
 
              Baa    -0.0057    -3.015    -1.076    -1.006  0.0148  0.9793  0.2019
    42 H(1)   Bbb    -0.0001    -0.067    -0.024    -0.022  0.9965  0.0023 -0.0840
              Bcc     0.0058     3.083     1.100     1.028  0.0828 -0.2024  0.9758
 
              Baa    -0.0042    -0.558    -0.199    -0.186  0.2098  0.9764 -0.0510
    43 C(13)  Bbb    -0.0034    -0.455    -0.162    -0.152  0.1324  0.0233  0.9909
              Bcc     0.0076     1.013     0.362     0.338  0.9687 -0.2147 -0.1243
 
              Baa    -0.0014    -0.728    -0.260    -0.243  0.7509  0.4926  0.4400
    44 H(1)   Bbb    -0.0009    -0.494    -0.176    -0.165 -0.6234  0.3086  0.7185
              Bcc     0.0023     1.222     0.436     0.408 -0.2181  0.8137 -0.5387
 
              Baa    -0.0266    -3.574    -1.275    -1.192  0.9991  0.0428 -0.0070
    45 C(13)  Bbb     0.0109     1.463     0.522     0.488 -0.0428  0.9991  0.0009
              Bcc     0.0157     2.110     0.753     0.704  0.0071 -0.0006  1.0000
 
              Baa    -0.0016    -0.876    -0.313    -0.292 -0.6429  0.7638  0.0574
    46 H(1)   Bbb    -0.0005    -0.284    -0.101    -0.095  0.7411  0.6392 -0.2052
              Bcc     0.0022     1.160     0.414     0.387  0.1934  0.0893  0.9770
 
              Baa    -0.0202    -2.714    -0.968    -0.905  0.9921  0.1198  0.0379
    47 C(13)  Bbb     0.0087     1.173     0.418     0.391 -0.0783  0.8252 -0.5594
              Bcc     0.0115     1.541     0.550     0.514 -0.0983  0.5520  0.8281
 
              Baa    -0.0008    -0.452    -0.161    -0.151  0.9422 -0.0264  0.3341
    48 H(1)   Bbb     0.0001     0.042     0.015     0.014  0.2442  0.7367 -0.6306
              Bcc     0.0008     0.410     0.146     0.137 -0.2295  0.6757  0.7005
 
              Baa    -0.0281    -3.776    -1.347    -1.259  0.0463  0.9600 -0.2761
    49 C(13)  Bbb    -0.0260    -3.489    -1.245    -1.164  0.1047  0.2703  0.9571
              Bcc     0.0541     7.265     2.592     2.423  0.9934 -0.0732 -0.0880
 
              Baa    -0.0022    -1.184    -0.422    -0.395 -0.3016 -0.0023  0.9534
    50 H(1)   Bbb    -0.0012    -0.630    -0.225    -0.210  0.9327 -0.2079  0.2945
              Bcc     0.0034     1.814     0.647     0.605  0.1976  0.9781  0.0648
 
              Baa    -0.0372    -4.987    -1.780    -1.664 -0.0518  0.9814 -0.1849
    51 C(13)  Bbb    -0.0323    -4.337    -1.548    -1.447  0.0105  0.1856  0.9826
              Bcc     0.0695     9.325     3.327     3.110  0.9986  0.0490 -0.0199
 
              Baa    -0.0057    -3.015    -1.076    -1.006 -0.0148  0.9797 -0.1998
    52 H(1)   Bbb    -0.0001    -0.067    -0.024    -0.023  0.9964 -0.0021 -0.0842
              Bcc     0.0058     3.083     1.100     1.028  0.0829  0.2004  0.9762
 
              Baa    -0.0229    -3.069    -1.095    -1.024  0.9944 -0.1055  0.0020
    53 C(13)  Bbb     0.0096     1.290     0.460     0.430  0.1010  0.9569  0.2724
              Bcc     0.0133     1.780     0.635     0.594 -0.0306 -0.2706  0.9622
 
              Baa    -0.0017    -0.894    -0.319    -0.298  0.8797 -0.4749 -0.0233
    54 H(1)   Bbb    -0.0005    -0.255    -0.091    -0.085  0.4364  0.7871  0.4359
              Bcc     0.0022     1.149     0.410     0.383 -0.1887 -0.3937  0.8997
 
              Baa    -0.0264    -3.548    -1.266    -1.184  0.9965  0.0564 -0.0618
    55 C(13)  Bbb     0.0120     1.605     0.573     0.535 -0.0732  0.9454 -0.3176
              Bcc     0.0145     1.943     0.693     0.648  0.0405  0.3210  0.9462
 
              Baa    -0.0014    -0.734    -0.262    -0.245  0.8266  0.4305 -0.3624
    56 H(1)   Bbb    -0.0001    -0.038    -0.014    -0.013 -0.5534  0.7386 -0.3850
              Bcc     0.0014     0.772     0.276     0.258  0.1019  0.5188  0.8488
 
              Baa    -0.0414    -5.555    -1.982    -1.853  0.1204  0.8569  0.5012
    57 C(13)  Bbb    -0.0366    -4.910    -1.752    -1.638 -0.0388 -0.5004  0.8649
              Bcc     0.0780    10.465     3.734     3.491  0.9920 -0.1236 -0.0270
 
              Baa    -0.0062    -3.293    -1.175    -1.098  0.0821  0.8668  0.4919
    58 H(1)   Bbb    -0.0005    -0.282    -0.101    -0.094  0.9909 -0.1237  0.0525
              Bcc     0.0067     3.575     1.276     1.193 -0.1063 -0.4831  0.8691
 
              Baa    -0.0160    -2.147    -0.766    -0.716 -0.0554  0.1394  0.9887
    59 C(13)  Bbb    -0.0147    -1.978    -0.706    -0.660  0.0017  0.9902 -0.1395
              Bcc     0.0307     4.125     1.472     1.376  0.9985  0.0060  0.0551
 
              Baa    -0.0028    -1.510    -0.539    -0.504 -0.0517  0.2812  0.9583
    60 H(1)   Bbb    -0.0009    -0.486    -0.173    -0.162  0.9819 -0.1607  0.1001
              Bcc     0.0037     1.996     0.712     0.666  0.1821  0.9461 -0.2678
 
              Baa    -0.0264    -3.548    -1.266    -1.183  0.9965 -0.0563 -0.0618
    61 C(13)  Bbb     0.0120     1.605     0.573     0.535  0.0732  0.9447  0.3196
              Bcc     0.0145     1.943     0.693     0.648  0.0404 -0.3230  0.9455
 
              Baa    -0.0014    -0.734    -0.262    -0.245  0.8266 -0.4298 -0.3633
    62 H(1)   Bbb    -0.0001    -0.038    -0.014    -0.013  0.5534  0.7378  0.3866
              Bcc     0.0014     0.772     0.275     0.258  0.1019 -0.5206  0.8477
 
              Baa    -0.0042    -0.558    -0.199    -0.186 -0.2103  0.9762  0.0523
    63 C(13)  Bbb    -0.0034    -0.455    -0.162    -0.152  0.1328 -0.0245  0.9908
              Bcc     0.0075     1.012     0.361     0.338  0.9686  0.2153 -0.1245
 
              Baa    -0.0014    -0.728    -0.260    -0.243  0.7515 -0.4932  0.4382
    64 H(1)   Bbb    -0.0009    -0.494    -0.176    -0.165 -0.6226 -0.3106  0.7182
              Bcc     0.0023     1.222     0.436     0.408  0.2181  0.8126  0.5405
 
              Baa    -0.0360    -4.825    -1.722    -1.609  0.1480  0.9874 -0.0559
    65 C(13)  Bbb    -0.0344    -4.617    -1.647    -1.540  0.0102  0.0550  0.9984
              Bcc     0.0704     9.441     3.369     3.149  0.9889 -0.1484 -0.0019
 
              Baa    -0.0036    -1.911    -0.682    -0.637  0.2649 -0.2637  0.9275
    66 H(1)   Bbb    -0.0006    -0.319    -0.114    -0.106  0.9531 -0.0741 -0.2933
              Bcc     0.0042     2.229     0.795     0.744  0.1461  0.9617  0.2318
 
              Baa    -0.0202    -2.714    -0.969    -0.905  0.9921 -0.1198  0.0377
    67 C(13)  Bbb     0.0087     1.173     0.419     0.391  0.0782  0.8241  0.5611
              Bcc     0.0115     1.541     0.550     0.514 -0.0982 -0.5537  0.8269
 
              Baa    -0.0008    -0.452    -0.161    -0.151  0.9421  0.0260  0.3342
    68 H(1)   Bbb     0.0001     0.042     0.015     0.014 -0.2445  0.7354  0.6320
              Bcc     0.0008     0.411     0.146     0.137 -0.2293 -0.6771  0.6992
 

 ---------------------------------------------------------------------------------

 No NMR shielding tensors so no spin-rotation constants.
 Leave Link  601 at Fri Nov  8 09:44:02 2024, MaxMem=  3221225472 cpu:              31.6 elap:               1.1
 (Enter /home/szhao/Apps/g16/l9999.exe)
 1\1\GINC-NODE06\FOpt\UM062X\6-311+G(d,p)\C42H26(1+,2)\SZHAO\08-Nov-202
 4\0\\#p opt UM062X/6-311+G** nosymm int=superfine\\Title Card Required
 \\1,2\C,-1.6406296334,0.,0.\C,1.6406296334,0.,0.\C,-0.0000094896,-2.05
 54510706,-0.0021842578\C,-0.0000178657,-3.4566335447,-0.0037102553\C,-
 1.132900127,-4.2896473943,0.1934194365\C,-1.3223114309,-1.4662327422,0
 .1641970989\C,0.6645773822,-5.6827326889,-0.1250069564\H,1.2971173776,
 -6.5510295328,-0.242070427\C,-1.6610392412,0.7644571079,1.2207421565\C
 ,-0.6646458446,-5.6829828308,0.1127863616\H,-1.297173744,-6.5515213407
 ,0.2281056338\C,1.1328504799,-4.2892313948,-0.2026319282\C,1.322290972
 7,-1.4658835219,-0.1672779698\C,1.7856804885,2.1916891513,-1.337698881
 5\C,-1.753374485,0.4095387033,-1.3742063828\C,-1.8414980339,2.76908475
 24,2.6228534898\H,-1.9533861333,3.8451447743,2.6886876809\C,-2.3477719
 409,-3.7030864171,0.4133408546\H,-3.2497912788,-4.2795114533,0.5825697
 492\C,-1.7456186106,1.7568313153,-1.8686770219\C,2.4111336178,-2.28649
 43926,-0.3884633558\H,3.3808129061,-1.8132871761,-0.507089951\C,1.7534
 06184,0.40665593,1.3750591094\C,1.7456564806,1.7529025623,1.8723633944
 \C,2.3477575623,-3.7022062936,-0.4211382361\H,3.2497855494,-4.27827180
 99,-0.5915383367\C,-1.7858979305,2.1888647547,1.3422941963\C,-1.516187
 3288,0.0422499285,2.442549024\H,-1.374580535,-1.027025346,2.4077118297
 \C,1.8242095515,-0.6279028474,2.3619523756\H,1.8592636662,-1.659064096
 3,2.0452150906\C,-1.7513144533,2.0240779268,3.7801744196\H,-1.80715739
 29,2.5070796069,4.7481507542\C,-2.4111401696,-2.2873041573,0.383722688
 \H,-3.3808076075,-1.8143440739,0.5034268864\C,-1.7674107109,1.98025328
 34,-3.2600875787\H,-1.7433088626,3.0060291423,-3.6091951161\C,1.661000
 5018,0.7670177898,-1.2191410936\C,-1.7878438101,3.1359442033,0.2592414
 432\H,-1.8153163587,4.1714325754,0.5843110766\C,-1.8358902372,0.955189
 4968,-4.1754569988\H,-1.8688898261,1.1700317591,-5.2366958596\C,-1.738
 1635879,2.9554251675,-1.0757893403\H,-1.721358199,3.8678428553,-1.6642
 368503\C,1.7676490532,1.9733993904,3.2642383602\H,1.7435799759,2.99843
 78204,3.615507722\C,-1.566613171,0.6435944825,3.6797935521\H,-1.460743
 0918,0.0377321705,4.5715173395\C,-1.824104616,-0.6229402743,-2.3632787
 457\H,-1.8592197681,-1.6547609263,-2.048702352\C,1.8362663345,0.946413
 2674,4.1774418171\H,1.8694371682,1.1590305687,5.2391234996\C,1.8412822
 063,2.7746035195,-2.6170336079\H,1.9530259448,3.8508156284,-2.68059749
 \C,1.8816606232,-0.3723730629,3.710022843\H,1.9576644902,-1.1983771281
 ,4.4066184562\C,1.7512855546,2.0320155836,-3.7759208394\H,1.807151615,
 2.5170546227,-4.7428765903\C,1.7873979218,3.1364929502,-0.2526564326\H
 ,1.8145784897,4.1726697298,-0.5755510761\C,-1.8813943964,-0.3645738494
 ,-3.7108163171\H,-1.9573684979,-1.1891088096,-4.4091528126\C,1.7378790
 621,2.9531598827,1.0819964174\H,1.7209256621,3.8643365522,1.6723596683
 \C,1.5162604084,0.047364312,-2.4424650215\H,1.3747402226,-1.0219937246
 ,-2.4098817022\C,1.5667136247,0.6513038837,-3.6784432019\H,1.460957646
 2,0.047296892,-4.5714375272\\Version=ES64L-G16RevA.03\HF=-1615.5773609
 \S2=0.767444\S2-1=0.\S2A=0.750269\RMSD=8.619e-09\RMSF=2.658e-06\Dipole
 =-0.0000816,1.0936181,0.0012351\Quadrupole=-23.1492134,12.1400352,11.0
 091782,-0.0022652,0.4845847,0.0010748\PG=C01 [X(C42H26)]\\@


 ... I FELL INTO A REVERIE ... THE ATOMS WERE GAMBOLING BEFORE MY EYES
 ... I SAW HOW TWO SMALL ONES UNITED TO FORM A PAIR;
 HOW THE LARGER ONES SEIZED TWO OF THE SMALLER ONES;
 HOW STILL LARGER ONES KEPT HOLD OF THREE OR FOUR
 SMALLER ONES ... I SAW HOW THE LARGER ONES FORMED A CHAIN ...
 THIS WAS THE ORIGIN OF THE STRUCTURE THEORY.

                                   -- C.F.KEKULE VON STRADONITZ
 Job cpu time:      19 days  5 hours 41 minutes 47.9 seconds.
 Elapsed time:       0 days 14 hours 29 minutes 53.0 seconds.
 File lengths (MBytes):  RWF=   1251 Int=      0 D2E=      0 Chk=    111 Scr=      2
 Normal termination of Gaussian 16 at Fri Nov  8 09:44:05 2024.
