 Entering Gaussian System, Link 0=g16
 Initial command:
 /home/szhao/Apps/g16/l1.exe "/home/szhao/tmp/Gau-50325.inp" -scrdir="/home/szhao/tmp/"
 Default is to use a total of  16 processors:
                               16 via shared-memory
                                1 via Linda
 Entering Link 1 = /home/szhao/Apps/g16/l1.exe PID=     50327.
  
 Copyright (c) 1988,1990,1992,1993,1995,1998,2003,2009,2016,
            Gaussian, Inc.  All Rights Reserved.
  
 This is part of the Gaussian(R) 16 program.  It is based on
 the Gaussian(R) 09 system (copyright 2009, Gaussian, Inc.),
 the Gaussian(R) 03 system (copyright 2003, Gaussian, Inc.),
 the Gaussian(R) 98 system (copyright 1998, Gaussian, Inc.),
 the Gaussian(R) 94 system (copyright 1995, Gaussian, Inc.),
 the Gaussian 92(TM) system (copyright 1992, Gaussian, Inc.),
 the Gaussian 90(TM) system (copyright 1990, Gaussian, Inc.),
 the Gaussian 88(TM) system (copyright 1988, Gaussian, Inc.),
 the Gaussian 86(TM) system (copyright 1986, Carnegie Mellon
 University), and the Gaussian 82(TM) system (copyright 1983,
 Carnegie Mellon University). Gaussian is a federally registered
 trademark of Gaussian, Inc.
  
 This software contains proprietary and confidential information,
 including trade secrets, belonging to Gaussian, Inc.
  
 This software is provided under written license and may be
 used, copied, transmitted, or stored only in accord with that
 written license.
  
 The following legend is applicable only to US Government
 contracts under FAR:
  
                    RESTRICTED RIGHTS LEGEND
  
 Use, reproduction and disclosure by the US Government is
 subject to restrictions as set forth in subparagraphs (a)
 and (c) of the Commercial Computer Software - Restricted
 Rights clause in FAR 52.227-19.
  
 Gaussian, Inc.
 340 Quinnipiac St., Bldg. 40, Wallingford CT 06492
  
  
 ---------------------------------------------------------------
 Warning -- This program may not be used in any manner that
 competes with the business of Gaussian, Inc. or will provide
 assistance to any competitor of Gaussian, Inc.  The licensee
 of this program is prohibited from giving any competitor of
 Gaussian, Inc. access to this program.  By using this program,
 the user acknowledges that Gaussian, Inc. is engaged in the
 business of creating and licensing software in the field of
 computational chemistry and represents and warrants to the
 licensee that it is not a competitor of Gaussian, Inc. and that
 it will not use this program in any manner prohibited above.
 ---------------------------------------------------------------
  

 Cite this work as:
 Gaussian 16, Revision A.03,
 M. J. Frisch, G. W. Trucks, H. B. Schlegel, G. E. Scuseria, 
 M. A. Robb, J. R. Cheeseman, G. Scalmani, V. Barone, 
 G. A. Petersson, H. Nakatsuji, X. Li, M. Caricato, A. V. Marenich, 
 J. Bloino, B. G. Janesko, R. Gomperts, B. Mennucci, H. P. Hratchian, 
 J. V. Ortiz, A. F. Izmaylov, J. L. Sonnenberg, D. Williams-Young, 
 F. Ding, F. Lipparini, F. Egidi, J. Goings, B. Peng, A. Petrone, 
 T. Henderson, D. Ranasinghe, V. G. Zakrzewski, J. Gao, N. Rega, 
 G. Zheng, W. Liang, M. Hada, M. Ehara, K. Toyota, R. Fukuda, 
 J. Hasegawa, M. Ishida, T. Nakajima, Y. Honda, O. Kitao, H. Nakai, 
 T. Vreven, K. Throssell, J. A. Montgomery, Jr., J. E. Peralta, 
 F. Ogliaro, M. J. Bearpark, J. J. Heyd, E. N. Brothers, K. N. Kudin, 
 V. N. Staroverov, T. A. Keith, R. Kobayashi, J. Normand, 
 K. Raghavachari, A. P. Rendell, J. C. Burant, S. S. Iyengar, 
 J. Tomasi, M. Cossi, J. M. Millam, M. Klene, C. Adamo, R. Cammi, 
 J. W. Ochterski, R. L. Martin, K. Morokuma, O. Farkas, 
 J. B. Foresman, and D. J. Fox, Gaussian, Inc., Wallingford CT, 2016.
 
 ******************************************
 Gaussian 16:  ES64L-G16RevA.03 25-Dec-2016
                15-May-2025 
 ******************************************
 %chk=opt.chk
 %mem=4GB
 %nprocshared=8
 Will use up to    8 processors via shared memory.
 --------------------------------------------
 #p opt UM062X/6-311+G** nosymm int=superfine
 --------------------------------------------
 1/18=20,19=15,26=5,38=1/1,3;
 2/9=110,12=2,15=1,17=6,18=5,40=1/2;
 3/5=4,6=6,7=111,11=2,25=1,30=1,71=1,74=-55,75=-7,116=2/1,2,3;
 4//1;
 5/5=2,38=5/2;
 6/7=2,8=2,9=2,10=2,28=1/1;
 7/30=1/1,2,3,16;
 1/18=20,19=15,26=5/3(2);
 2/9=110,15=1/2;
 99//99;
 2/9=110,15=1/2;
 3/5=4,6=6,7=111,11=2,25=1,30=1,71=1,74=-55,75=-7,116=2/1,2,3;
 4/5=5,16=3,69=1/1;
 5/5=2,38=5/2;
 7/30=1/1,2,3,16;
 1/18=20,19=15,26=5/3(-5);
 2/9=110,15=1/2;
 6/7=2,8=2,9=2,10=2,19=2,28=1/1;
 99/9=1/99;
 Leave Link    1 at Thu May 15 15:36:04 2025, MaxMem=   536870912 cpu:               0.3 elap:               0.0
 (Enter /home/szhao/Apps/g16/l101.exe)
 -------------------
 Title Card Required
 -------------------
 Symbolic Z-matrix:
 Charge =  0 Multiplicity = 1
 N                    -1   -1.19043   0.        0. 
 N                    -1    1.19043   0.        0. 
 H                    0    -1.49106  -0.98793   0. 
 H                    0     1.49106   0.98793   0. 
 
 Add virtual bond connecting atoms N2         and N1         Dist= 4.50D+00.
 ITRead=  2  2  0  0
 MicOpt= -2 -2 -1 -1
 NAtoms=      4 NQM=        2 NQMF=       2 NMMI=      0 NMMIF=      0
                NMic=       0 NMicF=      0.
                    Isotopes and Nuclear Properties:
 (Nuclear quadrupole moments (NQMom) in fm**2, nuclear magnetic moments (NMagM)
  in nuclear magnetons)

  Atom         1           2           3           4
 IAtWgt=          14          14           1           1
 AtmWgt=  14.0030740  14.0030740   1.0078250   1.0078250
 NucSpn=           2           2           1           1
 AtZEff=  -0.0000000  -0.0000000  -0.0000000  -0.0000000
 NQMom=    2.0440000   2.0440000   0.0000000   0.0000000
 NMagM=    0.4037610   0.4037610   2.7928460   2.7928460
 AtZNuc=   7.0000000   7.0000000   1.0000000   1.0000000
 Leave Link  101 at Thu May 15 15:36:04 2025, MaxMem=   536870912 cpu:               2.4 elap:               0.3
 (Enter /home/szhao/Apps/g16/l103.exe)

 GradGradGradGradGradGradGradGradGradGradGradGradGradGradGradGradGradGrad
 Berny optimization.
 Initialization pass.
                           ----------------------------
                           !    Initial Parameters    !
                           ! (Angstroms and Degrees)  !
 --------------------------                            --------------------------
 ! Name  Definition              Value          Derivative Info.                !
 --------------------------------------------------------------------------------
 ! X1    R(1,-1)                -1.1904         Frozen                          !
 ! Y1    R(1,-2)                 0.0            Frozen                          !
 ! Z1    R(1,-3)                 0.0            Frozen                          !
 ! X2    R(2,-1)                 1.1904         Frozen                          !
 ! Y2    R(2,-2)                 0.0            Frozen                          !
 ! Z2    R(2,-3)                 0.0            Frozen                          !
 ! R1    R(1,3)                  1.0327         estimate D2E/DX2                !
 ! R2    R(2,4)                  1.0327         estimate D2E/DX2                !
 ! A1    A(2,1,3)              106.9253         estimate D2E/DX2                !
 ! A2    A(1,2,4)              106.9253         estimate D2E/DX2                !
 ! D1    D(3,1,2,4)            180.0            estimate D2E/DX2                !
 --------------------------------------------------------------------------------
 Trust Radius=3.00D-01 FncErr=1.00D-07 GrdErr=1.00D-07 EigMax=2.50D+02 EigMin=1.00D-04
 Number of steps in this run=     21 maximum allowed number of steps=    100.
 GradGradGradGradGradGradGradGradGradGradGradGradGradGradGradGradGradGrad

 Leave Link  103 at Thu May 15 15:36:04 2025, MaxMem=   536870912 cpu:               0.1 elap:               0.0
 (Enter /home/szhao/Apps/g16/l202.exe)
                          Input orientation:                          
 ---------------------------------------------------------------------
 Center     Atomic      Atomic             Coordinates (Angstroms)
 Number     Number       Type             X           Y           Z
 ---------------------------------------------------------------------
      1          7           0       -1.190428    0.000000    0.000000
      2          7           0        1.190428    0.000000    0.000000
      3          1           0       -1.491061   -0.987932    0.000000
      4          1           0        1.491061    0.987932    0.000000
 ---------------------------------------------------------------------
                    Distance matrix (angstroms):
                    1          2          3          4
     1  N    0.000000
     2  N    2.380856   0.000000
     3  H    1.032662   2.857690   0.000000
     4  H    2.857690   1.032662   3.577303   0.000000
 Symmetry turned off by external request.
 Stoichiometry    H2N2
 Framework group  C2H[SGH(H2N2)]
 Deg. of freedom     3
 Full point group                 C2H     NOp   4
 Rotational constants (GHZ):         287.2421561          11.3882483          10.9539583
 Leave Link  202 at Thu May 15 15:36:04 2025, MaxMem=   536870912 cpu:               0.1 elap:               0.0
 (Enter /home/szhao/Apps/g16/l301.exe)
 Standard basis: 6-311+G(d,p) (5D, 7F)
 Ernie: Thresh=  0.10000D-02 Tol=  0.10000D-05 Strict=F.
    56 basis functions,    88 primitive gaussians,    58 cartesian basis functions
     8 alpha electrons        8 beta electrons
       nuclear repulsion energy        20.8054643677 Hartrees.
 IExCor= 4336 DFT=T Ex+Corr=M062X ExCW=0 ScaHFX=  0.540000
 ScaDFX=  1.000000  1.000000  1.000000  1.000000 ScalE2=  1.000000  1.000000
 IRadAn=      7 IRanWt=     -1 IRanGd=            0 ICorTp=0 IEmpDi=  4
 NAtoms=    4 NActive=    4 NUniq=    4 SFac= 1.00D+00 NAtFMM=   60 NAOKFM=F Big=F
 Integral buffers will be    131072 words long.
 Raffenetti 2 integral format.
 Two-electron integral symmetry is turned off.
 Leave Link  301 at Thu May 15 15:36:04 2025, MaxMem=   536870912 cpu:               0.3 elap:               0.0
 (Enter /home/szhao/Apps/g16/l302.exe)
 NPDir=0 NMtPBC=     1 NCelOv=     1 NCel=       1 NClECP=     1 NCelD=      1
         NCelK=      1 NCelE2=     1 NClLst=     1 CellRange=     0.0.
 One-electron integrals computed using PRISM.
 NBasis=    56 RedAO= T EigKep=  5.03D-03  NBF=    56
 NBsUse=    56 1.00D-06 EigRej= -1.00D+00 NBFU=    56
 Precomputing XC quadrature grid using
 IXCGrd= 4 IRadAn=           7 IRanWt=          -1 IRanGd=           0 AccXCQ= 0.00D+00.
 Generated NRdTot=       0 NPtTot=           0 NUsed=           0 NTot=          32
 NSgBfM=    58    58    58    58    58 MxSgAt=     4 MxSgA2=     4.
 Leave Link  302 at Thu May 15 15:36:04 2025, MaxMem=   536870912 cpu:               0.9 elap:               0.1
 (Enter /home/szhao/Apps/g16/l303.exe)
 DipDrv:  MaxL=1.
 Leave Link  303 at Thu May 15 15:36:04 2025, MaxMem=   536870912 cpu:               0.3 elap:               0.0
 (Enter /home/szhao/Apps/g16/l401.exe)
 ExpMin= 6.39D-02 ExpMax= 6.29D+03 ExpMxC= 9.49D+02 IAcc=3 IRadAn=         7 AccDes= 0.00D+00
 Harris functional with IExCor= 1009 and IRadAn=       7 diagonalized for initial guess.
 HarFok:  IExCor= 1009 AccDes= 0.00D+00 IRadAn=         7 IDoV= 1 UseB2=F ITyADJ=14
 ICtDFT=  3500011 ScaDFX=  1.000000  1.000000  1.000000  1.000000
 FoFCou: FMM=F IPFlag=           0 FMFlag=      100000 FMFlg1=           0
         NFxFlg=           0 DoJE=T BraDBF=F KetDBF=T FulRan=T
         wScrn=  0.000000 ICntrl=       500 IOpCl=  0 I1Cent=   200000004 NGrid=           0
         NMat0=    1 NMatS0=      1 NMatT0=    0 NMatD0=    1 NMtDS0=    0 NMtDT0=    0
 Symmetry not used in FoFCou.
 Harris En= -110.290532526163    
 JPrj=0 DoOrth=F DoCkMO=F.
 Initial guess <Sx>= 0.0000 <Sy>= 0.0000 <Sz>= 0.0000 <S**2>=-0.0000 S=-0.0000
 Leave Link  401 at Thu May 15 15:36:05 2025, MaxMem=   536870912 cpu:               1.6 elap:               0.2
 (Enter /home/szhao/Apps/g16/l502.exe)
 Keep R1 and R2 ints in memory in canonical form, NReq=9624198.
 FoFCou: FMM=F IPFlag=           0 FMFlag=           0 FMFlg1=           0
         NFxFlg=           0 DoJE=F BraDBF=F KetDBF=F FulRan=T
         wScrn=  0.000000 ICntrl=       600 IOpCl=  0 I1Cent=           0 NGrid=           0
         NMat0=    1 NMatS0=   1596 NMatT0=    0 NMatD0=    1 NMtDS0=    0 NMtDT0=    0
 Symmetry not used in FoFCou.
 Two-electron integral symmetry not used.
 UHF open shell SCF:
 Using DIIS extrapolation, IDIIS=  1040.
 NGot=   536870912 LenX=   534314338 LenY=   534310533
 Requested convergence on RMS density matrix=1.00D-08 within 128 cycles.
 Requested convergence on MAX density matrix=1.00D-06.
 Requested convergence on             energy=1.00D-06.
 No special actions if energy rises.
 Integral accuracy reduced to 1.0D-05 until final iterations.

 Cycle   1  Pass 0  IDiag  1:
 E= -110.288926105035    
 DIIS: error= 2.02D-02 at cycle   1 NSaved=   1.
 NSaved= 1 IEnMin= 1 EnMin= -110.288926105035     IErMin= 1 ErrMin= 2.02D-02
 ErrMax= 2.02D-02  0.00D+00 EMaxC= 1.00D-01 BMatC= 9.39D-02 BMatP= 9.39D-02
 IDIUse=3 WtCom= 7.98D-01 WtEn= 2.02D-01
 Coeff-Com:  0.100D+01
 Coeff-En:   0.100D+01
 Coeff:      0.100D+01
 Gap=     0.144 Goal=   None    Shift=    0.000
 Gap=     0.144 Goal=   None    Shift=    0.000
 GapD=    0.144 DampG=1.000 DampE=0.500 DampFc=0.5000 IDamp=-1.
 Damping current iteration by 5.00D-01
 RMSDP=1.36D-03 MaxDP=9.70D-03              OVMax= 3.61D-02

 Cycle   2  Pass 0  IDiag  1:
 E= -110.292861436871     Delta-E=       -0.003935331836 Rises=F Damp=T
 DIIS: error= 1.07D-02 at cycle   2 NSaved=   2.
 NSaved= 2 IEnMin= 2 EnMin= -110.292861436871     IErMin= 2 ErrMin= 1.07D-02
 ErrMax= 1.07D-02  0.00D+00 EMaxC= 1.00D-01 BMatC= 2.08D-02 BMatP= 9.39D-02
 IDIUse=3 WtCom= 8.93D-01 WtEn= 1.07D-01
 Coeff-Com: -0.761D+00 0.176D+01
 Coeff-En:   0.000D+00 0.100D+01
 Coeff:     -0.680D+00 0.168D+01
 Gap=     0.142 Goal=   None    Shift=    0.000
 Gap=     0.142 Goal=   None    Shift=    0.000
 RMSDP=7.62D-04 MaxDP=1.56D-02 DE=-3.94D-03 OVMax= 1.44D-02

 Cycle   3  Pass 0  IDiag  1:
 E= -110.296575471485     Delta-E=       -0.003714034615 Rises=F Damp=F
 DIIS: error= 3.49D-03 at cycle   3 NSaved=   3.
 NSaved= 3 IEnMin= 3 EnMin= -110.296575471485     IErMin= 3 ErrMin= 3.49D-03
 ErrMax= 3.49D-03  0.00D+00 EMaxC= 1.00D-01 BMatC= 1.34D-03 BMatP= 2.08D-02
 IDIUse=3 WtCom= 9.65D-01 WtEn= 3.49D-02
 Coeff-Com: -0.321D+00 0.650D+00 0.670D+00
 Coeff-En:   0.000D+00 0.000D+00 0.100D+01
 Coeff:     -0.310D+00 0.628D+00 0.682D+00
 Gap=     0.142 Goal=   None    Shift=    0.000
 Gap=     0.142 Goal=   None    Shift=    0.000
 RMSDP=2.30D-04 MaxDP=3.46D-03 DE=-3.71D-03 OVMax= 6.90D-03

 Cycle   4  Pass 0  IDiag  1:
 E= -110.296879944970     Delta-E=       -0.000304473484 Rises=F Damp=F
 DIIS: error= 2.24D-04 at cycle   4 NSaved=   4.
 NSaved= 4 IEnMin= 4 EnMin= -110.296879944970     IErMin= 4 ErrMin= 2.24D-04
 ErrMax= 2.24D-04  0.00D+00 EMaxC= 1.00D-01 BMatC= 1.92D-05 BMatP= 1.34D-03
 IDIUse=3 WtCom= 9.98D-01 WtEn= 2.24D-03
 Coeff-Com:  0.418D-02-0.134D-01 0.788D-01 0.930D+00
 Coeff-En:   0.000D+00 0.000D+00 0.000D+00 0.100D+01
 Coeff:      0.417D-02-0.134D-01 0.787D-01 0.931D+00
 Gap=     0.142 Goal=   None    Shift=    0.000
 Gap=     0.142 Goal=   None    Shift=    0.000
 RMSDP=3.68D-05 MaxDP=6.01D-04 DE=-3.04D-04 OVMax= 1.25D-03

 Cycle   5  Pass 0  IDiag  1:
 E= -110.296885684237     Delta-E=       -0.000005739267 Rises=F Damp=F
 DIIS: error= 6.42D-05 at cycle   5 NSaved=   5.
 NSaved= 5 IEnMin= 5 EnMin= -110.296885684237     IErMin= 5 ErrMin= 6.42D-05
 ErrMax= 6.42D-05  0.00D+00 EMaxC= 1.00D-01 BMatC= 4.09D-07 BMatP= 1.92D-05
 IDIUse=1 WtCom= 1.00D+00 WtEn= 0.00D+00
 Coeff-Com:  0.160D-01-0.323D-01-0.290D-01-0.188D-01 0.106D+01
 Coeff:      0.160D-01-0.323D-01-0.290D-01-0.188D-01 0.106D+01
 Gap=     0.142 Goal=   None    Shift=    0.000
 Gap=     0.142 Goal=   None    Shift=    0.000
 RMSDP=1.37D-05 MaxDP=7.55D-05 DE=-5.74D-06 OVMax= 7.34D-04

 Cycle   6  Pass 0  IDiag  1:
 E= -110.296886225445     Delta-E=       -0.000000541208 Rises=F Damp=F
 DIIS: error= 1.75D-05 at cycle   6 NSaved=   6.
 NSaved= 6 IEnMin= 6 EnMin= -110.296886225445     IErMin= 6 ErrMin= 1.75D-05
 ErrMax= 1.75D-05  0.00D+00 EMaxC= 1.00D-01 BMatC= 6.62D-08 BMatP= 4.09D-07
 IDIUse=1 WtCom= 1.00D+00 WtEn= 0.00D+00
 Coeff-Com: -0.117D-02 0.256D-02-0.354D-02-0.605D-01-0.183D-01 0.108D+01
 Coeff:     -0.117D-02 0.256D-02-0.354D-02-0.605D-01-0.183D-01 0.108D+01
 Gap=     0.142 Goal=   None    Shift=    0.000
 Gap=     0.142 Goal=   None    Shift=    0.000
 RMSDP=4.34D-06 MaxDP=2.56D-05 DE=-5.41D-07 OVMax= 2.66D-04

 Initial convergence to 1.0D-05 achieved.  Increase integral accuracy.
 Cycle   7  Pass 1  IDiag  1:
 E= -110.296886789267     Delta-E=       -0.000000563822 Rises=F Damp=F
 DIIS: error= 5.32D-06 at cycle   1 NSaved=   1.
 NSaved= 1 IEnMin= 1 EnMin= -110.296886789267     IErMin= 1 ErrMin= 5.32D-06
 ErrMax= 5.32D-06  0.00D+00 EMaxC= 1.00D-01 BMatC= 5.54D-09 BMatP= 5.54D-09
 IDIUse=1 WtCom= 1.00D+00 WtEn= 0.00D+00
 Coeff-Com:  0.100D+01
 Coeff:      0.100D+01
 Gap=     0.142 Goal=   None    Shift=    0.000
 Gap=     0.142 Goal=   None    Shift=    0.000
 RMSDP=4.34D-06 MaxDP=2.56D-05 DE=-5.64D-07 OVMax= 6.89D-05

 Cycle   8  Pass 1  IDiag  1:
 E= -110.296886795057     Delta-E=       -0.000000005790 Rises=F Damp=F
 DIIS: error= 2.29D-06 at cycle   2 NSaved=   2.
 NSaved= 2 IEnMin= 2 EnMin= -110.296886795057     IErMin= 2 ErrMin= 2.29D-06
 ErrMax= 2.29D-06  0.00D+00 EMaxC= 1.00D-01 BMatC= 1.22D-09 BMatP= 5.54D-09
 IDIUse=1 WtCom= 1.00D+00 WtEn= 0.00D+00
 Coeff-Com: -0.162D-01 0.102D+01
 Coeff:     -0.162D-01 0.102D+01
 Gap=     0.142 Goal=   None    Shift=    0.000
 Gap=     0.142 Goal=   None    Shift=    0.000
 RMSDP=5.18D-07 MaxDP=3.10D-06 DE=-5.79D-09 OVMax= 3.02D-05

 Cycle   9  Pass 1  IDiag  1:
 E= -110.296886796183     Delta-E=       -0.000000001126 Rises=F Damp=F
 DIIS: error= 1.57D-06 at cycle   3 NSaved=   3.
 NSaved= 3 IEnMin= 3 EnMin= -110.296886796183     IErMin= 3 ErrMin= 1.57D-06
 ErrMax= 1.57D-06  0.00D+00 EMaxC= 1.00D-01 BMatC= 3.41D-10 BMatP= 1.22D-09
 IDIUse=1 WtCom= 1.00D+00 WtEn= 0.00D+00
 Coeff-Com: -0.214D+00 0.244D+00 0.969D+00
 Coeff:     -0.214D+00 0.244D+00 0.969D+00
 Gap=     0.142 Goal=   None    Shift=    0.000
 Gap=     0.142 Goal=   None    Shift=    0.000
 RMSDP=3.15D-07 MaxDP=3.51D-06 DE=-1.13D-09 OVMax= 2.03D-05

 Cycle  10  Pass 1  IDiag  1:
 E= -110.296886796486     Delta-E=       -0.000000000304 Rises=F Damp=F
 DIIS: error= 3.60D-07 at cycle   4 NSaved=   4.
 NSaved= 4 IEnMin= 4 EnMin= -110.296886796486     IErMin= 4 ErrMin= 3.60D-07
 ErrMax= 3.60D-07  0.00D+00 EMaxC= 1.00D-01 BMatC= 3.12D-11 BMatP= 3.41D-10
 IDIUse=1 WtCom= 1.00D+00 WtEn= 0.00D+00
 Coeff-Com: -0.108D-01-0.111D+00 0.190D+00 0.932D+00
 Coeff:     -0.108D-01-0.111D+00 0.190D+00 0.932D+00
 Gap=     0.142 Goal=   None    Shift=    0.000
 Gap=     0.142 Goal=   None    Shift=    0.000
 RMSDP=8.00D-08 MaxDP=8.04D-07 DE=-3.04D-10 OVMax= 4.58D-06

 Cycle  11  Pass 1  IDiag  1:
 E= -110.296886796501     Delta-E=       -0.000000000014 Rises=F Damp=F
 DIIS: error= 4.96D-07 at cycle   5 NSaved=   5.
 NSaved= 5 IEnMin= 5 EnMin= -110.296886796501     IErMin= 4 ErrMin= 3.60D-07
 ErrMax= 4.96D-07  0.00D+00 EMaxC= 1.00D-01 BMatC= 1.70D-11 BMatP= 3.12D-11
 IDIUse=1 WtCom= 1.00D+00 WtEn= 0.00D+00
 Coeff-Com: -0.192D-02-0.912D-01 0.113D+00 0.665D+00 0.315D+00
 Coeff:     -0.192D-02-0.912D-01 0.113D+00 0.665D+00 0.315D+00
 Gap=     0.142 Goal=   None    Shift=    0.000
 Gap=     0.142 Goal=   None    Shift=    0.000
 RMSDP=3.57D-08 MaxDP=4.70D-07 DE=-1.43D-11 OVMax= 2.38D-06

 Cycle  12  Pass 1  IDiag  1:
 E= -110.296886796496     Delta-E=        0.000000000005 Rises=F Damp=F
 DIIS: error= 7.69D-07 at cycle   6 NSaved=   6.
 NSaved= 6 IEnMin= 5 EnMin= -110.296886796501     IErMin= 4 ErrMin= 3.60D-07
 ErrMax= 7.69D-07  0.00D+00 EMaxC= 1.00D-01 BMatC= 3.86D-11 BMatP= 1.70D-11
 IDIUse=1 WtCom= 1.00D+00 WtEn= 0.00D+00
 Coeff-Com:  0.110D-01-0.379D-01-0.261D-01 0.913D-01 0.590D+00 0.372D+00
 Coeff:      0.110D-01-0.379D-01-0.261D-01 0.913D-01 0.590D+00 0.372D+00
 Gap=     0.142 Goal=   None    Shift=    0.000
 Gap=     0.142 Goal=   None    Shift=    0.000
 RMSDP=2.43D-08 MaxDP=2.94D-07 DE= 4.86D-12 OVMax= 1.46D-06

 Cycle  13  Pass 1  IDiag  1:
 E= -110.296886796505     Delta-E=       -0.000000000009 Rises=F Damp=F
 DIIS: error= 5.74D-09 at cycle   7 NSaved=   7.
 NSaved= 7 IEnMin= 7 EnMin= -110.296886796505     IErMin= 7 ErrMin= 5.74D-09
 ErrMax= 5.74D-09  0.00D+00 EMaxC= 1.00D-01 BMatC= 7.95D-15 BMatP= 1.70D-11
 IDIUse=1 WtCom= 1.00D+00 WtEn= 0.00D+00
 Coeff-Com:  0.575D-03-0.205D-04-0.192D-02-0.102D-01 0.341D-01 0.283D-01
 Coeff-Com:  0.949D+00
 Coeff:      0.575D-03-0.205D-04-0.192D-02-0.102D-01 0.341D-01 0.283D-01
 Coeff:      0.949D+00
 Gap=     0.142 Goal=   None    Shift=    0.000
 Gap=     0.142 Goal=   None    Shift=    0.000
 RMSDP=1.08D-09 MaxDP=1.49D-08 DE=-9.24D-12 OVMax= 2.66D-08

 SCF Done:  E(UM062X) =  -110.296886797     A.U. after   13 cycles
            NFock= 13  Conv=0.11D-08     -V/T= 2.0070
 <Sx>= 0.0000 <Sy>= 0.0000 <Sz>= 0.0000 <S**2>=-0.0000 S=-0.0000
 <L.S>=  0.00000000000    
 KE= 1.095278811741D+02 PE=-2.996456983001D+02 EE= 5.901546596182D+01
 Annihilation of the first spin contaminant:
 S**2 before annihilation    -0.0000,   after    -0.0000
 Leave Link  502 at Thu May 15 15:36:07 2025, MaxMem=   536870912 cpu:              19.0 elap:               2.4
 (Enter /home/szhao/Apps/g16/l601.exe)
 Copying SCF densities to generalized density rwf, IOpCl= 1 IROHF=0.

 **********************************************************************

            Population analysis using the SCF density.

 **********************************************************************

 Alpha  occ. eigenvalues --  -14.88050 -14.88044  -0.93612  -0.90456  -0.49085
 Alpha  occ. eigenvalues --   -0.47838  -0.34865  -0.32030
 Alpha virt. eigenvalues --   -0.17799  -0.12970   0.05471   0.07594   0.11423
 Alpha virt. eigenvalues --    0.12684   0.14666   0.14954   0.15999   0.18970
 Alpha virt. eigenvalues --    0.20172   0.25021   0.53102   0.56250   0.72732
 Alpha virt. eigenvalues --    0.76978   0.79263   0.81655   0.81919   0.84443
 Alpha virt. eigenvalues --    0.91887   1.14987   1.28515   1.30623   1.30891
 Alpha virt. eigenvalues --    1.42868   1.90688   1.91884   1.96997   1.98376
 Alpha virt. eigenvalues --    1.99787   2.11085   2.32993   2.34987   2.35152
 Alpha virt. eigenvalues --    2.36690   2.52415   2.52790   2.93845   2.96616
 Alpha virt. eigenvalues --    3.77083   3.78077   3.80162   3.90504   4.35232
 Alpha virt. eigenvalues --    4.36374  35.30260  35.34993
  Beta  occ. eigenvalues --  -14.88050 -14.88044  -0.93612  -0.90456  -0.49085
  Beta  occ. eigenvalues --   -0.47838  -0.34865  -0.32030
  Beta virt. eigenvalues --   -0.17799  -0.12970   0.05471   0.07594   0.11423
  Beta virt. eigenvalues --    0.12684   0.14666   0.14954   0.15999   0.18970
  Beta virt. eigenvalues --    0.20172   0.25021   0.53102   0.56250   0.72732
  Beta virt. eigenvalues --    0.76978   0.79263   0.81655   0.81919   0.84443
  Beta virt. eigenvalues --    0.91887   1.14987   1.28515   1.30623   1.30891
  Beta virt. eigenvalues --    1.42868   1.90688   1.91884   1.96997   1.98376
  Beta virt. eigenvalues --    1.99787   2.11085   2.32993   2.34987   2.35152
  Beta virt. eigenvalues --    2.36690   2.52415   2.52790   2.93845   2.96616
  Beta virt. eigenvalues --    3.77083   3.78077   3.80162   3.90504   4.35232
  Beta virt. eigenvalues --    4.36374  35.30260  35.34993
          Condensed to atoms (all electrons):
               1          2          3          4
     1  N    6.789663   0.208329   0.239800   0.000052
     2  N    0.208329   6.789663   0.000052   0.239800
     3  H    0.239800   0.000052   0.521604   0.000699
     4  H    0.000052   0.239800   0.000699   0.521604
          Atomic-Atomic Spin Densities.
               1          2          3          4
     1  N    0.000000  -0.000000   0.000000   0.000000
     2  N   -0.000000  -0.000000  -0.000000  -0.000000
     3  H    0.000000  -0.000000  -0.000000  -0.000000
     4  H    0.000000  -0.000000  -0.000000   0.000000
 Mulliken charges and spin densities:
               1          2
     1  N   -0.237845   0.000000
     2  N   -0.237845  -0.000000
     3  H    0.237845  -0.000000
     4  H    0.237845   0.000000
 Sum of Mulliken charges =  -0.00000  -0.00000
 Mulliken charges and spin densities with hydrogens summed into heavy atoms:
               1          2
     1  N   -0.000000   0.000000
     2  N    0.000000  -0.000000
 Electronic spatial extent (au):  <R**2>=            120.5015
 Charge=             -0.0000 electrons
 Dipole moment (field-independent basis, Debye):
    X=              0.0000    Y=              0.0000    Z=              0.0000  Tot=              0.0000
 Quadrupole moment (field-independent basis, Debye-Ang):
   XX=            -10.5675   YY=            -11.4131   ZZ=            -14.0706
   XY=              5.5643   XZ=              0.0000   YZ=             -0.0000
 Traceless Quadrupole moment (field-independent basis, Debye-Ang):
   XX=              1.4496   YY=              0.6040   ZZ=             -2.0536
   XY=              5.5643   XZ=              0.0000   YZ=             -0.0000
 Octapole moment (field-independent basis, Debye-Ang**2):
  XXX=              0.0000  YYY=             -0.0000  ZZZ=              0.0000  XYY=              0.0000
  XXY=             -0.0000  XXZ=             -0.0000  XZZ=              0.0000  YZZ=              0.0000
  YYZ=             -0.0000  XYZ=              0.0000
 Hexadecapole moment (field-independent basis, Debye-Ang**3):
 XXXX=           -121.5907 YYYY=            -17.2119 ZZZZ=            -16.6295 XXXY=              9.4427
 XXXZ=              0.0000 YYYX=              1.3498 YYYZ=             -0.0000 ZZZX=              0.0000
 ZZZY=             -0.0000 XXYY=            -19.7689 XXZZ=            -24.7647 YYZZ=             -6.2212
 XXYZ=             -0.0000 YYXZ=              0.0000 ZZXY=             -0.9619
 N-N= 2.080546436770D+01 E-N=-2.996456983514D+02  KE= 1.095278811741D+02
                          Isotropic Fermi Contact Couplings
        Atom                 a.u.       MegaHertz       Gauss      10(-4) cm-1
     1  N(14)             -0.00000      -0.00000      -0.00000      -0.00000
     2  N(14)             -0.00000      -0.00000      -0.00000      -0.00000
     3  H(1)              -0.00000      -0.00000      -0.00000      -0.00000
     4  H(1)               0.00000       0.00000       0.00000       0.00000
 --------------------------------------------------------
       Center         ----  Spin Dipole Couplings  ----
                      3XX-RR        3YY-RR        3ZZ-RR
 --------------------------------------------------------
     1   Atom        0.000000      0.000000      0.000000
     2   Atom        0.000000      0.000000      0.000000
     3   Atom        0.000000      0.000000      0.000000
     4   Atom        0.000000      0.000000      0.000000
 --------------------------------------------------------
                        XY            XZ            YZ
 --------------------------------------------------------
     1   Atom        0.000000      0.000000      0.000000
     2   Atom        0.000000      0.000000      0.000000
     3   Atom        0.000000      0.000000      0.000000
     4   Atom        0.000000      0.000000      0.000000
 --------------------------------------------------------


 ---------------------------------------------------------------------------------
              Anisotropic Spin Dipole Couplings in Principal Axis System
 ---------------------------------------------------------------------------------

       Atom             a.u.   MegaHertz   Gauss  10(-4) cm-1        Axes

              Baa     0.0000     0.000     0.000     0.000  1.0000  0.0000  0.0000
     1 N(14)  Bbb     0.0000     0.000     0.000     0.000 -0.0000  1.0000  0.0000
              Bcc     0.0000     0.000     0.000     0.000  0.0000  0.0000  1.0000
 
              Baa     0.0000     0.000     0.000     0.000  1.0000  0.0000  0.0000
     2 N(14)  Bbb     0.0000     0.000     0.000     0.000 -0.0000  1.0000  0.0000
              Bcc     0.0000     0.000     0.000     0.000  0.0000  0.0000  1.0000
 
              Baa     0.0000     0.000     0.000     0.000  1.0000  0.0000  0.0000
     3 H(1)   Bbb     0.0000     0.000     0.000     0.000 -0.0000  1.0000  0.0000
              Bcc     0.0000     0.000     0.000     0.000  0.0000  0.0000  1.0000
 
              Baa     0.0000     0.000     0.000     0.000  1.0000  0.0000  0.0000
     4 H(1)   Bbb     0.0000     0.000     0.000     0.000 -0.0000  1.0000  0.0000
              Bcc     0.0000     0.000     0.000     0.000  0.0000  0.0000  1.0000
 

 ---------------------------------------------------------------------------------

 No NMR shielding tensors so no spin-rotation constants.
 Leave Link  601 at Thu May 15 15:36:07 2025, MaxMem=   536870912 cpu:               0.9 elap:               0.1
 (Enter /home/szhao/Apps/g16/l701.exe)
 ... and contract with generalized density number  0.
 Compute integral first derivatives.
 Leave Link  701 at Thu May 15 15:36:07 2025, MaxMem=   536870912 cpu:               0.6 elap:               0.1
 (Enter /home/szhao/Apps/g16/l702.exe)
 L702 exits ... SP integral derivatives will be done elsewhere.
 Leave Link  702 at Thu May 15 15:36:07 2025, MaxMem=   536870912 cpu:               0.2 elap:               0.0
 (Enter /home/szhao/Apps/g16/l703.exe)
 Integral derivatives from FoFJK, PRISM(SPDF).
 Compute integral first derivatives, UseDBF=F ICtDFT=           0.
 Calling FoFJK, ICntrl=      2127 FMM=F ISym2X=0 I1Cent= 0 IOpClX= 1 NMat=1 NMatS=1 NMatT=0.
 FoFJK:  IHMeth= 1 ICntrl=    2127 DoSepK=F KAlg= 0 I1Cent=           0 FoldK=F
 IRaf=         0 NMat=       1 IRICut=       1 DoRegI=T DoRafI=F ISym2E= 0 IDoP0=0 IntGTp=1.
 FoFCou: FMM=F IPFlag=           0 FMFlag=      100000 FMFlg1=         800
         NFxFlg=           0 DoJE=F BraDBF=F KetDBF=F FulRan=T
         wScrn=  0.000000 ICntrl=      2127 IOpCl=  1 I1Cent=           0 NGrid=           0
         NMat0=    1 NMatS0=      1 NMatT0=    0 NMatD0=    1 NMtDS0=    0 NMtDT0=    0
 Symmetry not used in FoFCou.
 Leave Link  703 at Thu May 15 15:36:08 2025, MaxMem=   536870912 cpu:               3.7 elap:               0.5
 (Enter /home/szhao/Apps/g16/l716.exe)
 Dipole        = 4.19549728D-10 1.67177383D-12 1.07358457D-15
 -------------------------------------------------------------------
 Center     Atomic                   Forces (Hartrees/Bohr)
 Number     Number              X              Y              Z
 -------------------------------------------------------------------
      1        7          -0.000000000   -0.000000000   -0.000000000
      2        7          -0.000000000   -0.000000000   -0.000000000
      3        1           0.017401495   -0.009977695   -0.000000000
      4        1          -0.017401495    0.009977695   -0.000000000
 -------------------------------------------------------------------
 Cartesian Forces:  Max     0.017401495 RMS     0.008189082
 Leave Link  716 at Thu May 15 15:36:08 2025, MaxMem=   536870912 cpu:               0.3 elap:               0.0
 (Enter /home/szhao/Apps/g16/l103.exe)

 GradGradGradGradGradGradGradGradGradGradGradGradGradGradGradGradGradGrad
 Berny optimization.
 FormGI is forming the generalized inverse of G from B-inverse, IUseBI=4.
 Internal  Forces:  Max     0.038155700 RMS     0.021339001
 Search for a local minimum.
 Step number   1 out of a maximum of   21
 All quantities printed in internal units (Hartrees-Bohrs-Radians)
 RMS Force = .24298D-01 SwitMx=.10000D-02 MixMth= 1
 Mixed Optimization -- RFO/linear search
 Second derivative matrix not updated -- first step.
 The second derivative matrix:
                          X1        Y1        Z1        X2        Y2
           X1           0.50000
           Y1           0.00000   0.50000
           Z1           0.00000   0.00000   0.50000
           X2           0.00000   0.00000   0.00000   0.50000
           Y2           0.00000   0.00000   0.00000   0.00000   0.50000
           Z2           0.00000   0.00000   0.00000   0.00000   0.00000
           R1           0.00000   0.00000   0.00000   0.00000   0.00000
           R2           0.00000   0.00000   0.00000   0.00000   0.00000
           A1           0.00000   0.00000   0.00000   0.00000   0.00000
           A2           0.00000   0.00000   0.00000   0.00000   0.00000
           D1           0.00000   0.00000   0.00000   0.00000   0.00000
                          Z2        R1        R2        A1        A2
           Z2           0.50000
           R1           0.00000   0.42378
           R2           0.00000   0.00000   0.42378
           A1           0.00000   0.00000   0.00000   0.16000
           A2           0.00000   0.00000   0.00000   0.00000   0.16000
           D1           0.00000   0.00000   0.00000   0.00000   0.00000
                          D1
           D1           0.00230
 ITU=  0
     Eigenvalues ---    0.00230   0.16000   0.16000   0.42378   0.42378
     Eigenvalues --- 1000.000001000.000001000.000001000.000001000.00000
     Eigenvalues --- 1000.00000
 RFO step:  Lambda=-1.65805763D-02 EMin= 2.30000000D-03
 Linear search not attempted -- first point.
 Maximum step size (   0.300) exceeded in Quadratic search.
    -- Step size scaled by   0.981
 Iteration  1 RMS(Cart)=  0.16176163 RMS(Int)=  0.01776324
 Iteration  2 RMS(Cart)=  0.02350490 RMS(Int)=  0.00024910
 Iteration  3 RMS(Cart)=  0.00037020 RMS(Int)=  0.00000007
 Iteration  4 RMS(Cart)=  0.00000009 RMS(Int)=  0.00000000
 ITry= 1 IFail=0 DXMaxC= 4.05D-01 DCOld= 1.00D+10 DXMaxT= 3.00D-01 DXLimC= 3.00D+00 Rises=F
 Variable       Old X    -DE/DX   Delta X   Delta X   Delta X     New X
                                 (Linear)    (Quad)   (Total)
    X1       -2.24958   0.01740   0.00000   0.00000   0.00000  -2.24958
    Y1        0.00000  -0.02694   0.00000   0.00000   0.00000   0.00000
    Z1        0.00000  -0.00000   0.00000   0.00000   0.00000   0.00000
    X2        2.24958  -0.01740   0.00000   0.00000   0.00000   2.24958
    Y2        0.00000   0.02694   0.00000   0.00000   0.00000   0.00000
    Z2        0.00000  -0.00000   0.00000   0.00000   0.00000   0.00000
    R1        1.95145   0.00448   0.00000   0.00998   0.00998   1.96142
    R2        1.95145   0.00448   0.00000   0.00998   0.00998   1.96142
    A1        1.86620  -0.03816   0.00000  -0.21190  -0.21190   1.65430
    A2        1.86620  -0.03816   0.00000  -0.21190  -0.21190   1.65430
    D1        3.14159  -0.00000   0.00000  -0.00000   0.00000   3.14159
         Item               Value     Threshold  Converged?
 Maximum Force            0.038156     0.000450     NO 
 RMS     Force            0.024298     0.000300     NO 
 Maximum Displacement     0.404517     0.001800     NO 
 RMS     Displacement     0.176491     0.001200     NO 
 Predicted change in Energy=-9.033306D-03
 Lowest energy point so far.  Saving SCF results.
 GradGradGradGradGradGradGradGradGradGradGradGradGradGradGradGradGradGrad

 Leave Link  103 at Thu May 15 15:36:08 2025, MaxMem=   536870912 cpu:               0.0 elap:               0.0
 (Enter /home/szhao/Apps/g16/l202.exe)
                          Input orientation:                          
 ---------------------------------------------------------------------
 Center     Atomic      Atomic             Coordinates (Angstroms)
 Number     Number       Type             X           Y           Z
 ---------------------------------------------------------------------
      1          7           0       -1.190428    0.000000    0.000000
      2          7           0        1.190428    0.000000    0.000000
      3          1           0       -1.277000   -1.034324   -0.000000
      4          1           0        1.277000    1.034324   -0.000000
 ---------------------------------------------------------------------
                    Distance matrix (angstroms):
                    1          2          3          4
     1  N    0.000000
     2  N    2.380856   0.000000
     3  H    1.037941   2.675449   0.000000
     4  H    2.675449   1.037941   3.286673   0.000000
 Symmetry turned off by external request.
 Stoichiometry    H2N2
 Framework group  C2H[SGH(H2N2)]
 Deg. of freedom     3
 Full point group                 C2H     NOp   4
 Rotational constants (GHZ):         254.7939636          11.7127047          11.1979429
 Leave Link  202 at Thu May 15 15:36:08 2025, MaxMem=   536870912 cpu:               0.0 elap:               0.0
 (Enter /home/szhao/Apps/g16/l301.exe)
 Standard basis: 6-311+G(d,p) (5D, 7F)
 Ernie: Thresh=  0.10000D-02 Tol=  0.10000D-05 Strict=F.
    56 basis functions,    88 primitive gaussians,    58 cartesian basis functions
     8 alpha electrons        8 beta electrons
       nuclear repulsion energy        20.9586476059 Hartrees.
 IExCor= 4336 DFT=T Ex+Corr=M062X ExCW=0 ScaHFX=  0.540000
 ScaDFX=  1.000000  1.000000  1.000000  1.000000 ScalE2=  1.000000  1.000000
 IRadAn=      7 IRanWt=     -1 IRanGd=            0 ICorTp=0 IEmpDi=  4
 NAtoms=    4 NActive=    4 NUniq=    4 SFac= 1.00D+00 NAtFMM=   60 NAOKFM=F Big=F
 Integral buffers will be    131072 words long.
 Raffenetti 2 integral format.
 Two-electron integral symmetry is turned off.
 Leave Link  301 at Thu May 15 15:36:08 2025, MaxMem=   536870912 cpu:               0.2 elap:               0.0
 (Enter /home/szhao/Apps/g16/l302.exe)
 NPDir=0 NMtPBC=     1 NCelOv=     1 NCel=       1 NClECP=     1 NCelD=      1
         NCelK=      1 NCelE2=     1 NClLst=     1 CellRange=     0.0.
 One-electron integrals computed using PRISM.
 NBasis=    56 RedAO= T EigKep=  3.97D-03  NBF=    56
 NBsUse=    56 1.00D-06 EigRej= -1.00D+00 NBFU=    56
 Precomputing XC quadrature grid using
 IXCGrd= 4 IRadAn=           7 IRanWt=          -1 IRanGd=           0 AccXCQ= 0.00D+00.
 Generated NRdTot=       0 NPtTot=           0 NUsed=           0 NTot=          32
 NSgBfM=    58    58    58    58    58 MxSgAt=     4 MxSgA2=     4.
 Leave Link  302 at Thu May 15 15:36:08 2025, MaxMem=   536870912 cpu:               0.9 elap:               0.1
 (Enter /home/szhao/Apps/g16/l303.exe)
 DipDrv:  MaxL=1.
 Leave Link  303 at Thu May 15 15:36:08 2025, MaxMem=   536870912 cpu:               0.2 elap:               0.0
 (Enter /home/szhao/Apps/g16/l401.exe)
 Initial guess from the checkpoint file:  "opt.chk"
 B after Tr=    -0.000000   -0.000000   -0.000000
         Rot=    0.999940    0.000000   -0.000000   -0.010922 Ang=  -1.25 deg.
 Guess basis will be translated and rotated to current coordinates.
 JPrj=2 DoOrth=T DoCkMO=T.
 Initial guess <Sx>= 0.0000 <Sy>= 0.0000 <Sz>= 0.0000 <S**2>= 0.0000 S= 0.0000
 Generating alternative initial guess.
 ExpMin= 6.39D-02 ExpMax= 6.29D+03 ExpMxC= 9.49D+02 IAcc=3 IRadAn=         5 AccDes= 0.00D+00
 Harris functional with IExCor= 1009 and IRadAn=       5 diagonalized for initial guess.
 HarFok:  IExCor= 1009 AccDes= 0.00D+00 IRadAn=         5 IDoV= 1 UseB2=F ITyADJ=14
 ICtDFT=  3500011 ScaDFX=  1.000000  1.000000  1.000000  1.000000
 FoFCou: FMM=F IPFlag=           0 FMFlag=      100000 FMFlg1=           0
         NFxFlg=           0 DoJE=T BraDBF=F KetDBF=T FulRan=T
         wScrn=  0.000000 ICntrl=       500 IOpCl=  0 I1Cent=   200000004 NGrid=           0
         NMat0=    1 NMatS0=      1 NMatT0=    0 NMatD0=    1 NMtDS0=    0 NMtDT0=    0
 Symmetry not used in FoFCou.
 Harris En= -110.299541059176    
 Leave Link  401 at Thu May 15 15:36:08 2025, MaxMem=   536870912 cpu:               1.6 elap:               0.2
 (Enter /home/szhao/Apps/g16/l502.exe)
 Keep R1 and R2 ints in memory in canonical form, NReq=9624198.
 FoFCou: FMM=F IPFlag=           0 FMFlag=           0 FMFlg1=           0
         NFxFlg=           0 DoJE=F BraDBF=F KetDBF=F FulRan=T
         wScrn=  0.000000 ICntrl=       600 IOpCl=  0 I1Cent=           0 NGrid=           0
         NMat0=    1 NMatS0=   1596 NMatT0=    0 NMatD0=    1 NMtDS0=    0 NMtDT0=    0
 Symmetry not used in FoFCou.
 Two-electron integral symmetry not used.
 UHF open shell SCF:
 Using DIIS extrapolation, IDIIS=  1040.
 NGot=   536870912 LenX=   534314338 LenY=   534310533
 Requested convergence on RMS density matrix=1.00D-08 within 128 cycles.
 Requested convergence on MAX density matrix=1.00D-06.
 Requested convergence on             energy=1.00D-06.
 No special actions if energy rises.
 Integral accuracy reduced to 1.0D-05 until final iterations.

 Cycle   1  Pass 0  IDiag  1:
 E= -110.301226550979    
 DIIS: error= 8.83D-03 at cycle   1 NSaved=   1.
 NSaved= 1 IEnMin= 1 EnMin= -110.301226550979     IErMin= 1 ErrMin= 8.83D-03
 ErrMax= 8.83D-03  0.00D+00 EMaxC= 1.00D-01 BMatC= 1.65D-02 BMatP= 1.65D-02
 IDIUse=3 WtCom= 9.12D-01 WtEn= 8.83D-02
 Coeff-Com:  0.100D+01
 Coeff-En:   0.100D+01
 Coeff:      0.100D+01
 Gap=     0.549 Goal=   None    Shift=    0.000
 Gap=     0.549 Goal=   None    Shift=    0.000
 GapD=    0.549 DampG=2.000 DampE=1.000 DampFc=2.0000 IDamp=-1.
 RMSDP=1.09D-03 MaxDP=1.05D-02              OVMax= 3.81D-02

 Cycle   2  Pass 0  IDiag  1:
 E= -110.308251865426     Delta-E=       -0.007025314447 Rises=F Damp=F
 DIIS: error= 2.21D-03 at cycle   2 NSaved=   2.
 NSaved= 2 IEnMin= 2 EnMin= -110.308251865426     IErMin= 2 ErrMin= 2.21D-03
 ErrMax= 2.21D-03  0.00D+00 EMaxC= 1.00D-01 BMatC= 5.87D-04 BMatP= 1.65D-02
 IDIUse=3 WtCom= 9.78D-01 WtEn= 2.21D-02
 Coeff-Com: -0.160D+00 0.116D+01
 Coeff-En:   0.000D+00 0.100D+01
 Coeff:     -0.156D+00 0.116D+01
 Gap=     0.144 Goal=   None    Shift=    0.000
 Gap=     0.144 Goal=   None    Shift=    0.000
 RMSDP=3.65D-04 MaxDP=3.81D-03 DE=-7.03D-03 OVMax= 2.04D-02

 Cycle   3  Pass 0  IDiag  1:
 E= -110.308832764906     Delta-E=       -0.000580899480 Rises=F Damp=F
 DIIS: error= 6.28D-04 at cycle   3 NSaved=   3.
 NSaved= 3 IEnMin= 3 EnMin= -110.308832764906     IErMin= 3 ErrMin= 6.28D-04
 ErrMax= 6.28D-04  0.00D+00 EMaxC= 1.00D-01 BMatC= 4.60D-05 BMatP= 5.87D-04
 IDIUse=3 WtCom= 9.94D-01 WtEn= 6.28D-03
 Coeff-Com:  0.117D-01-0.232D+00 0.122D+01
 Coeff-En:   0.000D+00 0.000D+00 0.100D+01
 Coeff:      0.116D-01-0.231D+00 0.122D+01
 Gap=     0.144 Goal=   None    Shift=    0.000
 Gap=     0.144 Goal=   None    Shift=    0.000
 RMSDP=1.21D-04 MaxDP=7.76D-04 DE=-5.81D-04 OVMax= 8.11D-03

 Cycle   4  Pass 0  IDiag  1:
 E= -110.308888489387     Delta-E=       -0.000055724481 Rises=F Damp=F
 DIIS: error= 2.84D-04 at cycle   4 NSaved=   4.
 NSaved= 4 IEnMin= 4 EnMin= -110.308888489387     IErMin= 4 ErrMin= 2.84D-04
 ErrMax= 2.84D-04  0.00D+00 EMaxC= 1.00D-01 BMatC= 1.27D-05 BMatP= 4.60D-05
 IDIUse=3 WtCom= 9.97D-01 WtEn= 2.84D-03
 Coeff-Com:  0.212D-01-0.211D+00 0.440D+00 0.750D+00
 Coeff-En:   0.000D+00 0.000D+00 0.000D+00 0.100D+01
 Coeff:      0.211D-01-0.211D+00 0.439D+00 0.751D+00
 Gap=     0.144 Goal=   None    Shift=    0.000
 Gap=     0.144 Goal=   None    Shift=    0.000
 RMSDP=3.78D-05 MaxDP=4.67D-04 DE=-5.57D-05 OVMax= 2.34D-03

 Cycle   5  Pass 0  IDiag  1:
 E= -110.308894884984     Delta-E=       -0.000006395597 Rises=F Damp=F
 DIIS: error= 4.77D-05 at cycle   5 NSaved=   5.
 NSaved= 5 IEnMin= 5 EnMin= -110.308894884984     IErMin= 5 ErrMin= 4.77D-05
 ErrMax= 4.77D-05  0.00D+00 EMaxC= 1.00D-01 BMatC= 6.49D-07 BMatP= 1.27D-05
 IDIUse=1 WtCom= 1.00D+00 WtEn= 0.00D+00
 Coeff-Com:  0.124D-03 0.124D-01-0.125D+00 0.504D-01 0.106D+01
 Coeff:      0.124D-03 0.124D-01-0.125D+00 0.504D-01 0.106D+01
 Gap=     0.144 Goal=   None    Shift=    0.000
 Gap=     0.144 Goal=   None    Shift=    0.000
 RMSDP=1.53D-05 MaxDP=1.07D-04 DE=-6.40D-06 OVMax= 8.93D-04

 Cycle   6  Pass 0  IDiag  1:
 E= -110.308895433057     Delta-E=       -0.000000548072 Rises=F Damp=F
 DIIS: error= 1.02D-05 at cycle   6 NSaved=   6.
 NSaved= 6 IEnMin= 6 EnMin= -110.308895433057     IErMin= 6 ErrMin= 1.02D-05
 ErrMax= 1.02D-05  0.00D+00 EMaxC= 1.00D-01 BMatC= 1.27D-08 BMatP= 6.49D-07
 IDIUse=1 WtCom= 1.00D+00 WtEn= 0.00D+00
 Coeff-Com: -0.113D-02 0.121D-01-0.276D-01-0.357D-01 0.553D-01 0.997D+00
 Coeff:     -0.113D-02 0.121D-01-0.276D-01-0.357D-01 0.553D-01 0.997D+00
 Gap=     0.144 Goal=   None    Shift=    0.000
 Gap=     0.144 Goal=   None    Shift=    0.000
 RMSDP=2.87D-06 MaxDP=2.38D-05 DE=-5.48D-07 OVMax= 7.78D-05

 Initial convergence to 1.0D-05 achieved.  Increase integral accuracy.
 Cycle   7  Pass 1  IDiag  1:
 E= -110.308895018946     Delta-E=        0.000000414110 Rises=F Damp=F
 DIIS: error= 2.11D-06 at cycle   1 NSaved=   1.
 NSaved= 1 IEnMin= 1 EnMin= -110.308895018946     IErMin= 1 ErrMin= 2.11D-06
 ErrMax= 2.11D-06  0.00D+00 EMaxC= 1.00D-01 BMatC= 1.53D-09 BMatP= 1.53D-09
 IDIUse=1 WtCom= 1.00D+00 WtEn= 0.00D+00
 Coeff-Com:  0.100D+01
 Coeff:      0.100D+01
 Gap=     0.144 Goal=   None    Shift=    0.000
 Gap=     0.144 Goal=   None    Shift=    0.000
 RMSDP=2.87D-06 MaxDP=2.38D-05 DE= 4.14D-07 OVMax= 3.24D-05

 Cycle   8  Pass 1  IDiag  1:
 E= -110.308895016148     Delta-E=        0.000000002798 Rises=F Damp=F
 DIIS: error= 1.49D-05 at cycle   2 NSaved=   2.
 NSaved= 2 IEnMin= 1 EnMin= -110.308895018946     IErMin= 1 ErrMin= 2.11D-06
 ErrMax= 1.49D-05  0.00D+00 EMaxC= 1.00D-01 BMatC= 1.46D-08 BMatP= 1.53D-09
 IDIUse=1 WtCom= 1.00D+00 WtEn= 0.00D+00
 Coeff-Com:  0.826D+00 0.174D+00
 Coeff:      0.826D+00 0.174D+00
 Gap=     0.144 Goal=   None    Shift=    0.000
 Gap=     0.144 Goal=   None    Shift=    0.000
 RMSDP=5.83D-07 MaxDP=7.88D-06 DE= 2.80D-09 OVMax= 3.98D-05

 Cycle   9  Pass 1  IDiag  1:
 E= -110.308895018960     Delta-E=       -0.000000002812 Rises=F Damp=F
 DIIS: error= 6.09D-06 at cycle   3 NSaved=   3.
 NSaved= 3 IEnMin= 3 EnMin= -110.308895018960     IErMin= 1 ErrMin= 2.11D-06
 ErrMax= 6.09D-06  0.00D+00 EMaxC= 1.00D-01 BMatC= 2.44D-09 BMatP= 1.53D-09
 IDIUse=1 WtCom= 1.00D+00 WtEn= 0.00D+00
 Coeff-Com: -0.532D-01 0.299D+00 0.754D+00
 Coeff:     -0.532D-01 0.299D+00 0.754D+00
 Gap=     0.144 Goal=   None    Shift=    0.000
 Gap=     0.144 Goal=   None    Shift=    0.000
 RMSDP=2.14D-07 MaxDP=2.55D-06 DE=-2.81D-09 OVMax= 1.18D-05

 Cycle  10  Pass 1  IDiag  1:
 E= -110.308895019536     Delta-E=       -0.000000000576 Rises=F Damp=F
 DIIS: error= 3.26D-07 at cycle   4 NSaved=   4.
 NSaved= 4 IEnMin= 4 EnMin= -110.308895019536     IErMin= 4 ErrMin= 3.26D-07
 ErrMax= 3.26D-07  0.00D+00 EMaxC= 1.00D-01 BMatC= 1.83D-11 BMatP= 1.53D-09
 IDIUse=1 WtCom= 1.00D+00 WtEn= 0.00D+00
 Coeff-Com: -0.557D-01 0.118D+00 0.313D+00 0.625D+00
 Coeff:     -0.557D-01 0.118D+00 0.313D+00 0.625D+00
 Gap=     0.144 Goal=   None    Shift=    0.000
 Gap=     0.144 Goal=   None    Shift=    0.000
 RMSDP=2.96D-08 MaxDP=5.61D-07 DE=-5.76D-10 OVMax= 7.08D-07

 Cycle  11  Pass 1  IDiag  1:
 E= -110.308895019541     Delta-E=       -0.000000000005 Rises=F Damp=F
 DIIS: error= 4.02D-08 at cycle   5 NSaved=   5.
 NSaved= 5 IEnMin= 5 EnMin= -110.308895019541     IErMin= 5 ErrMin= 4.02D-08
 ErrMax= 4.02D-08  0.00D+00 EMaxC= 1.00D-01 BMatC= 3.52D-13 BMatP= 1.83D-11
 IDIUse=1 WtCom= 1.00D+00 WtEn= 0.00D+00
 Coeff-Com:  0.118D-01-0.389D-01-0.100D+00-0.909D-01 0.122D+01
 Coeff:      0.118D-01-0.389D-01-0.100D+00-0.909D-01 0.122D+01
 Gap=     0.144 Goal=   None    Shift=    0.000
 Gap=     0.144 Goal=   None    Shift=    0.000
 RMSDP=1.51D-08 MaxDP=1.31D-07 DE=-4.80D-12 OVMax= 5.44D-07

 Cycle  12  Pass 1  IDiag  1:
 E= -110.308895019541     Delta-E=       -0.000000000001 Rises=F Damp=F
 DIIS: error= 1.01D-08 at cycle   6 NSaved=   6.
 NSaved= 6 IEnMin= 6 EnMin= -110.308895019541     IErMin= 6 ErrMin= 1.01D-08
 ErrMax= 1.01D-08  0.00D+00 EMaxC= 1.00D-01 BMatC= 1.35D-14 BMatP= 3.52D-13
 IDIUse=1 WtCom= 1.00D+00 WtEn= 0.00D+00
 Coeff-Com:  0.839D-03-0.146D-02-0.398D-02-0.126D-01-0.104D+00 0.112D+01
 Coeff:      0.839D-03-0.146D-02-0.398D-02-0.126D-01-0.104D+00 0.112D+01
 Gap=     0.144 Goal=   None    Shift=    0.000
 Gap=     0.144 Goal=   None    Shift=    0.000
 RMSDP=2.51D-09 MaxDP=1.96D-08 DE=-5.12D-13 OVMax= 1.64D-07

 SCF Done:  E(UM062X) =  -110.308895020     A.U. after   12 cycles
            NFock= 12  Conv=0.25D-08     -V/T= 2.0073
 <Sx>= 0.0000 <Sy>= 0.0000 <Sz>= 0.0000 <S**2>=-0.0000 S=-0.0000
 <L.S>=  0.00000000000    
 KE= 1.095052927544D+02 PE=-2.999066042180D+02 EE= 5.913376883817D+01
 Annihilation of the first spin contaminant:
 S**2 before annihilation    -0.0000,   after    -0.0000
 Leave Link  502 at Thu May 15 15:36:11 2025, MaxMem=   536870912 cpu:              17.0 elap:               2.2
 (Enter /home/szhao/Apps/g16/l701.exe)
 ... and contract with generalized density number  0.
 Compute integral first derivatives.
 Leave Link  701 at Thu May 15 15:36:11 2025, MaxMem=   536870912 cpu:               0.7 elap:               0.1
 (Enter /home/szhao/Apps/g16/l702.exe)
 L702 exits ... SP integral derivatives will be done elsewhere.
 Leave Link  702 at Thu May 15 15:36:11 2025, MaxMem=   536870912 cpu:               0.2 elap:               0.0
 (Enter /home/szhao/Apps/g16/l703.exe)
 Integral derivatives from FoFJK, PRISM(SPDF).
 Compute integral first derivatives, UseDBF=F ICtDFT=           0.
 Calling FoFJK, ICntrl=      2127 FMM=F ISym2X=0 I1Cent= 0 IOpClX= 1 NMat=1 NMatS=1 NMatT=0.
 FoFJK:  IHMeth= 1 ICntrl=    2127 DoSepK=F KAlg= 0 I1Cent=           0 FoldK=F
 IRaf=         0 NMat=       1 IRICut=       1 DoRegI=T DoRafI=F ISym2E= 0 IDoP0=0 IntGTp=1.
 FoFCou: FMM=F IPFlag=           0 FMFlag=      100000 FMFlg1=         800
         NFxFlg=           0 DoJE=F BraDBF=F KetDBF=F FulRan=T
         wScrn=  0.000000 ICntrl=      2127 IOpCl=  1 I1Cent=           0 NGrid=           0
         NMat0=    1 NMatS0=      1 NMatT0=    0 NMatD0=    1 NMtDS0=    0 NMtDT0=    0
 Symmetry not used in FoFCou.
 Leave Link  703 at Thu May 15 15:36:11 2025, MaxMem=   536870912 cpu:               3.7 elap:               0.5
 (Enter /home/szhao/Apps/g16/l716.exe)
 Dipole        =-6.31192876D-11-5.80890891D-12 4.97912905D-13
 -------------------------------------------------------------------
 Center     Atomic                   Forces (Hartrees/Bohr)
 Number     Number              X              Y              Z
 -------------------------------------------------------------------
      1        7          -0.000000000   -0.000000000   -0.000000000
      2        7          -0.000000000   -0.000000000   -0.000000000
      3        1           0.009232457    0.000020323    0.000000000
      4        1          -0.009232457   -0.000020323    0.000000000
 -------------------------------------------------------------------
 Cartesian Forces:  Max     0.009232457 RMS     0.003769144
 Leave Link  716 at Thu May 15 15:36:11 2025, MaxMem=   536870912 cpu:               0.2 elap:               0.0
 (Enter /home/szhao/Apps/g16/l103.exe)

 GradGradGradGradGradGradGradGradGradGradGradGradGradGradGradGradGradGrad
 Berny optimization.
 Using GEDIIS/GDIIS optimizer.
 FormGI is forming the generalized inverse of G from B-inverse, IUseBI=4.
 Internal  Forces:  Max     0.018042336 RMS     0.009297003
 Search for a local minimum.
 Step number   2 out of a maximum of   21
 All quantities printed in internal units (Hartrees-Bohrs-Radians)
 RMS Force = .11422D-01 SwitMx=.10000D-02 MixMth= 1
 Mixed Optimization -- RFO/linear search
 Update second derivatives using D2CorX and points    1    2
 DE= -1.20D-02 DEPred=-9.03D-03 R= 1.33D+00
 TightC=F SS=  1.41D+00  RLast= 3.00D-01 DXNew= 5.0454D-01 9.0000D-01
 Trust test= 1.33D+00 RLast= 3.00D-01 DXMaxT set to 5.05D-01
 The second derivative matrix:
                          X1        Y1        Z1        X2        Y2
           X1           0.50773
           Y1          -0.01793   0.54157
           Z1          -0.00000   0.00000   0.50000
           X2          -0.00773   0.01793   0.00000   0.50773
           Y2           0.01793  -0.04157  -0.00000  -0.01793   0.54157
           Z2          -0.00000   0.00000   0.00000   0.00000  -0.00000
           R1           0.00499  -0.01157  -0.00000  -0.00499   0.01157
           R2           0.00499  -0.01157  -0.00000  -0.00499   0.01157
           A1          -0.01904   0.04414   0.00000   0.01904  -0.04414
           A2          -0.01904   0.04414   0.00000   0.01904  -0.04414
           D1          -0.00000   0.00000   0.00000   0.00000  -0.00000
                          Z2        R1        R2        A1        A2
           Z2           0.50000
           R1          -0.00000   0.42576
           R2          -0.00000   0.00198   0.42576
           A1           0.00000  -0.00237  -0.00237   0.12735
           A2           0.00000  -0.00237  -0.00237  -0.03265   0.12735
           D1           0.00000  -0.00000  -0.00000   0.00000   0.00000
                          D1
           D1           0.00230
 ITU=  1  0
 Use linear search instead of GDIIS.
     Eigenvalues ---    0.00230   0.09463   0.16000   0.42378   0.42781
     Eigenvalues --- 1000.000001000.000001000.000001000.000001000.00000
     Eigenvalues --- 1000.00000
 RFO step:  Lambda=-1.27076145D-04 EMin= 2.30000000D-03
 Quartic linear search produced a step of  0.81769.
 Iteration  1 RMS(Cart)=  0.14499104 RMS(Int)=  0.01267034
 Iteration  2 RMS(Cart)=  0.01308374 RMS(Int)=  0.00002976
 Iteration  3 RMS(Cart)=  0.00005646 RMS(Int)=  0.00000000
 Iteration  4 RMS(Cart)=  0.00000000 RMS(Int)=  0.00000000
 ITry= 1 IFail=0 DXMaxC= 3.45D-01 DCOld= 1.00D+10 DXMaxT= 5.05D-01 DXLimC= 3.00D+00 Rises=F
 Variable       Old X    -DE/DX   Delta X   Delta X   Delta X     New X
                                 (Linear)    (Quad)   (Total)
    X1       -2.24958   0.00923   0.00000   0.00000   0.00000  -2.24958
    Y1        0.00000  -0.00800   0.00000   0.00000   0.00000   0.00000
    Z1        0.00000   0.00000   0.00000   0.00000   0.00000   0.00000
    X2        2.24958  -0.00923   0.00000   0.00000   0.00000   2.24958
    Y2        0.00000   0.00800   0.00000   0.00000   0.00000   0.00000
    Z2        0.00000   0.00000   0.00000   0.00000   0.00000   0.00000
    R1        1.96142  -0.00079   0.00816  -0.01210  -0.00395   1.95748
    R2        1.96142  -0.00079   0.00816  -0.01210  -0.00395   1.95748
    A1        1.65430  -0.01804  -0.17327  -0.00317  -0.17643   1.47787
    A2        1.65430  -0.01804  -0.17327  -0.00317  -0.17643   1.47787
    D1        3.14159   0.00000   0.00000   0.00000   0.00000   3.14159
         Item               Value     Threshold  Converged?
 Maximum Force            0.018042     0.000450     NO 
 RMS     Force            0.011422     0.000300     NO 
 Maximum Displacement     0.345244     0.001800     NO 
 RMS     Displacement     0.147231     0.001200     NO 
 Predicted change in Energy=-3.424897D-03
 Lowest energy point so far.  Saving SCF results.
 GradGradGradGradGradGradGradGradGradGradGradGradGradGradGradGradGradGrad

 Leave Link  103 at Thu May 15 15:36:11 2025, MaxMem=   536870912 cpu:               0.0 elap:               0.0
 (Enter /home/szhao/Apps/g16/l202.exe)
                          Input orientation:                          
 ---------------------------------------------------------------------
 Center     Atomic      Atomic             Coordinates (Angstroms)
 Number     Number       Type             X           Y           Z
 ---------------------------------------------------------------------
      1          7           0       -1.190428    0.000000    0.000000
      2          7           0        1.190428    0.000000    0.000000
      3          1           0       -1.094305   -1.031384   -0.000000
      4          1           0        1.094305    1.031384   -0.000000
 ---------------------------------------------------------------------
                    Distance matrix (angstroms):
                    1          2          3          4
     1  N    0.000000
     2  N    2.380856   0.000000
     3  H    1.035853   2.506742   0.000000
     4  H    2.506742   1.035853   3.007494   0.000000
 Symmetry turned off by external request.
 Stoichiometry    H2N2
 Framework group  C2H[SGH(H2N2)]
 Deg. of freedom     3
 Full point group                 C2H     NOp   4
 Rotational constants (GHZ):         250.8027541          11.9670450          11.4220426
 Leave Link  202 at Thu May 15 15:36:11 2025, MaxMem=   536870912 cpu:               0.0 elap:               0.0
 (Enter /home/szhao/Apps/g16/l301.exe)
 Standard basis: 6-311+G(d,p) (5D, 7F)
 Ernie: Thresh=  0.10000D-02 Tol=  0.10000D-05 Strict=F.
    56 basis functions,    88 primitive gaussians,    58 cartesian basis functions
     8 alpha electrons        8 beta electrons
       nuclear repulsion energy        21.1743401178 Hartrees.
 IExCor= 4336 DFT=T Ex+Corr=M062X ExCW=0 ScaHFX=  0.540000
 ScaDFX=  1.000000  1.000000  1.000000  1.000000 ScalE2=  1.000000  1.000000
 IRadAn=      7 IRanWt=     -1 IRanGd=            0 ICorTp=0 IEmpDi=  4
 NAtoms=    4 NActive=    4 NUniq=    4 SFac= 1.00D+00 NAtFMM=   60 NAOKFM=F Big=F
 Integral buffers will be    131072 words long.
 Raffenetti 2 integral format.
 Two-electron integral symmetry is turned off.
 Leave Link  301 at Thu May 15 15:36:11 2025, MaxMem=   536870912 cpu:               0.2 elap:               0.0
 (Enter /home/szhao/Apps/g16/l302.exe)
 NPDir=0 NMtPBC=     1 NCelOv=     1 NCel=       1 NClECP=     1 NCelD=      1
         NCelK=      1 NCelE2=     1 NClLst=     1 CellRange=     0.0.
 One-electron integrals computed using PRISM.
 NBasis=    56 RedAO= T EigKep=  3.84D-03  NBF=    56
 NBsUse=    56 1.00D-06 EigRej= -1.00D+00 NBFU=    56
 Precomputing XC quadrature grid using
 IXCGrd= 4 IRadAn=           7 IRanWt=          -1 IRanGd=           0 AccXCQ= 0.00D+00.
 Generated NRdTot=       0 NPtTot=           0 NUsed=           0 NTot=          32
 NSgBfM=    58    58    58    58    58 MxSgAt=     4 MxSgA2=     4.
 Leave Link  302 at Thu May 15 15:36:11 2025, MaxMem=   536870912 cpu:               0.9 elap:               0.1
 (Enter /home/szhao/Apps/g16/l303.exe)
 DipDrv:  MaxL=1.
 Leave Link  303 at Thu May 15 15:36:11 2025, MaxMem=   536870912 cpu:               0.2 elap:               0.0
 (Enter /home/szhao/Apps/g16/l401.exe)
 Initial guess from the checkpoint file:  "opt.chk"
 B after Tr=     0.000000    0.000000   -0.000000
         Rot=    0.999972   -0.000000   -0.000000   -0.007477 Ang=  -0.86 deg.
 Guess basis will be translated and rotated to current coordinates.
 JPrj=2 DoOrth=T DoCkMO=T.
 Initial guess <Sx>= 0.0000 <Sy>= 0.0000 <Sz>= 0.0000 <S**2>=-0.0000 S=-0.0000
 Generating alternative initial guess.
 ExpMin= 6.39D-02 ExpMax= 6.29D+03 ExpMxC= 9.49D+02 IAcc=3 IRadAn=         5 AccDes= 0.00D+00
 Harris functional with IExCor= 1009 and IRadAn=       5 diagonalized for initial guess.
 HarFok:  IExCor= 1009 AccDes= 0.00D+00 IRadAn=         5 IDoV= 1 UseB2=F ITyADJ=14
 ICtDFT=  3500011 ScaDFX=  1.000000  1.000000  1.000000  1.000000
 FoFCou: FMM=F IPFlag=           0 FMFlag=      100000 FMFlg1=           0
         NFxFlg=           0 DoJE=T BraDBF=F KetDBF=T FulRan=T
         wScrn=  0.000000 ICntrl=       500 IOpCl=  0 I1Cent=   200000004 NGrid=           0
         NMat0=    1 NMatS0=      1 NMatT0=    0 NMatD0=    1 NMtDS0=    0 NMtDT0=    0
 Symmetry not used in FoFCou.
 Harris En= -110.301423875235    
 Leave Link  401 at Thu May 15 15:36:12 2025, MaxMem=   536870912 cpu:               1.4 elap:               0.2
 (Enter /home/szhao/Apps/g16/l502.exe)
 Keep R1 and R2 ints in memory in canonical form, NReq=9624198.
 FoFCou: FMM=F IPFlag=           0 FMFlag=           0 FMFlg1=           0
         NFxFlg=           0 DoJE=F BraDBF=F KetDBF=F FulRan=T
         wScrn=  0.000000 ICntrl=       600 IOpCl=  0 I1Cent=           0 NGrid=           0
         NMat0=    1 NMatS0=   1596 NMatT0=    0 NMatD0=    1 NMtDS0=    0 NMtDT0=    0
 Symmetry not used in FoFCou.
 Two-electron integral symmetry not used.
 UHF open shell SCF:
 Using DIIS extrapolation, IDIIS=  1040.
 NGot=   536870912 LenX=   534314338 LenY=   534310533
 Requested convergence on RMS density matrix=1.00D-08 within 128 cycles.
 Requested convergence on MAX density matrix=1.00D-06.
 Requested convergence on             energy=1.00D-06.
 No special actions if energy rises.
 Integral accuracy reduced to 1.0D-05 until final iterations.

 Cycle   1  Pass 0  IDiag  1:
 E= -110.306578170041    
 DIIS: error= 8.33D-03 at cycle   1 NSaved=   1.
 NSaved= 1 IEnMin= 1 EnMin= -110.306578170041     IErMin= 1 ErrMin= 8.33D-03
 ErrMax= 8.33D-03  0.00D+00 EMaxC= 1.00D-01 BMatC= 1.23D-02 BMatP= 1.23D-02
 IDIUse=3 WtCom= 9.17D-01 WtEn= 8.33D-02
 Coeff-Com:  0.100D+01
 Coeff-En:   0.100D+01
 Coeff:      0.100D+01
 Gap=     0.550 Goal=   None    Shift=    0.000
 Gap=     0.550 Goal=   None    Shift=    0.000
 GapD=    0.550 DampG=2.000 DampE=1.000 DampFc=2.0000 IDamp=-1.
 RMSDP=9.58D-04 MaxDP=9.23D-03              OVMax= 3.02D-02

 Cycle   2  Pass 0  IDiag  1:
 E= -110.311758496600     Delta-E=       -0.005180326558 Rises=F Damp=F
 DIIS: error= 1.68D-03 at cycle   2 NSaved=   2.
 NSaved= 2 IEnMin= 2 EnMin= -110.311758496600     IErMin= 2 ErrMin= 1.68D-03
 ErrMax= 1.68D-03  0.00D+00 EMaxC= 1.00D-01 BMatC= 4.15D-04 BMatP= 1.23D-02
 IDIUse=3 WtCom= 9.83D-01 WtEn= 1.68D-02
 Coeff-Com: -0.158D+00 0.116D+01
 Coeff-En:   0.000D+00 0.100D+01
 Coeff:     -0.156D+00 0.116D+01
 Gap=     0.145 Goal=   None    Shift=    0.000
 Gap=     0.145 Goal=   None    Shift=    0.000
 RMSDP=3.08D-04 MaxDP=3.24D-03 DE=-5.18D-03 OVMax= 1.58D-02

 Cycle   3  Pass 0  IDiag  1:
 E= -110.312149750885     Delta-E=       -0.000391254285 Rises=F Damp=F
 DIIS: error= 5.18D-04 at cycle   3 NSaved=   3.
 NSaved= 3 IEnMin= 3 EnMin= -110.312149750885     IErMin= 3 ErrMin= 5.18D-04
 ErrMax= 5.18D-04  0.00D+00 EMaxC= 1.00D-01 BMatC= 2.53D-05 BMatP= 4.15D-04
 IDIUse=3 WtCom= 9.95D-01 WtEn= 5.18D-03
 Coeff-Com:  0.176D-01-0.272D+00 0.125D+01
 Coeff-En:   0.000D+00 0.000D+00 0.100D+01
 Coeff:      0.175D-01-0.271D+00 0.125D+01
 Gap=     0.145 Goal=   None    Shift=    0.000
 Gap=     0.145 Goal=   None    Shift=    0.000
 RMSDP=9.39D-05 MaxDP=6.45D-04 DE=-3.91D-04 OVMax= 6.27D-03

 Cycle   4  Pass 0  IDiag  1:
 E= -110.312183644259     Delta-E=       -0.000033893374 Rises=F Damp=F
 DIIS: error= 1.08D-04 at cycle   4 NSaved=   4.
 NSaved= 4 IEnMin= 4 EnMin= -110.312183644259     IErMin= 4 ErrMin= 1.08D-04
 ErrMax= 1.08D-04  0.00D+00 EMaxC= 1.00D-01 BMatC= 1.60D-06 BMatP= 2.53D-05
 IDIUse=3 WtCom= 9.99D-01 WtEn= 1.08D-03
 Coeff-Com:  0.982D-02-0.734D-01-0.283D-01 0.109D+01
 Coeff-En:   0.000D+00 0.000D+00 0.000D+00 0.100D+01
 Coeff:      0.981D-02-0.733D-01-0.283D-01 0.109D+01
 Gap=     0.145 Goal=   None    Shift=    0.000
 Gap=     0.145 Goal=   None    Shift=    0.000
 RMSDP=2.57D-05 MaxDP=1.73D-04 DE=-3.39D-05 OVMax= 1.84D-03

 Cycle   5  Pass 0  IDiag  1:
 E= -110.312185891466     Delta-E=       -0.000002247207 Rises=F Damp=F
 DIIS: error= 2.81D-05 at cycle   5 NSaved=   5.
 NSaved= 5 IEnMin= 5 EnMin= -110.312185891466     IErMin= 5 ErrMin= 2.81D-05
 ErrMax= 2.81D-05  0.00D+00 EMaxC= 1.00D-01 BMatC= 1.32D-07 BMatP= 1.60D-06
 IDIUse=1 WtCom= 1.00D+00 WtEn= 0.00D+00
 Coeff-Com: -0.150D-02 0.203D-01-0.947D-01 0.959D-02 0.107D+01
 Coeff:     -0.150D-02 0.203D-01-0.947D-01 0.959D-02 0.107D+01
 Gap=     0.145 Goal=   None    Shift=    0.000
 Gap=     0.145 Goal=   None    Shift=    0.000
 RMSDP=6.98D-06 MaxDP=5.11D-05 DE=-2.25D-06 OVMax= 3.64D-04

 Initial convergence to 1.0D-05 achieved.  Increase integral accuracy.
 Cycle   6  Pass 1  IDiag  1:
 E= -110.312185468697     Delta-E=        0.000000422769 Rises=F Damp=F
 DIIS: error= 1.33D-05 at cycle   1 NSaved=   1.
 NSaved= 1 IEnMin= 1 EnMin= -110.312185468697     IErMin= 1 ErrMin= 1.33D-05
 ErrMax= 1.33D-05  0.00D+00 EMaxC= 1.00D-01 BMatC= 1.83D-08 BMatP= 1.83D-08
 IDIUse=1 WtCom= 1.00D+00 WtEn= 0.00D+00
 Coeff-Com:  0.100D+01
 Coeff:      0.100D+01
 Gap=     0.145 Goal=   None    Shift=    0.000
 Gap=     0.145 Goal=   None    Shift=    0.000
 RMSDP=6.98D-06 MaxDP=5.11D-05 DE= 4.23D-07 OVMax= 4.16D-05

 Cycle   7  Pass 1  IDiag  1:
 E= -110.312185471609     Delta-E=       -0.000000002912 Rises=F Damp=F
 DIIS: error= 8.95D-06 at cycle   2 NSaved=   2.
 NSaved= 2 IEnMin= 2 EnMin= -110.312185471609     IErMin= 2 ErrMin= 8.95D-06
 ErrMax= 8.95D-06  0.00D+00 EMaxC= 1.00D-01 BMatC= 1.06D-08 BMatP= 1.83D-08
 IDIUse=1 WtCom= 1.00D+00 WtEn= 0.00D+00
 Coeff-Com:  0.428D+00 0.572D+00
 Coeff:      0.428D+00 0.572D+00
 Gap=     0.145 Goal=   None    Shift=    0.000
 Gap=     0.145 Goal=   None    Shift=    0.000
 RMSDP=6.19D-07 MaxDP=1.18D-05 DE=-2.91D-09 OVMax= 1.45D-05

 Cycle   8  Pass 1  IDiag  1:
 E= -110.312185473914     Delta-E=       -0.000000002305 Rises=F Damp=F
 DIIS: error= 6.25D-07 at cycle   3 NSaved=   3.
 NSaved= 3 IEnMin= 3 EnMin= -110.312185473914     IErMin= 3 ErrMin= 6.25D-07
 ErrMax= 6.25D-07  0.00D+00 EMaxC= 1.00D-01 BMatC= 7.07D-11 BMatP= 1.06D-08
 IDIUse=1 WtCom= 1.00D+00 WtEn= 0.00D+00
 Coeff-Com: -0.511D-01-0.264D-01 0.108D+01
 Coeff:     -0.511D-01-0.264D-01 0.108D+01
 Gap=     0.145 Goal=   None    Shift=    0.000
 Gap=     0.145 Goal=   None    Shift=    0.000
 RMSDP=2.11D-07 MaxDP=1.82D-06 DE=-2.31D-09 OVMax= 6.02D-06

 Cycle   9  Pass 1  IDiag  1:
 E= -110.312185473975     Delta-E=       -0.000000000061 Rises=F Damp=F
 DIIS: error= 1.93D-07 at cycle   4 NSaved=   4.
 NSaved= 4 IEnMin= 4 EnMin= -110.312185473975     IErMin= 4 ErrMin= 1.93D-07
 ErrMax= 1.93D-07  0.00D+00 EMaxC= 1.00D-01 BMatC= 6.89D-12 BMatP= 7.07D-11
 IDIUse=1 WtCom= 1.00D+00 WtEn= 0.00D+00
 Coeff-Com: -0.280D-01-0.376D-01 0.838D-01 0.982D+00
 Coeff:     -0.280D-01-0.376D-01 0.838D-01 0.982D+00
 Gap=     0.145 Goal=   None    Shift=    0.000
 Gap=     0.145 Goal=   None    Shift=    0.000
 RMSDP=6.30D-08 MaxDP=4.79D-07 DE=-6.11D-11 OVMax= 2.42D-06

 Cycle  10  Pass 1  IDiag  1:
 E= -110.312185473962     Delta-E=        0.000000000013 Rises=F Damp=F
 DIIS: error= 1.12D-06 at cycle   5 NSaved=   5.
 NSaved= 5 IEnMin= 4 EnMin= -110.312185473975     IErMin= 4 ErrMin= 1.93D-07
 ErrMax= 1.12D-06  0.00D+00 EMaxC= 1.00D-01 BMatC= 8.25D-11 BMatP= 6.89D-12
 IDIUse=1 WtCom= 1.00D+00 WtEn= 0.00D+00
 Coeff-Com: -0.223D-01-0.322D-01 0.191D-01 0.888D+00 0.148D+00
 Coeff:     -0.223D-01-0.322D-01 0.191D-01 0.888D+00 0.148D+00
 Gap=     0.145 Goal=   None    Shift=    0.000
 Gap=     0.145 Goal=   None    Shift=    0.000
 RMSDP=3.51D-08 MaxDP=4.68D-07 DE= 1.31D-11 OVMax= 2.38D-06

 Cycle  11  Pass 1  IDiag  1:
 E= -110.312185473981     Delta-E=       -0.000000000019 Rises=F Damp=F
 DIIS: error= 1.43D-07 at cycle   6 NSaved=   6.
 NSaved= 6 IEnMin= 6 EnMin= -110.312185473981     IErMin= 6 ErrMin= 1.43D-07
 ErrMax= 1.43D-07  0.00D+00 EMaxC= 1.00D-01 BMatC= 1.74D-12 BMatP= 6.89D-12
 IDIUse=1 WtCom= 1.00D+00 WtEn= 0.00D+00
 Coeff-Com:  0.600D-02 0.456D-02-0.840D-01 0.308D-02 0.123D+00 0.947D+00
 Coeff:      0.600D-02 0.456D-02-0.840D-01 0.308D-02 0.123D+00 0.947D+00
 Gap=     0.145 Goal=   None    Shift=    0.000
 Gap=     0.145 Goal=   None    Shift=    0.000
 RMSDP=1.02D-08 MaxDP=7.17D-08 DE=-1.87D-11 OVMax= 5.88D-07

 Cycle  12  Pass 1  IDiag  1:
 E= -110.312185473982     Delta-E=       -0.000000000001 Rises=F Damp=F
 DIIS: error= 1.15D-08 at cycle   7 NSaved=   7.
 NSaved= 7 IEnMin= 7 EnMin= -110.312185473982     IErMin= 7 ErrMin= 1.15D-08
 ErrMax= 1.15D-08  0.00D+00 EMaxC= 1.00D-01 BMatC= 1.97D-14 BMatP= 1.74D-12
 IDIUse=1 WtCom= 1.00D+00 WtEn= 0.00D+00
 Coeff-Com:  0.151D-02 0.214D-02-0.217D-02-0.355D-01-0.219D-01-0.119D+00
 Coeff-Com:  0.117D+01
 Coeff:      0.151D-02 0.214D-02-0.217D-02-0.355D-01-0.219D-01-0.119D+00
 Coeff:      0.117D+01
 Gap=     0.145 Goal=   None    Shift=    0.000
 Gap=     0.145 Goal=   None    Shift=    0.000
 RMSDP=2.91D-09 MaxDP=1.81D-08 DE=-7.39D-13 OVMax= 1.91D-07

 SCF Done:  E(UM062X) =  -110.312185474     A.U. after   12 cycles
            NFock= 12  Conv=0.29D-08     -V/T= 2.0072
 <Sx>= 0.0000 <Sy>= 0.0000 <Sz>= 0.0000 <S**2>=-0.0000 S=-0.0000
 <L.S>=  0.00000000000    
 KE= 1.095199752710D+02 PE=-3.003142922766D+02 EE= 5.930779141382D+01
 Annihilation of the first spin contaminant:
 S**2 before annihilation    -0.0000,   after    -0.0000
 Leave Link  502 at Thu May 15 15:36:14 2025, MaxMem=   536870912 cpu:              15.9 elap:               2.0
 (Enter /home/szhao/Apps/g16/l701.exe)
 ... and contract with generalized density number  0.
 Compute integral first derivatives.
 Leave Link  701 at Thu May 15 15:36:14 2025, MaxMem=   536870912 cpu:               0.6 elap:               0.1
 (Enter /home/szhao/Apps/g16/l702.exe)
 L702 exits ... SP integral derivatives will be done elsewhere.
 Leave Link  702 at Thu May 15 15:36:14 2025, MaxMem=   536870912 cpu:               0.2 elap:               0.0
 (Enter /home/szhao/Apps/g16/l703.exe)
 Integral derivatives from FoFJK, PRISM(SPDF).
 Compute integral first derivatives, UseDBF=F ICtDFT=           0.
 Calling FoFJK, ICntrl=      2127 FMM=F ISym2X=0 I1Cent= 0 IOpClX= 1 NMat=1 NMatS=1 NMatT=0.
 FoFJK:  IHMeth= 1 ICntrl=    2127 DoSepK=F KAlg= 0 I1Cent=           0 FoldK=F
 IRaf=         0 NMat=       1 IRICut=       1 DoRegI=T DoRafI=F ISym2E= 0 IDoP0=0 IntGTp=1.
 FoFCou: FMM=F IPFlag=           0 FMFlag=      100000 FMFlg1=         800
         NFxFlg=           0 DoJE=F BraDBF=F KetDBF=F FulRan=T
         wScrn=  0.000000 ICntrl=      2127 IOpCl=  1 I1Cent=           0 NGrid=           0
         NMat0=    1 NMatS0=      1 NMatT0=    0 NMatD0=    1 NMtDS0=    0 NMtDT0=    0
 Symmetry not used in FoFCou.
 Leave Link  703 at Thu May 15 15:36:14 2025, MaxMem=   536870912 cpu:               3.2 elap:               0.4
 (Enter /home/szhao/Apps/g16/l716.exe)
 Dipole        = 2.66193290D-10-6.36224406D-12-1.61356983D-09
 -------------------------------------------------------------------
 Center     Atomic                   Forces (Hartrees/Bohr)
 Number     Number              X              Y              Z
 -------------------------------------------------------------------
      1        7          -0.000000000   -0.000000000   -0.000000000
      2        7          -0.000000000   -0.000000000   -0.000000000
      3        1           0.000335026   -0.000340125    0.000000000
      4        1          -0.000335026    0.000340125    0.000000000
 -------------------------------------------------------------------
 Cartesian Forces:  Max     0.000340125 RMS     0.000194905
 Leave Link  716 at Thu May 15 15:36:14 2025, MaxMem=   536870912 cpu:               0.2 elap:               0.0
 (Enter /home/szhao/Apps/g16/l103.exe)

 GradGradGradGradGradGradGradGradGradGradGradGradGradGradGradGradGradGrad
 Berny optimization.
 Using GEDIIS/GDIIS optimizer.
 FormGI is forming the generalized inverse of G from B-inverse, IUseBI=4.
 Internal  Forces:  Max     0.000602927 RMS     0.000418219
 Search for a local minimum.
 Step number   3 out of a maximum of   21
 All quantities printed in internal units (Hartrees-Bohrs-Radians)
 RMS Force = .44101D-03 SwitMx=.10000D-02 MixMth= 2
 Mixed Optimization -- En-DIIS/RFO-DIIS
 Update second derivatives using D2CorX and points    1    2    3
 DE= -3.29D-03 DEPred=-3.42D-03 R= 9.61D-01
 TightC=F SS=  1.41D+00  RLast= 2.50D-01 DXNew= 8.4853D-01 7.4873D-01
 Trust test= 9.61D-01 RLast= 2.50D-01 DXMaxT set to 7.49D-01
 The second derivative matrix:
                          X1        Y1        Z1        X2        Y2
           X1           0.51303
           Y1          -0.01103   0.50954
           Z1          -0.00000   0.00000   0.50000
           X2          -0.01303   0.01103   0.00000   0.51303
           Y2           0.01103  -0.00954  -0.00000  -0.01103   0.50954
           Z2          -0.00000   0.00000   0.00000   0.00000  -0.00000
           R1           0.00469  -0.01052  -0.00000  -0.00469   0.01052
           R2           0.00469  -0.01052  -0.00000  -0.00469   0.01052
           A1          -0.02532   0.02120   0.00000   0.02532  -0.02120
           A2          -0.02532   0.02120   0.00000   0.02532  -0.02120
           D1          -0.00000   0.00000   0.00000   0.00000  -0.00000
                          Z2        R1        R2        A1        A2
           Z2           0.50000
           R1          -0.00000   0.42571
           R2          -0.00000   0.00193   0.42571
           A1           0.00000  -0.00149  -0.00149   0.12949
           A2           0.00000  -0.00149  -0.00149  -0.03051   0.12949
           D1           0.00000  -0.00000  -0.00000   0.00000   0.00000
                          D1
           D1           0.00230
 ITU=  1  1  0
 Use linear search instead of GDIIS.
     Eigenvalues ---    0.00230   0.09895   0.16000   0.42378   0.42767
     Eigenvalues --- 1000.000001000.000001000.000001000.000001000.00000
     Eigenvalues --- 1000.00000
 RFO step:  Lambda=-7.81165844D-07 EMin= 2.30000000D-03
 Quartic linear search produced a step of  0.03331.
 Iteration  1 RMS(Cart)=  0.00496929 RMS(Int)=  0.00001472
 Iteration  2 RMS(Cart)=  0.00001514 RMS(Int)=  0.00000000
 Iteration  3 RMS(Cart)=  0.00000000 RMS(Int)=  0.00000000
 ITry= 1 IFail=0 DXMaxC= 1.17D-02 DCOld= 1.00D+10 DXMaxT= 7.49D-01 DXLimC= 3.00D+00 Rises=F
 Variable       Old X    -DE/DX   Delta X   Delta X   Delta X     New X
                                 (Linear)    (Quad)   (Total)
    X1       -2.24958   0.00034   0.00000   0.00000   0.00000  -2.24958
    Y1        0.00000  -0.00060   0.00000   0.00000   0.00000   0.00000
    Z1        0.00000   0.00000   0.00000   0.00000   0.00000   0.00000
    X2        2.24958  -0.00034   0.00000   0.00000   0.00000   2.24958
    Y2        0.00000   0.00060   0.00000   0.00000   0.00000   0.00000
    Z2        0.00000   0.00000   0.00000   0.00000   0.00000   0.00000
    R1        1.95748   0.00037  -0.00013   0.00095   0.00082   1.95830
    R2        1.95748   0.00037  -0.00013   0.00095   0.00082   1.95830
    A1        1.47787  -0.00059  -0.00588  -0.00006  -0.00594   1.47193
    A2        1.47787  -0.00059  -0.00588  -0.00006  -0.00594   1.47193
    D1        3.14159   0.00000   0.00000   0.00000   0.00000  -3.14159
         Item               Value     Threshold  Converged?
 Maximum Force            0.000591     0.000450     NO 
 RMS     Force            0.000441     0.000300     NO 
 Maximum Displacement     0.011657     0.001800     NO 
 RMS     Displacement     0.004972     0.001200     NO 
 Predicted change in Energy=-3.820872D-06
 Lowest energy point so far.  Saving SCF results.
 GradGradGradGradGradGradGradGradGradGradGradGradGradGradGradGradGradGrad

 Leave Link  103 at Thu May 15 15:36:14 2025, MaxMem=   536870912 cpu:               0.0 elap:               0.0
 (Enter /home/szhao/Apps/g16/l202.exe)
                          Input orientation:                          
 ---------------------------------------------------------------------
 Center     Atomic      Atomic             Coordinates (Angstroms)
 Number     Number       Type             X           Y           Z
 ---------------------------------------------------------------------
      1          7           0       -1.190428    0.000000    0.000000
      2          7           0        1.190428    0.000000    0.000000
      3          1           0       -1.088136   -1.031228    0.000000
      4          1           0        1.088136    1.031228    0.000000
 ---------------------------------------------------------------------
                    Distance matrix (angstroms):
                    1          2          3          4
     1  N    0.000000
     2  N    2.380856   0.000000
     3  H    1.036289   2.501057   0.000000
     4  H    2.501057   1.036289   2.998313   0.000000
 Symmetry turned off by external request.
 Stoichiometry    H2N2
 Framework group  C2[X(H2N2)]
 Deg. of freedom     4
 Full point group                 C2      NOp   2
 Rotational constants (GHZ):         250.7090157          11.9751373          11.4292197
 Leave Link  202 at Thu May 15 15:36:14 2025, MaxMem=   536870912 cpu:               0.0 elap:               0.0
 (Enter /home/szhao/Apps/g16/l301.exe)
 Standard basis: 6-311+G(d,p) (5D, 7F)
 Ernie: Thresh=  0.10000D-02 Tol=  0.10000D-05 Strict=F.
    56 basis functions,    88 primitive gaussians,    58 cartesian basis functions
     8 alpha electrons        8 beta electrons
       nuclear repulsion energy        21.1785909251 Hartrees.
 IExCor= 4336 DFT=T Ex+Corr=M062X ExCW=0 ScaHFX=  0.540000
 ScaDFX=  1.000000  1.000000  1.000000  1.000000 ScalE2=  1.000000  1.000000
 IRadAn=      7 IRanWt=     -1 IRanGd=            0 ICorTp=0 IEmpDi=  4
 NAtoms=    4 NActive=    4 NUniq=    4 SFac= 1.00D+00 NAtFMM=   60 NAOKFM=F Big=F
 Integral buffers will be    131072 words long.
 Raffenetti 2 integral format.
 Two-electron integral symmetry is turned off.
 Leave Link  301 at Thu May 15 15:36:14 2025, MaxMem=   536870912 cpu:               0.2 elap:               0.0
 (Enter /home/szhao/Apps/g16/l302.exe)
 NPDir=0 NMtPBC=     1 NCelOv=     1 NCel=       1 NClECP=     1 NCelD=      1
         NCelK=      1 NCelE2=     1 NClLst=     1 CellRange=     0.0.
 One-electron integrals computed using PRISM.
 NBasis=    56 RedAO= T EigKep=  3.85D-03  NBF=    56
 NBsUse=    56 1.00D-06 EigRej= -1.00D+00 NBFU=    56
 Precomputing XC quadrature grid using
 IXCGrd= 4 IRadAn=           7 IRanWt=          -1 IRanGd=           0 AccXCQ= 0.00D+00.
 Generated NRdTot=       0 NPtTot=           0 NUsed=           0 NTot=          32
 NSgBfM=    58    58    58    58    58 MxSgAt=     4 MxSgA2=     4.
 Leave Link  302 at Thu May 15 15:36:14 2025, MaxMem=   536870912 cpu:               0.7 elap:               0.1
 (Enter /home/szhao/Apps/g16/l303.exe)
 DipDrv:  MaxL=1.
 Leave Link  303 at Thu May 15 15:36:14 2025, MaxMem=   536870912 cpu:               0.2 elap:               0.0
 (Enter /home/szhao/Apps/g16/l401.exe)
 Initial guess from the checkpoint file:  "opt.chk"
 B after Tr=     0.000000   -0.000000    0.000000
         Rot=    1.000000    0.000000    0.000000   -0.000254 Ang=  -0.03 deg.
 Guess basis will be translated and rotated to current coordinates.
 JPrj=2 DoOrth=T DoCkMO=T.
 Initial guess <Sx>= 0.0000 <Sy>= 0.0000 <Sz>= 0.0000 <S**2>=-0.0000 S=-0.0000
 Leave Link  401 at Thu May 15 15:36:14 2025, MaxMem=   536870912 cpu:               0.4 elap:               0.1
 (Enter /home/szhao/Apps/g16/l502.exe)
 Keep R1 and R2 ints in memory in canonical form, NReq=9624198.
 FoFCou: FMM=F IPFlag=           0 FMFlag=           0 FMFlg1=           0
         NFxFlg=           0 DoJE=F BraDBF=F KetDBF=F FulRan=T
         wScrn=  0.000000 ICntrl=       600 IOpCl=  0 I1Cent=           0 NGrid=           0
         NMat0=    1 NMatS0=   1596 NMatT0=    0 NMatD0=    1 NMtDS0=    0 NMtDT0=    0
 Symmetry not used in FoFCou.
 Two-electron integral symmetry not used.
 UHF open shell SCF:
 Using DIIS extrapolation, IDIIS=  1040.
 NGot=   536870912 LenX=   534314338 LenY=   534310533
 Requested convergence on RMS density matrix=1.00D-08 within 128 cycles.
 Requested convergence on MAX density matrix=1.00D-06.
 Requested convergence on             energy=1.00D-06.
 No special actions if energy rises.

 Cycle   1  Pass 1  IDiag  1:
 E= -110.312182912020    
 DIIS: error= 3.31D-04 at cycle   1 NSaved=   1.
 NSaved= 1 IEnMin= 1 EnMin= -110.312182912020     IErMin= 1 ErrMin= 3.31D-04
 ErrMax= 3.31D-04  0.00D+00 EMaxC= 1.00D-01 BMatC= 1.48D-05 BMatP= 1.48D-05
 IDIUse=3 WtCom= 9.97D-01 WtEn= 3.31D-03
 Coeff-Com:  0.100D+01
 Coeff-En:   0.100D+01
 Coeff:      0.100D+01
 Gap=     0.555 Goal=   None    Shift=    0.000
 Gap=     0.555 Goal=   None    Shift=    0.000
 RMSDP=3.36D-05 MaxDP=3.14D-04              OVMax= 1.05D-03

 Cycle   2  Pass 1  IDiag  1:
 E= -110.312188905997     Delta-E=       -0.000005993978 Rises=F Damp=F
 DIIS: error= 5.20D-05 at cycle   2 NSaved=   2.
 NSaved= 2 IEnMin= 2 EnMin= -110.312188905997     IErMin= 2 ErrMin= 5.20D-05
 ErrMax= 5.20D-05  0.00D+00 EMaxC= 1.00D-01 BMatC= 4.47D-07 BMatP= 1.48D-05
 IDIUse=1 WtCom= 1.00D+00 WtEn= 0.00D+00
[...]

 Cycle   8  Pass 1  IDiag  1:
 E= -110.312189352152     Delta-E=       -0.000000000023 Rises=F Damp=F
 DIIS: error= 3.12D-07 at cycle   8 NSaved=   8.
 NSaved= 8 IEnMin= 8 EnMin= -110.312189352152     IErMin= 8 ErrMin= 3.12D-07
 ErrMax= 3.12D-07  0.00D+00 EMaxC= 1.00D-01 BMatC= 6.61D-12 BMatP= 4.58D-11
 IDIUse=1 WtCom= 1.00D+00 WtEn= 0.00D+00
 Coeff-Com:  0.822D-06-0.241D-03 0.266D-02 0.199D-04-0.258D-01 0.504D-03
 Coeff-Com:  0.200D+00 0.823D+00
 Coeff:      0.822D-06-0.241D-03 0.266D-02 0.199D-04-0.258D-01 0.504D-03
 Coeff:      0.200D+00 0.823D+00
 Gap=     0.145 Goal=   None    Shift=    0.000
 Gap=     0.145 Goal=   None    Shift=    0.000
 RMSDP=1.86D-08 MaxDP=1.71D-07 DE=-2.35D-11 OVMax= 5.90D-07

 Cycle   9  Pass 1  IDiag  1:
 E= -110.312189352154     Delta-E=       -0.000000000002 Rises=F Damp=F
 DIIS: error= 7.61D-09 at cycle   9 NSaved=   9.
 NSaved= 9 IEnMin= 9 EnMin= -110.312189352154     IErMin= 9 ErrMin= 7.61D-09
 ErrMax= 7.61D-09  0.00D+00 EMaxC= 1.00D-01 BMatC= 9.98D-15 BMatP= 6.61D-12
 IDIUse=1 WtCom= 1.00D+00 WtEn= 0.00D+00
 Coeff-Com:  0.412D-04-0.472D-03 0.143D-02 0.210D-02-0.690D-02-0.241D-01
 Coeff-Com:  0.389D-02 0.359D-01 0.988D+00
 Coeff:      0.412D-04-0.472D-03 0.143D-02 0.210D-02-0.690D-02-0.241D-01
 Coeff:      0.389D-02 0.359D-01 0.988D+00
 Gap=     0.145 Goal=   None    Shift=    0.000
 Gap=     0.145 Goal=   None    Shift=    0.000
 RMSDP=2.68D-09 MaxDP=2.73D-08 DE=-1.76D-12 OVMax= 8.56D-08

 SCF Done:  E(UM062X) =  -110.312189352     A.U. after    9 cycles
            NFock=  9  Conv=0.27D-08     -V/T= 2.0072
 <Sx>= 0.0000 <Sy>= 0.0000 <Sz>= 0.0000 <S**2>=-0.0000 S=-0.0000
 <L.S>=  0.00000000000    
 KE= 1.095192187379D+02 PE=-3.003214385453D+02 EE= 5.931143953017D+01
 Annihilation of the first spin contaminant:
 S**2 before annihilation    -0.0000,   after     0.0000
 Leave Link  502 at Thu May 15 15:36:17 2025, MaxMem=   536870912 cpu:              19.1 elap:               2.4
 (Enter /home/szhao/Apps/g16/l701.exe)
 ... and contract with generalized density number  0.
 Compute integral first derivatives.
 Leave Link  701 at Thu May 15 15:36:17 2025, MaxMem=   536870912 cpu:               0.6 elap:               0.1
 (Enter /home/szhao/Apps/g16/l702.exe)
 L702 exits ... SP integral derivatives will be done elsewhere.
 Leave Link  702 at Thu May 15 15:36:17 2025, MaxMem=   536870912 cpu:               0.2 elap:               0.0
 (Enter /home/szhao/Apps/g16/l703.exe)
 Integral derivatives from FoFJK, PRISM(SPDF).
 Compute integral first derivatives, UseDBF=F ICtDFT=           0.
 Calling FoFJK, ICntrl=      2127 FMM=F ISym2X=0 I1Cent= 0 IOpClX= 1 NMat=1 NMatS=1 NMatT=0.
 FoFJK:  IHMeth= 1 ICntrl=    2127 DoSepK=F KAlg= 0 I1Cent=           0 FoldK=F
 IRaf=         0 NMat=       1 IRICut=       1 DoRegI=T DoRafI=F ISym2E= 0 IDoP0=0 IntGTp=1.
 FoFCou: FMM=F IPFlag=           0 FMFlag=      100000 FMFlg1=         800
         NFxFlg=           0 DoJE=F BraDBF=F KetDBF=F FulRan=T
         wScrn=  0.000000 ICntrl=      2127 IOpCl=  1 I1Cent=           0 NGrid=           0
         NMat0=    1 NMatS0=      1 NMatT0=    0 NMatD0=    1 NMtDS0=    0 NMtDT0=    0
 Symmetry not used in FoFCou.
 Leave Link  703 at Thu May 15 15:36:17 2025, MaxMem=   536870912 cpu:               3.5 elap:               0.4
 (Enter /home/szhao/Apps/g16/l716.exe)
 Dipole        =-2.18401741D-10-3.72191167D-12 2.40807149D-08
 -------------------------------------------------------------------
 Center     Atomic                   Forces (Hartrees/Bohr)
 Number     Number              X              Y              Z
 -------------------------------------------------------------------
      1        7          -0.000000000   -0.000000000   -0.000000000
      2        7          -0.000000000   -0.000000000   -0.000000000
      3        1           0.000006084   -0.000024549   -0.000000001
      4        1          -0.000006084    0.000024549   -0.000000001
 -------------------------------------------------------------------
 Cartesian Forces:  Max     0.000024549 RMS     0.000010325
 Leave Link  716 at Thu May 15 15:36:18 2025, MaxMem=   536870912 cpu:               0.2 elap:               0.0
 (Enter /home/szhao/Apps/g16/l103.exe)

 GradGradGradGradGradGradGradGradGradGradGradGradGradGradGradGradGradGrad
 Berny optimization.
 Using GEDIIS/GDIIS optimizer.
 FormGI is forming the generalized inverse of G from B-inverse, IUseBI=4.
 Internal  Forces:  Max     0.000027709 RMS     0.000016414
 Search for a local minimum.
 Step number   4 out of a maximum of   21
 All quantities printed in internal units (Hartrees-Bohrs-Radians)
 RMS Force = .16456D-04 SwitMx=.10000D-02 MixMth= 2
 Mixed Optimization -- En-DIIS/RFO-DIIS
 Swapping is turned off.
 Update second derivatives using D2CorX and points    1    2    3    4
 DE= -3.88D-06 DEPred=-3.82D-06 R= 1.01D+00
 TightC=F SS=  1.41D+00  RLast= 8.48D-03 DXNew= 1.2592D+00 2.5447D-02
 Trust test= 1.01D+00 RLast= 8.48D-03 DXMaxT set to 7.49D-01
 The second derivative matrix:
                          X1        Y1        Z1        X2        Y2
           X1           0.51500
           Y1          -0.02527   0.54408
           Z1           0.00000  -0.00000   0.50000
           X2          -0.01500   0.02527  -0.00000   0.51500
           Y2           0.02527  -0.04408   0.00000  -0.02527   0.54408
           Z2           0.00000  -0.00000   0.00000  -0.00000   0.00000
           R1           0.00440  -0.02518   0.00000  -0.00440   0.02518
           R2           0.00440  -0.02518   0.00000  -0.00440   0.02518
           A1          -0.02707   0.04492  -0.00000   0.02707  -0.04492
           A2          -0.02707   0.04492  -0.00000   0.02707  -0.04492
           D1           0.00000  -0.00000   0.00000  -0.00000   0.00000
                          Z2        R1        R2        A1        A2
           Z2           0.50000
           R1           0.00000   0.42380
           R2           0.00000   0.00002   0.42380
           A1          -0.00000   0.00035   0.00035   0.12920
           A2          -0.00000   0.00035   0.00035  -0.03080   0.12920
           D1           0.00000   0.00000   0.00000  -0.00000  -0.00000
                          D1
           D1           0.00230
 ITU=  1  1  1  0
     Eigenvalues ---    0.00230   0.09841   0.16000   0.42378   0.42382
     Eigenvalues --- 1000.000001000.000001000.000001000.000001000.00000
     Eigenvalues --- 1000.00000
 En-DIIS/RFO-DIIS/Sim-DIIS IScMMF=       -3 using points:     4    3
 RFO step:  Lambda=-3.35800431D-09.
 NNeg= 0 NGDIIS= 2 SimSw=  2.50D-01 Rises=F DC= -3.88D-06 SmlDif=  1.00D-05
 NRisDI= 0 DoIntr=F SqrtH=F CThrHd= 10.0 CDAdj=  3.0
 RMS Error=  0.3996057234D-04 NUsed= 2 OKEnD=F EnDIS=F
 InvSVX:  RCond= 1.80D-05 Info=           0 Equed=N FErr=  9.14D-16 BErr=  6.57D-17
 DidBck=F Rises=F RFO-DIIS coefs:    1.01336   -0.01336
 Iteration  1 RMS(Cart)=  0.00006572 RMS(Int)=  0.00000000
 Iteration  2 RMS(Cart)=  0.00000000 RMS(Int)=  0.00000000
 ITry= 1 IFail=0 DXMaxC= 1.47D-04 DCOld= 1.00D+10 DXMaxT= 7.49D-01 DXLimC= 3.00D+00 Rises=F
 Variable       Old X    -DE/DX   Delta X   Delta X   Delta X     New X
                                 (Linear)    (Quad)   (Total)
    X1       -2.24958   0.00001   0.00000   0.00000   0.00000  -2.24958
    Y1        0.00000  -0.00003   0.00000   0.00000   0.00000   0.00000
    Z1        0.00000  -0.00000   0.00000   0.00000   0.00000   0.00000
    X2        2.24958  -0.00001   0.00000   0.00000   0.00000   2.24958
    Y2        0.00000   0.00003   0.00000   0.00000   0.00000   0.00000
    Z2        0.00000  -0.00000   0.00000   0.00000   0.00000   0.00000
    R1        1.95830   0.00003   0.00001   0.00005   0.00006   1.95836
    R2        1.95830   0.00003   0.00001   0.00005   0.00006   1.95836
    A1        1.47193  -0.00001  -0.00008   0.00001  -0.00007   1.47185
    A2        1.47193  -0.00001  -0.00008   0.00001  -0.00007   1.47185
    D1       -3.14159  -0.00000   0.00000  -0.00000  -0.00000   3.14159
         Item               Value     Threshold  Converged?
 Maximum Force            0.000025     0.000450     YES
 RMS     Force            0.000016     0.000300     YES
 Maximum Displacement     0.000147     0.001800     YES
 RMS     Displacement     0.000066     0.001200     YES
 Predicted change in Energy=-1.997793D-09
 Optimization completed.
    -- Stationary point found.
                           ----------------------------
                           !   Optimized Parameters   !
                           ! (Angstroms and Degrees)  !
 --------------------------                            --------------------------
 ! Name  Definition              Value          Derivative Info.                !
 --------------------------------------------------------------------------------
 ! X1    R(1,-1)                -1.1904         -DE/DX =    0.0                 !
 ! Y1    R(1,-2)                 0.0            -DE/DX =    0.0                 !
 ! Z1    R(1,-3)                 0.0            -DE/DX =    0.0                 !
 ! X2    R(2,-1)                 1.1904         -DE/DX =    0.0                 !
 ! Y2    R(2,-2)                 0.0            -DE/DX =    0.0                 !
 ! Z2    R(2,-3)                 0.0            -DE/DX =    0.0                 !
 ! R1    R(1,3)                  1.0363         -DE/DX =    0.0                 !
 ! R2    R(2,4)                  1.0363         -DE/DX =    0.0                 !
 ! A1    A(2,1,3)               84.3351         -DE/DX =    0.0                 !
 ! A2    A(1,2,4)               84.3351         -DE/DX =    0.0                 !
 ! D1    D(3,1,2,4)            180.0            -DE/DX =    0.0                 !
 --------------------------------------------------------------------------------
 Lowest energy point so far.  Saving SCF results.
 Largest change from initial coordinates is atom    4       0.405 Angstoms.
 GradGradGradGradGradGradGradGradGradGradGradGradGradGradGradGradGradGrad

 Leave Link  103 at Thu May 15 15:36:18 2025, MaxMem=   536870912 cpu:               0.0 elap:               0.0
 (Enter /home/szhao/Apps/g16/l202.exe)
                          Input orientation:                          
 ---------------------------------------------------------------------
 Center     Atomic      Atomic             Coordinates (Angstroms)
 Number     Number       Type             X           Y           Z
 ---------------------------------------------------------------------
      1          7           0       -1.190428    0.000000    0.000000
      2          7           0        1.190428    0.000000    0.000000
      3          1           0       -1.088136   -1.031228    0.000000
      4          1           0        1.088136    1.031228    0.000000
 ---------------------------------------------------------------------
                    Distance matrix (angstroms):
                    1          2          3          4
     1  N    0.000000
     2  N    2.380856   0.000000
     3  H    1.036289   2.501057   0.000000
     4  H    2.501057   1.036289   2.998313   0.000000
 Symmetry turned off by external request.
 Stoichiometry    H2N2
 Framework group  C2[X(H2N2)]
 Deg. of freedom     4
 Full point group                 C2      NOp   2
 Rotational constants (GHZ):         250.7090157          11.9751373          11.4292197
 Leave Link  202 at Thu May 15 15:36:18 2025, MaxMem=   536870912 cpu:               0.0 elap:               0.0
 (Enter /home/szhao/Apps/g16/l601.exe)
 Copying SCF densities to generalized density rwf, IOpCl= 1 IROHF=0.

 **********************************************************************

            Population analysis using the SCF density.

 **********************************************************************

 Alpha  occ. eigenvalues --  -14.88660 -14.88654  -0.94389  -0.90175  -0.49792
 Alpha  occ. eigenvalues --   -0.47655  -0.36594  -0.32675
 Alpha virt. eigenvalues --   -0.18154  -0.12889   0.05714   0.07753   0.10661
 Alpha virt. eigenvalues --    0.12252   0.13269   0.14820   0.16051   0.19339
 Alpha virt. eigenvalues --    0.19982   0.24690   0.53168   0.56144   0.75619
 Alpha virt. eigenvalues --    0.76094   0.76469   0.80061   0.82823   0.84099
 Alpha virt. eigenvalues --    0.92171   1.18148   1.27749   1.29329   1.29835
 Alpha virt. eigenvalues --    1.36683   1.90584   1.91042   1.96203   1.98099
 Alpha virt. eigenvalues --    1.99218   2.10869   2.33942   2.34944   2.35310
 Alpha virt. eigenvalues --    2.38280   2.48067   2.56463   2.94893   2.96445
 Alpha virt. eigenvalues --    3.76339   3.78635   3.79602   3.91457   4.33876
 Alpha virt. eigenvalues --    4.34087  35.28269  35.34952
  Beta  occ. eigenvalues --  -14.88660 -14.88654  -0.94389  -0.90175  -0.49792
  Beta  occ. eigenvalues --   -0.47655  -0.36594  -0.32675
  Beta virt. eigenvalues --   -0.18154  -0.12889   0.05714   0.07753   0.10661
  Beta virt. eigenvalues --    0.12252   0.13269   0.14820   0.16051   0.19339
  Beta virt. eigenvalues --    0.19982   0.24690   0.53168   0.56144   0.75619
  Beta virt. eigenvalues --    0.76094   0.76469   0.80061   0.82823   0.84099
  Beta virt. eigenvalues --    0.92171   1.18148   1.27749   1.29329   1.29835
  Beta virt. eigenvalues --    1.36683   1.90584   1.91042   1.96203   1.98099
  Beta virt. eigenvalues --    1.99218   2.10869   2.33942   2.34944   2.35310
  Beta virt. eigenvalues --    2.38280   2.48067   2.56463   2.94893   2.96445
  Beta virt. eigenvalues --    3.76339   3.78635   3.79602   3.91457   4.33876
  Beta virt. eigenvalues --    4.34087  35.28269  35.34952
          Condensed to atoms (all electrons):
               1          2          3          4
     1  N    6.797516   0.207917   0.244383  -0.002764
     2  N    0.207917   6.797516  -0.002764   0.244383
     3  H    0.244383  -0.002764   0.510639   0.000691
     4  H   -0.002764   0.244383   0.000691   0.510639
          Atomic-Atomic Spin Densities.
               1          2          3          4
     1  N    0.000000   0.000000   0.000000  -0.000000
     2  N    0.000000  -0.000000   0.000000  -0.000000
     3  H    0.000000   0.000000  -0.000000   0.000000
     4  H   -0.000000  -0.000000   0.000000   0.000000
 Mulliken charges and spin densities:
               1          2
     1  N   -0.247052   0.000000
     2  N   -0.247052  -0.000000
     3  H    0.247052  -0.000000
     4  H    0.247052   0.000000
 Sum of Mulliken charges =  -0.00000   0.00000
 Mulliken charges and spin densities with hydrogens summed into heavy atoms:
               1          2
     1  N    0.000000   0.000000
     2  N   -0.000000  -0.000000
 Electronic spatial extent (au):  <R**2>=            115.6490
 Charge=             -0.0000 electrons
 Dipole moment (field-independent basis, Debye):
    X=             -0.0000    Y=             -0.0000    Z=              0.0000  Tot=              0.0000
 Quadrupole moment (field-independent basis, Debye-Ang):
   XX=            -13.6744   YY=            -10.9043   ZZ=            -14.0891
   XY=              4.2702   XZ=              0.0000   YZ=              0.0000
 Traceless Quadrupole moment (field-independent basis, Debye-Ang):
   XX=             -0.7851   YY=              1.9850   ZZ=             -1.1999
   XY=              4.2702   XZ=              0.0000   YZ=              0.0000
 Octapole moment (field-independent basis, Debye-Ang**2):
  XXX=             -0.0000  YYY=             -0.0000  ZZZ=             -0.0000  XYY=             -0.0000
  XXY=             -0.0000  XXZ=              0.0000  XZZ=             -0.0000  YZZ=              0.0000
  YYZ=              0.0000  XYZ=              0.0000
 Hexadecapole moment (field-independent basis, Debye-Ang**3):
 XXXX=           -126.8962 YYYY=            -16.3989 ZZZZ=            -16.6430 XXXY=              3.4662
 XXXZ=              0.0000 YYYX=              1.2827 YYYZ=              0.0000 ZZZX=              0.0000
 ZZZY=              0.0000 XXYY=            -21.4792 XXZZ=            -23.7991 YYZZ=             -6.2313
 XXYZ=              0.0000 YYXZ=              0.0000 ZZXY=             -0.6853
 N-N= 2.117859092512D+01 E-N=-3.003214385086D+02  KE= 1.095192187379D+02
                          Isotropic Fermi Contact Couplings
        Atom                 a.u.       MegaHertz       Gauss      10(-4) cm-1
     1  N(14)              0.00000       0.00000       0.00000       0.00000
     2  N(14)             -0.00000      -0.00000      -0.00000      -0.00000
     3  H(1)              -0.00000      -0.00000      -0.00000      -0.00000
     4  H(1)               0.00000       0.00000       0.00000       0.00000
 --------------------------------------------------------
       Center         ----  Spin Dipole Couplings  ----
                      3XX-RR        3YY-RR        3ZZ-RR
 --------------------------------------------------------
     1   Atom       -0.000000     -0.000000      0.000000
     2   Atom        0.000000      0.000000     -0.000000
     3   Atom       -0.000000      0.000000     -0.000000
     4   Atom        0.000000     -0.000000      0.000000
 --------------------------------------------------------
                        XY            XZ            YZ
 --------------------------------------------------------
     1   Atom        0.000000      0.000000      0.000000
     2   Atom       -0.000000      0.000000      0.000000
     3   Atom       -0.000000      0.000000      0.000000
     4   Atom        0.000000      0.000000      0.000000
 --------------------------------------------------------


 ---------------------------------------------------------------------------------
              Anisotropic Spin Dipole Couplings in Principal Axis System
 ---------------------------------------------------------------------------------

       Atom             a.u.   MegaHertz   Gauss  10(-4) cm-1        Axes

              Baa    -0.0000    -0.000    -0.000    -0.000 -0.1078  0.9942  0.0001
     1 N(14)  Bbb    -0.0000    -0.000    -0.000    -0.000  0.9942  0.1078 -0.0018
              Bcc     0.0000     0.000     0.000     0.000  0.0018  0.0001  1.0000
 
              Baa    -0.0000    -0.000    -0.000    -0.000 -0.0018 -0.0001  1.0000
     2 N(14)  Bbb     0.0000     0.000     0.000     0.000  0.9942  0.1077  0.0018
              Bcc     0.0000     0.000     0.000     0.000 -0.1077  0.9942 -0.0001
 
              Baa    -0.0000    -0.000    -0.000    -0.000  0.9911  0.1332 -0.0012
     3 H(1)   Bbb    -0.0000    -0.000    -0.000    -0.000  0.0012  0.0002  1.0000
              Bcc     0.0000     0.000     0.000     0.000 -0.1332  0.9911 -0.0000
 
              Baa    -0.0000    -0.000    -0.000    -0.000 -0.1332  0.9911  0.0000
     4 H(1)   Bbb     0.0000     0.000     0.000     0.000 -0.0012 -0.0002  1.0000
              Bcc     0.0000     0.000     0.000     0.000  0.9911  0.1332  0.0012
 

 ---------------------------------------------------------------------------------

 No NMR shielding tensors so no spin-rotation constants.
 Leave Link  601 at Thu May 15 15:36:18 2025, MaxMem=   536870912 cpu:               1.1 elap:               0.1
 (Enter /home/szhao/Apps/g16/l9999.exe)
 1\1\GINC-NODE01\FOpt\UM062X\6-311+G(d,p)\H2N2\SZHAO\15-May-2025\0\\#p 
 opt UM062X/6-311+G** nosymm int=superfine\\Title Card Required\\0,1\N,
 -1.19042801,0.,0.\N,1.19042801,0.,0.\H,-1.0881361671,-1.0312277138,0.0
 000000211\H,1.0881361671,1.0312277138,0.0000000211\\Version=ES64L-G16R
 evA.03\HF=-110.3121894\S2=0.\S2-1=0.\S2A=0.\RMSD=2.685e-09\RMSF=1.033e
 -05\Dipole=0.,0.,0.\Quadrupole=-0.5837255,1.4757859,-0.8920604,3.17475
 74,0.,0.\PG=C02 [X(H2N2)]\\@


 IT IS BETTER TO THINK YOU ARE HALF DRY THAN TO KNOW YOU
 ARE ALL WET.  -- SNOOPY
 Job cpu time:       0 days  0 hours  1 minutes 45.1 seconds.
 Elapsed time:       0 days  0 hours  0 minutes 13.5 seconds.
 File lengths (MBytes):  RWF=      6 Int=      0 D2E=      0 Chk=      1 Scr=      1
 Normal termination of Gaussian 16 at Thu May 15 15:36:18 2025.
