 Entering Gaussian System, Link 0=g16
 Initial command:
 /home/szhao/Apps/g16/l1.exe "/home/szhao/tmp/Gau-70942.inp" -scrdir="/home/szhao/tmp/"
 Default is to use a total of  16 processors:
                               16 via shared-memory
                                1 via Linda
 Entering Link 1 = /home/szhao/Apps/g16/l1.exe PID=     70944.
  
 Copyright (c) 1988,1990,1992,1993,1995,1998,2003,2009,2016,
            Gaussian, Inc.  All Rights Reserved.
  
 This is part of the Gaussian(R) 16 program.  It is based on
 the Gaussian(R) 09 system (copyright 2009, Gaussian, Inc.),
 the Gaussian(R) 03 system (copyright 2003, Gaussian, Inc.),
 the Gaussian(R) 98 system (copyright 1998, Gaussian, Inc.),
 the Gaussian(R) 94 system (copyright 1995, Gaussian, Inc.),
 the Gaussian 92(TM) system (copyright 1992, Gaussian, Inc.),
 the Gaussian 90(TM) system (copyright 1990, Gaussian, Inc.),
 the Gaussian 88(TM) system (copyright 1988, Gaussian, Inc.),
 the Gaussian 86(TM) system (copyright 1986, Carnegie Mellon
 University), and the Gaussian 82(TM) system (copyright 1983,
 Carnegie Mellon University). Gaussian is a federally registered
 trademark of Gaussian, Inc.
  
 This software contains proprietary and confidential information,
 including trade secrets, belonging to Gaussian, Inc.
  
 This software is provided under written license and may be
 used, copied, transmitted, or stored only in accord with that
 written license.
  
 The following legend is applicable only to US Government
 contracts under FAR:
  
                    RESTRICTED RIGHTS LEGEND
  
 Use, reproduction and disclosure by the US Government is
 subject to restrictions as set forth in subparagraphs (a)
 and (c) of the Commercial Computer Software - Restricted
 Rights clause in FAR 52.227-19.
  
 Gaussian, Inc.
 340 Quinnipiac St., Bldg. 40, Wallingford CT 06492
  
  
 ---------------------------------------------------------------
 Warning -- This program may not be used in any manner that
 competes with the business of Gaussian, Inc. or will provide
 assistance to any competitor of Gaussian, Inc.  The licensee
 of this program is prohibited from giving any competitor of
 Gaussian, Inc. access to this program.  By using this program,
 the user acknowledges that Gaussian, Inc. is engaged in the
 business of creating and licensing software in the field of
 computational chemistry and represents and warrants to the
 licensee that it is not a competitor of Gaussian, Inc. and that
 it will not use this program in any manner prohibited above.
 ---------------------------------------------------------------
  

 Cite this work as:
 Gaussian 16, Revision A.03,
 M. J. Frisch, G. W. Trucks, H. B. Schlegel, G. E. Scuseria, 
 M. A. Robb, J. R. Cheeseman, G. Scalmani, V. Barone, 
 G. A. Petersson, H. Nakatsuji, X. Li, M. Caricato, A. V. Marenich, 
 J. Bloino, B. G. Janesko, R. Gomperts, B. Mennucci, H. P. Hratchian, 
 J. V. Ortiz, A. F. Izmaylov, J. L. Sonnenberg, D. Williams-Young, 
 F. Ding, F. Lipparini, F. Egidi, J. Goings, B. Peng, A. Petrone, 
 T. Henderson, D. Ranasinghe, V. G. Zakrzewski, J. Gao, N. Rega, 
 G. Zheng, W. Liang, M. Hada, M. Ehara, K. Toyota, R. Fukuda, 
 J. Hasegawa, M. Ishida, T. Nakajima, Y. Honda, O. Kitao, H. Nakai, 
 T. Vreven, K. Throssell, J. A. Montgomery, Jr., J. E. Peralta, 
 F. Ogliaro, M. J. Bearpark, J. J. Heyd, E. N. Brothers, K. N. Kudin, 
 V. N. Staroverov, T. A. Keith, R. Kobayashi, J. Normand, 
 K. Raghavachari, A. P. Rendell, J. C. Burant, S. S. Iyengar, 
 J. Tomasi, M. Cossi, J. M. Millam, M. Klene, C. Adamo, R. Cammi, 
 J. W. Ochterski, R. L. Martin, K. Morokuma, O. Farkas, 
 J. B. Foresman, and D. J. Fox, Gaussian, Inc., Wallingford CT, 2016.
 
 ******************************************
 Gaussian 16:  ES64L-G16RevA.03 25-Dec-2016
                19-Nov-2024 
 ******************************************
 %chk=opt.chk
 %mem=4GB
 %nprocshared=8
 Will use up to    8 processors via shared memory.
 ---------------------------------------
 #p UM062X/6-311+G** force int=superfine
 ---------------------------------------
 1/10=7,30=1,38=1/1,3;
 2/12=2,17=6,18=5,40=1/2;
 3/5=4,6=6,7=111,11=2,25=1,30=1,71=1,74=-55,75=-7,116=2/1,2,3;
 4//1;
 5/5=2,38=5/2;
 6/7=2,8=2,9=2,10=2,28=1/1;
 7/29=1/1,2,3,16;
 1/10=7,30=1/3;
 99//99;
 Leave Link    1 at Tue Nov 19 11:54:56 2024, MaxMem=   536870912 cpu:               0.3 elap:               0.0
 (Enter /home/szhao/Apps/g16/l101.exe)
 -------------------
 Title Card Required
 -------------------
 Symbolic Z-matrix:
 Charge =  1 Multiplicity = 2
 C                    -0.82      0.        0. 
 C                     0.82      0.        0. 
 H                    -1.33655  -0.95421   0. 
 H                    -1.33664   0.95417   0. 
 H                     1.33655   0.95421   0. 
 H                     1.33664  -0.95417   0. 
 
 ITRead=  0  0  0  0  0  0
 MicOpt= -1 -1 -1 -1 -1 -1
 NAtoms=      6 NQM=        6 NQMF=       0 NMMI=      0 NMMIF=      0
                NMic=       0 NMicF=      0.
                    Isotopes and Nuclear Properties:
 (Nuclear quadrupole moments (NQMom) in fm**2, nuclear magnetic moments (NMagM)
  in nuclear magnetons)

  Atom         1           2           3           4           5           6
 IAtWgt=          12          12           1           1           1           1
 AtmWgt=  12.0000000  12.0000000   1.0078250   1.0078250   1.0078250   1.0078250
 NucSpn=           0           0           1           1           1           1
 AtZEff=  -0.0000000  -0.0000000  -0.0000000  -0.0000000  -0.0000000  -0.0000000
 NQMom=    0.0000000   0.0000000   0.0000000   0.0000000   0.0000000   0.0000000
 NMagM=    0.0000000   0.0000000   2.7928460   2.7928460   2.7928460   2.7928460
 AtZNuc=   6.0000000   6.0000000   1.0000000   1.0000000   1.0000000   1.0000000
 Leave Link  101 at Tue Nov 19 11:54:56 2024, MaxMem=   536870912 cpu:               1.4 elap:               0.2
 (Enter /home/szhao/Apps/g16/l103.exe)

 GradGradGradGradGradGradGradGradGradGradGradGradGradGradGradGradGradGrad
 Berny optimization.
 Initialization pass.
 Trust Radius=3.00D-01 FncErr=1.00D-07 GrdErr=1.00D-07 EigMax=2.50D+02 EigMin=1.00D-04
 Number of steps in this run=      2 maximum allowed number of steps=      2.
 GradGradGradGradGradGradGradGradGradGradGradGradGradGradGradGradGradGrad

 Leave Link  103 at Tue Nov 19 11:54:56 2024, MaxMem=   536870912 cpu:               0.1 elap:               0.0
 (Enter /home/szhao/Apps/g16/l202.exe)
                          Input orientation:                          
 ---------------------------------------------------------------------
 Center     Atomic      Atomic             Coordinates (Angstroms)
 Number     Number       Type             X           Y           Z
 ---------------------------------------------------------------------
      1          6           0       -0.819995    0.000000    0.000000
      2          6           0        0.819995    0.000000    0.000000
      3          1           0       -1.336551   -0.954207    0.000000
      4          1           0       -1.336637    0.954168    0.000000
      5          1           0        1.336551    0.954207    0.000000
      6          1           0        1.336637   -0.954168    0.000000
 ---------------------------------------------------------------------
                    Distance matrix (angstroms):
                    1          2          3          4          5
     1  C    0.000000
     2  C    1.639990   0.000000
     3  H    1.085054   2.358220   0.000000
     4  H    1.085060   2.358283   1.908375   0.000000
     5  H    2.358220   1.085054   3.284436   2.673188   0.000000
     6  H    2.358283   1.085060   2.673188   3.284530   1.908375
                    6
     6  H    0.000000
 Stoichiometry    C2H4(1+,2)
 Framework group  C2H[SGH(C2H4)]
 Deg. of freedom     5
 Full point group                 C2H     NOp   4
 Largest Abelian subgroup         C2H     NOp   4
 Largest concise Abelian subgroup C2      NOp   2
                         Standard orientation:                         
 ---------------------------------------------------------------------
 Center     Atomic      Atomic             Coordinates (Angstroms)
 Number     Number       Type             X           Y           Z
 ---------------------------------------------------------------------
      1          6           0        0.000000    0.819995    0.000000
      2          6           0       -0.000000   -0.819995    0.000000
      3          1           0       -0.954207    1.336551    0.000000
      4          1           0        0.954168    1.336637    0.000000
      5          1           0        0.954207   -1.336551    0.000000
      6          1           0       -0.954168   -1.336637    0.000000
 ---------------------------------------------------------------------
 Rotational constants (GHZ):         137.6907036          21.6536055          18.7110553
 Leave Link  202 at Tue Nov 19 11:54:56 2024, MaxMem=   536870912 cpu:               0.0 elap:               0.0
 (Enter /home/szhao/Apps/g16/l301.exe)
 Standard basis: 6-311+G(d,p) (5D, 7F)
 Ernie: Thresh=  0.10000D-02 Tol=  0.10000D-05 Strict=F.
 There are    27 symmetry adapted cartesian basis functions of AG  symmetry.
 There are     8 symmetry adapted cartesian basis functions of BG  symmetry.
 There are     8 symmetry adapted cartesian basis functions of AU  symmetry.
 There are    27 symmetry adapted cartesian basis functions of BU  symmetry.
 There are    26 symmetry adapted basis functions of AG  symmetry.
 There are     8 symmetry adapted basis functions of BG  symmetry.
 There are     8 symmetry adapted basis functions of AU  symmetry.
 There are    26 symmetry adapted basis functions of BU  symmetry.
    68 basis functions,   104 primitive gaussians,    70 cartesian basis functions
     8 alpha electrons        7 beta electrons
       nuclear repulsion energy        29.9790260002 Hartrees.
 IExCor= 4336 DFT=T Ex+Corr=M062X ExCW=0 ScaHFX=  0.540000
 ScaDFX=  1.000000  1.000000  1.000000  1.000000 ScalE2=  1.000000  1.000000
 IRadAn=      7 IRanWt=     -1 IRanGd=            0 ICorTp=0 IEmpDi=  4
 NAtoms=    6 NActive=    6 NUniq=    3 SFac= 4.00D+00 NAtFMM=   60 NAOKFM=F Big=F
 Integral buffers will be    131072 words long.
 Raffenetti 2 integral format.
 Two-electron integral symmetry is turned on.
 Leave Link  301 at Tue Nov 19 11:54:56 2024, MaxMem=   536870912 cpu:               0.3 elap:               0.0
 (Enter /home/szhao/Apps/g16/l302.exe)
 NPDir=0 NMtPBC=     1 NCelOv=     1 NCel=       1 NClECP=     1 NCelD=      1
         NCelK=      1 NCelE2=     1 NClLst=     1 CellRange=     0.0.
 One-electron integrals computed using PRISM.
 One-electron integral symmetry used in STVInt
 NBasis=    68 RedAO= T EigKep=  4.65D-04  NBF=    26     8     8    26
 NBsUse=    68 1.00D-06 EigRej= -1.00D+00 NBFU=    26     8     8    26
 Precomputing XC quadrature grid using
 IXCGrd= 4 IRadAn=           7 IRanWt=          -1 IRanGd=           0 AccXCQ= 0.00D+00.
 Generated NRdTot=       0 NPtTot=           0 NUsed=           0 NTot=          32
 NSgBfM=    70    70    70    70    70 MxSgAt=     6 MxSgA2=     6.
 Leave Link  302 at Tue Nov 19 11:54:57 2024, MaxMem=   536870912 cpu:               1.0 elap:               0.1
 (Enter /home/szhao/Apps/g16/l303.exe)
 DipDrv:  MaxL=1.
 Leave Link  303 at Tue Nov 19 11:54:57 2024, MaxMem=   536870912 cpu:               0.3 elap:               0.0
 (Enter /home/szhao/Apps/g16/l401.exe)
 ExpMin= 4.38D-02 ExpMax= 4.56D+03 ExpMxC= 6.82D+02 IAcc=3 IRadAn=         7 AccDes= 0.00D+00
 Harris functional with IExCor= 1009 and IRadAn=       7 diagonalized for initial guess.
 HarFok:  IExCor= 1009 AccDes= 0.00D+00 IRadAn=         7 IDoV= 1 UseB2=F ITyADJ=14
 ICtDFT=  3500011 ScaDFX=  1.000000  1.000000  1.000000  1.000000
 FoFCou: FMM=F IPFlag=           0 FMFlag=      100000 FMFlg1=           0
         NFxFlg=           0 DoJE=T BraDBF=F KetDBF=T FulRan=T
         wScrn=  0.000000 ICntrl=       500 IOpCl=  0 I1Cent=   200000004 NGrid=           0
         NMat0=    1 NMatS0=      1 NMatT0=    0 NMatD0=    1 NMtDS0=    0 NMtDT0=    0
 Petite list used in FoFCou.
 Harris En= -78.1658840343064    
 JPrj=0 DoOrth=F DoCkMO=F.
 Initial guess orbital symmetries:
 Alpha Orbitals:
       Occupied  (AG) (BU) (AG) (BU) (BU) (AG) (AG) (AU)
       Virtual   (BG) (AG) (BU) (BU) (AU) (AG) (AG) (BU) (AG) (BG)
                 (BU) (BU) (BU) (AG) (BU) (AG) (BU) (AG) (AU) (BG)
                 (BU) (BU) (AG) (AG) (AG) (BU) (BG) (AU) (AU) (AG)
                 (AG) (BU) (AG) (BU) (BG) (BU) (AU) (BG) (BU) (BG)
                 (AG) (AG) (AU) (BU) (BU) (AG) (BU) (AG) (AG) (BU)
                 (AU) (BU) (BG) (AG) (AG) (BU) (AG) (BU) (BU) (AG)
 Beta  Orbitals:
       Occupied  (AG) (BU) (AG) (BU) (BU) (AG) (AG)
       Virtual   (AU) (BG) (AG) (BU) (BU) (AU) (AG) (AG) (BU) (AG)
                 (BG) (BU) (BU) (BU) (AG) (BU) (AG) (BU) (AG) (AU)
                 (BG) (BU) (BU) (AG) (AG) (AG) (BU) (BG) (AU) (AU)
                 (AG) (AG) (BU) (AG) (BU) (BG) (BU) (AU) (BG) (BU)
                 (BG) (AG) (AG) (AU) (BU) (BU) (AG) (BU) (AG) (AG)
                 (BU) (AU) (BU) (BG) (AG) (AG) (BU) (AG) (BU) (BU)
                 (AG)
 The electronic state of the initial guess is 2-AU.
 Initial guess <Sx>= 0.0000 <Sy>= 0.0000 <Sz>= 0.5000 <S**2>= 0.7500 S= 0.5000
 Leave Link  401 at Tue Nov 19 11:54:57 2024, MaxMem=   536870912 cpu:               1.3 elap:               0.2
 (Enter /home/szhao/Apps/g16/l502.exe)
 Keep R1 and R2 ints in memory in symmetry-blocked form, NReq=9935231.
 FoFCou: FMM=F IPFlag=           0 FMFlag=           0 FMFlg1=           0
         NFxFlg=           0 DoJE=F BraDBF=F KetDBF=F FulRan=T
         wScrn=  0.000000 ICntrl=       600 IOpCl=  0 I1Cent=           0 NGrid=           0
         NMat0=    1 NMatS0=   2346 NMatT0=    0 NMatD0=    1 NMtDS0=    0 NMtDT0=    0
 Petite list used in FoFCou.
 UHF open shell SCF:
 Using DIIS extrapolation, IDIIS=  1040.
 NGot=   536870912 LenX=   535358062 LenY=   535352721
 Requested convergence on RMS density matrix=1.00D-08 within 128 cycles.
 Requested convergence on MAX density matrix=1.00D-06.
 Requested convergence on             energy=1.00D-06.
 No special actions if energy rises.

 Cycle   1  Pass 1  IDiag  1:
 E= -78.1475087700699    
 DIIS: error= 2.13D-02 at cycle   1 NSaved=   1.
 NSaved= 1 IEnMin= 1 EnMin= -78.1475087700699     IErMin= 1 ErrMin= 2.13D-02
 ErrMax= 2.13D-02  0.00D+00 EMaxC= 1.00D-01 BMatC= 5.99D-02 BMatP= 5.99D-02
 IDIUse=3 WtCom= 7.87D-01 WtEn= 2.13D-01
 Coeff-Com:  0.100D+01
 Coeff-En:   0.100D+01
 Coeff:      0.100D+01
 Gap=     0.291 Goal=   None    Shift=    0.000
 Gap=     0.352 Goal=   None    Shift=    0.000
 GapD=    0.291 DampG=1.000 DampE=0.500 DampFc=0.5000 IDamp=-1.
 Damping current iteration by 5.00D-01
 RMSDP=1.66D-03 MaxDP=2.39D-02              OVMax= 3.49D-02

 Cycle   2  Pass 1  IDiag  1:
 E= -78.1513178862839     Delta-E=       -0.003809116214 Rises=F Damp=T
 DIIS: error= 1.03D-02 at cycle   2 NSaved=   2.
 NSaved= 2 IEnMin= 2 EnMin= -78.1513178862839     IErMin= 2 ErrMin= 1.03D-02
 ErrMax= 1.03D-02  0.00D+00 EMaxC= 1.00D-01 BMatC= 1.43D-02 BMatP= 5.99D-02
 IDIUse=3 WtCom= 8.97D-01 WtEn= 1.03D-01
 Coeff-Com: -0.913D+00 0.191D+01
 Coeff-En:   0.000D+00 0.100D+01
 Coeff:     -0.819D+00 0.182D+01
 Gap=     0.289 Goal=   None    Shift=    0.000
 Gap=     0.347 Goal=   None    Shift=    0.000
 RMSDP=8.26D-04 MaxDP=1.25D-02 DE=-3.81D-03 OVMax= 6.50D-03

 Cycle   3  Pass 1  IDiag  1:
 E= -78.1551329563985     Delta-E=       -0.003815070115 Rises=F Damp=F
 DIIS: error= 6.05D-04 at cycle   3 NSaved=   3.
 NSaved= 3 IEnMin= 3 EnMin= -78.1551329563985     IErMin= 3 ErrMin= 6.05D-04
 ErrMax= 6.05D-04  0.00D+00 EMaxC= 1.00D-01 BMatC= 4.57D-05 BMatP= 1.43D-02
 IDIUse=3 WtCom= 9.94D-01 WtEn= 6.05D-03
 Coeff-Com: -0.745D-01 0.134D+00 0.940D+00
 Coeff-En:   0.000D+00 0.000D+00 0.100D+01
 Coeff:     -0.741D-01 0.134D+00 0.941D+00
 Gap=     0.290 Goal=   None    Shift=    0.000
 Gap=     0.347 Goal=   None    Shift=    0.000
 RMSDP=5.27D-05 MaxDP=9.56D-04 DE=-3.82D-03 OVMax= 1.46D-03

 Cycle   4  Pass 1  IDiag  1:
 E= -78.1551517394742     Delta-E=       -0.000018783076 Rises=F Damp=F
 DIIS: error= 2.65D-04 at cycle   4 NSaved=   4.
 NSaved= 4 IEnMin= 4 EnMin= -78.1551517394742     IErMin= 4 ErrMin= 2.65D-04
 ErrMax= 2.65D-04  0.00D+00 EMaxC= 1.00D-01 BMatC= 5.20D-06 BMatP= 4.57D-05
 IDIUse=3 WtCom= 9.97D-01 WtEn= 2.65D-03
 Coeff-Com:  0.547D-01-0.110D+00-0.247D+00 0.130D+01
 Coeff-En:   0.000D+00 0.000D+00 0.000D+00 0.100D+01
 Coeff:      0.545D-01-0.109D+00-0.246D+00 0.130D+01
 Gap=     0.290 Goal=   None    Shift=    0.000
 Gap=     0.347 Goal=   None    Shift=    0.000
 RMSDP=2.70D-05 MaxDP=7.04D-04 DE=-1.88D-05 OVMax= 9.38D-04

 Cycle   5  Pass 1  IDiag  1:
 E= -78.1551550983460     Delta-E=       -0.000003358872 Rises=F Damp=F
 DIIS: error= 1.06D-04 at cycle   5 NSaved=   5.
 NSaved= 5 IEnMin= 5 EnMin= -78.1551550983460     IErMin= 5 ErrMin= 1.06D-04
 ErrMax= 1.06D-04  0.00D+00 EMaxC= 1.00D-01 BMatC= 5.69D-07 BMatP= 5.20D-06
 IDIUse=3 WtCom= 9.99D-01 WtEn= 1.06D-03
 Coeff-Com:  0.139D-01-0.264D-01-0.102D+00 0.201D+00 0.914D+00
 Coeff-En:   0.000D+00 0.000D+00 0.000D+00 0.000D+00 0.100D+01
 Coeff:      0.139D-01-0.263D-01-0.102D+00 0.200D+00 0.914D+00
 Gap=     0.290 Goal=   None    Shift=    0.000
 Gap=     0.347 Goal=   None    Shift=    0.000
 RMSDP=6.50D-06 MaxDP=1.85D-04 DE=-3.36D-06 OVMax= 2.51D-04

 Cycle   6  Pass 1  IDiag  1:
 E= -78.1551553404207     Delta-E=       -0.000000242075 Rises=F Damp=F
 DIIS: error= 3.70D-05 at cycle   6 NSaved=   6.
 NSaved= 6 IEnMin= 6 EnMin= -78.1551553404207     IErMin= 6 ErrMin= 3.70D-05
 ErrMax= 3.70D-05  0.00D+00 EMaxC= 1.00D-01 BMatC= 5.66D-08 BMatP= 5.69D-07
 IDIUse=1 WtCom= 1.00D+00 WtEn= 0.00D+00
 Coeff-Com: -0.622D-02 0.126D-01 0.262D-01-0.168D+00 0.119D+00 0.102D+01
 Coeff:     -0.622D-02 0.126D-01 0.262D-01-0.168D+00 0.119D+00 0.102D+01
 Gap=     0.290 Goal=   None    Shift=    0.000
 Gap=     0.347 Goal=   None    Shift=    0.000
 RMSDP=2.08D-06 MaxDP=4.83D-05 DE=-2.42D-07 OVMax= 8.69D-05

 Cycle   7  Pass 1  IDiag  1:
 E= -78.1551553636145     Delta-E=       -0.000000023194 Rises=F Damp=F
 DIIS: error= 1.69D-06 at cycle   7 NSaved=   7.
 NSaved= 7 IEnMin= 7 EnMin= -78.1551553636145     IErMin= 7 ErrMin= 1.69D-06
 ErrMax= 1.69D-06  0.00D+00 EMaxC= 1.00D-01 BMatC= 2.14D-10 BMatP= 5.66D-08
 IDIUse=1 WtCom= 1.00D+00 WtEn= 0.00D+00
 Coeff-Com:  0.372D-03-0.772D-03-0.121D-02 0.133D-01-0.225D-01-0.115D+00
 Coeff-Com:  0.113D+01
 Coeff:      0.372D-03-0.772D-03-0.121D-02 0.133D-01-0.225D-01-0.115D+00
 Coeff:      0.113D+01
 Gap=     0.290 Goal=   None    Shift=    0.000
 Gap=     0.347 Goal=   None    Shift=    0.000
 RMSDP=1.43D-07 MaxDP=2.06D-06 DE=-2.32D-08 OVMax= 5.30D-06

 Cycle   8  Pass 1  IDiag  1:
 E= -78.1551553637411     Delta-E=       -0.000000000127 Rises=F Damp=F
 DIIS: error= 1.68D-07 at cycle   8 NSaved=   8.
 NSaved= 8 IEnMin= 8 EnMin= -78.1551553637411     IErMin= 8 ErrMin= 1.68D-07
 ErrMax= 1.68D-07  0.00D+00 EMaxC= 1.00D-01 BMatC= 2.81D-12 BMatP= 2.14D-10
 IDIUse=1 WtCom= 1.00D+00 WtEn= 0.00D+00
 Coeff-Com: -0.266D-05 0.798D-05-0.107D-04-0.586D-03 0.181D-02 0.885D-02
 Coeff-Com: -0.188D+00 0.118D+01
 Coeff:     -0.266D-05 0.798D-05-0.107D-04-0.586D-03 0.181D-02 0.885D-02
 Coeff:     -0.188D+00 0.118D+01
 Gap=     0.290 Goal=   None    Shift=    0.000
 Gap=     0.347 Goal=   None    Shift=    0.000
 RMSDP=2.11D-08 MaxDP=2.65D-07 DE=-1.27D-10 OVMax= 7.09D-07

 Cycle   9  Pass 1  IDiag  1:
 E= -78.1551553637428     Delta-E=       -0.000000000002 Rises=F Damp=F
 DIIS: error= 2.00D-08 at cycle   9 NSaved=   9.
 NSaved= 9 IEnMin= 9 EnMin= -78.1551553637428     IErMin= 9 ErrMin= 2.00D-08
 ErrMax= 2.00D-08  0.00D+00 EMaxC= 1.00D-01 BMatC= 1.89D-14 BMatP= 2.81D-12
 IDIUse=1 WtCom= 1.00D+00 WtEn= 0.00D+00
 Coeff-Com: -0.346D-05 0.665D-05 0.108D-04-0.303D-04-0.794D-04-0.474D-03
 Coeff-Com:  0.202D-01-0.182D+00 0.116D+01
 Coeff:     -0.346D-05 0.665D-05 0.108D-04-0.303D-04-0.794D-04-0.474D-03
 Coeff:      0.202D-01-0.182D+00 0.116D+01
 Gap=     0.290 Goal=   None    Shift=    0.000
 Gap=     0.347 Goal=   None    Shift=    0.000
 RMSDP=2.07D-09 MaxDP=2.51D-08 DE=-1.73D-12 OVMax= 7.49D-08

 SCF Done:  E(UM062X) =  -78.1551553637     A.U. after    9 cycles
            NFock=  9  Conv=0.21D-08     -V/T= 2.0084
 <Sx>= 0.0000 <Sy>= 0.0000 <Sz>= 0.5000 <S**2>= 0.7524 S= 0.5012
 <L.S>=  0.00000000000    
 KE= 7.750153442673D+01 PE=-2.360416473436D+02 EE= 5.040593155293D+01
 Annihilation of the first spin contaminant:
 S**2 before annihilation     0.7524,   after     0.7500
 Leave Link  502 at Tue Nov 19 11:54:58 2024, MaxMem=   536870912 cpu:              12.2 elap:               1.5
 (Enter /home/szhao/Apps/g16/l601.exe)
 Copying SCF densities to generalized density rwf, IOpCl= 1 IROHF=0.

 **********************************************************************

            Population analysis using the SCF density.

 **********************************************************************

 Orbital symmetries:
 Alpha Orbitals:
       Occupied  (AG) (BU) (AG) (BU) (BU) (AG) (AG) (AU)
       Virtual   (BG) (AG) (BU) (BU) (AU) (AG) (AG) (BU) (BG) (AG)
                 (BU) (BU) (BU) (AG) (BU) (AG) (BU) (AG) (AU) (BG)
                 (BU) (BU) (AG) (AG) (AG) (BU) (BG) (AU) (AU) (AG)
                 (BU) (AG) (AG) (BU) (BG) (BU) (AU) (BG) (BG) (BU)
                 (AG) (AG) (AU) (BU) (BU) (AG) (BU) (AG) (AG) (BU)
                 (AU) (BU) (BG) (AG) (AG) (BU) (AG) (BU) (BU) (AG)
 Beta  Orbitals:
       Occupied  (AG) (BU) (AG) (BU) (BU) (AG) (AG)
       Virtual   (AU) (BG) (AG) (BU) (BU) (AU) (AG) (AG) (AG) (BG)
                 (BU) (BU) (BU) (BU) (AG) (BU) (AG) (BU) (AU) (AG)
                 (BG) (BU) (BU) (AG) (AG) (AG) (BU) (BG) (AU) (AU)
                 (AG) (BU) (AG) (AG) (BU) (BG) (BU) (AU) (BG) (BG)
                 (BU) (AG) (AG) (AU) (BU) (BU) (AG) (BU) (AG) (AG)
                 (BU) (AU) (BU) (BG) (AG) (AG) (BU) (AG) (BU) (BU)
                 (AG)
 The electronic state is 2-AU.
 Alpha  occ. eigenvalues --  -10.90999 -10.90965  -1.12569  -0.98755  -0.82612
 Alpha  occ. eigenvalues --   -0.75171  -0.74858  -0.61831
 Alpha virt. eigenvalues --   -0.32852  -0.14514  -0.14100  -0.11613  -0.09083
 Alpha virt. eigenvalues --   -0.07525  -0.07169  -0.05103  -0.04624  -0.04603
 Alpha virt. eigenvalues --   -0.01827  -0.01245   0.03132   0.10020   0.19087
 Alpha virt. eigenvalues --    0.23296   0.26121   0.32279   0.32776   0.37386
 Alpha virt. eigenvalues --    0.42218   0.42781   0.46204   0.47235   0.54866
 Alpha virt. eigenvalues --    0.57351   0.77350   0.77812   0.83867   1.15261
 Alpha virt. eigenvalues --    1.15949   1.16953   1.18481   1.28232   1.30857
 Alpha virt. eigenvalues --    1.32354   1.47324   1.62085   1.63450   1.64956
 Alpha virt. eigenvalues --    1.70611   1.78972   1.80554   1.85694   2.12901
 Alpha virt. eigenvalues --    2.22086   2.26394   2.32265   2.38119   2.39052
 Alpha virt. eigenvalues --    2.42252   2.49158   2.52567   2.58100   2.66521
 Alpha virt. eigenvalues --    3.43109   3.50378   3.68286  23.47528  23.55285
  Beta  occ. eigenvalues --  -10.90774 -10.90749  -1.09027  -0.96715  -0.81769
  Beta  occ. eigenvalues --   -0.74823  -0.73747
  Beta virt. eigenvalues --   -0.39006  -0.25040  -0.16182  -0.13431  -0.11936
  Beta virt. eigenvalues --   -0.09225  -0.08257  -0.07206  -0.04633  -0.03991
  Beta virt. eigenvalues --   -0.03715  -0.01238  -0.00600   0.02787   0.10526
  Beta virt. eigenvalues --    0.18681   0.22927   0.26803   0.32579   0.33953
  Beta virt. eigenvalues --    0.35982   0.43283   0.44165   0.47352   0.47651
  Beta virt. eigenvalues --    0.52795   0.56575   0.80680   0.81690   0.86518
  Beta virt. eigenvalues --    1.17410   1.17860   1.17898   1.23706   1.31042
  Beta virt. eigenvalues --    1.32241   1.34059   1.48809   1.64166   1.66188
  Beta virt. eigenvalues --    1.67921   1.72124   1.80441   1.82550   1.88716
  Beta virt. eigenvalues --    2.16393   2.25638   2.27525   2.33046   2.40668
  Beta virt. eigenvalues --    2.41585   2.46079   2.51168   2.57084   2.62102
  Beta virt. eigenvalues --    2.68205   3.47984   3.55241   3.74392  23.48807
  Beta virt. eigenvalues --   23.56638
          Condensed to atoms (all electrons):
               1          2          3          4          5          6
     1  C    4.927777   0.413242   0.378256   0.378252  -0.018826  -0.018819
     2  C    0.413242   4.927777  -0.018826  -0.018819   0.378256   0.378252
     3  H    0.378256  -0.018826   0.365296  -0.005533   0.000964  -0.000095
     4  H    0.378252  -0.018819  -0.005533   0.365286  -0.000095   0.000964
     5  H   -0.018826   0.378256   0.000964  -0.000095   0.365296  -0.005533
     6  H   -0.018819   0.378252  -0.000095   0.000964  -0.005533   0.365286
          Atomic-Atomic Spin Densities.
               1          2          3          4          5          6
     1  C    0.448475   0.100854  -0.006110  -0.006110   0.001034   0.001034
     2  C    0.100854   0.448475   0.001034   0.001034  -0.006110  -0.006110
     3  H   -0.006110   0.001034  -0.014021  -0.000297  -0.000002  -0.000194
     4  H   -0.006110   0.001034  -0.000297  -0.014020  -0.000194  -0.000002
     5  H    0.001034  -0.006110  -0.000002  -0.000194  -0.014021  -0.000297
     6  H    0.001034  -0.006110  -0.000194  -0.000002  -0.000297  -0.014020
 Mulliken charges and spin densities:
               1          2
     1  C   -0.059882   0.539178
     2  C   -0.059882   0.539178
     3  H    0.279937  -0.019589
     4  H    0.279945  -0.019588
     5  H    0.279937  -0.019589
     6  H    0.279945  -0.019588
 Sum of Mulliken charges =   1.00000   1.00000
 Mulliken charges and spin densities with hydrogens summed into heavy atoms:
               1          2
     1  C    0.500000   0.500000
     2  C    0.500000   0.500000
 Electronic spatial extent (au):  <R**2>=             85.7357
 Charge=              1.0000 electrons
 Dipole moment (field-independent basis, Debye):
    X=              0.0000    Y=              0.0000    Z=              0.0000  Tot=              0.0000
 Quadrupole moment (field-independent basis, Debye-Ang):
   XX=             -8.3681   YY=             -4.4342   ZZ=            -11.9434
   XY=              0.0002   XZ=              0.0000   YZ=              0.0000
 Traceless Quadrupole moment (field-independent basis, Debye-Ang):
   XX=             -0.1195   YY=              3.8144   ZZ=             -3.6949
   XY=              0.0002   XZ=              0.0000   YZ=              0.0000
 Octapole moment (field-independent basis, Debye-Ang**2):
  XXX=              0.0000  YYY=              0.0000  ZZZ=              0.0000  XYY=              0.0000
  XXY=              0.0000  XXZ=              0.0000  XZZ=              0.0000  YZZ=             -0.0000
  YYZ=              0.0000  XYZ=              0.0000
 Hexadecapole moment (field-independent basis, Debye-Ang**3):
 XXXX=            -17.9765 YYYY=            -62.3609 ZZZZ=            -11.4052 XXXY=             -0.0001
 XXXZ=              0.0000 YYYX=              0.0014 YYYZ=              0.0000 ZZZX=              0.0000
 ZZZY=              0.0000 XXYY=             -7.2727 XXZZ=             -6.1072 YYZZ=            -14.2176
 XXYZ=              0.0000 YYXZ=              0.0000 ZZXY=             -0.0000
 N-N= 2.997902600015D+01 E-N=-2.360416472299D+02  KE= 7.750153442673D+01
 Symmetry AG   KE= 3.956016162593D+01
 Symmetry BG   KE= 1.815395304834D-32
 Symmetry AU   KE= 1.091069865832D+00
 Symmetry BU   KE= 3.685030293497D+01
 Symmetry AG   SP= 5.721567005178D-15
 Symmetry BG   SP= 1.416314030232D-33
 Symmetry AU   SP= 1.000000000000D+00
 Symmetry BU   SP=-1.720450742746D-16
                          Isotropic Fermi Contact Couplings
        Atom                 a.u.       MegaHertz       Gauss      10(-4) cm-1
     1  C(13)              0.09156     102.93133      36.72846      34.33420
     2  C(13)              0.09156     102.93133      36.72846      34.33420
     3  H(1)              -0.00866     -38.70468     -13.81079     -12.91049
     4  H(1)              -0.00866     -38.70540     -13.81105     -12.91073
     5  H(1)              -0.00866     -38.70468     -13.81079     -12.91049
     6  H(1)              -0.00866     -38.70540     -13.81105     -12.91073
 --------------------------------------------------------
       Center         ----  Spin Dipole Couplings  ----
                      3XX-RR        3YY-RR        3ZZ-RR
 --------------------------------------------------------
     1   Atom       -0.286166     -0.276050      0.562216
     2   Atom       -0.286166     -0.276050      0.562216
     3   Atom        0.015715     -0.007124     -0.008591
     4   Atom        0.015710     -0.007118     -0.008591
     5   Atom        0.015715     -0.007124     -0.008591
     6   Atom        0.015710     -0.007118     -0.008591
 --------------------------------------------------------
                        XY            XZ            YZ
 --------------------------------------------------------
     1   Atom        0.000000      0.000000      0.000000
     2   Atom        0.000000      0.000000      0.000000
     3   Atom       -0.039522      0.000000      0.000000
     4   Atom        0.039524      0.000000      0.000000
     5   Atom       -0.039522      0.000000      0.000000
     6   Atom        0.039524      0.000000      0.000000
 --------------------------------------------------------


 ---------------------------------------------------------------------------------
              Anisotropic Spin Dipole Couplings in Principal Axis System
 ---------------------------------------------------------------------------------

       Atom             a.u.   MegaHertz   Gauss  10(-4) cm-1        Axes

              Baa    -0.2862   -38.401   -13.702   -12.809  1.0000 -0.0000 -0.0000
     1 C(13)  Bbb    -0.2760   -37.043   -13.218   -12.356  0.0000  1.0000  0.0000
              Bcc     0.5622    75.444    26.920    25.165  0.0000  0.0000  1.0000
 
              Baa    -0.2862   -38.401   -13.702   -12.809  1.0000 -0.0000 -0.0000
     2 C(13)  Bbb    -0.2760   -37.043   -13.218   -12.356  0.0000  1.0000  0.0000
              Bcc     0.5622    75.444    26.920    25.165  0.0000  0.0000  1.0000
 
              Baa    -0.0368   -19.658    -7.014    -6.557  0.6010  0.7992  0.0000
     3 H(1)   Bbb    -0.0086    -4.584    -1.636    -1.529  0.0000  0.0000  1.0000
              Bcc     0.0454    24.242     8.650     8.086  0.7992 -0.6010 -0.0000
 
              Baa    -0.0368   -19.658    -7.014    -6.557 -0.6011  0.7992 -0.0000
     4 H(1)   Bbb    -0.0086    -4.584    -1.636    -1.529  0.0000  0.0000  1.0000
              Bcc     0.0454    24.242     8.650     8.086  0.7992  0.6011  0.0000
 
              Baa    -0.0368   -19.658    -7.014    -6.557  0.6010  0.7992  0.0000
     5 H(1)   Bbb    -0.0086    -4.584    -1.636    -1.529  0.0000  0.0000  1.0000
              Bcc     0.0454    24.242     8.650     8.086  0.7992 -0.6010 -0.0000
 
              Baa    -0.0368   -19.658    -7.014    -6.557 -0.6011  0.7992 -0.0000
     6 H(1)   Bbb    -0.0086    -4.584    -1.636    -1.529  0.0000  0.0000  1.0000
              Bcc     0.0454    24.242     8.650     8.086  0.7992  0.6011  0.0000
 

 ---------------------------------------------------------------------------------

 No NMR shielding tensors so no spin-rotation constants.
 Leave Link  601 at Tue Nov 19 11:54:59 2024, MaxMem=   536870912 cpu:               1.3 elap:               0.2
 (Enter /home/szhao/Apps/g16/l701.exe)
 ... and contract with generalized density number  0.
 Compute integral first derivatives.
 Leave Link  701 at Tue Nov 19 11:54:59 2024, MaxMem=   536870912 cpu:               0.8 elap:               0.1
 (Enter /home/szhao/Apps/g16/l702.exe)
 L702 exits ... SP integral derivatives will be done elsewhere.
 Leave Link  702 at Tue Nov 19 11:54:59 2024, MaxMem=   536870912 cpu:               0.2 elap:               0.0
 (Enter /home/szhao/Apps/g16/l703.exe)
 Integral derivatives from FoFJK, PRISM(SPDF).
 Compute integral first derivatives, UseDBF=F ICtDFT=           0.
 Calling FoFJK, ICntrl=      2127 FMM=F ISym2X=1 I1Cent= 0 IOpClX= 1 NMat=1 NMatS=1 NMatT=0.
 FoFJK:  IHMeth= 1 ICntrl=    2127 DoSepK=F KAlg= 0 I1Cent=           0 FoldK=F
 IRaf=         0 NMat=       1 IRICut=       1 DoRegI=T DoRafI=F ISym2E= 1 IDoP0=0 IntGTp=1.
 FoFCou: FMM=F IPFlag=           0 FMFlag=      100000 FMFlg1=         800
         NFxFlg=           0 DoJE=F BraDBF=F KetDBF=F FulRan=T
         wScrn=  0.000000 ICntrl=      2127 IOpCl=  1 I1Cent=           0 NGrid=           0
         NMat0=    1 NMatS0=      1 NMatT0=    0 NMatD0=    1 NMtDS0=    0 NMtDT0=    0
 Petite list used in FoFCou.
 Leave Link  703 at Tue Nov 19 11:54:59 2024, MaxMem=   536870912 cpu:               3.2 elap:               0.4
 (Enter /home/szhao/Apps/g16/l716.exe)
 Dipole        = 4.44089210D-16 3.10862447D-15 0.00000000D+00
 ***** Axes restored to original set *****
 -------------------------------------------------------------------
 Center     Atomic                   Forces (Hartrees/Bohr)
 Number     Number              X              Y              Z
 -------------------------------------------------------------------
      1        6           0.111642713   -0.000006128   -0.000000000
      2        6          -0.111642713    0.000006128   -0.000000000
      3        1           0.000004220   -0.000000568   -0.000000000
      4        1           0.000011672   -0.000000987   -0.000000000
      5        1          -0.000004220    0.000000568   -0.000000000
      6        1          -0.000011672    0.000000987   -0.000000000
 -------------------------------------------------------------------
 Cartesian Forces:  Max     0.111642713 RMS     0.037214238
 Z-matrix is all fixed cartesians, so copy forces.
 Force constants in Cartesian coordinates: 
                1             2             3             4             5 
      1  0.549236D+00
      2 -0.815770D-05  0.679200D+00
      3  0.000000D+00  0.000000D+00  0.856824D-01
      4 -0.212220D+00  0.117633D-05  0.000000D+00  0.549236D+00
      5  0.117633D-05 -0.114585D+00  0.000000D+00 -0.815770D-05  0.679200D+00
      6  0.000000D+00  0.000000D+00 -0.400404D-01  0.000000D+00  0.000000D+00
      7 -0.168499D+00 -0.110093D+00  0.000000D+00  0.000000D+00 -0.221422D-01
      8 -0.100369D+00 -0.294308D+00  0.000000D+00  0.000000D+00  0.119866D-01
      9  0.000000D+00  0.000000D+00 -0.303481D-01  0.000000D+00  0.000000D+00
     10 -0.168517D+00  0.110101D+00  0.000000D+00  0.000000D+00  0.221411D-01
     11  0.100376D+00 -0.294283D+00  0.000000D+00  0.000000D+00  0.119885D-01
     12  0.000000D+00  0.000000D+00 -0.303481D-01  0.000000D+00  0.000000D+00
     13  0.000000D+00 -0.221422D-01  0.000000D+00 -0.168499D+00 -0.110093D+00
     14  0.000000D+00  0.119866D-01  0.000000D+00 -0.100369D+00 -0.294308D+00
     15  0.000000D+00  0.000000D+00  0.752714D-02  0.000000D+00  0.000000D+00
     16  0.000000D+00  0.221411D-01  0.000000D+00 -0.168517D+00  0.110101D+00
     17  0.000000D+00  0.119885D-01  0.000000D+00  0.100376D+00 -0.294283D+00
     18  0.000000D+00  0.000000D+00  0.752705D-02  0.000000D+00  0.000000D+00
                6             7             8             9            10 
      6  0.856824D-01
      7  0.000000D+00  0.139070D+00
      8  0.000000D+00  0.116300D+00  0.290947D+00
      9  0.752714D-02  0.000000D+00  0.000000D+00  0.121179D-01
     10  0.000000D+00  0.294293D-01 -0.159314D-01  0.000000D+00  0.139088D+00
     11  0.000000D+00  0.159347D-01 -0.862620D-02  0.000000D+00 -0.116311D+00
     12  0.752705D-02  0.000000D+00  0.000000D+00  0.107031D-01  0.000000D+00
     13  0.000000D+00  0.000000D+00  0.000000D+00  0.000000D+00  0.000000D+00
     14  0.000000D+00  0.000000D+00  0.000000D+00  0.000000D+00  0.000000D+00
     15 -0.303481D-01  0.000000D+00  0.000000D+00  0.707367D-03  0.000000D+00
     16  0.000000D+00  0.000000D+00  0.000000D+00  0.000000D+00  0.000000D+00
     17  0.000000D+00  0.000000D+00  0.000000D+00  0.000000D+00  0.000000D+00
     18 -0.303481D-01  0.000000D+00  0.000000D+00 -0.707396D-03  0.000000D+00
               11            12            13            14            15 
     11  0.290921D+00
     12  0.000000D+00  0.121179D-01
     13  0.000000D+00  0.000000D+00  0.139070D+00
     14  0.000000D+00  0.000000D+00  0.116300D+00  0.290947D+00
     15  0.000000D+00 -0.707396D-03  0.000000D+00  0.000000D+00  0.121179D-01
     16  0.000000D+00  0.000000D+00  0.294293D-01 -0.159314D-01  0.000000D+00
     17  0.000000D+00  0.000000D+00  0.159347D-01 -0.862620D-02  0.000000D+00
     18  0.000000D+00  0.707425D-03  0.000000D+00  0.000000D+00  0.107031D-01
               16            17            18 
     16  0.139088D+00
     17 -0.116311D+00  0.290921D+00
     18  0.000000D+00  0.000000D+00  0.121179D-01
 Leave Link  716 at Tue Nov 19 11:54:59 2024, MaxMem=   536870912 cpu:               0.3 elap:               0.0
 (Enter /home/szhao/Apps/g16/l103.exe)

 GradGradGradGradGradGradGradGradGradGradGradGradGradGradGradGradGradGrad
 Berny optimization.
 Search for a local minimum.
 Step number   1 out of a maximum of    2
 All quantities printed in internal units (Hartrees-Bohrs-Radians)
 Second derivative matrix not updated -- first step.
 The second derivative matrix:
                          X1        Y1        Z1        X2        Y2
           X1           0.54924
           Y1          -0.00001   0.67920
           Z1           0.00000   0.00000   0.08568
           X2          -0.21222   0.00000   0.00000   0.54924
           Y2           0.00000  -0.11458   0.00000  -0.00001   0.67920
           Z2           0.00000   0.00000  -0.04004   0.00000   0.00000
           X3          -0.16850  -0.11009   0.00000  -0.00000  -0.02214
           Y3          -0.10037  -0.29431   0.00000   0.00000   0.01199
           Z3           0.00000   0.00000  -0.03035   0.00000   0.00000
           X4          -0.16852   0.11010   0.00000   0.00000   0.02214
           Y4           0.10038  -0.29428   0.00000   0.00000   0.01199
           Z4           0.00000   0.00000  -0.03035   0.00000   0.00000
           X5          -0.00000  -0.02214   0.00000  -0.16850  -0.11009
           Y5           0.00000   0.01199   0.00000  -0.10037  -0.29431
           Z5           0.00000   0.00000   0.00753   0.00000   0.00000
           X6           0.00000   0.02214   0.00000  -0.16852   0.11010
           Y6           0.00000   0.01199   0.00000   0.10038  -0.29428
           Z6           0.00000   0.00000   0.00753   0.00000   0.00000
                          Z2        X3        Y3        Z3        X4
           Z2           0.08568
           X3           0.00000   0.13907
           Y3           0.00000   0.11630   0.29095
           Z3           0.00753   0.00000   0.00000   0.01212
           X4           0.00000   0.02943  -0.01593   0.00000   0.13909
           Y4           0.00000   0.01593  -0.00863   0.00000  -0.11631
           Z4           0.00753   0.00000   0.00000   0.01070   0.00000
           X5           0.00000   0.00000   0.00000   0.00000   0.00000
           Y5           0.00000   0.00000   0.00000   0.00000   0.00000
           Z5          -0.03035   0.00000   0.00000   0.00071   0.00000
           X6           0.00000   0.00000   0.00000   0.00000   0.00000
           Y6           0.00000   0.00000   0.00000   0.00000   0.00000
           Z6          -0.03035   0.00000   0.00000  -0.00071   0.00000
                          Y4        Z4        X5        Y5        Z5
           Y4           0.29092
           Z4           0.00000   0.01212
           X5           0.00000   0.00000   0.13907
           Y5           0.00000   0.00000   0.11630   0.29095
           Z5           0.00000  -0.00071   0.00000   0.00000   0.01212
           X6           0.00000   0.00000   0.02943  -0.01593   0.00000
           Y6           0.00000   0.00000   0.01593  -0.00863   0.00000
           Z6           0.00000   0.00071   0.00000   0.00000   0.01070
                          X6        Y6        Z6
           X6           0.13909
           Y6          -0.11631   0.29092
           Z6           0.00000   0.00000   0.01212
 ITU=  0
     Eigenvalues ---    0.00283   0.04359   0.05648   0.07275   0.11008
     Eigenvalues ---    0.12462   0.18982   0.26405   0.52675   0.76470
     Eigenvalues ---    0.89273   0.95672
 Quadratic step=6.445D-01 exceeds max=3.000D-01 adjusted using Lamda=-1.170D-01.
 Angle between NR and scaled steps=  18.05 degrees.
 Angle between quadratic step and forces=  38.52 degrees.
 ClnCor:  largest displacement from symmetrization is 2.82D-14 for atom     6.
 Linear search not attempted -- first point.
 ClnCor:  largest displacement from symmetrization is 2.22D-15 for atom     3.
 B after Tr=    -0.000000    0.000000    0.000000
         Rot=    1.000000   -0.000000   -0.000000   -0.000001 Ang=  -0.00 deg.
 Variable       Old X    -DE/DX   Delta X   Delta X   Delta X     New X
                                 (Linear)    (Quad)   (Total)
    X1       -1.54957   0.11164   0.00000   0.16649   0.16649  -1.38307
    Y1       -0.00000  -0.00001   0.00000  -0.00001  -0.00001  -0.00001
    Z1        0.00000  -0.00000   0.00000   0.00000   0.00000   0.00000
    X2        1.54957  -0.11164   0.00000  -0.16649  -0.16649   1.38307
    Y2       -0.00000   0.00001   0.00000   0.00001   0.00001   0.00001
    Z2        0.00000  -0.00000   0.00000   0.00000   0.00000   0.00000
    X3       -2.52572   0.00000   0.00000   0.09197   0.09197  -2.43374
    Y3       -1.80319  -0.00000   0.00000   0.01795   0.01795  -1.78524
    Z3        0.00000  -0.00000   0.00000   0.00000   0.00000   0.00000
    X4       -2.52588   0.00001   0.00000   0.09201   0.09201  -2.43387
    Y4        1.80312  -0.00000   0.00000  -0.01796  -0.01796   1.78516
    Z4        0.00000  -0.00000   0.00000   0.00000   0.00000   0.00000
    X5        2.52572  -0.00000   0.00000  -0.09197  -0.09197   2.43374
    Y5        1.80319   0.00000   0.00000  -0.01795  -0.01795   1.78524
    Z5        0.00000  -0.00000   0.00000   0.00000   0.00000   0.00000
    X6        2.52588  -0.00001   0.00000  -0.09201  -0.09201   2.43387
    Y6       -1.80312   0.00000   0.00000   0.01796   0.01796  -1.78516
    Z6        0.00000  -0.00000   0.00000   0.00000   0.00000   0.00000
         Item               Value     Threshold  Converged?
 Maximum Force            0.111643     0.000450     NO 
 RMS     Force            0.037214     0.000300     NO 
 Maximum Displacement     0.166492     0.001800     NO 
 RMS     Displacement     0.070938     0.001200     NO 
 Predicted change in Energy=-2.388629D-02
 GradGradGradGradGradGradGradGradGradGradGradGradGradGradGradGradGradGrad

 Leave Link  103 at Tue Nov 19 11:54:59 2024, MaxMem=   536870912 cpu:               0.1 elap:               0.0
 (Enter /home/szhao/Apps/g16/l9999.exe)
 1\1\GINC-NODE01\Force\UM062X\6-311+G(d,p)\C2H4(1+,2)\SZHAO\19-Nov-2024
 \0\\#p UM062X/6-311+G** force int=superfine\\Title Card Required\\1,2\
 C,-0.819995,0.,0.\C,0.819995,0.,0.\H,-1.336551,-0.954207,0.\H,-1.33663
 7,0.954168,0.\H,1.336551,0.954207,0.\H,1.336637,-0.954168,0.\\Version=
 ES64L-G16RevA.03\State=2-AU\HF=-78.1551554\S2=0.752392\S2-1=0.\S2A=0.7
 50005\RMSD=2.071e-09\RMSF=3.721e-02\Dipole=0.,0.,0.\Quadrupole=2.83590
 06,-0.0888414,-2.7470591,-0.0001715,0.,0.\PG=C02H [SGH(C2H4)]\\@


 DEMOCRATS BUY MOST OF THE BOOKS THAT HAVE BEEN
 BANNED; REPUBLICANS FORM CENSORSHIP COMMITTEES AND
 READ THEM AS A GROUP.
 Job cpu time:       0 days  0 hours  0 minutes 23.2 seconds.
 Elapsed time:       0 days  0 hours  0 minutes  2.9 seconds.
 File lengths (MBytes):  RWF=      6 Int=      0 D2E=      0 Chk=      1 Scr=      1
 Normal termination of Gaussian 16 at Tue Nov 19 11:54:59 2024.
