 Entering Gaussian System, Link 0=g16
 Initial command:
 /home/szhao/Apps/g16/l1.exe "/home/szhao/tmp/Gau-92279.inp" -scrdir="/home/szhao/tmp/"
 Default is to use a total of  16 processors:
                               16 via shared-memory
                                1 via Linda
 Entering Link 1 = /home/szhao/Apps/g16/l1.exe PID=     92290.
  
 Copyright (c) 1988,1990,1992,1993,1995,1998,2003,2009,2016,
            Gaussian, Inc.  All Rights Reserved.
  
 This is part of the Gaussian(R) 16 program.  It is based on
 the Gaussian(R) 09 system (copyright 2009, Gaussian, Inc.),
 the Gaussian(R) 03 system (copyright 2003, Gaussian, Inc.),
 the Gaussian(R) 98 system (copyright 1998, Gaussian, Inc.),
 the Gaussian(R) 94 system (copyright 1995, Gaussian, Inc.),
 the Gaussian 92(TM) system (copyright 1992, Gaussian, Inc.),
 the Gaussian 90(TM) system (copyright 1990, Gaussian, Inc.),
 the Gaussian 88(TM) system (copyright 1988, Gaussian, Inc.),
 the Gaussian 86(TM) system (copyright 1986, Carnegie Mellon
 University), and the Gaussian 82(TM) system (copyright 1983,
 Carnegie Mellon University). Gaussian is a federally registered
 trademark of Gaussian, Inc.
  
 This software contains proprietary and confidential information,
 including trade secrets, belonging to Gaussian, Inc.
  
 This software is provided under written license and may be
 used, copied, transmitted, or stored only in accord with that
 written license.
  
 The following legend is applicable only to US Government
 contracts under FAR:
  
                    RESTRICTED RIGHTS LEGEND
  
 Use, reproduction and disclosure by the US Government is
 subject to restrictions as set forth in subparagraphs (a)
 and (c) of the Commercial Computer Software - Restricted
 Rights clause in FAR 52.227-19.
  
 Gaussian, Inc.
 340 Quinnipiac St., Bldg. 40, Wallingford CT 06492
  
  
 ---------------------------------------------------------------
 Warning -- This program may not be used in any manner that
 competes with the business of Gaussian, Inc. or will provide
 assistance to any competitor of Gaussian, Inc.  The licensee
 of this program is prohibited from giving any competitor of
 Gaussian, Inc. access to this program.  By using this program,
 the user acknowledges that Gaussian, Inc. is engaged in the
 business of creating and licensing software in the field of
 computational chemistry and represents and warrants to the
 licensee that it is not a competitor of Gaussian, Inc. and that
 it will not use this program in any manner prohibited above.
 ---------------------------------------------------------------
  

 Cite this work as:
 Gaussian 16, Revision A.03,
 M. J. Frisch, G. W. Trucks, H. B. Schlegel, G. E. Scuseria, 
 M. A. Robb, J. R. Cheeseman, G. Scalmani, V. Barone, 
 G. A. Petersson, H. Nakatsuji, X. Li, M. Caricato, A. V. Marenich, 
 J. Bloino, B. G. Janesko, R. Gomperts, B. Mennucci, H. P. Hratchian, 
 J. V. Ortiz, A. F. Izmaylov, J. L. Sonnenberg, D. Williams-Young, 
 F. Ding, F. Lipparini, F. Egidi, J. Goings, B. Peng, A. Petrone, 
 T. Henderson, D. Ranasinghe, V. G. Zakrzewski, J. Gao, N. Rega, 
 G. Zheng, W. Liang, M. Hada, M. Ehara, K. Toyota, R. Fukuda, 
 J. Hasegawa, M. Ishida, T. Nakajima, Y. Honda, O. Kitao, H. Nakai, 
 T. Vreven, K. Throssell, J. A. Montgomery, Jr., J. E. Peralta, 
 F. Ogliaro, M. J. Bearpark, J. J. Heyd, E. N. Brothers, K. N. Kudin, 
 V. N. Staroverov, T. A. Keith, R. Kobayashi, J. Normand, 
 K. Raghavachari, A. P. Rendell, J. C. Burant, S. S. Iyengar, 
 J. Tomasi, M. Cossi, J. M. Millam, M. Klene, C. Adamo, R. Cammi, 
 J. W. Ochterski, R. L. Martin, K. Morokuma, O. Farkas, 
 J. B. Foresman, and D. J. Fox, Gaussian, Inc., Wallingford CT, 2016.
 
 ******************************************
 Gaussian 16:  ES64L-G16RevA.03 25-Dec-2016
                20-Mar-2025 
 ******************************************
 %chk=opt.chk
 %mem=24GB
 %nprocshared=28
 Will use up to   28 processors via shared memory.
 ---------------------------------------------------------------------
 #p opt UM062X/6-311+G** nosymm int=superfine SCF=(Tight,MaxCycle=200)
 ---------------------------------------------------------------------
 1/18=20,19=15,26=5,38=1/1,3;
 2/9=110,12=2,15=1,17=6,18=5,40=1/2;
 3/5=4,6=6,7=111,11=2,25=1,30=1,71=1,74=-55,75=-7,116=2/1,2,3;
 4//1;
 5/5=2,7=200,32=2,38=5/2;
 6/7=2,8=2,9=2,10=2,28=1/1;
 7/30=1/1,2,3,16;
 1/18=20,19=15,26=5/3(2);
 2/9=110,15=1/2;
 99//99;
 2/9=110,15=1/2;
 3/5=4,6=6,7=111,11=2,25=1,30=1,71=1,74=-55,75=-7,116=2/1,2,3;
 4/5=5,16=3,69=1/1;
 5/5=2,7=200,32=2,38=5/2;
 7/30=1/1,2,3,16;
 1/18=20,19=15,26=5/3(-5);
 2/9=110,15=1/2;
 6/7=2,8=2,9=2,10=2,19=2,28=1/1;
 99/9=1/99;
 Leave Link    1 at Thu Mar 20 16:20:20 2025, MaxMem=  3221225472 cpu:               3.3 elap:               0.2
 (Enter /home/szhao/Apps/g16/l101.exe)
 -------------------
 Title Card Required
 -------------------
 Symbolic Z-matrix:
 Charge =  1 Multiplicity = 2
 C                    -1   -0.97017   0.        0. 
 C                    -1    0.97017   0.        0. 
 C                    0     0.00001  -2.15642   0.00036 
 C                    0     0.00001  -3.53177   0.00057 
 C                    0    -0.9045   -4.32428   0.27971 
 C                    0    -0.9694   -1.48111   0.2612 
 C                    0     0.52653  -5.72059  -0.16373 
 H                    0     1.01533  -6.59818  -0.31972 
 C                    0    -1.17754   0.83924   1.1605 
 C                    0    -0.52671  -5.72054   0.16439 
 H                    0    -1.0156   -6.59809   0.32024 
 C                    0     0.90444  -4.32436  -0.2788 
 C                    0     0.96938  -1.48116  -0.26092 
 C                    0     1.33705   2.2544   -1.16869 
 C                    0    -1.17699   0.30603  -1.40737 
 C                    0    -1.51034   2.91081   2.39777 
 H                    0    -1.63809   3.98261   2.37971 
 C                    0    -1.8421   -3.6642    0.5763 
 H                    0    -2.57422  -4.19797   0.80626 
 C                    0    -1.24285   1.60942  -1.98927 
 C                    0     1.86487  -2.23543  -0.55534 
 H                    0     2.62045  -1.73401  -0.73946 
 C                    0     1.17714   0.30612   1.40731 
 C                    0     1.24289   1.60951   1.98921 
 C                    0     1.84198  -3.66436  -0.57587 
 H                    0     2.57402  -4.19818  -0.80609 
 C                    0    -1.33761   2.25427   1.16871 
 C                    0    -1.17113   0.19488   2.42776 
 H                    0    -1.02384  -0.86727   2.47573 
 C                    0     1.28444  -0.78817   2.31079 
 H                    0     1.26916  -1.80013   1.93766 
 C                    0    -1.52225   2.24306   3.60206 
 H                    0    -1.6616    2.7823    4.52521 
 C                    0    -1.86496  -2.23528   0.55555 
 H                    0    -2.62056  -1.73379   0.73936 
 C                    0    -1.35877   1.73854  -3.38704 
 H                    0    -1.39119   2.73907  -3.80158 
 C                    0     1.17749   0.83929  -1.16052 
 C                    0    -1.30076   3.13329   0.02989 
 H                    0    -1.33981   4.18685   0.28739 
 C                    0    -1.45503   0.65295  -4.22299 
 H                    0    -1.55924   0.79239  -5.2892 
 C                    0    -1.23629   2.8645   -1.2869 
 H                    0    -1.22631   3.73279  -1.93871 
 C                    0     1.35936   1.73861   3.38692 
 H                    0     1.39175   2.73914   3.80146 
 C                    0    -1.34128   0.86413   3.61171 
 H                    0    -1.32651   0.31624   4.54595 
 C                    0    -1.28391  -0.78826  -2.31093 
 H                    0    -1.26864  -1.80023  -1.93785 
 C                    0     1.45611   0.65303   4.22278 
 H                    0     1.56072   0.79245   5.28892 
 C                    0     1.50975   2.91107  -2.39768 
 H                    0     1.63708   3.98295  -2.37956 
 C                    0     1.43124  -0.62739   3.66585 
 H                    0     1.52479  -1.50257   4.29316 
 C                    0     1.52213   2.24335  -3.60198 
 H                    0     1.66149   2.78268  -4.52509 
 C                    0     1.29956   3.13344  -0.0299 
 H                    0     1.33783   4.18703  -0.28744 
 C                    0    -1.43028  -0.62747  -3.66607 
 H                    0    -1.52354  -1.50265  -4.29345 
 C                    0     1.23547   2.8646    1.28691 
 H                    0     1.22502   3.73287   1.93873 
 C                    0     1.17136   0.19499  -2.42782 
 H                    0     1.02425  -0.86718  -2.4759 
 C                    0     1.34154   0.86436  -3.61171 
 H                    0     1.32706   0.31649  -4.54597 
 
 ITRead=  2  2  0  0  0  0  0  0  0  0  0  0  0  0  0  0  0  0  0  0
 ITRead=  0  0  0  0  0  0  0  0  0  0  0  0  0  0  0  0  0  0  0  0
 ITRead=  0  0  0  0  0  0  0  0  0  0  0  0  0  0  0  0  0  0  0  0
 ITRead=  0  0  0  0  0  0  0  0
 MicOpt= -2 -2 -1 -1 -1 -1 -1 -1 -1 -1 -1 -1 -1 -1 -1 -1 -1 -1 -1 -1
 MicOpt= -1 -1 -1 -1 -1 -1 -1 -1 -1 -1 -1 -1 -1 -1 -1 -1 -1 -1 -1 -1
 MicOpt= -1 -1 -1 -1 -1 -1 -1 -1 -1 -1 -1 -1 -1 -1 -1 -1 -1 -1 -1 -1
 MicOpt= -1 -1 -1 -1 -1 -1 -1 -1
 NAtoms=     68 NQM=       66 NQMF=       2 NMMI=      0 NMMIF=      0
                NMic=       0 NMicF=      0.
                    Isotopes and Nuclear Properties:
 (Nuclear quadrupole moments (NQMom) in fm**2, nuclear magnetic moments (NMagM)
  in nuclear magnetons)

  Atom         1           2           3           4           5           6           7           8           9          10
 IAtWgt=          12          12          12          12          12          12          12           1          12          12
 AtmWgt=  12.0000000  12.0000000  12.0000000  12.0000000  12.0000000  12.0000000  12.0000000   1.0078250  12.0000000  12.0000000
 NucSpn=           0           0           0           0           0           0           0           1           0           0
 AtZEff=  -0.0000000  -0.0000000  -0.0000000  -0.0000000  -0.0000000  -0.0000000  -0.0000000  -0.0000000  -0.0000000  -0.0000000
 NQMom=    0.0000000   0.0000000   0.0000000   0.0000000   0.0000000   0.0000000   0.0000000   0.0000000   0.0000000   0.0000000
 NMagM=    0.0000000   0.0000000   0.0000000   0.0000000   0.0000000   0.0000000   0.0000000   2.7928460   0.0000000   0.0000000
 AtZNuc=   6.0000000   6.0000000   6.0000000   6.0000000   6.0000000   6.0000000   6.0000000   1.0000000   6.0000000   6.0000000

  Atom        11          12          13          14          15          16          17          18          19          20
 IAtWgt=           1          12          12          12          12          12           1          12           1          12
 AtmWgt=   1.0078250  12.0000000  12.0000000  12.0000000  12.0000000  12.0000000   1.0078250  12.0000000   1.0078250  12.0000000
 NucSpn=           1           0           0           0           0           0           1           0           1           0
 AtZEff=  -0.0000000  -0.0000000  -0.0000000  -0.0000000  -0.0000000  -0.0000000  -0.0000000  -0.0000000  -0.0000000  -0.0000000
 NQMom=    0.0000000   0.0000000   0.0000000   0.0000000   0.0000000   0.0000000   0.0000000   0.0000000   0.0000000   0.0000000
 NMagM=    2.7928460   0.0000000   0.0000000   0.0000000   0.0000000   0.0000000   2.7928460   0.0000000   2.7928460   0.0000000
 AtZNuc=   1.0000000   6.0000000   6.0000000   6.0000000   6.0000000   6.0000000   1.0000000   6.0000000   1.0000000   6.0000000

  Atom        21          22          23          24          25          26          27          28          29          30
 IAtWgt=          12           1          12          12          12           1          12          12           1          12
 AtmWgt=  12.0000000   1.0078250  12.0000000  12.0000000  12.0000000   1.0078250  12.0000000  12.0000000   1.0078250  12.0000000
 NucSpn=           0           1           0           0           0           1           0           0           1           0
 AtZEff=  -0.0000000  -0.0000000  -0.0000000  -0.0000000  -0.0000000  -0.0000000  -0.0000000  -0.0000000  -0.0000000  -0.0000000
 NQMom=    0.0000000   0.0000000   0.0000000   0.0000000   0.0000000   0.0000000   0.0000000   0.0000000   0.0000000   0.0000000
 NMagM=    0.0000000   2.7928460   0.0000000   0.0000000   0.0000000   2.7928460   0.0000000   0.0000000   2.7928460   0.0000000
 AtZNuc=   6.0000000   1.0000000   6.0000000   6.0000000   6.0000000   1.0000000   6.0000000   6.0000000   1.0000000   6.0000000

  Atom        31          32          33          34          35          36          37          38          39          40
 IAtWgt=           1          12           1          12           1          12           1          12          12           1
 AtmWgt=   1.0078250  12.0000000   1.0078250  12.0000000   1.0078250  12.0000000   1.0078250  12.0000000  12.0000000   1.0078250
 NucSpn=           1           0           1           0           1           0           1           0           0           1
 AtZEff=  -0.0000000  -0.0000000  -0.0000000  -0.0000000  -0.0000000  -0.0000000  -0.0000000  -0.0000000  -0.0000000  -0.0000000
 NQMom=    0.0000000   0.0000000   0.0000000   0.0000000   0.0000000   0.0000000   0.0000000   0.0000000   0.0000000   0.0000000
 NMagM=    2.7928460   0.0000000   2.7928460   0.0000000   2.7928460   0.0000000   2.7928460   0.0000000   0.0000000   2.7928460
 AtZNuc=   1.0000000   6.0000000   1.0000000   6.0000000   1.0000000   6.0000000   1.0000000   6.0000000   6.0000000   1.0000000

  Atom        41          42          43          44          45          46          47          48          49          50
 IAtWgt=          12           1          12           1          12           1          12           1          12           1
 AtmWgt=  12.0000000   1.0078250  12.0000000   1.0078250  12.0000000   1.0078250  12.0000000   1.0078250  12.0000000   1.0078250
 NucSpn=           0           1           0           1           0           1           0           1           0           1
 AtZEff=  -0.0000000  -0.0000000  -0.0000000  -0.0000000  -0.0000000  -0.0000000  -0.0000000  -0.0000000  -0.0000000  -0.0000000
 NQMom=    0.0000000   0.0000000   0.0000000   0.0000000   0.0000000   0.0000000   0.0000000   0.0000000   0.0000000   0.0000000
 NMagM=    0.0000000   2.7928460   0.0000000   2.7928460   0.0000000   2.7928460   0.0000000   2.7928460   0.0000000   2.7928460
 AtZNuc=   6.0000000   1.0000000   6.0000000   1.0000000   6.0000000   1.0000000   6.0000000   1.0000000   6.0000000   1.0000000

  Atom        51          52          53          54          55          56          57          58          59          60
 IAtWgt=          12           1          12           1          12           1          12           1          12           1
 AtmWgt=  12.0000000   1.0078250  12.0000000   1.0078250  12.0000000   1.0078250  12.0000000   1.0078250  12.0000000   1.0078250
 NucSpn=           0           1           0           1           0           1           0           1           0           1
 AtZEff=  -0.0000000  -0.0000000  -0.0000000  -0.0000000  -0.0000000  -0.0000000  -0.0000000  -0.0000000  -0.0000000  -0.0000000
 NQMom=    0.0000000   0.0000000   0.0000000   0.0000000   0.0000000   0.0000000   0.0000000   0.0000000   0.0000000   0.0000000
 NMagM=    0.0000000   2.7928460   0.0000000   2.7928460   0.0000000   2.7928460   0.0000000   2.7928460   0.0000000   2.7928460
 AtZNuc=   6.0000000   1.0000000   6.0000000   1.0000000   6.0000000   1.0000000   6.0000000   1.0000000   6.0000000   1.0000000

  Atom        61          62          63          64          65          66          67          68
 IAtWgt=          12           1          12           1          12           1          12           1
 AtmWgt=  12.0000000   1.0078250  12.0000000   1.0078250  12.0000000   1.0078250  12.0000000   1.0078250
 NucSpn=           0           1           0           1           0           1           0           1
 AtZEff=  -0.0000000  -0.0000000  -0.0000000  -0.0000000  -0.0000000  -0.0000000  -0.0000000  -0.0000000
 NQMom=    0.0000000   0.0000000   0.0000000   0.0000000   0.0000000   0.0000000   0.0000000   0.0000000
 NMagM=    0.0000000   2.7928460   0.0000000   2.7928460   0.0000000   2.7928460   0.0000000   2.7928460
 AtZNuc=   6.0000000   1.0000000   6.0000000   1.0000000   6.0000000   1.0000000   6.0000000   1.0000000
 Leave Link  101 at Thu Mar 20 16:20:23 2025, MaxMem=  3221225472 cpu:              16.9 elap:               0.7
 (Enter /home/szhao/Apps/g16/l103.exe)

 GradGradGradGradGradGradGradGradGradGradGradGradGradGradGradGradGradGrad
 Berny optimization.
 Initialization pass.
                           ----------------------------
                           !    Initial Parameters    !
                           ! (Angstroms and Degrees)  !
 --------------------------                            --------------------------
 ! Name  Definition              Value          Derivative Info.                !
 --------------------------------------------------------------------------------
 ! X1    R(1,-1)                -0.9702         Frozen                          !
 ! Y1    R(1,-2)                 0.0            Frozen                          !
 ! Z1    R(1,-3)                 0.0            Frozen                          !
 ! X2    R(2,-1)                 0.9702         Frozen                          !
 ! Y2    R(2,-2)                 0.0            Frozen                          !
 ! Z2    R(2,-3)                 0.0            Frozen                          !
 ! R1    R(1,6)                  1.504          estimate D2E/DX2                !
 ! R2    R(1,9)                  1.4471         estimate D2E/DX2                !
 ! R3    R(1,15)                 1.455          estimate D2E/DX2                !
 ! R4    R(2,13)                 1.504          estimate D2E/DX2                !
 ! R5    R(2,23)                 1.455          estimate D2E/DX2                !
 ! R6    R(2,38)                 1.4471         estimate D2E/DX2                !
 ! R7    R(3,4)                  1.3754         estimate D2E/DX2                !
 ! R8    R(3,6)                  1.2099         estimate D2E/DX2                !
 ! R9    R(3,13)                 1.2099         estimate D2E/DX2                !
 ! R10   R(4,5)                  1.2346         estimate D2E/DX2                !
 ! R11   R(4,12)                 1.2346         estimate D2E/DX2                !
 ! R12   R(5,10)                 1.4511         estimate D2E/DX2                !
 ! R13   R(5,18)                 1.1844         estimate D2E/DX2                !
 ! R14   R(6,34)                 1.2072         estimate D2E/DX2                !
 ! R15   R(7,8)                  1.0166         estimate D2E/DX2                !
 ! R16   R(7,10)                 1.1032         estimate D2E/DX2                !
 ! R17   R(7,12)                 1.451          estimate D2E/DX2                !
 ! R18   R(9,27)                 1.4241         estimate D2E/DX2                !
 ! R19   R(9,28)                 1.4217         estimate D2E/DX2                !
 ! R20   R(10,11)                1.0166         estimate D2E/DX2                !
 ! R21   R(12,25)                1.1844         estimate D2E/DX2                !
 ! R22   R(13,21)                1.2073         estimate D2E/DX2                !
 ! R23   R(14,38)                1.4241         estimate D2E/DX2                !
 ! R24   R(14,53)                1.4041         estimate D2E/DX2                !
 ! R25   R(14,59)                1.4391         estimate D2E/DX2                !
 ! R26   R(15,20)                1.4289         estimate D2E/DX2                !
 ! R27   R(15,49)                1.4231         estimate D2E/DX2                !
 ! R28   R(16,17)                1.0795         estimate D2E/DX2                !
 ! R29   R(16,27)                1.4041         estimate D2E/DX2                !
 ! R30   R(16,32)                1.3771         estimate D2E/DX2                !
 ! R31   R(18,19)                0.9348         estimate D2E/DX2                !
 ! R32   R(18,34)                1.4293         estimate D2E/DX2                !
 ! R33   R(20,36)                1.4085         estimate D2E/DX2                !
 ! R34   R(20,43)                1.4383         estimate D2E/DX2                !
 ! R35   R(21,22)                0.9253         estimate D2E/DX2                !
 ! R36   R(21,25)                1.4293         estimate D2E/DX2                !
 ! R37   R(23,24)                1.4289         estimate D2E/DX2                !
 ! R38   R(23,30)                1.4231         estimate D2E/DX2                !
 ! R39   R(24,45)                1.4085         estimate D2E/DX2                !
 ! R40   R(24,63)                1.4382         estimate D2E/DX2                !
 ! R41   R(25,26)                0.9348         estimate D2E/DX2                !
 ! R42   R(27,39)                1.4391         estimate D2E/DX2                !
 ! R43   R(28,29)                1.0734         estimate D2E/DX2                !
 ! R44   R(28,47)                1.3706         estimate D2E/DX2                !
 ! R45   R(30,31)                1.0787         estimate D2E/DX2                !
 ! R46   R(30,55)                1.3724         estimate D2E/DX2                !
 ! R47   R(32,33)                1.0782         estimate D2E/DX2                !
 ! R48   R(32,47)                1.3908         estimate D2E/DX2                !
 ! R49   R(34,35)                0.9253         estimate D2E/DX2                !
 ! R50   R(36,37)                1.0835         estimate D2E/DX2                !
 ! R51   R(36,41)                1.3735         estimate D2E/DX2                !
 ! R52   R(38,65)                1.4217         estimate D2E/DX2                !
 ! R53   R(39,40)                1.0853         estimate D2E/DX2                !
 ! R54   R(39,43)                1.3455         estimate D2E/DX2                !
 ! R55   R(41,42)                1.0803         estimate D2E/DX2                !
 ! R56   R(41,61)                1.3965         estimate D2E/DX2                !
 ! R57   R(43,44)                1.0858         estimate D2E/DX2                !
 ! R58   R(45,46)                1.0835         estimate D2E/DX2                !
 ! R59   R(45,51)                1.3735         estimate D2E/DX2                !
 ! R60   R(47,48)                1.0831         estimate D2E/DX2                !
 ! R61   R(49,50)                1.0787         estimate D2E/DX2                !
 ! R62   R(49,61)                1.3725         estimate D2E/DX2                !
 ! R63   R(51,52)                1.0803         estimate D2E/DX2                !
 ! R64   R(51,55)                1.3965         estimate D2E/DX2                !
 ! R65   R(53,54)                1.0796         estimate D2E/DX2                !
 ! R66   R(53,57)                1.3771         estimate D2E/DX2                !
 ! R67   R(55,56)                1.0808         estimate D2E/DX2                !
 ! R68   R(57,58)                1.0782         estimate D2E/DX2                !
 ! R69   R(57,67)                1.3908         estimate D2E/DX2                !
 ! R70   R(59,60)                1.0853         estimate D2E/DX2                !
 ! R71   R(59,63)                1.3455         estimate D2E/DX2                !
 ! R72   R(61,62)                1.0809         estimate D2E/DX2                !
 ! R73   R(63,64)                1.0858         estimate D2E/DX2                !
 ! R74   R(65,66)                1.0734         estimate D2E/DX2                !
 ! R75   R(65,67)                1.3706         estimate D2E/DX2                !
 ! R76   R(67,68)                1.0831         estimate D2E/DX2                !
 ! A1    A(6,1,9)              115.5902         estimate D2E/DX2                !
 ! A2    A(6,1,15)             112.0361         estimate D2E/DX2                !
 ! A3    A(9,1,15)             129.2962         estimate D2E/DX2                !
 ! A4    A(13,2,23)            112.029          estimate D2E/DX2                !
 ! A5    A(13,2,38)            115.6019         estimate D2E/DX2                !
 ! A6    A(23,2,38)            129.2907         estimate D2E/DX2                !
 ! A7    A(4,3,6)              123.9264         estimate D2E/DX2                !
 ! A8    A(4,3,13)             123.9266         estimate D2E/DX2                !
 ! A9    A(6,3,13)             112.147          estimate D2E/DX2                !
 ! A10   A(3,4,5)              129.9389         estimate D2E/DX2                !
 ! A11   A(3,4,12)             129.9374         estimate D2E/DX2                !
 ! A12   A(5,4,12)             100.1237         estimate D2E/DX2                !
 ! A13   A(4,5,10)             114.1407         estimate D2E/DX2                !
 ! A14   A(4,5,18)             106.1924         estimate D2E/DX2                !
 ! A15   A(10,5,18)            139.665          estimate D2E/DX2                !
 ! A16   A(1,6,3)              120.84           estimate D2E/DX2                !
 ! A17   A(1,6,34)             131.0846         estimate D2E/DX2                !
 ! A18   A(3,6,34)             107.353          estimate D2E/DX2                !
 ! A19   A(8,7,10)             120.3148         estimate D2E/DX2                !
 ! A20   A(8,7,12)             133.8898         estimate D2E/DX2                !
 ! A21   A(10,7,12)            105.7953         estimate D2E/DX2                !
 ! A22   A(1,9,27)             126.6552         estimate D2E/DX2                !
 ! A23   A(1,9,28)             116.8295         estimate D2E/DX2                !
 ! A24   A(27,9,28)            116.4697         estimate D2E/DX2                !
 ! A25   A(5,10,7)             105.798          estimate D2E/DX2                !
 ! A26   A(5,10,11)            133.8891         estimate D2E/DX2                !
 ! A27   A(7,10,11)            120.3127         estimate D2E/DX2                !
 ! A28   A(4,12,7)             114.1419         estimate D2E/DX2                !
 ! A29   A(4,12,25)            106.1942         estimate D2E/DX2                !
 ! A30   A(7,12,25)            139.6617         estimate D2E/DX2                !
 ! A31   A(2,13,3)             120.8368         estimate D2E/DX2                !
 ! A32   A(2,13,21)            131.0879         estimate D2E/DX2                !
 ! A33   A(3,13,21)            107.3525         estimate D2E/DX2                !
 ! A34   A(38,14,53)           118.9162         estimate D2E/DX2                !
 ! A35   A(38,14,59)           126.8354         estimate D2E/DX2                !
 ! A36   A(53,14,59)           114.2161         estimate D2E/DX2                !
 ! A37   A(1,15,20)            126.3204         estimate D2E/DX2                !
 ! A38   A(1,15,49)            117.585          estimate D2E/DX2                !
 ! A39   A(20,15,49)           116.0631         estimate D2E/DX2                !
 ! A40   A(17,16,27)           117.6557         estimate D2E/DX2                !
 ! A41   A(17,16,32)           119.6716         estimate D2E/DX2                !
 ! A42   A(27,16,32)           122.6726         estimate D2E/DX2                !
 ! A43   A(5,18,19)            111.3085         estimate D2E/DX2                !
 ! A44   A(5,18,34)            124.486          estimate D2E/DX2                !
 ! A45   A(19,18,34)           124.1896         estimate D2E/DX2                !
 ! A46   A(15,20,36)           119.4421         estimate D2E/DX2                !
 ! A47   A(15,20,43)           126.6484         estimate D2E/DX2                !
 ! A48   A(36,20,43)           113.8917         estimate D2E/DX2                !
 ! A49   A(13,21,22)           108.4003         estimate D2E/DX2                !
 ! A50   A(13,21,25)           128.0429         estimate D2E/DX2                !
 ! A51   A(22,21,25)           123.5027         estimate D2E/DX2                !
 ! A52   A(2,23,24)            126.3234         estimate D2E/DX2                !
 ! A53   A(2,23,30)            117.5804         estimate D2E/DX2                !
 ! A54   A(24,23,30)           116.0649         estimate D2E/DX2                !
 ! A55   A(23,24,45)           119.4419         estimate D2E/DX2                !
 ! A56   A(23,24,63)           126.6489         estimate D2E/DX2                !
 ! A57   A(45,24,63)           113.8915         estimate D2E/DX2                !
 ! A58   A(12,25,21)           124.4844         estimate D2E/DX2                !
 ! A59   A(12,25,26)           111.3113         estimate D2E/DX2                !
 ! A60   A(21,25,26)           124.1884         estimate D2E/DX2                !
 ! A61   A(9,27,16)            118.9141         estimate D2E/DX2                !
 ! A62   A(9,27,39)            126.834          estimate D2E/DX2                !
 ! A63   A(16,27,39)           114.2199         estimate D2E/DX2                !
 ! A64   A(9,28,29)            119.2712         estimate D2E/DX2                !
 ! A65   A(9,28,47)            123.2376         estimate D2E/DX2                !
 ! A66   A(29,28,47)           117.4909         estimate D2E/DX2                !
 ! A67   A(23,30,31)           120.0472         estimate D2E/DX2                !
 ! A68   A(23,30,55)           123.0113         estimate D2E/DX2                !
 ! A69   A(31,30,55)           116.9333         estimate D2E/DX2                !
 ! A70   A(16,32,33)           120.4902         estimate D2E/DX2                !
 ! A71   A(16,32,47)           119.0589         estimate D2E/DX2                !
 ! A72   A(33,32,47)           120.449          estimate D2E/DX2                !
 ! A73   A(6,34,18)            128.0417         estimate D2E/DX2                !
 ! A74   A(6,34,35)            108.3991         estimate D2E/DX2                !
 ! A75   A(18,34,35)           123.5049         estimate D2E/DX2                !
 ! A76   A(20,36,37)           117.8265         estimate D2E/DX2                !
 ! A77   A(20,36,41)           122.4999         estimate D2E/DX2                !
 ! A78   A(37,36,41)           119.6627         estimate D2E/DX2                !
 ! A79   A(2,38,14)            126.652          estimate D2E/DX2                !
 ! A80   A(2,38,65)            116.834          estimate D2E/DX2                !
 ! A81   A(14,38,65)           116.468          estimate D2E/DX2                !
 ! A82   A(27,39,40)           113.8468         estimate D2E/DX2                !
 ! A83   A(27,39,43)           130.8193         estimate D2E/DX2                !
 ! A84   A(40,39,43)           115.332          estimate D2E/DX2                !
 ! A85   A(36,41,42)           120.3588         estimate D2E/DX2                !
 ! A86   A(36,41,61)           118.7315         estimate D2E/DX2                !
 ! A87   A(42,41,61)           120.9059         estimate D2E/DX2                !
 ! A88   A(20,43,39)           130.6956         estimate D2E/DX2                !
 ! A89   A(20,43,44)           113.8743         estimate D2E/DX2                !
 ! A90   A(39,43,44)           115.3532         estimate D2E/DX2                !
 ! A91   A(24,45,46)           117.8264         estimate D2E/DX2                !
 ! A92   A(24,45,51)           122.4987         estimate D2E/DX2                !
 ! A93   A(46,45,51)           119.664          estimate D2E/DX2                !
 ! A94   A(28,47,32)           119.6223         estimate D2E/DX2                !
 ! A95   A(28,47,48)           119.7605         estimate D2E/DX2                !
 ! A96   A(32,47,48)           120.6157         estimate D2E/DX2                !
 ! A97   A(15,49,50)           120.0476         estimate D2E/DX2                !
 ! A98   A(15,49,61)           123.0125         estimate D2E/DX2                !
 ! A99   A(50,49,61)           116.9318         estimate D2E/DX2                !
 ! A100  A(45,51,52)           120.358          estimate D2E/DX2                !
 ! A101  A(45,51,55)           118.7326         estimate D2E/DX2                !
 ! A102  A(52,51,55)           120.9056         estimate D2E/DX2                !
 ! A103  A(14,53,54)           117.6564         estimate D2E/DX2                !
 ! A104  A(14,53,57)           122.671          estimate D2E/DX2                !
 ! A105  A(54,53,57)           119.6726         estimate D2E/DX2                !
 ! A106  A(30,55,51)           120.2027         estimate D2E/DX2                !
 ! A107  A(30,55,56)           119.1724         estimate D2E/DX2                !
 ! A108  A(51,55,56)           120.6247         estimate D2E/DX2                !
 ! A109  A(53,57,58)           120.4893         estimate D2E/DX2                !
 ! A110  A(53,57,67)           119.059          estimate D2E/DX2                !
 ! A111  A(58,57,67)           120.4497         estimate D2E/DX2                !
 ! A112  A(14,59,60)           113.8465         estimate D2E/DX2                !
 ! A113  A(14,59,63)           130.8176         estimate D2E/DX2                !
 ! A114  A(60,59,63)           115.3339         estimate D2E/DX2                !
 ! A115  A(41,61,49)           120.2027         estimate D2E/DX2                !
 ! A116  A(41,61,62)           120.6237         estimate D2E/DX2                !
 ! A117  A(49,61,62)           119.1735         estimate D2E/DX2                !
 ! A118  A(24,63,59)           130.6933         estimate D2E/DX2                !
 ! A119  A(24,63,64)           113.8759         estimate D2E/DX2                !
 ! A120  A(59,63,64)           115.3541         estimate D2E/DX2                !
 ! A121  A(38,65,66)           119.273          estimate D2E/DX2                !
 ! A122  A(38,65,67)           123.237          estimate D2E/DX2                !
 ! A123  A(66,65,67)           117.4897         estimate D2E/DX2                !
 ! A124  A(57,67,65)           119.6236         estimate D2E/DX2                !
 ! A125  A(57,67,68)           120.6159         estimate D2E/DX2                !
 ! A126  A(65,67,68)           119.7589         estimate D2E/DX2                !
 ! D1    D(9,1,6,3)           -120.2399         estimate D2E/DX2                !
 ! D2    D(9,1,6,34)            70.8151         estimate D2E/DX2                !
 ! D3    D(15,1,6,3)            77.6971         estimate D2E/DX2                !
 ! D4    D(15,1,6,34)          -91.2478         estimate D2E/DX2                !
 ! D5    D(6,1,9,27)          -174.1189         estimate D2E/DX2                !
 ! D6    D(6,1,9,28)             8.437          estimate D2E/DX2                !
 ! D7    D(15,1,9,27)          -15.7658         estimate D2E/DX2                !
 ! D8    D(15,1,9,28)          166.7901         estimate D2E/DX2                !
 ! D9    D(6,1,15,20)          179.4378         estimate D2E/DX2                !
 ! D10   D(6,1,15,49)           -2.6921         estimate D2E/DX2                !
 ! D11   D(9,1,15,20)           20.4717         estimate D2E/DX2                !
 ! D12   D(9,1,15,49)         -161.6582         estimate D2E/DX2                !
 ! D13   D(23,2,13,3)           77.6865         estimate D2E/DX2                !
 ! D14   D(23,2,13,21)         -91.2547         estimate D2E/DX2                !
 ! D15   D(38,2,13,3)         -120.2542         estimate D2E/DX2                !
 ! D16   D(38,2,13,21)          70.8046         estimate D2E/DX2                !
 ! D17   D(13,2,23,24)         179.448          estimate D2E/DX2                !
 ! D18   D(13,2,23,30)          -2.6776         estimate D2E/DX2                !
 ! D19   D(38,2,23,24)          20.4823         estimate D2E/DX2                !
 ! D20   D(38,2,23,30)        -161.6432         estimate D2E/DX2                !
 ! D21   D(13,2,38,14)        -174.1425         estimate D2E/DX2                !
 ! D22   D(13,2,38,65)           8.4237         estimate D2E/DX2                !
 ! D23   D(23,2,38,14)         -15.7932         estimate D2E/DX2                !
 ! D24   D(23,2,38,65)         166.773          estimate D2E/DX2                !
 ! D25   D(6,3,4,5)             -2.0768         estimate D2E/DX2                !
 ! D26   D(6,3,4,12)           177.8934         estimate D2E/DX2                !
 ! D27   D(13,3,4,5)           177.9357         estimate D2E/DX2                !
 ! D28   D(13,3,4,12)           -2.0941         estimate D2E/DX2                !
 ! D29   D(4,3,6,1)           -168.7376         estimate D2E/DX2                !
 ! D30   D(4,3,6,34)             2.553          estimate D2E/DX2                !
 ! D31   D(13,3,6,1)            11.2512         estimate D2E/DX2                !
 ! D32   D(13,3,6,34)         -177.4582         estimate D2E/DX2                !
 ! D33   D(4,3,13,2)          -168.73           estimate D2E/DX2                !
 ! D34   D(4,3,13,21)            2.5581         estimate D2E/DX2                !
 ! D35   D(6,3,13,2)            11.2812         estimate D2E/DX2                !
 ! D36   D(6,3,13,21)         -177.4307         estimate D2E/DX2                !
 ! D37   D(3,4,5,10)          -179.9589         estimate D2E/DX2                !
 ! D38   D(3,4,5,18)            -0.3602         estimate D2E/DX2                !
 ! D39   D(12,4,5,10)            0.0642         estimate D2E/DX2                !
 ! D40   D(12,4,5,18)          179.663          estimate D2E/DX2                !
 ! D41   D(3,4,12,7)          -179.9199         estimate D2E/DX2                !
 ! D42   D(3,4,12,25)           -0.3484         estimate D2E/DX2                !
 ! D43   D(5,4,12,7)             0.0569         estimate D2E/DX2                !
 ! D44   D(5,4,12,25)          179.6285         estimate D2E/DX2                !
 ! D45   D(4,5,10,7)            -0.194          estimate D2E/DX2                !
 ! D46   D(4,5,10,11)          179.6526         estimate D2E/DX2                !
 ! D47   D(18,5,10,7)         -179.5986         estimate D2E/DX2                !
 ! D48   D(18,5,10,11)           0.2479         estimate D2E/DX2                !
 ! D49   D(4,5,18,19)         -179.7807         estimate D2E/DX2                !
 ! D50   D(4,5,18,34)            1.6198         estimate D2E/DX2                !
 ! D51   D(10,5,18,19)          -0.3464         estimate D2E/DX2                !
 ! D52   D(10,5,18,34)        -178.9459         estimate D2E/DX2                !
 ! D53   D(1,6,34,18)          168.7102         estimate D2E/DX2                !
 ! D54   D(1,6,34,35)           -8.6525         estimate D2E/DX2                !
 ! D55   D(3,6,34,18)           -1.3572         estimate D2E/DX2                !
 ! D56   D(3,6,34,35)         -178.7199         estimate D2E/DX2                !
 ! D57   D(8,7,10,5)          -179.6754         estimate D2E/DX2                !
 ! D58   D(8,7,10,11)            0.4527         estimate D2E/DX2                !
 ! D59   D(12,7,10,5)            0.1972         estimate D2E/DX2                !
 ! D60   D(12,7,10,11)        -179.6747         estimate D2E/DX2                !
 ! D61   D(8,7,12,4)           179.6582         estimate D2E/DX2                !
 ! D62   D(8,7,12,25)            0.2939         estimate D2E/DX2                !
 ! D63   D(10,7,12,4)           -0.1891         estimate D2E/DX2                !
 ! D64   D(10,7,12,25)        -179.5534         estimate D2E/DX2                !
 ! D65   D(1,9,27,16)         -179.0431         estimate D2E/DX2                !
 ! D66   D(1,9,27,39)           -1.2289         estimate D2E/DX2                !
 ! D67   D(28,9,27,16)          -1.5909         estimate D2E/DX2                !
 ! D68   D(28,9,27,39)         176.2233         estimate D2E/DX2                !
 ! D69   D(1,9,28,29)           -0.4702         estimate D2E/DX2                !
 ! D70   D(1,9,28,47)          179.3331         estimate D2E/DX2                !
 ! D71   D(27,9,28,29)        -178.1798         estimate D2E/DX2                !
 ! D72   D(27,9,28,47)           1.6235         estimate D2E/DX2                !
 ! D73   D(4,12,25,21)           1.6207         estimate D2E/DX2                !
 ! D74   D(4,12,25,26)        -179.7771         estimate D2E/DX2                !
 ! D75   D(7,12,25,21)        -178.9833         estimate D2E/DX2                !
 ! D76   D(7,12,25,26)          -0.3812         estimate D2E/DX2                !
 ! D77   D(2,13,21,22)          -8.6553         estimate D2E/DX2                !
 ! D78   D(2,13,21,25)         168.7134         estimate D2E/DX2                !
 ! D79   D(3,13,21,22)        -178.719          estimate D2E/DX2                !
 ! D80   D(3,13,21,25)          -1.3503         estimate D2E/DX2                !
 ! D81   D(53,14,38,2)        -179.0405         estimate D2E/DX2                !
 ! D82   D(53,14,38,65)         -1.5984         estimate D2E/DX2                !
 ! D83   D(59,14,38,2)          -1.2333         estimate D2E/DX2                !
 ! D84   D(59,14,38,65)        176.2087         estimate D2E/DX2                !
 ! D85   D(38,14,53,54)       -179.5001         estimate D2E/DX2                !
 ! D86   D(38,14,53,57)          0.4714         estimate D2E/DX2                !
 ! D87   D(59,14,53,54)          2.4242         estimate D2E/DX2                !
 ! D88   D(59,14,53,57)       -177.6043         estimate D2E/DX2                !
 ! D89   D(38,14,59,60)       -173.6895         estimate D2E/DX2                !
 ! D90   D(38,14,59,63)          6.8623         estimate D2E/DX2                !
 ! D91   D(53,14,59,60)          4.2059         estimate D2E/DX2                !
 ! D92   D(53,14,59,63)       -175.2423         estimate D2E/DX2                !
 ! D93   D(1,15,20,36)         175.7279         estimate D2E/DX2                !
 ! D94   D(1,15,20,43)          -5.9094         estimate D2E/DX2                !
 ! D95   D(49,15,20,36)         -2.1706         estimate D2E/DX2                !
 ! D96   D(49,15,20,43)        176.1921         estimate D2E/DX2                !
 ! D97   D(1,15,49,50)           3.5378         estimate D2E/DX2                !
 ! D98   D(1,15,49,61)        -177.5307         estimate D2E/DX2                !
 ! D99   D(20,15,49,50)       -178.3725         estimate D2E/DX2                !
 ! D100  D(20,15,49,61)          0.559          estimate D2E/DX2                !
 ! D101  D(17,16,27,9)        -179.498          estimate D2E/DX2                !
 ! D102  D(17,16,27,39)          2.4202         estimate D2E/DX2                !
 ! D103  D(32,16,27,9)           0.4727         estimate D2E/DX2                !
 ! D104  D(32,16,27,39)       -177.6092         estimate D2E/DX2                !
 ! D105  D(17,16,32,33)          0.2193         estimate D2E/DX2                !
 ! D106  D(17,16,32,47)       -179.2734         estimate D2E/DX2                !
 ! D107  D(27,16,32,33)       -179.7508         estimate D2E/DX2                !
 ! D108  D(27,16,32,47)          0.7565         estimate D2E/DX2                !
 ! D109  D(5,18,34,6)           -0.9366         estimate D2E/DX2                !
 ! D110  D(5,18,34,35)         176.0618         estimate D2E/DX2                !
 ! D111  D(19,18,34,6)        -179.3592         estimate D2E/DX2                !
 ! D112  D(19,18,34,35)         -2.3608         estimate D2E/DX2                !
 ! D113  D(15,20,36,37)       -179.0755         estimate D2E/DX2                !
 ! D114  D(15,20,36,41)          2.1362         estimate D2E/DX2                !
 ! D115  D(43,20,36,37)          2.3612         estimate D2E/DX2                !
 ! D116  D(43,20,36,41)       -176.4271         estimate D2E/DX2                !
 ! D117  D(15,20,43,39)         -7.3371         estimate D2E/DX2                !
 ! D118  D(15,20,43,44)        176.0512         estimate D2E/DX2                !
 ! D119  D(36,20,43,39)        171.1034         estimate D2E/DX2                !
 ! D120  D(36,20,43,44)         -5.5083         estimate D2E/DX2                !
 ! D121  D(13,21,25,12)         -0.9482         estimate D2E/DX2                !
 ! D122  D(13,21,25,26)       -179.3739         estimate D2E/DX2                !
 ! D123  D(22,21,25,12)        176.0573         estimate D2E/DX2                !
 ! D124  D(22,21,25,26)         -2.3683         estimate D2E/DX2                !
 ! D125  D(2,23,24,45)         175.7453         estimate D2E/DX2                !
 ! D126  D(2,23,24,63)          -5.8808         estimate D2E/DX2                !
 ! D127  D(30,23,24,45)         -2.1574         estimate D2E/DX2                !
 ! D128  D(30,23,24,63)        176.2165         estimate D2E/DX2                !
 ! D129  D(2,23,30,31)           3.527          estimate D2E/DX2                !
 ! D130  D(2,23,30,55)        -177.5441         estimate D2E/DX2                !
 ! D131  D(24,23,30,31)       -178.3793         estimate D2E/DX2                !
 ! D132  D(24,23,30,55)          0.5496         estimate D2E/DX2                !
 ! D133  D(23,24,45,46)       -179.0795         estimate D2E/DX2                !
 ! D134  D(23,24,45,51)          2.1287         estimate D2E/DX2                !
 ! D135  D(63,24,45,46)          2.3474         estimate D2E/DX2                !
 ! D136  D(63,24,45,51)       -176.4445         estimate D2E/DX2                !
 ! D137  D(23,24,63,59)         -7.3654         estimate D2E/DX2                !
 ! D138  D(23,24,63,64)        176.0194         estimate D2E/DX2                !
 ! D139  D(45,24,63,59)        171.0858         estimate D2E/DX2                !
 ! D140  D(45,24,63,64)         -5.5294         estimate D2E/DX2                !
 ! D141  D(9,27,39,40)        -173.7172         estimate D2E/DX2                !
 ! D142  D(9,27,39,43)           6.8253         estimate D2E/DX2                !
 ! D143  D(16,27,39,40)          4.1849         estimate D2E/DX2                !
 ! D144  D(16,27,39,43)       -175.2726         estimate D2E/DX2                !
 ! D145  D(9,28,47,32)          -0.4434         estimate D2E/DX2                !
 ! D146  D(9,28,47,48)         179.9968         estimate D2E/DX2                !
 ! D147  D(29,28,47,32)        179.3631         estimate D2E/DX2                !
 ! D148  D(29,28,47,48)         -0.1966         estimate D2E/DX2                !
 ! D149  D(23,30,55,51)          1.2247         estimate D2E/DX2                !
 ! D150  D(23,30,55,56)       -178.9051         estimate D2E/DX2                !
 ! D151  D(31,30,55,51)       -179.8153         estimate D2E/DX2                !
 ! D152  D(31,30,55,56)          0.0549         estimate D2E/DX2                !
 ! D153  D(16,32,47,28)         -0.7749         estimate D2E/DX2                !
 ! D154  D(16,32,47,48)        178.781          estimate D2E/DX2                !
 ! D155  D(33,32,47,28)        179.7322         estimate D2E/DX2                !
 ! D156  D(33,32,47,48)         -0.7119         estimate D2E/DX2                !
 ! D157  D(20,36,41,42)        178.9754         estimate D2E/DX2                !
 ! D158  D(20,36,41,61)         -0.3285         estimate D2E/DX2                !
 ! D159  D(37,36,41,42)          0.2086         estimate D2E/DX2                !
 ! D160  D(37,36,41,61)       -179.0953         estimate D2E/DX2                !
 ! D161  D(2,38,65,66)          -0.4664         estimate D2E/DX2                !
 ! D162  D(2,38,65,67)         179.3351         estimate D2E/DX2                !
 ! D163  D(14,38,65,66)       -178.1667         estimate D2E/DX2                !
 ! D164  D(14,38,65,67)          1.6348         estimate D2E/DX2                !
 ! D165  D(27,39,43,20)          3.1433         estimate D2E/DX2                !
 ! D166  D(27,39,43,44)        179.7146         estimate D2E/DX2                !
 ! D167  D(40,39,43,20)       -176.3078         estimate D2E/DX2                !
 ! D168  D(40,39,43,44)          0.2635         estimate D2E/DX2                !
 ! D169  D(36,41,61,49)         -1.3498         estimate D2E/DX2                !
 ! D170  D(36,41,61,62)        178.7838         estimate D2E/DX2                !
 ! D171  D(42,41,61,49)        179.3503         estimate D2E/DX2                !
 ! D172  D(42,41,61,62)         -0.5161         estimate D2E/DX2                !
 ! D173  D(24,45,51,52)        178.9756         estimate D2E/DX2                !
 ! D174  D(24,45,51,55)         -0.3316         estimate D2E/DX2                !
 ! D175  D(46,45,51,52)          0.2052         estimate D2E/DX2                !
 ! D176  D(46,45,51,55)       -179.102          estimate D2E/DX2                !
 ! D177  D(15,49,61,41)          1.2256         estimate D2E/DX2                !
 ! D178  D(15,49,61,62)       -178.9061         estimate D2E/DX2                !
 ! D179  D(50,49,61,41)       -179.8118         estimate D2E/DX2                !
 ! D180  D(50,49,61,62)          0.0565         estimate D2E/DX2                !
 ! D181  D(45,51,55,30)         -1.3424         estimate D2E/DX2                !
 ! D182  D(45,51,55,56)        178.7893         estimate D2E/DX2                !
 ! D183  D(52,51,55,30)        179.3543         estimate D2E/DX2                !
 ! D184  D(52,51,55,56)         -0.514          estimate D2E/DX2                !
 ! D185  D(14,53,57,58)       -179.7479         estimate D2E/DX2                !
 ! D186  D(14,53,57,67)          0.7635         estimate D2E/DX2                !
 ! D187  D(54,53,57,58)          0.223          estimate D2E/DX2                !
 ! D188  D(54,53,57,67)       -179.2656         estimate D2E/DX2                !
 ! D189  D(53,57,67,65)         -0.7782         estimate D2E/DX2                !
 ! D190  D(53,57,67,68)        178.7761         estimate D2E/DX2                !
 ! D191  D(58,57,67,65)        179.7329         estimate D2E/DX2                !
 ! D192  D(58,57,67,68)         -0.7127         estimate D2E/DX2                !
 ! D193  D(14,59,63,24)          3.1269         estimate D2E/DX2                !
 ! D194  D(14,59,63,64)        179.7018         estimate D2E/DX2                !
 ! D195  D(60,59,63,24)       -176.3147         estimate D2E/DX2                !
 ! D196  D(60,59,63,64)          0.2602         estimate D2E/DX2                !
 ! D197  D(38,65,67,57)         -0.4495         estimate D2E/DX2                !
 ! D198  D(38,65,67,68)        179.9924         estimate D2E/DX2                !
 ! D199  D(66,65,67,57)        179.3554         estimate D2E/DX2                !
 ! D200  D(66,65,67,68)         -0.2028         estimate D2E/DX2                !
 --------------------------------------------------------------------------------
 Trust Radius=3.00D-01 FncErr=1.00D-07 GrdErr=1.00D-07 EigMax=2.50D+02 EigMin=1.00D-04
 Number of steps in this run=    408 maximum allowed number of steps=    408.
 GradGradGradGradGradGradGradGradGradGradGradGradGradGradGradGradGradGrad

 Leave Link  103 at Thu Mar 20 16:20:25 2025, MaxMem=  3221225472 cpu:               1.6 elap:               0.2
 (Enter /home/szhao/Apps/g16/l202.exe)
 Symmetry turned off by external request.
 Stoichiometry    C42H26(1+,2)
 Framework group  C1[X(C42H26)]
 Deg. of freedom   198
 Full point group                 C1      NOp   1
                          Input orientation:                          
 ---------------------------------------------------------------------
 Center     Atomic      Atomic             Coordinates (Angstroms)
 Number     Number       Type             X           Y           Z
 ---------------------------------------------------------------------
      1          6           0       -0.970168    0.000000    0.000000
      2          6           0        0.970168    0.000000    0.000000
      3          6           0        0.000007   -2.156416    0.000355
      4          6           0        0.000014   -3.531766    0.000572
      5          6           0       -0.904500   -4.324275    0.279708
      6          6           0       -0.969398   -1.481108    0.261201
      7          6           0        0.526528   -5.720587   -0.163727
      8          1           0        1.015334   -6.598181   -0.319721
      9          6           0       -1.177544    0.839244    1.160498
     10          6           0       -0.526714   -5.720540    0.164390
     11          1           0       -1.015600   -6.598092    0.320240
     12          6           0        0.904439   -4.324357   -0.278799
     13          6           0        0.969377   -1.481156   -0.260923
     14          6           0        1.337050    2.254404   -1.168689
     15          6           0       -1.176989    0.306033   -1.407366
     16          6           0       -1.510339    2.910805    2.397767
     17          1           0       -1.638086    3.982610    2.379711
     18          6           0       -1.842103   -3.664203    0.576303
     19          1           0       -2.574222   -4.197970    0.806257
     20          6           0       -1.242854    1.609421   -1.989266
     21          6           0        1.864869   -2.235427   -0.555335
     22          1           0        2.620450   -1.734010   -0.739463
     23          6           0        1.177138    0.306120    1.407309
     24          6           0        1.242892    1.609506    1.989211
     25          6           0        1.841977   -3.664360   -0.575872
     26          1           0        2.574019   -4.198179   -0.806088
     27          6           0       -1.337607    2.254266    1.168712
     28          6           0       -1.171129    0.194879    2.427762
     29          1           0       -1.023842   -0.867270    2.475726
     30          6           0        1.284438   -0.788171    2.310789
     31          1           0        1.269158   -1.800133    1.937664
     32          6           0       -1.522246    2.243057    3.602064
     33          1           0       -1.661602    2.782303    4.525214
     34          6           0       -1.864958   -2.235275    0.555550
     35          1           0       -2.620558   -1.733791    0.739359
     36          6           0       -1.358767    1.738536   -3.387037
     37          1           0       -1.391190    2.739066   -3.801578
     38          6           0        1.177490    0.839286   -1.160522
     39          6           0       -1.300762    3.133288    0.029890
     40          1           0       -1.339808    4.186851    0.287387
     41          6           0       -1.455033    0.652952   -4.222989
     42          1           0       -1.559235    0.792388   -5.289197
     43          6           0       -1.236292    2.864495   -1.286901
     44          1           0       -1.226310    3.732788   -1.938709
     45          6           0        1.359355    1.738613    3.386916
     46          1           0        1.391746    2.739143    3.801464
     47          6           0       -1.341279    0.864129    3.611714
     48          1           0       -1.326508    0.316243    4.545949
     49          6           0       -1.283910   -0.788256   -2.310932
     50          1           0       -1.268641   -1.800227   -1.937847
     51          6           0        1.456113    0.653030    4.222776
     52          1           0        1.560725    0.792454    5.288923
     53          6           0        1.509753    2.911069   -2.397679
     54          1           0        1.637077    3.982952   -2.379560
     55          6           0        1.431245   -0.627389    3.665852
     56          1           0        1.524791   -1.502574    4.293162
     57          6           0        1.522126    2.243353   -3.601984
     58          1           0        1.661488    2.782679   -4.525085
     59          6           0        1.299564    3.133437   -0.029900
     60          1           0        1.337830    4.187033   -0.287444
     61          6           0       -1.430277   -0.627466   -3.666072
     62          1           0       -1.523536   -1.502652   -4.293450
     63          6           0        1.235470    2.864600    1.286907
     64          1           0        1.225020    3.732873    1.938729
     65          6           0        1.171357    0.194993   -2.427823
     66          1           0        1.024246   -0.867180   -2.475903
     67          6           0        1.341538    0.864356   -3.611710
     68          1           0        1.327057    0.316494   -4.545967
 ---------------------------------------------------------------------
 Rotational constants (GHZ):           0.1455668           0.1207903           0.0862448
 Leave Link  202 at Thu Mar 20 16:20:28 2025, MaxMem=  3221225472 cpu:               4.0 elap:               0.2
 (Enter /home/szhao/Apps/g16/l301.exe)
 Standard basis: 6-311+G(d,p) (5D, 7F)
 Ernie: Thresh=  0.10000D-02 Tol=  0.10000D-05 Strict=F.
  1080 basis functions,  1720 primitive gaussians,  1122 cartesian basis functions
   139 alpha electrons      138 beta electrons
       nuclear repulsion energy      5159.7656867235 Hartrees.
 IExCor= 4336 DFT=T Ex+Corr=M062X ExCW=0 ScaHFX=  0.540000
 ScaDFX=  1.000000  1.000000  1.000000  1.000000 ScalE2=  1.000000  1.000000
 IRadAn=      7 IRanWt=     -1 IRanGd=            0 ICorTp=0 IEmpDi=  4
 NAtoms=   68 NActive=   68 NUniq=   68 SFac= 1.00D+00 NAtFMM=   60 NAOKFM=T Big=T
 Integral buffers will be    131072 words long.
 Raffenetti 2 integral format.
 Two-electron integral symmetry is turned off.
 Leave Link  301 at Thu Mar 20 16:20:30 2025, MaxMem=  3221225472 cpu:              10.8 elap:               0.7
 (Enter /home/szhao/Apps/g16/l302.exe)
 NPDir=0 NMtPBC=     1 NCelOv=     1 NCel=       1 NClECP=     1 NCelD=      1
         NCelK=      1 NCelE2=     1 NClLst=     1 CellRange=     0.0.
 One-electron integrals computed using PRISM.
 NBasis=  1080 RedAO= T EigKep=  1.42D-06  NBF=  1080
 NBsUse=  1048 1.00D-06 EigRej=  7.63D-07 NBFU=  1048
 Precomputing XC quadrature grid using
 IXCGrd= 4 IRadAn=           7 IRanWt=          -1 IRanGd=           0 AccXCQ= 0.00D+00.
 Generated NRdTot=       0 NPtTot=           0 NUsed=           0 NTot=          32
 NSgBfM=  1116  1116  1116  1116  1116 MxSgAt=    68 MxSgA2=    68.
 Leave Link  302 at Thu Mar 20 16:20:34 2025, MaxMem=  3221225472 cpu:              71.5 elap:               2.7
 (Enter /home/szhao/Apps/g16/l303.exe)
 DipDrv:  MaxL=1.
 Leave Link  303 at Thu Mar 20 16:20:43 2025, MaxMem=  3221225472 cpu:              16.1 elap:               0.8
 (Enter /home/szhao/Apps/g16/l401.exe)
 ExpMin= 4.38D-02 ExpMax= 4.56D+03 ExpMxC= 6.82D+02 IAcc=3 IRadAn=         7 AccDes= 0.00D+00
 Harris functional with IExCor= 1009 and IRadAn=       7 diagonalized for initial guess.
 HarFok:  IExCor= 1009 AccDes= 0.00D+00 IRadAn=         7 IDoV= 1 UseB2=F ITyADJ=14
 ICtDFT=  3500011 ScaDFX=  1.000000  1.000000  1.000000  1.000000
 FoFCou: FMM=F IPFlag=           0 FMFlag=      100000 FMFlg1=        2001
         NFxFlg=           0 DoJE=T BraDBF=F KetDBF=T FulRan=T
         wScrn=  0.000000 ICntrl=       500 IOpCl=  0 I1Cent=   200000004 NGrid=           0
         NMat0=    1 NMatS0=      1 NMatT0=    0 NMatD0=    1 NMtDS0=    0 NMtDT0=    0
 Symmetry not used in FoFCou.
 Harris En= -1614.24243090190    
 JPrj=0 DoOrth=F DoCkMO=F.
 Initial guess <Sx>= 0.0000 <Sy>= 0.0000 <Sz>= 0.5000 <S**2>= 0.7500 S= 0.5000
 Leave Link  401 at Thu Mar 20 16:21:02 2025, MaxMem=  3221225472 cpu:             447.7 elap:              16.2
 (Enter /home/szhao/Apps/g16/l502.exe)
 Two-electron integral symmetry not used.
 UHF open shell SCF:
 Using DIIS extrapolation, IDIIS=  1040.
 NGot=  3221225472 LenX=  3218668534 LenY=  3217408528
 Requested convergence on RMS density matrix=1.00D-08 within 200 cycles.
 Requested convergence on MAX density matrix=1.00D-06.
 Requested convergence on             energy=1.00D-06.
 No special actions if energy rises.
 Fock matrices will be formed incrementally for  20 cycles.

 Cycle   1  Pass 1  IDiag  1:
 FoFJK:  IHMeth= 1 ICntrl=       0 DoSepK=F KAlg= 0 I1Cent=           0 FoldK=F
 IRaf= 940000000 NMat=       1 IRICut=       1 DoRegI=T DoRafI=F ISym2E= 0 IDoP0=0 IntGTp=1.
 FoFCou: FMM=T IPFlag=           0 FMFlag=      100000 FMFlg1=        2001
         NFxFlg=           0 DoJE=F BraDBF=F KetDBF=F FulRan=T
         wScrn=  0.000000 ICntrl=         0 IOpCl=  1 I1Cent=           0 NGrid=           0
         NMat0=    1 NMatS0=      1 NMatT0=    0 NMatD0=    1 NMtDS0=    0 NMtDT0=    0
 Symmetry not used in FoFCou.
 FMM levels:  10  Number of levels for PrismC:   9
 E= -1613.67313693206    
 DIIS: error= 2.59D-02 at cycle   1 NSaved=   1.
 NSaved= 1 IEnMin= 1 EnMin= -1613.67313693206     IErMin= 1 ErrMin= 2.59D-02
 ErrMax= 2.59D-02  0.00D+00 EMaxC= 1.00D-01 BMatC= 5.29D+00 BMatP= 5.29D+00
 IDIUse=3 WtCom= 7.41D-01 WtEn= 2.59D-01
 Coeff-Com:  0.100D+01
 Coeff-En:   0.100D+01
 Coeff:      0.100D+01
 Gap=     0.210 Goal=   None    Shift=    0.000
 Gap=     0.080 Goal=   None    Shift=    0.000
 GapD=    0.080 DampG=0.500 DampE=0.500 DampFc=0.2500 IDamp=-1.
 Damping current iteration by 2.50D-01
 RMSDP=2.24D-02 MaxDP=1.66D+00              OVMax= 2.31D-01

 Cycle   2  Pass 1  IDiag  1:
 RMSU=  5.58D-03    CP:  9.89D-01
 E= -1614.02546716162     Delta-E=       -0.352330229555 Rises=F Damp=T
 DIIS: error= 1.63D-02 at cycle   2 NSaved=   2.
 NSaved= 2 IEnMin= 2 EnMin= -1614.02546716162     IErMin= 2 ErrMin= 1.63D-02
 ErrMax= 1.63D-02  0.00D+00 EMaxC= 1.00D-01 BMatC= 2.03D+00 BMatP= 5.29D+00
 IDIUse=3 WtCom= 8.37D-01 WtEn= 1.63D-01
 Coeff-Com: -0.130D+01 0.230D+01
 Coeff-En:   0.000D+00 0.100D+01
 Coeff:     -0.109D+01 0.209D+01
 Gap=     0.313 Goal=   None    Shift=    0.000
 Gap=     0.221 Goal=   None    Shift=    0.000
 RMSDP=1.26D-02 MaxDP=8.71D-01 DE=-3.52D-01 OVMax= 2.04D-01

 Cycle   3  Pass 1  IDiag  1:
 RMSU=  1.13D-02    CP:  8.69D-01  1.01D+00
 E= -1614.59131353804     Delta-E=       -0.565846376428 Rises=F Damp=F
 DIIS: error= 1.53D-02 at cycle   3 NSaved=   3.
 NSaved= 3 IEnMin= 3 EnMin= -1614.59131353804     IErMin= 3 ErrMin= 1.53D-02
 ErrMax= 1.53D-02  0.00D+00 EMaxC= 1.00D-01 BMatC= 6.30D-01 BMatP= 2.03D+00
 IDIUse=3 WtCom= 8.47D-01 WtEn= 1.53D-01
 Coeff-Com: -0.807D+00 0.132D+01 0.486D+00
 Coeff-En:   0.000D+00 0.000D+00 0.100D+01
 Coeff:     -0.684D+00 0.112D+01 0.565D+00
 Gap=     0.210 Goal=   None    Shift=    0.000
 Gap=     0.101 Goal=   None    Shift=    0.000
 RMSDP=1.16D-02 MaxDP=1.14D+00 DE=-5.66D-01 OVMax= 1.29D-01

 Cycle   4  Pass 1  IDiag  1:
 RMSU=  8.19D-03    CP:  8.76D-01  1.86D+00  4.01D-01
 E= -1614.68193782787     Delta-E=       -0.090624289824 Rises=F Damp=F
 DIIS: error= 8.82D-03 at cycle   4 NSaved=   4.
 NSaved= 4 IEnMin= 4 EnMin= -1614.68193782787     IErMin= 4 ErrMin= 8.82D-03
 ErrMax= 8.82D-03  0.00D+00 EMaxC= 1.00D-01 BMatC= 2.57D-01 BMatP= 6.30D-01
 IDIUse=3 WtCom= 9.12D-01 WtEn= 8.82D-02
 Coeff-Com: -0.255D+00 0.406D+00 0.393D+00 0.456D+00
 Coeff-En:   0.000D+00 0.000D+00 0.335D+00 0.665D+00
 Coeff:     -0.233D+00 0.370D+00 0.388D+00 0.475D+00
 Gap=     0.196 Goal=   None    Shift=    0.000
 Gap=     0.100 Goal=   None    Shift=    0.000
 RMSDP=7.28D-03 MaxDP=8.20D-01 DE=-9.06D-02 OVMax= 6.72D-02

 Cycle   5  Pass 1  IDiag  1:
 RMSU=  2.08D-03    CP:  8.18D-01  1.45D+00  5.89D-01  3.15D-01
 E= -1614.74358844018     Delta-E=       -0.061650612313 Rises=F Damp=F
 DIIS: error= 1.57D-03 at cycle   5 NSaved=   5.
 NSaved= 5 IEnMin= 5 EnMin= -1614.74358844018     IErMin= 5 ErrMin= 1.57D-03
 ErrMax= 1.57D-03  0.00D+00 EMaxC= 1.00D-01 BMatC= 8.91D-03 BMatP= 2.57D-01
 IDIUse=3 WtCom= 9.84D-01 WtEn= 1.57D-02
 Coeff-Com: -0.644D-01 0.979D-01 0.164D+00 0.256D+00 0.547D+00
 Coeff-En:   0.000D+00 0.000D+00 0.000D+00 0.000D+00 0.100D+01
 Coeff:     -0.634D-01 0.964D-01 0.161D+00 0.252D+00 0.554D+00
 Gap=     0.191 Goal=   None    Shift=    0.000
 Gap=     0.100 Goal=   None    Shift=    0.000
 RMSDP=1.13D-03 MaxDP=9.67D-02 DE=-6.17D-02 OVMax= 1.53D-02

 Cycle   6  Pass 1  IDiag  1:
 RMSU=  7.54D-04    CP:  8.31D-01  1.47D+00  5.83D-01  3.67D-01  7.95D-01
 E= -1614.74554597300     Delta-E=       -0.001957532822 Rises=F Damp=F
 DIIS: error= 6.38D-04 at cycle   6 NSaved=   6.
 NSaved= 6 IEnMin= 6 EnMin= -1614.74554597300     IErMin= 6 ErrMin= 6.38D-04
 ErrMax= 6.38D-04  0.00D+00 EMaxC= 1.00D-01 BMatC= 1.01D-03 BMatP= 8.91D-03
 IDIUse=3 WtCom= 9.94D-01 WtEn= 6.38D-03
 Coeff-Com: -0.100D-01 0.134D-01 0.403D-01 0.753D-01 0.297D+00 0.584D+00
 Coeff-En:   0.000D+00 0.000D+00 0.000D+00 0.000D+00 0.626D-01 0.937D+00
 Coeff:     -0.994D-02 0.134D-01 0.401D-01 0.748D-01 0.296D+00 0.586D+00
 Gap=     0.192 Goal=   None    Shift=    0.000
 Gap=     0.100 Goal=   None    Shift=    0.000
 RMSDP=4.07D-04 MaxDP=2.53D-02 DE=-1.96D-03 OVMax= 7.78D-03

 Cycle   7  Pass 1  IDiag  1:
 RMSU=  3.17D-04    CP:  8.32D-01  1.48D+00  5.87D-01  3.71D-01  8.49D-01
                    CP:  7.15D-01
 E= -1614.74578123171     Delta-E=       -0.000235258704 Rises=F Damp=F
 DIIS: error= 2.69D-04 at cycle   7 NSaved=   7.
 NSaved= 7 IEnMin= 7 EnMin= -1614.74578123171     IErMin= 7 ErrMin= 2.69D-04
 ErrMax= 2.69D-04  0.00D+00 EMaxC= 1.00D-01 BMatC= 2.06D-04 BMatP= 1.01D-03
 IDIUse=3 WtCom= 9.97D-01 WtEn= 2.69D-03
 Coeff-Com:  0.225D-02-0.450D-02-0.500D-03 0.629D-02 0.997D-01 0.363D+00
 Coeff-Com:  0.534D+00
 Coeff-En:   0.000D+00 0.000D+00 0.000D+00 0.000D+00 0.000D+00 0.111D+00
 Coeff-En:   0.889D+00
 Coeff:      0.225D-02-0.449D-02-0.498D-03 0.627D-02 0.995D-01 0.362D+00
 Coeff:      0.535D+00
 Gap=     0.192 Goal=   None    Shift=    0.000
 Gap=     0.101 Goal=   None    Shift=    0.000
 RMSDP=1.44D-04 MaxDP=9.07D-03 DE=-2.35D-04 OVMax= 2.30D-03

 Cycle   8  Pass 1  IDiag  1:
 RMSU=  8.09D-05    CP:  8.31D-01  1.47D+00  5.83D-01  3.68D-01  8.39D-01
                    CP:  8.36D-01  8.87D-01
 E= -1614.74584104303     Delta-E=       -0.000059811324 Rises=F Damp=F
 DIIS: error= 1.00D-04 at cycle   8 NSaved=   8.
 NSaved= 8 IEnMin= 8 EnMin= -1614.74584104303     IErMin= 8 ErrMin= 1.00D-04
 ErrMax= 1.00D-04  0.00D+00 EMaxC= 1.00D-01 BMatC= 8.13D-06 BMatP= 2.06D-04
 IDIUse=3 WtCom= 9.99D-01 WtEn= 1.00D-03
 Coeff-Com:  0.129D-02-0.203D-02-0.646D-02-0.984D-02-0.167D-01 0.155D-01
 Coeff-Com:  0.141D+00 0.877D+00
 Coeff-En:   0.000D+00 0.000D+00 0.000D+00 0.000D+00 0.000D+00 0.000D+00
 Coeff-En:   0.000D+00 0.100D+01
 Coeff:      0.128D-02-0.203D-02-0.646D-02-0.983D-02-0.167D-01 0.155D-01
 Coeff:      0.141D+00 0.877D+00
 Gap=     0.192 Goal=   None    Shift=    0.000
 Gap=     0.101 Goal=   None    Shift=    0.000
 RMSDP=7.00D-05 MaxDP=4.78D-03 DE=-5.98D-05 OVMax= 3.49D-03

 Cycle   9  Pass 1  IDiag  1:
 RMSU=  4.71D-05    CP:  8.31D-01  1.47D+00  5.82D-01  3.67D-01  8.43D-01
                    CP:  8.41D-01  9.73D-01  1.41D+00
 E= -1614.74584863631     Delta-E=       -0.000007593274 Rises=F Damp=F
 DIIS: error= 6.23D-05 at cycle   9 NSaved=   9.
 NSaved= 9 IEnMin= 9 EnMin= -1614.74584863631     IErMin= 9 ErrMin= 6.23D-05
 ErrMax= 6.23D-05  0.00D+00 EMaxC= 1.00D-01 BMatC= 2.35D-06 BMatP= 8.13D-06
 IDIUse=1 WtCom= 1.00D+00 WtEn= 0.00D+00
 Coeff-Com:  0.168D-03-0.193D-03-0.252D-02-0.449D-02-0.199D-01-0.401D-01
 Coeff-Com: -0.291D-01 0.349D+00 0.747D+00
 Coeff:      0.168D-03-0.193D-03-0.252D-02-0.449D-02-0.199D-01-0.401D-01
 Coeff:     -0.291D-01 0.349D+00 0.747D+00
 Gap=     0.192 Goal=   None    Shift=    0.000
 Gap=     0.101 Goal=   None    Shift=    0.000
 RMSDP=4.09D-05 MaxDP=2.42D-03 DE=-7.59D-06 OVMax= 2.12D-03

 Cycle  10  Pass 1  IDiag  1:
 RMSU=  2.12D-05    CP:  8.31D-01  1.47D+00  5.82D-01  3.66D-01  8.42D-01
                    CP:  8.50D-01  1.02D+00  1.70D+00  1.34D+00
 E= -1614.74585104853     Delta-E=       -0.000002412222 Rises=F Damp=F
 DIIS: error= 4.50D-05 at cycle  10 NSaved=  10.
 NSaved=10 IEnMin=10 EnMin= -1614.74585104853     IErMin=10 ErrMin= 4.50D-05
 ErrMax= 4.50D-05  0.00D+00 EMaxC= 1.00D-01 BMatC= 6.23D-07 BMatP= 2.35D-06
 IDIUse=1 WtCom= 1.00D+00 WtEn= 0.00D+00
 Coeff-Com: -0.360D-03 0.562D-03 0.116D-02 0.205D-02-0.599D-03-0.112D-01
 Coeff-Com: -0.593D-01-0.166D+00 0.166D+00 0.107D+01
 Coeff:     -0.360D-03 0.562D-03 0.116D-02 0.205D-02-0.599D-03-0.112D-01
 Coeff:     -0.593D-01-0.166D+00 0.166D+00 0.107D+01
 Gap=     0.192 Goal=   None    Shift=    0.000
 Gap=     0.101 Goal=   None    Shift=    0.000
 RMSDP=3.60D-05 MaxDP=2.04D-03 DE=-2.41D-06 OVMax= 2.29D-03

 Cycle  11  Pass 1  IDiag  1:
 RMSU=  9.73D-06    CP:  8.31D-01  1.47D+00  5.82D-01  3.66D-01  8.40D-01
                    CP:  8.59D-01  1.05D+00  1.95D+00  1.81D+00  1.47D+00
 E= -1614.74585235740     Delta-E=       -0.000001308877 Rises=F Damp=F
 DIIS: error= 2.64D-05 at cycle  11 NSaved=  11.
 NSaved=11 IEnMin=11 EnMin= -1614.74585235740     IErMin=11 ErrMin= 2.64D-05
 ErrMax= 2.64D-05  0.00D+00 EMaxC= 1.00D-01 BMatC= 2.16D-07 BMatP= 6.23D-07
 IDIUse=1 WtCom= 1.00D+00 WtEn= 0.00D+00
 Coeff-Com: -0.200D-03 0.300D-03 0.103D-02 0.197D-02 0.386D-02 0.506D-02
 Coeff-Com: -0.218D-01-0.138D+00-0.935D-01 0.467D+00 0.774D+00
 Coeff:     -0.200D-03 0.300D-03 0.103D-02 0.197D-02 0.386D-02 0.506D-02
 Coeff:     -0.218D-01-0.138D+00-0.935D-01 0.467D+00 0.774D+00
 Gap=     0.192 Goal=   None    Shift=    0.000
 Gap=     0.101 Goal=   None    Shift=    0.000
 RMSDP=1.58D-05 MaxDP=1.14D-03 DE=-1.31D-06 OVMax= 1.15D-03

 Cycle  12  Pass 1  IDiag  1:
 RMSU=  5.25D-06    CP:  8.31D-01  1.47D+00  5.82D-01  3.66D-01  8.39D-01
                    CP:  8.63D-01  1.06D+00  2.05D+00  1.99D+00  1.67D+00
                    CP:  1.64D+00
 E= -1614.74585272701     Delta-E=       -0.000000369610 Rises=F Damp=F
 DIIS: error= 1.68D-05 at cycle  12 NSaved=  12.
 NSaved=12 IEnMin=12 EnMin= -1614.74585272701     IErMin=12 ErrMin= 1.68D-05
 ErrMax= 1.68D-05  0.00D+00 EMaxC= 1.00D-01 BMatC= 6.97D-08 BMatP= 2.16D-07
 IDIUse=1 WtCom= 1.00D+00 WtEn= 0.00D+00
 Coeff-Com:  0.948D-04-0.147D-03-0.246D-03-0.310D-03 0.120D-02 0.764D-02
 Coeff-Com:  0.187D-01 0.481D-01-0.105D+00-0.371D+00 0.190D+00 0.121D+01
 Coeff:      0.948D-04-0.147D-03-0.246D-03-0.310D-03 0.120D-02 0.764D-02
 Coeff:      0.187D-01 0.481D-01-0.105D+00-0.371D+00 0.190D+00 0.121D+01
 Gap=     0.192 Goal=   None    Shift=    0.000
 Gap=     0.101 Goal=   None    Shift=    0.000
 RMSDP=1.54D-05 MaxDP=1.13D-03 DE=-3.70D-07 OVMax= 1.16D-03

 Cycle  13  Pass 1  IDiag  1:
 RMSU=  2.85D-06    CP:  8.31D-01  1.47D+00  5.81D-01  3.66D-01  8.38D-01
                    CP:  8.68D-01  1.06D+00  2.13D+00  2.14D+00  1.89D+00
                    CP:  2.47D+00  1.69D+00
 E= -1614.74585293885     Delta-E=       -0.000000211831 Rises=F Damp=F
 DIIS: error= 6.94D-06 at cycle  13 NSaved=  13.
 NSaved=13 IEnMin=13 EnMin= -1614.74585293885     IErMin=13 ErrMin= 6.94D-06
 ErrMax= 6.94D-06  0.00D+00 EMaxC= 1.00D-01 BMatC= 2.02D-08 BMatP= 6.97D-08
 IDIUse=1 WtCom= 1.00D+00 WtEn= 0.00D+00
 Coeff-Com:  0.872D-04-0.136D-03-0.386D-03-0.666D-03-0.588D-03 0.202D-02
 Coeff-Com:  0.130D-01 0.598D-01-0.176D-01-0.284D+00-0.124D+00 0.485D+00
 Coeff-Com:  0.868D+00
 Coeff:      0.872D-04-0.136D-03-0.386D-03-0.666D-03-0.588D-03 0.202D-02
 Coeff:      0.130D-01 0.598D-01-0.176D-01-0.284D+00-0.124D+00 0.485D+00
 Coeff:      0.868D+00
 Gap=     0.192 Goal=   None    Shift=    0.000
 Gap=     0.101 Goal=   None    Shift=    0.000
 RMSDP=6.75D-06 MaxDP=4.49D-04 DE=-2.12D-07 OVMax= 5.02D-04

 Cycle  14  Pass 1  IDiag  1:
 RMSU=  1.29D-06    CP:  8.31D-01  1.47D+00  5.81D-01  3.66D-01  8.38D-01
                    CP:  8.70D-01  1.07D+00  2.16D+00  2.20D+00  1.98D+00
                    CP:  2.87D+00  2.19D+00  1.46D+00
 E= -1614.74585298309     Delta-E=       -0.000000044244 Rises=F Damp=F
 DIIS: error= 2.98D-06 at cycle  14 NSaved=  14.
 NSaved=14 IEnMin=14 EnMin= -1614.74585298309     IErMin=14 ErrMin= 2.98D-06
 ErrMax= 2.98D-06  0.00D+00 EMaxC= 1.00D-01 BMatC= 5.97D-09 BMatP= 2.02D-08
 IDIUse=1 WtCom= 1.00D+00 WtEn= 0.00D+00
 Coeff-Com: -0.710D-05 0.881D-05-0.677D-04-0.170D-03-0.691D-03-0.207D-02
 Coeff-Com: -0.163D-02 0.762D-02 0.326D-01 0.187D-01-0.117D+00-0.264D+00
 Coeff-Com:  0.367D+00 0.960D+00
 Coeff:     -0.710D-05 0.881D-05-0.677D-04-0.170D-03-0.691D-03-0.207D-02
 Coeff:     -0.163D-02 0.762D-02 0.326D-01 0.187D-01-0.117D+00-0.264D+00
 Coeff:      0.367D+00 0.960D+00
 Gap=     0.192 Goal=   None    Shift=    0.000
 Gap=     0.101 Goal=   None    Shift=    0.000
 RMSDP=3.73D-06 MaxDP=2.66D-04 DE=-4.42D-08 OVMax= 2.72D-04

 Cycle  15  Pass 1  IDiag  1:
 RMSU=  1.13D-06    CP:  8.31D-01  1.47D+00  5.81D-01  3.66D-01  8.38D-01
                    CP:  8.71D-01  1.07D+00  2.17D+00  2.23D+00  2.02D+00
                    CP:  3.00D+00  2.43D+00  1.96D+00  1.40D+00
 E= -1614.74585299455     Delta-E=       -0.000000011460 Rises=F Damp=F
 DIIS: error= 1.15D-06 at cycle  15 NSaved=  15.
 NSaved=15 IEnMin=15 EnMin= -1614.74585299455     IErMin=15 ErrMin= 1.15D-06
 ErrMax= 1.15D-06  0.00D+00 EMaxC= 1.00D-01 BMatC= 1.07D-09 BMatP= 5.97D-09
 IDIUse=1 WtCom= 1.00D+00 WtEn= 0.00D+00
 Coeff-Com: -0.137D-04 0.208D-04 0.533D-04 0.738D-04-0.716D-04-0.112D-02
 Coeff-Com: -0.274D-02-0.101D-01 0.117D-01 0.597D-01-0.309D-02-0.163D+00
 Coeff-Com: -0.800D-01 0.260D+00 0.929D+00
 Coeff:     -0.137D-04 0.208D-04 0.533D-04 0.738D-04-0.716D-04-0.112D-02
 Coeff:     -0.274D-02-0.101D-01 0.117D-01 0.597D-01-0.309D-02-0.163D+00
 Coeff:     -0.800D-01 0.260D+00 0.929D+00
 Gap=     0.192 Goal=   None    Shift=    0.000
 Gap=     0.101 Goal=   None    Shift=    0.000
 RMSDP=1.17D-06 MaxDP=8.74D-05 DE=-1.15D-08 OVMax= 6.86D-05

 Cycle  16  Pass 1  IDiag  1:
 RMSU=  3.88D-07    CP:  8.31D-01  1.47D+00  5.81D-01  3.66D-01  8.38D-01
                    CP:  8.71D-01  1.07D+00  2.18D+00  2.24D+00  2.03D+00
                    CP:  3.00D+00  2.49D+00  2.14D+00  1.72D+00  1.41D+00
 E= -1614.74585299610     Delta-E=       -0.000000001551 Rises=F Damp=F
 DIIS: error= 8.84D-07 at cycle  16 NSaved=  16.
 NSaved=16 IEnMin=16 EnMin= -1614.74585299610     IErMin=16 ErrMin= 8.84D-07
 ErrMax= 8.84D-07  0.00D+00 EMaxC= 1.00D-01 BMatC= 3.52D-10 BMatP= 1.07D-09
 IDIUse=1 WtCom= 1.00D+00 WtEn= 0.00D+00
 Coeff-Com: -0.319D-05 0.580D-05 0.400D-04 0.663D-04 0.124D-03-0.102D-03
 Coeff-Com: -0.712D-03-0.627D-02-0.131D-02 0.222D-01 0.243D-01-0.150D-01
 Coeff-Com: -0.110D+00-0.889D-01 0.376D+00 0.800D+00
 Coeff:     -0.319D-05 0.580D-05 0.400D-04 0.663D-04 0.124D-03-0.102D-03
 Coeff:     -0.712D-03-0.627D-02-0.131D-02 0.222D-01 0.243D-01-0.150D-01
 Coeff:     -0.110D+00-0.889D-01 0.376D+00 0.800D+00
 Gap=     0.192 Goal=   None    Shift=    0.000
 Gap=     0.101 Goal=   None    Shift=    0.000
 RMSDP=4.86D-07 MaxDP=2.49D-05 DE=-1.55D-09 OVMax= 2.82D-05

 Cycle  17  Pass 1  IDiag  1:
 RMSU=  2.77D-07    CP:  8.31D-01  1.47D+00  5.81D-01  3.66D-01  8.38D-01
                    CP:  8.70D-01  1.07D+00  2.18D+00  2.24D+00  2.04D+00
                    CP:  3.00D+00  2.49D+00  2.21D+00  1.87D+00  1.55D+00
                    CP:  1.31D+00
 E= -1614.74585299640     Delta-E=       -0.000000000298 Rises=F Damp=F
 DIIS: error= 6.96D-07 at cycle  17 NSaved=  17.
 NSaved=17 IEnMin=17 EnMin= -1614.74585299640     IErMin=17 ErrMin= 6.96D-07
 ErrMax= 6.96D-07  0.00D+00 EMaxC= 1.00D-01 BMatC= 9.74D-11 BMatP= 3.52D-10
 IDIUse=1 WtCom= 1.00D+00 WtEn= 0.00D+00
 Coeff-Com:  0.391D-05-0.518D-05-0.600D-07-0.154D-05 0.646D-04 0.243D-03
 Coeff-Com:  0.670D-03 0.820D-03-0.333D-02-0.100D-01 0.891D-02 0.396D-01
 Coeff-Com: -0.146D-01-0.980D-01-0.129D+00 0.274D+00 0.930D+00
 Coeff:      0.391D-05-0.518D-05-0.600D-07-0.154D-05 0.646D-04 0.243D-03
 Coeff:      0.670D-03 0.820D-03-0.333D-02-0.100D-01 0.891D-02 0.396D-01
 Coeff:     -0.146D-01-0.980D-01-0.129D+00 0.274D+00 0.930D+00
 Gap=     0.192 Goal=   None    Shift=    0.000
 Gap=     0.101 Goal=   None    Shift=    0.000
 RMSDP=2.75D-07 MaxDP=1.29D-05 DE=-2.98D-10 OVMax= 2.53D-05

 Cycle  18  Pass 1  IDiag  1:
 RMSU=  1.24D-07    CP:  8.31D-01  1.47D+00  5.81D-01  3.66D-01  8.38D-01
                    CP:  8.70D-01  1.07D+00  2.18D+00  2.24D+00  2.04D+00
                    CP:  3.00D+00  2.49D+00  2.24D+00  1.93D+00  1.61D+00
                    CP:  1.68D+00  1.45D+00
 E= -1614.74585299661     Delta-E=       -0.000000000207 Rises=F Damp=F
 DIIS: error= 3.77D-07 at cycle  18 NSaved=  18.
 NSaved=18 IEnMin=18 EnMin= -1614.74585299661     IErMin=18 ErrMin= 3.77D-07
 ErrMax= 3.77D-07  0.00D+00 EMaxC= 1.00D-01 BMatC= 3.63D-11 BMatP= 9.74D-11
 IDIUse=1 WtCom= 1.00D+00 WtEn= 0.00D+00
 Coeff-Com:  0.305D-05-0.453D-05-0.894D-05-0.173D-04 0.220D-05 0.105D-03
 Coeff-Com:  0.497D-03 0.166D-02-0.991D-03-0.917D-02-0.258D-02 0.188D-01
 Coeff-Com:  0.207D-01-0.163D-01-0.146D+00-0.980D-01 0.398D+00 0.833D+00
 Coeff:      0.305D-05-0.453D-05-0.894D-05-0.173D-04 0.220D-05 0.105D-03
 Coeff:      0.497D-03 0.166D-02-0.991D-03-0.917D-02-0.258D-02 0.188D-01
 Coeff:      0.207D-01-0.163D-01-0.146D+00-0.980D-01 0.398D+00 0.833D+00
 Gap=     0.192 Goal=   None    Shift=    0.000
 Gap=     0.101 Goal=   None    Shift=    0.000
 RMSDP=1.73D-07 MaxDP=1.05D-05 DE=-2.07D-10 OVMax= 1.49D-05

 Cycle  19  Pass 1  IDiag  1:
 RMSU=  6.28D-08    CP:  8.31D-01  1.47D+00  5.81D-01  3.66D-01  8.38D-01
                    CP:  8.70D-01  1.07D+00  2.18D+00  2.24D+00  2.04D+00
                    CP:  3.00D+00  2.48D+00  2.25D+00  1.96D+00  1.64D+00
                    CP:  1.90D+00  1.75D+00  1.27D+00
 E= -1614.74585299676     Delta-E=       -0.000000000157 Rises=F Damp=F
 DIIS: error= 2.55D-07 at cycle  19 NSaved=  19.
 NSaved=19 IEnMin=19 EnMin= -1614.74585299676     IErMin=19 ErrMin= 2.55D-07
 ErrMax= 2.55D-07  0.00D+00 EMaxC= 1.00D-01 BMatC= 1.14D-11 BMatP= 3.63D-11
 IDIUse=1 WtCom= 1.00D+00 WtEn= 0.00D+00
 Coeff-Com: -0.803D-06 0.968D-06-0.169D-05-0.506D-05-0.214D-04-0.833D-04
 Coeff-Com: -0.732D-04 0.619D-04 0.991D-03 0.135D-02-0.446D-02-0.979D-02
 Coeff-Com:  0.131D-01 0.349D-01 0.678D-02-0.145D+00-0.236D+00 0.255D+00
 Coeff-Com:  0.108D+01
 Coeff:     -0.803D-06 0.968D-06-0.169D-05-0.506D-05-0.214D-04-0.833D-04
 Coeff:     -0.732D-04 0.619D-04 0.991D-03 0.135D-02-0.446D-02-0.979D-02
 Coeff:      0.131D-01 0.349D-01 0.678D-02-0.145D+00-0.236D+00 0.255D+00
 Coeff:      0.108D+01
 Gap=     0.192 Goal=   None    Shift=    0.000
 Gap=     0.101 Goal=   None    Shift=    0.000
 RMSDP=1.26D-07 MaxDP=8.24D-06 DE=-1.57D-10 OVMax= 1.33D-05

 Cycle  20  Pass 1  IDiag  1:
 RMSU=  3.45D-08    CP:  8.31D-01  1.47D+00  5.81D-01  3.66D-01  8.38D-01
                    CP:  8.70D-01  1.07D+00  2.18D+00  2.24D+00  2.04D+00
                    CP:  3.00D+00  2.48D+00  2.26D+00  1.98D+00  1.65D+00
                    CP:  2.03D+00  1.97D+00  1.66D+00  1.68D+00
 E= -1614.74585299676     Delta-E=        0.000000000008 Rises=F Damp=F
 DIIS: error= 1.04D-07 at cycle  20 NSaved=  20.
 NSaved=20 IEnMin=19 EnMin= -1614.74585299676     IErMin=20 ErrMin= 1.04D-07
 ErrMax= 1.04D-07  0.00D+00 EMaxC= 1.00D-01 BMatC= 3.86D-12 BMatP= 1.14D-11
 IDIUse=1 WtCom= 1.00D+00 WtEn= 0.00D+00
 Coeff-Com: -0.894D-06 0.127D-05 0.191D-05 0.208D-05-0.851D-05-0.710D-04
 Coeff-Com: -0.149D-03-0.478D-03 0.708D-03 0.315D-02-0.990D-03-0.928D-02
 Coeff-Com: -0.108D-02 0.162D-01 0.464D-01-0.196D-01-0.189D+00-0.158D+00
 Coeff-Com:  0.368D+00 0.944D+00
 Coeff:     -0.894D-06 0.127D-05 0.191D-05 0.208D-05-0.851D-05-0.710D-04
 Coeff:     -0.149D-03-0.478D-03 0.708D-03 0.315D-02-0.990D-03-0.928D-02
 Coeff:     -0.108D-02 0.162D-01 0.464D-01-0.196D-01-0.189D+00-0.158D+00
 Coeff:      0.368D+00 0.944D+00
 Gap=     0.192 Goal=   None    Shift=    0.000
 Gap=     0.101 Goal=   None    Shift=    0.000
 RMSDP=6.27D-08 MaxDP=3.87D-06 DE= 8.19D-12 OVMax= 6.22D-06

 Cycle  21  Pass 1  IDiag  1:
 Restarting incremental Fock formation.
 E= -1614.74585299673     Delta-E=        0.000000000030 Rises=F Damp=F
 DIIS: error= 4.91D-08 at cycle  21 NSaved=  20.
 NSaved=20 IEnMin=18 EnMin= -1614.74585299676     IErMin=20 ErrMin= 4.91D-08
 ErrMax= 4.91D-08  0.00D+00 EMaxC= 1.00D-01 BMatC= 1.21D-12 BMatP= 3.86D-12
 IDIUse=1 WtCom= 1.00D+00 WtEn= 0.00D+00
 Coeff-Com:  0.122D-06 0.174D-05 0.276D-05 0.650D-05 0.340D-05-0.135D-04
[...]
              Bcc     0.0037     0.498     0.178     0.166  0.3384 -0.0501  0.9397
 
              Baa    -0.0091    -1.226    -0.437    -0.409  0.3320 -0.0750  0.9403
     6 C(13)  Bbb    -0.0050    -0.670    -0.239    -0.224  0.8912 -0.3017 -0.3387
              Bcc     0.0141     1.896     0.676     0.632  0.3090  0.9505 -0.0334
 
              Baa    -0.0007    -0.094    -0.034    -0.031  0.9057  0.1238 -0.4055
     7 C(13)  Bbb     0.0003     0.034     0.012     0.011 -0.2522  0.9262 -0.2804
              Bcc     0.0004     0.060     0.021     0.020  0.3408  0.3562  0.8700
 
              Baa    -0.0003    -0.156    -0.055    -0.052  0.9619  0.1832 -0.2031
     8 H(1)   Bbb    -0.0003    -0.135    -0.048    -0.045  0.2117 -0.0280  0.9769
              Bcc     0.0005     0.290     0.104     0.097 -0.1732  0.9827  0.0657
 
              Baa    -0.0412    -5.522    -1.971    -1.842  0.1289 -0.4112  0.9024
     9 C(13)  Bbb    -0.0351    -4.715    -1.682    -1.573 -0.0936  0.9009  0.4239
              Bcc     0.0763    10.237     3.653     3.415  0.9872  0.1391 -0.0776
 
              Baa    -0.0007    -0.095    -0.034    -0.032  0.9059 -0.1238 -0.4051
    10 C(13)  Bbb     0.0003     0.034     0.012     0.011  0.2504  0.9279  0.2764
              Bcc     0.0005     0.061     0.022     0.020  0.3416 -0.3518  0.8715
 
              Baa    -0.0003    -0.156    -0.056    -0.052  0.9616 -0.1837 -0.2041
    11 H(1)   Bbb    -0.0003    -0.135    -0.048    -0.045  0.2125  0.0269  0.9768
              Bcc     0.0005     0.291     0.104     0.097  0.1740  0.9826 -0.0649
 
              Baa    -0.0027    -0.357    -0.127    -0.119  0.9336  0.1020 -0.3435
    12 C(13)  Bbb    -0.0011    -0.142    -0.051    -0.047 -0.1119  0.9937 -0.0091
              Bcc     0.0037     0.500     0.178     0.167  0.3404  0.0469  0.9391
 
              Baa    -0.0091    -1.225    -0.437    -0.409  0.3329  0.0755  0.9399
    13 C(13)  Bbb    -0.0050    -0.669    -0.239    -0.223  0.8907  0.3019 -0.3397
              Bcc     0.0141     1.894     0.676     0.632 -0.3094  0.9503  0.0333
 
              Baa    -0.0402    -5.389    -1.923    -1.798 -0.0443  0.4615  0.8860
    14 C(13)  Bbb    -0.0388    -5.205    -1.857    -1.736  0.1603  0.8787 -0.4497
              Bcc     0.0789    10.594     3.780     3.534  0.9861 -0.1221  0.1129
 
              Baa    -0.0179    -2.408    -0.859    -0.803 -0.1367  0.7053  0.6956
    15 C(13)  Bbb    -0.0158    -2.126    -0.759    -0.709  0.1183  0.7088 -0.6954
              Bcc     0.0338     4.534     1.618     1.513  0.9835  0.0128  0.1803
 
              Baa    -0.0248    -3.323    -1.186    -1.109  0.0343 -0.6418  0.7661
    16 C(13)  Bbb    -0.0193    -2.596    -0.926    -0.866 -0.1520  0.7543  0.6387
              Bcc     0.0441     5.919     2.112     1.974  0.9878  0.1383  0.0716
 
              Baa    -0.0035    -1.893    -0.676    -0.631  0.1870 -0.2021  0.9613
    17 H(1)   Bbb    -0.0021    -1.113    -0.397    -0.371  0.9421  0.3141 -0.1173
              Bcc     0.0056     3.006     1.073     1.003 -0.2782  0.9276  0.2492
 
              Baa    -0.0033    -0.443    -0.158    -0.148  0.3368  0.0389  0.9408
    18 C(13)  Bbb     0.0001     0.010     0.003     0.003  0.9105 -0.2680 -0.3149
              Bcc     0.0032     0.433     0.155     0.145  0.2398  0.9626 -0.1257
 
              Baa    -0.0005    -0.268    -0.096    -0.090  0.2398  0.0295  0.9704
    19 H(1)   Bbb    -0.0003    -0.169    -0.060    -0.056  0.8827 -0.4228 -0.2053
              Bcc     0.0008     0.437     0.156     0.146  0.4042  0.9057 -0.1275
 
              Baa    -0.0227    -3.045    -1.086    -1.016  0.0143  0.9981 -0.0598
    20 C(13)  Bbb    -0.0201    -2.693    -0.961    -0.898  0.1753  0.0564  0.9829
              Bcc     0.0428     5.737     2.047     1.914  0.9844 -0.0246 -0.1742
 
              Baa    -0.0055    -0.741    -0.264    -0.247  0.7760  0.6302 -0.0265
    21 C(13)  Bbb    -0.0035    -0.468    -0.167    -0.156 -0.5284  0.6266 -0.5729
              Bcc     0.0090     1.209     0.431     0.403 -0.3444  0.4586  0.8192
 
              Baa    -0.0013    -0.678    -0.242    -0.226  0.4359  0.1073  0.8936
    22 H(1)   Bbb    -0.0004    -0.211    -0.075    -0.070  0.5059  0.7919 -0.3419
              Bcc     0.0017     0.889     0.317     0.296  0.7443 -0.6011 -0.2909
 
              Baa    -0.0180    -2.411    -0.860    -0.804  0.1359  0.7055 -0.6955
    23 C(13)  Bbb    -0.0159    -2.129    -0.760    -0.710 -0.1182  0.7086  0.6957
              Bcc     0.0338     4.541     1.620     1.515  0.9837 -0.0123  0.1797
 
              Baa    -0.0227    -3.048    -1.088    -1.017 -0.0154  0.9981  0.0603
    24 C(13)  Bbb    -0.0201    -2.696    -0.962    -0.899  0.1756 -0.0567  0.9828
              Bcc     0.0428     5.744     2.050     1.916  0.9843  0.0257 -0.1744
 
              Baa    -0.0033    -0.443    -0.158    -0.148  0.3383 -0.0404  0.9402
    25 C(13)  Bbb     0.0001     0.010     0.003     0.003  0.9101  0.2681 -0.3160
              Bcc     0.0032     0.433     0.155     0.145 -0.2393  0.9626  0.1274
 
              Baa    -0.0005    -0.268    -0.096    -0.090  0.2397 -0.0303  0.9704
    26 H(1)   Bbb    -0.0003    -0.169    -0.060    -0.056  0.8828  0.4227 -0.2049
              Bcc     0.0008     0.437     0.156     0.146 -0.4040  0.9058  0.1281
 
              Baa    -0.0402    -5.400    -1.927    -1.801 -0.0433 -0.4622  0.8857
    27 C(13)  Bbb    -0.0389    -5.214    -1.860    -1.739 -0.1610  0.8782  0.4504
              Bcc     0.0791    10.613     3.787     3.540  0.9860  0.1232  0.1124
 
              Baa    -0.0347    -4.650    -1.659    -1.551  0.9798  0.1632  0.1159
    28 C(13)  Bbb     0.0147     1.967     0.702     0.656 -0.1721  0.9825  0.0714
              Bcc     0.0200     2.684     0.958     0.895 -0.1022 -0.0899  0.9907
 
              Baa    -0.0022    -1.176    -0.420    -0.392  0.9052 -0.3784  0.1932
    29 H(1)   Bbb    -0.0009    -0.480    -0.171    -0.160  0.3292  0.9122  0.2441
              Bcc     0.0031     1.657     0.591     0.553 -0.2686 -0.1574  0.9503
 
              Baa    -0.0121    -1.630    -0.582    -0.544  0.9831  0.0333 -0.1802
    30 C(13)  Bbb     0.0037     0.499     0.178     0.167  0.1083  0.6876  0.7180
              Bcc     0.0084     1.131     0.404     0.377 -0.1478  0.7253 -0.6724
 
              Baa    -0.0015    -0.802    -0.286    -0.267  0.9328  0.3579 -0.0434
    31 H(1)   Bbb    -0.0011    -0.578    -0.206    -0.193 -0.1766  0.5587  0.8104
              Bcc     0.0026     1.380     0.492     0.460 -0.3142  0.7482 -0.5843
 
              Baa    -0.0017    -0.222    -0.079    -0.074  0.6175  0.7855 -0.0400
    32 C(13)  Bbb    -0.0002    -0.025    -0.009    -0.008  0.1332 -0.0543  0.9896
              Bcc     0.0018     0.247     0.088     0.082  0.7752 -0.6164 -0.1381
 
              Baa    -0.0017    -0.914    -0.326    -0.305  0.8974 -0.0123  0.4410
    33 H(1)   Bbb    -0.0012    -0.628    -0.224    -0.209 -0.3494 -0.6300  0.6935
              Bcc     0.0029     1.542     0.550     0.514 -0.2693  0.7765  0.5697
 
              Baa    -0.0055    -0.740    -0.264    -0.247  0.7760 -0.6302 -0.0255
    34 C(13)  Bbb    -0.0035    -0.468    -0.167    -0.156  0.5273  0.6261  0.5744
              Bcc     0.0090     1.209     0.431     0.403 -0.3461 -0.4592  0.8182
 
              Baa    -0.0013    -0.678    -0.242    -0.226  0.4351 -0.1072  0.8940
    35 H(1)   Bbb    -0.0004    -0.211    -0.075    -0.070 -0.5065  0.7917  0.3415
              Bcc     0.0017     0.889     0.317     0.297  0.7444  0.6014 -0.2902
 
              Baa    -0.0086    -1.156    -0.413    -0.386  0.0376  0.9976  0.0574
    36 C(13)  Bbb    -0.0045    -0.600    -0.214    -0.200  0.1177 -0.0615  0.9911
              Bcc     0.0131     1.756     0.627     0.586  0.9923 -0.0305 -0.1197
 
              Baa    -0.0017    -0.882    -0.315    -0.294  0.1700  0.9062  0.3873
    37 H(1)   Bbb    -0.0012    -0.667    -0.238    -0.222  0.9424 -0.0346 -0.3326
              Bcc     0.0029     1.549     0.553     0.517  0.2880 -0.4215  0.8599
 
              Baa    -0.0412    -5.523    -1.971    -1.842  0.1287  0.4120  0.9021
    38 C(13)  Bbb    -0.0351    -4.716    -1.683    -1.573  0.0931  0.9006 -0.4246
              Bcc     0.0763    10.240     3.654     3.416  0.9873 -0.1386 -0.0776
 
              Baa    -0.0504    -6.764    -2.414    -2.256 -0.0123  0.9778 -0.2090
    39 C(13)  Bbb    -0.0450    -6.039    -2.155    -2.014 -0.1173  0.2062  0.9715
              Bcc     0.0954    12.804     4.569     4.271  0.9930  0.0364  0.1121
 
              Baa    -0.0070    -3.724    -1.329    -1.242 -0.1431 -0.3081  0.9405
    40 H(1)   Bbb    -0.0014    -0.728    -0.260    -0.243  0.9753  0.1176  0.1870
              Bcc     0.0083     4.452     1.589     1.485 -0.1682  0.9441  0.2837
 
              Baa    -0.0016    -0.211    -0.075    -0.070 -0.0366  0.9747 -0.2205
    41 C(13)  Bbb     0.0005     0.069     0.025     0.023  0.2696  0.2221  0.9370
              Bcc     0.0011     0.141     0.050     0.047  0.9623 -0.0252 -0.2709
 
              Baa    -0.0008    -0.448    -0.160    -0.150 -0.5914  0.7609  0.2670
    42 H(1)   Bbb    -0.0006    -0.296    -0.106    -0.099  0.7430  0.6429 -0.1864
              Bcc     0.0014     0.745     0.266     0.248  0.3135 -0.0882  0.9455
 
              Baa    -0.0424    -5.684    -2.028    -1.896  0.0499  0.9739 -0.2214
    43 C(13)  Bbb    -0.0362    -4.854    -1.732    -1.619  0.0687  0.2178  0.9736
              Bcc     0.0785    10.538     3.760     3.515  0.9964 -0.0638 -0.0561
 
              Baa    -0.0063    -3.361    -1.199    -1.121  0.1205  0.8227  0.5555
    44 H(1)   Bbb    -0.0022    -1.192    -0.425    -0.397  0.9853 -0.0310 -0.1677
              Bcc     0.0085     4.553     1.625     1.519  0.1208 -0.5676  0.8144
 
              Baa    -0.0086    -1.157    -0.413    -0.386 -0.0382  0.9976 -0.0578
    45 C(13)  Bbb    -0.0045    -0.600    -0.214    -0.200  0.1182  0.0619  0.9911
              Bcc     0.0131     1.757     0.627     0.586  0.9923  0.0311 -0.1203
 
              Baa    -0.0017    -0.883    -0.315    -0.294 -0.1706  0.9060 -0.3875
    46 H(1)   Bbb    -0.0013    -0.667    -0.238    -0.222  0.9423  0.0352 -0.3328
              Bcc     0.0029     1.550     0.553     0.517  0.2879  0.4219  0.8597
 
              Baa    -0.0544    -7.298    -2.604    -2.434 -0.2204  0.8718  0.4375
    47 C(13)  Bbb    -0.0496    -6.656    -2.375    -2.220 -0.0277 -0.4540  0.8906
              Bcc     0.1040    13.954     4.979     4.655  0.9750  0.1842  0.1242
 
              Baa    -0.0077    -4.124    -1.472    -1.376 -0.1653  0.8692  0.4660
    48 H(1)   Bbb    -0.0013    -0.712    -0.254    -0.237  0.9852  0.1238  0.1185
              Bcc     0.0091     4.836     1.726     1.613 -0.0453 -0.4787  0.8768
 
              Baa    -0.0121    -1.628    -0.581    -0.543  0.9832 -0.0325 -0.1798
    49 C(13)  Bbb     0.0037     0.499     0.178     0.166  0.1085 -0.6879  0.7177
              Bcc     0.0084     1.129     0.403     0.377  0.1470  0.7251  0.6728
 
              Baa    -0.0015    -0.801    -0.286    -0.267  0.9328 -0.3579 -0.0422
    50 H(1)   Bbb    -0.0011    -0.579    -0.206    -0.193 -0.1776 -0.5583  0.8104
              Bcc     0.0026     1.380     0.492     0.460  0.3136  0.7485  0.5844
 
              Baa    -0.0016    -0.210    -0.075    -0.070  0.0368  0.9747  0.2203
    51 C(13)  Bbb     0.0005     0.070     0.025     0.023  0.2752 -0.2218  0.9355
              Bcc     0.0010     0.141     0.050     0.047  0.9607  0.0262 -0.2764
 
              Baa    -0.0008    -0.448    -0.160    -0.150  0.5921  0.7601 -0.2676
    52 H(1)   Bbb    -0.0006    -0.296    -0.106    -0.099  0.7424 -0.6437 -0.1857
              Bcc     0.0014     0.745     0.266     0.248  0.3135  0.0887  0.9455
 
              Baa    -0.0248    -3.323    -1.186    -1.109  0.0335  0.6420  0.7659
    53 C(13)  Bbb    -0.0193    -2.596    -0.926    -0.866  0.1519  0.7542 -0.6388
              Bcc     0.0441     5.920     2.112     1.975  0.9878 -0.1378  0.0722
 
              Baa    -0.0035    -1.892    -0.675    -0.631  0.1869  0.2024  0.9613
    54 H(1)   Bbb    -0.0021    -1.113    -0.397    -0.371  0.9424 -0.3134 -0.1172
              Bcc     0.0056     3.005     1.072     1.002  0.2776  0.9278 -0.2493
 
              Baa    -0.0144    -1.932    -0.689    -0.644  0.1776  0.6359  0.7511
    55 C(13)  Bbb    -0.0115    -1.542    -0.550    -0.514 -0.2446  0.7678 -0.5922
              Bcc     0.0259     3.474     1.239     1.159  0.9532  0.0785 -0.2919
 
              Baa    -0.0023    -1.207    -0.431    -0.403  0.1922  0.5142  0.8359
    56 H(1)   Bbb    -0.0008    -0.426    -0.152    -0.142  0.9496  0.1174 -0.2906
              Bcc     0.0031     1.633     0.583     0.545 -0.2475  0.8496 -0.4657
 
              Baa    -0.0017    -0.224    -0.080    -0.075 -0.6249  0.7799  0.0354
    57 C(13)  Bbb    -0.0002    -0.022    -0.008    -0.008  0.1316  0.0605  0.9895
              Bcc     0.0018     0.246     0.088     0.082  0.7695  0.6230 -0.1404
 
              Baa    -0.0017    -0.913    -0.326    -0.305  0.8979  0.0117  0.4401
    58 H(1)   Bbb    -0.0012    -0.627    -0.224    -0.209 -0.3485  0.6297  0.6942
              Bcc     0.0029     1.540     0.550     0.514  0.2690  0.7767 -0.5695
 
              Baa    -0.0505    -6.781    -2.420    -2.262  0.0107  0.9777  0.2097
    59 C(13)  Bbb    -0.0451    -6.056    -2.161    -2.020 -0.1171 -0.2071  0.9713
              Bcc     0.0957    12.837     4.580     4.282  0.9931 -0.0350  0.1123
 
              Baa    -0.0070    -3.734    -1.332    -1.245 -0.1434  0.3080  0.9405
    60 H(1)   Bbb    -0.0014    -0.727    -0.259    -0.242  0.9755 -0.1162  0.1867
              Bcc     0.0084     4.460     1.592     1.488  0.1668  0.9443 -0.2838
 
              Baa    -0.0144    -1.929    -0.688    -0.643  0.1779 -0.6359  0.7510
    61 C(13)  Bbb    -0.0115    -1.539    -0.549    -0.513  0.2436  0.7678  0.5925
              Bcc     0.0258     3.468     1.237     1.157  0.9534 -0.0775 -0.2915
 
              Baa    -0.0023    -1.206    -0.430    -0.402  0.1922 -0.5140  0.8359
    62 H(1)   Bbb    -0.0008    -0.426    -0.152    -0.142  0.9498 -0.1166 -0.2901
              Bcc     0.0031     1.631     0.582     0.544  0.2467  0.8498  0.4658
 
              Baa    -0.0424    -5.684    -2.028    -1.896 -0.0509  0.9738  0.2218
    63 C(13)  Bbb    -0.0362    -4.852    -1.731    -1.618  0.0693 -0.2181  0.9735
              Bcc     0.0785    10.536     3.759     3.514  0.9963  0.0649 -0.0564
 
              Baa    -0.0063    -3.362    -1.199    -1.121 -0.1219  0.8227 -0.5553
    64 H(1)   Bbb    -0.0022    -1.192    -0.426    -0.398  0.9852  0.0325 -0.1681
              Bcc     0.0085     4.554     1.625     1.519  0.1203  0.5676  0.8145
 
              Baa    -0.0347    -4.651    -1.660    -1.551  0.9798 -0.1627  0.1161
    65 C(13)  Bbb     0.0147     1.966     0.702     0.656  0.1716  0.9826 -0.0716
              Bcc     0.0200     2.685     0.958     0.895 -0.1025  0.0901  0.9906
 
              Baa    -0.0022    -1.176    -0.420    -0.392  0.9052  0.3785  0.1934
    66 H(1)   Bbb    -0.0009    -0.480    -0.171    -0.160 -0.3293  0.9122 -0.2440
              Bcc     0.0031     1.657     0.591     0.553 -0.2688  0.1572  0.9503
 
              Baa    -0.0544    -7.298    -2.604    -2.434  0.2201  0.8720 -0.4373
    67 C(13)  Bbb    -0.0496    -6.656    -2.375    -2.220 -0.0282  0.4538  0.8907
              Bcc     0.1040    13.953     4.979     4.654  0.9751 -0.1837  0.1245
 
              Baa    -0.0077    -4.124    -1.472    -1.376  0.1650  0.8693 -0.4660
    68 H(1)   Bbb    -0.0013    -0.711    -0.254    -0.237  0.9852 -0.1233  0.1188
              Bcc     0.0091     4.835     1.725     1.613 -0.0458  0.4787  0.8768
 

 ---------------------------------------------------------------------------------

 No NMR shielding tensors so no spin-rotation constants.
 Leave Link  601 at Fri Mar 21 08:40:49 2025, MaxMem=  3221225472 cpu:              48.6 elap:               2.0
 (Enter /home/szhao/Apps/g16/l9999.exe)
 1\1\GINC-NODE06\FOpt\UM062X\6-311+G(d,p)\C42H26(1+,2)\SZHAO\21-Mar-202
 5\0\\#p opt UM062X/6-311+G** nosymm int=superfine SCF=(Tight,MaxCycle=
 200)\\Title Card Required\\1,2\C,-0.970168,0.,0.\C,0.970168,0.,0.\C,0.
 0000230614,-2.1896375493,0.0006385998\C,-0.0000385783,-3.5528275074,0.
 0006298034\C,-1.1152751975,-4.3274363889,0.3600857858\C,-1.1505079436,
 -1.4730143931,0.3471959674\C,0.6456430846,-5.7249096125,-0.2124563408\
 H,1.2384103131,-6.606813032,-0.4095457483\C,-1.4018100664,0.9285151221
 ,1.0916768157\C,-0.6475925802,-5.7248487162,0.2084276026\H,-1.24108874
 04,-6.6067071902,0.4035190657\C,1.1144340094,-4.3275504268,-0.36109353
 94\C,1.1504101177,-1.4730901861,-0.3468551471\C,1.6073853076,2.3357165
 006,-0.9779641273\C,-1.4039790721,0.1912370871,-1.4444924464\C,-1.8591
 386665,3.0968168214,2.1505194094\H,-2.0156384442,4.1633621446,2.037044
 1404\C,-2.2514564665,-3.6344144515,0.7329134163\H,-3.1591910604,-4.149
 1315692,1.0274062284\C,-1.5248341949,1.4404465887,-2.117333113\C,2.266
 0408264,-2.1982050318,-0.71545956\H,3.1920206745,-1.6920686716,-0.9675
 206672\C,1.4042919312,0.1915731557,1.4443536457\C,1.5243684413,1.44087
 75861,2.1171406664\C,2.250310273,-3.6346347677,-0.7349023256\H,3.15739
 52343,-4.1494138805,-1.0312871464\C,-1.6087060852,2.335547286,0.977791
 2048\C,-1.4628034963,0.3863760583,2.3887859944\H,-1.2861793449,-0.6694
 984879,2.5286888959\C,1.6120399617,-0.9528034619,2.2442010383\H,1.5756
 216969,-1.9394666346,1.8119628824\C,-1.9109941426,2.5303167944,3.39953
 52874\H,-2.1042003717,3.1383606576,4.27446286\C,-2.2667261827,-2.19801
 98637,0.7143859401\H,-3.1928553215,-1.6917392299,0.9656038285\C,-1.758
 0649103,1.4751983601,-3.5111367458\H,-1.8211080253,2.4453187652,-3.990
 3670257\C,1.4015451347,0.9285246156,-1.0917838996\C,-1.5503547892,3.11
 84823809,-0.2201923917\H,-1.5908309676,4.19017542,-0.0501175177\C,-1.9
 331880791,0.3334070929,-4.2581290193\H,-2.1245203005,0.3914666432,-5.3
 223000359\C,-1.4693040695,2.744015782,-1.5182562795\H,-1.4562205876,3.
 5608657951,-2.2334680674\C,1.7581113385,1.4758549511,3.510862227\H,1.8
 204437748,2.4460412001,3.9900496099\C,-1.7072431807,1.1515706636,3.514
 403171\H,-1.7308156394,0.6732339972,4.48631196\C,-1.610340035,-0.95332
 29078,-2.2444340674\H,-1.5731595138,-1.9399669193,-1.8122169066\C,1.93
 45696616,0.334222298,4.2577644869\H,2.1263153927,0.3924128496,5.321853
 4128\C,1.8576646106,3.0970608819,-2.1506590764\H,2.0133663348,4.163727
 5061,-2.0372473206\C,1.878493038,-0.8920624694,3.6021529425\H,2.038039
 682,-1.8145317623,4.1472450673\C,1.9103561741,2.5304693022,-3.39960889
 25\H,2.1034671046,3.1385492158,-4.2745333397\C,1.5477819268,3.11874157
 33,0.2199186245\H,1.5869046836,4.1904585082,0.0496677165\C,-1.87629962
 93,-0.8928208279,-3.6025110078\H,-2.0347689767,-1.8154389788,-4.147666
 2071\C,1.4671895643,2.7443550943,1.51804217\H,1.4531197701,3.561247382
 7,2.2331829585\C,1.4631510952,0.3863319118,-2.3888186182\H,1.287098945
 8,-0.6696213285,-2.5287247074\C,1.7074665248,1.1516123552,-3.514422201
 5\H,1.7315404842,0.6732334982,-4.4862982806\\Version=ES64L-G16RevA.03\
 HF=-1615.5558435\S2=0.759881\S2-1=0.\S2A=0.750089\RMSD=8.301e-09\RMSF=
 1.151e-05\Dipole=-0.0002263,1.5474477,-0.0006484\Quadrupole=-23.243907
 ,12.8608489,10.3830582,-0.0082653,-1.6093974,0.0182105\PG=C01 [X(C42H2
 6)]\\@


 THE MORE ACCURATE THE CALCULATIONS BECOME, THE MORE THE CONCEPTS
 TEND TO VANISH INTO THIN AIR.
     -- R.S. MULLIKEN, J.C.P. 43,S2(1965)
 Job cpu time:      18 days 21 hours 27 minutes 58.7 seconds.
 Elapsed time:       0 days 16 hours 17 minutes  1.6 seconds.
 File lengths (MBytes):  RWF=   1251 Int=      0 D2E=      0 Chk=    146 Scr=      2
 Normal termination of Gaussian 16 at Fri Mar 21 08:40:52 2025.
