Title Card Required                                                     
FOpt      UM062X                                                      6-311+G(d,p)        
Number of atoms                            I                4
Info1-9                                    I   N=           9
          13          13           0           0           0         110
           2          18        -502
Full Title                                 C   N=           2
Title Card Required     
Route                                      C   N=           4
#p opt UM062X/6-311+G** nosymm int=superfine    
Charge                                     I                1
Multiplicity                               I                2
Number of electrons                        I               13
Number of alpha electrons                  I                7
Number of beta electrons                   I                6
Number of basis functions                  I               56
Number of independent functions            I               56
Number of point charges in /Mol/           I                0
Number of translation vectors              I                0
Atomic numbers                             I   N=           4
           6           6           1           1
Nuclear charges                            R   N=           4
  6.00000000E+00  6.00000000E+00  1.00000000E+00  1.00000000E+00
Current cartesian coordinates              R   N=          12
 -2.94260593E+00  0.00000000E+00  0.00000000E+00  2.94260593E+00  0.00000000E+00
  0.00000000E+00 -5.05649514E+00  2.69057537E-13 -1.24209490E-12  5.05649319E+00
  2.69054902E-13 -4.04969945E-13
Number of symbols in /Mol/                 I                0
Force Field                                I                0
Atom Types                                 C   N=           4
                                                
Int Atom Types                             I   N=           4
           0           0           0           0
MM charges                                 R   N=           4
  0.00000000E+00  0.00000000E+00  0.00000000E+00  0.00000000E+00
Integer atomic weights                     I   N=           4
          12          12           1           1
Real atomic weights                        R   N=           4
  1.20000000E+01  1.20000000E+01  1.00782504E+00  1.00782504E+00
Atom fragment info                         I   N=           4
           0           0           0           0
Atom residue num                           I   N=           4
           0           0           0           0
Nuclear spins                              I   N=           4
           0           0           1           1
Nuclear ZEff                               R   N=           4
 -3.60000000E+00 -3.60000000E+00 -1.00000000E+00 -1.00000000E+00
Nuclear ZNuc                               R   N=           4
  6.00000000E+00  6.00000000E+00  1.00000000E+00  1.00000000E+00
Nuclear QMom                               R   N=           4
  0.00000000E+00  0.00000000E+00  0.00000000E+00  0.00000000E+00
Nuclear GFac                               R   N=           4
  0.00000000E+00  0.00000000E+00  2.79284600E+00  2.79284600E+00
MicOpt                                     I   N=           4
          -2          -2          -1          -1
Number of residues                         I                0
Number of secondary structures             I                0
Redundant internal dimensions              I   N=           4
          12           8           4           0
Redundant internal coordinate indices      I   N=          48
           1          -1           0           0           1          -2
           0           0           1          -3           0           0
           2          -1           0           0           2          -2
           0           0           2          -3           0           0
           1           3           0           0           2           4
           0           0           2           1           3          -4
           1           2           4          -4           2           1
           3          -8           1           2           4          -8
Redundant internal coordinates             R   N=          12
 -2.94260593E+00  0.00000000E+00  0.00000000E+00  2.94260593E+00  0.00000000E+00
  0.00000000E+00  2.11388921E+00  2.11388726E+00  3.14159265E+00  3.14159264E+00
  3.14159265E+00  3.14159264E+00
ZRed-IntVec                                I   N=          12
          -1          -1          -1          -1          -1          -1
           0           0           0           0           0           0
ZRed-FPVec                                 R   N=          12
  0.00000000E+00  0.00000000E+00  0.00000000E+00  0.00000000E+00  0.00000000E+00
  0.00000000E+00  0.00000000E+00  0.00000000E+00  0.00000000E+00  0.00000000E+00
  0.00000000E+00  0.00000000E+00
ZRed-Constraint1                           R   N=          12
 -2.94260593E+00  0.00000000E+00  0.00000000E+00  2.94260593E+00  0.00000000E+00
  0.00000000E+00  2.08057524E+00  2.08053366E+00  3.14159265E+00  3.14159265E+00
  3.14159265E+00  3.14159265E+00
ZRed-Constraint2                           R   N=          12
 -2.94260593E+00  0.00000000E+00  0.00000000E+00  2.94260593E+00  0.00000000E+00
  0.00000000E+00  0.00000000E+00  0.00000000E+00  0.00000000E+00  0.00000000E+00
  0.00000000E+00  0.00000000E+00
Number of contracted shells                I               20
Number of primitive shells                 I               38
Pure/Cartesian d shells                    I                0
Pure/Cartesian f shells                    I                0
Highest angular momentum                   I                2
Largest degree of contraction              I                6
Shell types                                I   N=          20
           0          -1          -1          -1          -1          -2
           0          -1          -1          -1          -1          -2
           0           0           0           1           0           0
           0           1
Number of primitives per shell             I   N=          20
           6           3           1           1           1           1
           6           3           1           1           1           1
           3           1           1           1           3           1
           1           1
Shell to atom map                          I   N=          20
           1           1           1           1           1           1
           2           2           2           2           2           2
           3           3           3           3           4           4
           4           4
Primitive exponents                        R   N=          38
  4.56324000E+03  6.82024000E+02  1.54973000E+02  4.44553000E+01  1.30290000E+01
  1.82773000E+00  2.09642000E+01  4.80331000E+00  1.45933000E+00  4.83456000E-01
  1.45585000E-01  4.38000000E-02  6.26000000E-01  4.56324000E+03  6.82024000E+02
  1.54973000E+02  4.44553000E+01  1.30290000E+01  1.82773000E+00  2.09642000E+01
  4.80331000E+00  1.45933000E+00  4.83456000E-01  1.45585000E-01  4.38000000E-02
  6.26000000E-01  3.38650000E+01  5.09479000E+00  1.15879000E+00  3.25840000E-01
  1.02741000E-01  7.50000000E-01  3.38650000E+01  5.09479000E+00  1.15879000E+00
  3.25840000E-01  1.02741000E-01  7.50000000E-01
Contraction coefficients                   R   N=          38
  1.96665025E-03  1.52306019E-02  7.61269097E-02  2.60801033E-01  6.16462078E-01
  2.21006028E-01  1.14660081E-01  9.19999648E-01 -3.03068213E-03  1.00000000E+00
  1.00000000E+00  1.00000000E+00  1.00000000E+00  1.96665025E-03  1.52306019E-02
  7.61269097E-02  2.60801033E-01  6.16462078E-01  2.21006028E-01  1.14660081E-01
  9.19999648E-01 -3.03068213E-03  1.00000000E+00  1.00000000E+00  1.00000000E+00
  1.00000000E+00  2.54938145E-02  1.90373109E-01  8.52161486E-01  1.00000000E+00
  1.00000000E+00  1.00000000E+00  2.54938145E-02  1.90373109E-01  8.52161486E-01
  1.00000000E+00  1.00000000E+00  1.00000000E+00
P(S=P) Contraction coefficients            R   N=          38
  0.00000000E+00  0.00000000E+00  0.00000000E+00  0.00000000E+00  0.00000000E+00
  0.00000000E+00  4.02486927E-02  2.37593957E-01  8.15853851E-01  1.00000000E+00
  1.00000000E+00  1.00000000E+00  0.00000000E+00  0.00000000E+00  0.00000000E+00
  0.00000000E+00  0.00000000E+00  0.00000000E+00  0.00000000E+00  4.02486927E-02
  2.37593957E-01  8.15853851E-01  1.00000000E+00  1.00000000E+00  1.00000000E+00
  0.00000000E+00  0.00000000E+00  0.00000000E+00  0.00000000E+00  0.00000000E+00
  0.00000000E+00  0.00000000E+00  0.00000000E+00  0.00000000E+00  0.00000000E+00
  0.00000000E+00  0.00000000E+00  0.00000000E+00
Coordinates of each shell                  R   N=          60
 -2.94260593E+00  0.00000000E+00  0.00000000E+00 -2.94260593E+00  0.00000000E+00
  0.00000000E+00 -2.94260593E+00  0.00000000E+00  0.00000000E+00 -2.94260593E+00
  0.00000000E+00  0.00000000E+00 -2.94260593E+00  0.00000000E+00  0.00000000E+00
 -2.94260593E+00  0.00000000E+00  0.00000000E+00  2.94260593E+00  0.00000000E+00
  0.00000000E+00  2.94260593E+00  0.00000000E+00  0.00000000E+00  2.94260593E+00
  0.00000000E+00  0.00000000E+00  2.94260593E+00  0.00000000E+00  0.00000000E+00
  2.94260593E+00  0.00000000E+00  0.00000000E+00  2.94260593E+00  0.00000000E+00
  0.00000000E+00 -5.05649514E+00  2.69057537E-13 -1.24209490E-12 -5.05649514E+00
  2.69057537E-13 -1.24209490E-12 -5.05649514E+00  2.69057537E-13 -1.24209490E-12
 -5.05649514E+00  2.69057537E-13 -1.24209490E-12  5.05649319E+00  2.69054902E-13
 -4.04969945E-13  5.05649319E+00  2.69054902E-13 -4.04969945E-13  5.05649319E+00
  2.69054902E-13 -4.04969945E-13  5.05649319E+00  2.69054902E-13 -4.04969945E-13
Num ILSW                                   I              100
ILSW                                       I   N=         100
           1           0           0           0           2           0
           0           0           0           0        4336          -1
           7           0           0           0           2           0
           0           0           0           0           1           0
           1           1           0           0           0           0
           0           0      100000           0          -1           0
           0           0           0           0           0           0
           0           0           0           1           0           0
           0 -2000000000           1           0           0           0
           0           0           4          52           0           0
           0           0          55           0           0           0
           0           0           0           4           0           1
           0           0           0           0           0           0
           0           0           0           0           0           0
           0           0           0           0           0           0
           0           0           0           0           0           0
           0           0           0           0
Num RLSW                                   I               52
RLSW                                       R   N=          52
  1.00000000E+00  1.00000000E+00  1.00000000E+00  1.00000000E+00  5.40000000E-01
  0.00000000E+00  0.00000000E+00  1.00000000E+00  0.00000000E+00  0.00000000E+00
  0.00000000E+00  0.00000000E+00  1.00000000E+00  0.00000000E+00  0.00000000E+00
  0.00000000E+00  0.00000000E+00  1.00000000E+00  0.00000000E+00  0.00000000E+00
  0.00000000E+00  0.00000000E+00  1.00000000E+00  0.00000000E+00  0.00000000E+00
  0.00000000E+00  0.00000000E+00  1.00000000E+00  0.00000000E+00  0.00000000E+00
  0.00000000E+00  0.00000000E+00  1.00000000E+00  0.00000000E+00  0.00000000E+00
  0.00000000E+00  0.00000000E+00  0.00000000E+00  1.00000000E+00  1.00000000E+00
  0.00000000E+00  1.00000000E+00  0.00000000E+00  0.00000000E+00  0.00000000E+00
  0.00000000E+00  0.00000000E+00  0.00000000E+00  0.00000000E+00  0.00000000E+00
  0.00000000E+00  0.00000000E+00
MxBond                                     I                2
NBond                                      I   N=           4
           2           2           1           1
IBond                                      I   N=           8
           2           3           1           4           1           0
           2           0
RBond                                      R   N=           8
  1.00000000E-01  1.00000000E+00  1.00000000E-01  1.00000000E+00  1.00000000E+00
  0.00000000E+00  1.00000000E+00  0.00000000E+00
Virial Ratio                               R      2.002871668703345E+00
SCF Energy                                 R     -7.658696836537035E+01
Total Energy                               R     -7.658696836537035E+01
S**2                                       R      7.511624120580205E-01
S**2 after annihilation                    R      7.500009637776192E-01
RMS Force                                  R      1.436758530026441E-04
RMS Density                                R      3.156287408792131E-09
Job Status                                 I                1
Nuclear derivative order                   I                1
External E-field                           R   N=          35
  0.00000000E+00  0.00000000E+00  0.00000000E+00  0.00000000E+00  0.00000000E+00
  0.00000000E+00  0.00000000E+00  0.00000000E+00  0.00000000E+00  0.00000000E+00
  0.00000000E+00  0.00000000E+00  0.00000000E+00  0.00000000E+00  0.00000000E+00
  0.00000000E+00  0.00000000E+00  0.00000000E+00  0.00000000E+00  0.00000000E+00
  0.00000000E+00  0.00000000E+00  0.00000000E+00  0.00000000E+00  0.00000000E+00
  0.00000000E+00  0.00000000E+00  0.00000000E+00  0.00000000E+00  0.00000000E+00
  0.00000000E+00  0.00000000E+00  0.00000000E+00  0.00000000E+00  0.00000000E+00
IOpCl                                      I                1
IROHF                                      I                0
Alpha Orbital Energies                     R   N=          56
 -1.09515481E+01 -1.09515373E+01 -9.89417298E-01 -9.84898327E-01 -6.62220594E-01
 -6.19870424E-01 -4.98256975E-01 -4.01860040E-01 -3.44362701E-01 -3.33483146E-01
 -1.28417189E-01 -1.16101373E-01 -8.00846692E-02 -7.48113158E-02 -5.63052809E-02
 -5.05566249E-02 -4.66013748E-02 -1.41722247E-02  3.08361032E-03  5.99209586E-02
  2.35212754E-01  3.12488648E-01  3.40944520E-01  3.49147167E-01  3.65036850E-01
  3.88320665E-01  3.95920603E-01  5.30817567E-01  5.69680339E-01  6.19474284E-01
  8.83745812E-01  8.84902957E-01  8.96716976E-01  8.99933235E-01  1.07000440E+00
  1.07123220E+00  1.08052682E+00  1.08174148E+00  1.31956232E+00  1.37777037E+00
  1.61582887E+00  1.61898301E+00  1.62793981E+00  1.63053845E+00  2.14497094E+00
  2.19269657E+00  2.27486267E+00  2.34784750E+00  2.41853267E+00  2.43343536E+00
  2.45393839E+00  2.46804967E+00  2.91693758E+00  3.05644691E+00  2.32464222E+01
  2.32715781E+01
Beta Orbital Energies                      R   N=          56
 -1.09475621E+01 -1.09475569E+01 -9.65369502E-01 -9.62489317E-01 -6.49153803E-01
 -6.05562623E-01 -3.27032096E-01 -3.14284622E-01 -3.11384349E-01 -2.97702317E-01
 -1.33769704E-01 -1.15305830E-01 -7.54391066E-02 -6.83241099E-02 -6.47629669E-02
 -4.35788346E-02 -3.44584812E-02 -2.11551970E-02  2.02411285E-02  7.33956500E-02
  2.27857537E-01  3.28227480E-01  3.49385502E-01  3.49660692E-01  3.89625342E-01
  3.89741384E-01  3.92924072E-01  5.58580605E-01  5.76694081E-01  6.29490951E-01
  9.54787946E-01  9.63983061E-01  9.68021724E-01  9.76845648E-01  1.10290905E+00
  1.10299681E+00  1.10309726E+00  1.10322686E+00  1.32405680E+00  1.38172650E+00
  1.63327781E+00  1.63989731E+00  1.64525465E+00  1.65183372E+00  2.30087931E+00
  2.30833530E+00  2.36771823E+00  2.39082074E+00  2.44533707E+00  2.46902088E+00
  2.47866486E+00  2.50071021E+00  3.00743359E+00  3.15696877E+00  2.32595315E+01
  2.32845886E+01
Alpha MO coefficients                      R   N=        3136
  4.01807856E-01  3.31026235E-01 -1.38884450E-03 -3.48817093E-16 -8.92143720E-16
  6.77845396E-03 -9.24846149E-04  7.69506872E-16 -2.96026018E-17 -3.46146216E-03
  1.96340174E-04 -5.79995229E-16  6.38148108E-16 -1.03187630E-04  8.95728602E-04
 -5.97773365E-17  3.06953599E-16 -3.45530128E-04  4.06307246E-17 -9.02115362E-06
  5.87061038E-04 -8.14365820E-17  3.95815689E-01  3.26090106E-01  1.36696435E-03
  9.18053800E-17  1.43821855E-16  6.67382255E-03  9.16105734E-04 -1.08455722E-16
 -1.07728851E-16 -3.40157800E-03 -2.00800879E-04 -2.55190729E-16  1.82314617E-16
 -1.44645593E-04 -8.61528836E-04  2.30138071E-16 -1.40575197E-16 -3.40868989E-04
 -7.99003359E-17 -8.79159961E-06  5.79278459E-04 -7.01649605E-17  2.81231690E-04
 -1.92516373E-03  2.45518440E-03 -1.28132065E-03  5.19804386E-16 -2.71835729E-15
  2.76430726E-04 -1.89709378E-03  2.42363475E-03  1.26342014E-03  5.99093198E-16
 -7.75656816E-16 -3.95817151E-01 -3.26059417E-01  1.44589210E-03  1.14355004E-16
  3.07254228E-16 -6.91383181E-03  5.75482429E-04  2.55559762E-17  3.33522800E-16
  3.95974138E-03  2.98311891E-04 -1.10729634E-16 -5.72882238E-16 -2.75981767E-03
 -2.26956092E-03  1.93493605E-17 -4.78137842E-16  3.07812291E-04 -1.88051826E-16
  1.52090444E-05 -5.13882902E-04  1.56044360E-16  4.01809297E-01  3.30996001E-01
  1.46659516E-03 -3.19194668E-16 -2.00206942E-17  7.01490007E-03  5.89321835E-04
  1.91695868E-16 -5.33833660E-17 -4.01129863E-03  2.95328368E-04 -1.32919691E-16
  1.79144868E-16  2.75795316E-03 -2.28276319E-03  5.80631129E-17  3.76444604E-16
 -3.12971209E-04 -2.02536737E-16 -1.53428295E-05  5.22649130E-04 -1.75879173E-17
 -3.17326453E-04  1.85473421E-03 -2.08200292E-03  1.18233817E-03 -3.88969122E-16
  2.54455090E-15  3.21514455E-04 -1.88346149E-03  2.11866130E-03  1.20146293E-03
  4.87130351E-16 -7.92507488E-16 -8.02958938E-02 -1.30991406E-01 -5.33423821E-02
  7.36390937E-15 -2.36841310E-14  3.85059278E-01 -8.22241046E-02  4.25734033E-15
 -1.92318364E-14  2.52208469E-01 -2.73985159E-02 -9.07608790E-15  9.75828958E-15
 -9.97795735E-04 -7.51710447E-03  4.38709803E-15 -9.11467366E-15 -3.77768018E-03
 -1.50232145E-14  4.61527917E-04  7.12863162E-03  3.17875623E-14 -8.02998226E-02
 -1.30997810E-01  5.33453294E-02  7.59448522E-15 -5.91092952E-15  3.85078007E-01
  8.22285837E-02  5.04631852E-15 -2.15359486E-15  2.52221083E-01  2.74003387E-02
 -8.00190548E-15  1.44259576E-14 -9.99627149E-04  7.51851697E-03  2.65476221E-15
 -6.31740110E-15 -3.77791057E-03  1.21448525E-14  4.61535798E-04  7.12904066E-03
 -3.36835345E-14  9.62468055E-02  1.20856720E-01 -1.15312363E-02  1.67041420E-02
  3.68310857E-14 -2.49398790E-14  9.62518353E-02  1.20862808E-01 -1.15320405E-02
 -1.67049607E-02  3.65855068E-14 -4.49265821E-14 -7.98395918E-02 -1.30210664E-01
 -5.75438868E-02  7.16091015E-15 -2.27913129E-14  3.81988617E-01 -8.86149656E-02
  7.38828597E-15 -2.01231428E-14  2.59686787E-01 -3.69116613E-02 -9.72062005E-15
  9.27924399E-15 -3.82023317E-02 -2.93547609E-02  5.12347055E-15 -1.16632759E-14
 -4.44536571E-03 -1.41440284E-14  1.12310055E-04  7.84218712E-03  3.21024665E-14
  7.98355992E-02  1.30204147E-01 -5.75413624E-02 -7.72801629E-15  4.78977281E-15
 -3.81969404E-01 -8.86110163E-02 -7.84620356E-15  3.13153065E-15 -2.59674096E-01
 -3.69103242E-02  8.96320475E-15 -1.65328453E-14  3.82022815E-02 -2.93543782E-02
 -5.07746229E-15  9.37687004E-15  4.44519184E-03 -1.24144175E-14 -1.12289317E-04
 -7.84185964E-03  3.38956979E-14  9.87994698E-02  1.21276713E-01 -1.62441562E-02
  1.63577696E-02  3.85398435E-14 -2.58123828E-14 -9.87948619E-02 -1.21270821E-01
  1.62435906E-02  1.63569512E-02 -3.82463188E-14  4.75471994E-14 -3.75241013E-02
 -6.24889442E-02  1.64398648E-01  1.82001178E-15  5.71612916E-14  1.92996031E-01
  2.42998842E-01  3.75331380E-14  7.10385433E-14  2.24327119E-01  1.46276831E-01
  6.81779477E-16  5.72911552E-15  1.61585500E-02  2.68878356E-03  6.26553267E-15
  7.94476970E-15  1.40165696E-02  3.53197356E-15  1.86566943E-04 -2.40411134E-02
 -4.51798622E-14 -3.75241614E-02 -6.24890460E-02 -1.64398754E-01  1.87584052E-14
  3.26762829E-14  1.92996331E-01 -2.42998949E-01  6.37190103E-14  2.44422118E-15
  2.24327636E-01 -1.46276813E-01  1.82619043E-14  4.17878689E-14  1.61585399E-02
 -2.68873669E-03  4.32392339E-15 -1.31805035E-14  1.40165834E-02 -8.22364415E-15
  1.86567385E-04 -2.40411367E-02  4.51827387E-14 -9.42187239E-02 -1.61523417E-01
 -5.67878705E-02 -8.27092406E-03 -1.04040943E-14  2.43078881E-14 -9.42187471E-02
 -1.61523421E-01 -5.67879339E-02  8.27091489E-03 -9.59527423E-15  2.36617896E-15
 -4.59787445E-02 -7.66402446E-02  1.71613406E-01  3.78149478E-15  6.95896631E-14
  2.38373150E-01  2.46685561E-01  4.03945750E-14  8.82651857E-14  2.69712131E-01
  1.74463008E-01  2.46754951E-15  2.44440731E-14  2.66533256E-02  1.27659280E-02
  8.58484443E-15  1.95681809E-15  1.61414523E-02  1.54573762E-15 -2.71436232E-04
 -2.83023103E-02 -4.83734254E-14  4.59787472E-02  7.66402510E-02  1.71613337E-01
 -2.80802168E-14 -4.48998314E-14 -2.38373151E-01  2.46685405E-01 -7.86684287E-14
 -2.14728318E-14 -2.69712298E-01  1.74462877E-01 -3.00704411E-14 -5.96827195E-14
 -2.66533449E-02  1.27659145E-02 -8.84317519E-15  1.53242919E-14 -1.61414498E-02
  7.26952230E-15  2.71435229E-04  2.83023046E-02 -4.81912001E-14 -9.76374547E-02
 -1.69956800E-01 -5.52081885E-02 -7.36449900E-03 -1.00183635E-14  2.57524457E-14
  9.76373713E-02  1.69956592E-01  5.52081191E-02 -7.36448217E-03  8.43389075E-15
 -1.66923159E-15  1.56455060E-15  1.38105409E-14 -9.66888445E-14  9.89249792E-02
  1.79879663E-01 -1.17748056E-13  1.68222674E-13  1.55172763E-01  2.82156900E-01
  3.89698131E-13 -4.73635249E-13  1.43099922E-01  2.60202687E-01 -4.84459244E-13
 -9.26618855E-13  9.84677886E-03  1.79051906E-02  3.90376478E-14 -1.23714986E-02
 -2.63599904E-15 -8.00156306E-14 -6.80350774E-03  1.86524162E-15 -8.82750071E-15
 -2.16307583E-14  9.89250024E-02  1.79879703E-01  2.14522174E-13  1.88832812E-13
  1.55172805E-01  2.82156974E-01 -1.34764421E-12 -7.73386783E-13  1.43099964E-01
  2.60202760E-01 -2.46190515E-13 -1.48762332E-12  9.84678238E-03  1.79051968E-02
 -2.57955264E-15  1.23715189E-02  2.51425117E-15  7.13356539E-15  6.80351901E-03
 -4.08979141E-14  4.57536418E-13 -1.25088407E-12  1.40530278E-13  6.98841579E-03
  1.27073257E-02  8.07078644E-14 -3.68372148E-13  2.90067724E-12 -1.69942696E-15
  6.98842487E-03  1.27073421E-02  5.06904065E-15  2.03717743E-14 -9.41006482E-14
  1.01260917E-01  1.84127548E-01 -1.17423897E-13  5.76248683E-14  1.58942925E-01
  2.89013051E-01 -4.88731841E-14  1.02966229E-13  1.45058457E-01  2.63764386E-01
  1.09876652E-12  2.19132914E-14  1.64848809E-02  2.99758724E-02  5.02906390E-14
 -1.83897367E-02 -2.16178022E-15 -9.85325570E-14 -1.01132735E-02 -8.44652096E-15
 -1.11006504E-15  9.48413076E-15 -1.01260886E-01 -1.84127489E-01 -1.92947732E-13
 -1.87365266E-13 -1.58942881E-01 -2.89012968E-01  1.42569085E-12  6.78867736E-13
 -1.45058420E-01 -2.63764315E-01  7.25634819E-13  1.41319228E-12 -1.64848771E-02
 -2.99758653E-02  8.27796012E-15 -1.83897479E-02 -2.71208065E-15 -1.66463535E-14
 -1.01132797E-02 -4.98794284E-14  6.62387715E-13 -8.10382549E-13  1.62191078E-13
  8.13113856E-03  1.47852169E-02 -9.87418335E-14  4.31963673E-13 -3.10872070E-12
 -2.89196090E-15 -8.13114335E-03 -1.47852254E-02 -4.73513078E-16  8.12655095E-15
  2.51117372E-15  1.68059841E-01 -9.24253509E-02 -2.12551240E-13 -2.33822898E-17
  2.70672692E-01 -1.48857446E-01  1.36087403E-12 -4.24890706E-13  2.62822308E-01
 -1.44539202E-01  2.10494393E-12 -7.84631856E-13  4.49246674E-02 -2.47067116E-02
 -1.55627688E-14  7.07820476E-03 -5.27155112E-15  3.20082200E-14 -1.28701205E-02
  4.96021502E-15  3.02766898E-14  8.17083903E-14  1.68059154E-01 -9.24249744E-02
 -4.29195140E-13 -1.73260144E-13  2.70671589E-01 -1.48856841E-01  2.35118514E-12
  1.17772161E-12  2.62821278E-01 -1.44538638E-01  1.95518154E-12  2.30226819E-12
  4.49244584E-02 -2.47065970E-02  4.89108698E-15 -7.07817649E-03  1.69901070E-15
 -1.33572031E-14  1.28700689E-02 -8.00000082E-14  3.30142179E-13 -3.09982193E-12
 -8.47597702E-14  1.39841127E-02 -7.69061637E-03 -1.37036548E-13  8.29769932E-13
 -5.59503578E-12  7.50924413E-15  1.39840665E-02 -7.69059106E-03 -5.23792032E-15
 -1.82481593E-14  3.96140925E-14 -1.74435909E-01  9.59316460E-02  3.22360009E-13
 -1.84662793E-13 -2.81104796E-01  1.54594331E-01 -2.42580000E-12  1.73220596E-12
 -2.69648320E-01  1.48292721E-01  1.22691114E-12  3.09726399E-12 -5.85234215E-02
  3.21855035E-02  4.59437612E-14 -8.89064717E-03  5.20504988E-15 -8.38386198E-14
  1.61658813E-02  5.37766809E-15  3.20626208E-14  1.06721010E-13  1.74436541E-01
 -9.59319944E-02 -4.98504794E-13 -3.09144773E-13  2.81105817E-01 -1.54594894E-01
  3.18158624E-12  2.08822542E-12  2.69649343E-01 -1.48293285E-01 -1.41144317E-13
  3.91872391E-12  5.85236110E-02 -3.21856080E-02 -1.34190629E-14 -8.89067999E-03
  1.48662071E-15  1.84495962E-14  1.61659409E-02  5.05139244E-14  2.49827494E-14
  4.42640528E-12  1.30947270E-13 -1.51396474E-02  8.32609112E-03 -1.26817997E-13
  6.01551267E-13 -6.69381412E-12  3.77478966E-14  1.51397134E-02 -8.32612745E-03
  2.98522983E-02  5.08067067E-02  3.59332046E-02 -1.82353101E-14  1.92233670E-14
 -1.64466054E-01  8.14926210E-02  6.86020439E-14  6.17308999E-14 -4.75657901E-01
  9.65749313E-02 -9.97727494E-14  9.28881060E-14  9.61736164E-01 -3.81903109E-01
 -6.26601037E-16 -1.89718085E-13  5.32527911E-03 -3.74888738E-14  1.79129956E-03
 -6.95202711E-03  3.17703449E-14  2.98522112E-02  5.08065617E-02 -3.59327256E-02
 -2.01056742E-14  2.95755685E-14 -1.64465575E-01 -8.14919575E-02  6.58850115E-14
 -1.04707708E-13 -4.75656706E-01 -9.65737241E-02 -9.96703007E-14  1.51519713E-13
  9.61736787E-01  3.81899025E-01 -2.31204779E-14  6.36730752E-14  5.32528053E-03
 -1.82546304E-14  1.79129555E-03 -6.95203468E-03 -3.12603003E-14  4.49245231E-03
  1.50751044E-01 -1.61019422E-01 -5.44653235E-03 -4.49281235E-14 -1.40477989E-13
  4.49234018E-03  1.50750477E-01 -1.61019750E-01  5.44641173E-03 -4.46309816E-14
  8.11021225E-14 -1.89731269E-02 -3.30701657E-02 -6.72660297E-02  3.95416086E-14
 -4.07812357E-14  1.24136467E-01 -1.16654461E-01 -9.09014499E-14 -8.30214600E-14
  1.95040233E-01 -1.37937685E-01  1.91016794E-13 -1.12995936E-13 -6.35821247E-02
  1.07630006E+00 -2.28128455E-14  3.04616169E-13 -5.30525897E-03  3.37245769E-14
 -1.04403072E-03  7.86497284E-03 -1.92153833E-14  1.89732235E-02  3.30703340E-02
 -6.72659541E-02 -3.69048693E-14  3.88207975E-14 -1.24137069E-01 -1.16654532E-01
  9.29881685E-14 -1.71169042E-13 -1.95041384E-01 -1.37937069E-01 -1.74171046E-13
  2.43529619E-13  6.35871471E-02  1.07630179E+00 -4.39632474E-14 -1.67959425E-14
  5.30530623E-03 -2.40506799E-14  1.04403919E-03 -7.86504398E-03 -1.88599336E-14
  5.44207943E-03 -1.07866408E-01  2.47531045E-01  1.45640538E-02  2.25960081E-14
  1.38088980E-13 -5.44224309E-03  1.07866586E-01 -2.47533476E-01  1.45640304E-02
 -2.26016918E-14  4.04910048E-14  1.57231909E-14  2.42924460E-14  1.42720176E-13
 -8.15545698E-02  4.48527460E-02 -8.12151157E-15  1.81489401E-13 -9.67535305E-02
  5.32120319E-02 -1.04954380E-12  1.06112868E-12 -2.71621097E-01  1.49382272E-01
 -1.96544529E-12  3.59620156E-13  6.18527848E-01 -3.40172232E-01 -1.07668824E-14
 -4.98495664E-03  4.90280697E-16  1.58594601E-14  9.06412590E-03  2.71976579E-14
  3.69210196E-14 -2.65955023E-13 -8.15545297E-02  4.48527240E-02  2.85531758E-14
 -1.83303627E-13 -9.67534860E-02  5.32120076E-02 -1.99690624E-12 -1.87092972E-12
 -2.71620981E-01  1.49382209E-01 -2.62777377E-12 -1.10079642E-12  6.18527316E-01
 -3.40171939E-01 -2.91396375E-14  4.98496166E-03 -2.49969093E-15  5.18806848E-14
 -9.06413502E-03  1.01964208E-13  1.89293106E-13  3.04899795E-12  7.67775657E-15
 -3.12966829E-04  1.72139417E-04  1.68696406E-13 -5.55805301E-15  5.58257836E-12
  6.73431989E-14 -3.12983692E-04  1.72148696E-04  9.32141009E-15  9.69378897E-15
  8.82300885E-14 -4.15625198E-02 -7.55721990E-02  2.28925316E-14 -3.40098148E-14
 -4.39787661E-02 -7.99661531E-02 -6.45909226E-13  5.33887353E-13 -1.40300633E-01
 -2.55102466E-01 -4.48143522E-13  5.86076335E-13  3.40561658E-01  6.19234150E-01
 -2.14157378E-14  8.45280263E-03  9.62898498E-16  4.21964294E-14  4.64886755E-03
 -7.66145704E-15 -8.38048130E-15  1.08856461E-13 -4.15624972E-02 -7.55721580E-02
 -4.23804409E-14  3.69787056E-14 -4.39787445E-02 -7.99661141E-02  8.40769808E-13
  7.71977066E-13 -1.40300566E-01 -2.55102344E-01  8.60566605E-13  6.43915089E-13
  3.40561388E-01  6.19233659E-01  1.09152995E-14 -8.45281175E-03 -6.31436078E-16
 -1.90137571E-14 -4.64887256E-03  5.19991018E-14 -2.04661192E-13  1.80208110E-12
 -8.49355131E-14  5.01710565E-04  9.12219222E-04 -6.31352147E-14  9.08462280E-14
 -2.37487140E-12 -3.75409119E-14  5.01701621E-04  9.12202952E-04 -5.58529650E-03
 -9.22500283E-03  1.00739240E-01  2.79978597E-13 -2.39819726E-13  3.09499888E-02
  1.08267585E-01 -6.23340604E-14 -2.72115934E-13 -8.13527462E-03  5.78988993E-01
  1.24365140E-12 -7.29929709E-13 -5.10747420E-01 -5.45628542E-01 -1.90951174E-12
  2.85491508E-12 -4.13542138E-03  2.42039626E-15 -1.43045016E-03  5.34846168E-03
  5.28611619E-14 -5.58529020E-03 -9.22499150E-03 -1.00738920E-01  1.63327449E-13
 -8.75097450E-14  3.09499273E-02 -1.08267172E-01 -2.10425554E-13  4.58352226E-13
 -8.13542544E-03 -5.78987861E-01  8.10447372E-13 -5.98355051E-13 -5.10743214E-01
  5.45629452E-01 -3.60442540E-13 -1.20899955E-12 -4.13537902E-03  1.65590873E-14
 -1.43044583E-03  5.34839383E-03 -5.28940394E-14  1.88683600E-02  1.38410926E-01
  6.73215363E-01 -1.50049828E-02 -8.20998262E-14  7.58075964E-14  1.88680590E-02
  1.38410532E-01  6.73212022E-01  1.50049581E-02 -7.16981108E-14  1.07021907E-13
 -1.39049646E-14 -2.54237261E-14  2.98696428E-13 -7.23755728E-02  3.98037642E-02
  1.39805144E-13  2.81051635E-13 -8.15114022E-02  4.48282047E-02 -6.59673576E-13
  1.85161792E-12 -2.74462180E-01  1.50942341E-01 -1.95122480E-12 -3.58783151E-13
  1.00897107E+00 -5.54893090E-01 -7.90286787E-15  5.98123812E-04 -5.99864194E-16