Title Card Required                                                     
Force     UM062X                                                      6-311+G(d,p)        
Number of atoms                            I                6
Info1-9                                    I   N=           9
          15          15           0           0           0         100
           5          18        -502
Full Title                                 C   N=           2
Title Card Required     
Route                                      C   N=           4
#p UM062X/6-311+G** force int=superfine         
Charge                                     I                1
Multiplicity                               I                2
Number of electrons                        I               15
Number of alpha electrons                  I                8
Number of beta electrons                   I                7
Number of basis functions                  I               68
Number of independent functions            I               68
Number of point charges in /Mol/           I                0
Number of translation vectors              I                0
Atomic numbers                             I   N=           6
           6           6           1           1           1           1
Nuclear charges                            R   N=           6
  6.00000000E+00  6.00000000E+00  1.00000000E+00  1.00000000E+00  1.00000000E+00
  1.00000000E+00
Current cartesian coordinates              R   N=          18
  4.28553053E-19  9.75157262E-01  0.00000000E+00 -1.20136577E-16 -9.75157262E-01
  0.00000000E+00 -1.57124491E+00  2.42994213E+00  0.00000000E+00  1.59179568E+00
  2.41272295E+00  0.00000000E+00  1.57124491E+00 -2.42994213E+00  0.00000000E+00
 -1.59179568E+00 -2.41272295E+00  0.00000000E+00
Number of symbols in /Mol/                 I                0
Force Field                                I                0
Atom Types                                 C   N=           6
                                                            
            
Int Atom Types                             I   N=           6
           0           0           0           0           0           0
MM charges                                 R   N=           6
  0.00000000E+00  0.00000000E+00  0.00000000E+00  0.00000000E+00  0.00000000E+00
  0.00000000E+00
Integer atomic weights                     I   N=           6
          12          12           1           1           1           1
Real atomic weights                        R   N=           6
  1.20000000E+01  1.20000000E+01  1.00782504E+00  1.00782504E+00  1.00782504E+00
  1.00782504E+00
Atom fragment info                         I   N=           6
           0           0           0           0           0           0
Atom residue num                           I   N=           6
           0           0           0           0           0           0
Nuclear spins                              I   N=           6
           0           0           1           1           1           1
Nuclear ZEff                               R   N=           6
 -3.60000000E+00 -3.60000000E+00 -1.00000000E+00 -1.00000000E+00 -1.00000000E+00
 -1.00000000E+00
Nuclear ZNuc                               R   N=           6
  6.00000000E+00  6.00000000E+00  1.00000000E+00  1.00000000E+00  1.00000000E+00
  1.00000000E+00
Nuclear QMom                               R   N=           6
  0.00000000E+00  0.00000000E+00  0.00000000E+00  0.00000000E+00  0.00000000E+00
  0.00000000E+00
Nuclear GFac                               R   N=           6
  0.00000000E+00  0.00000000E+00  2.79284600E+00  2.79284600E+00  2.79284600E+00
  2.79284600E+00
MicOpt                                     I   N=           6
          -1          -1          -1          -1          -1          -1
Number of residues                         I                0
Number of secondary structures             I                0
SymInf integers                            I   N=          26
           2           4           1           1           1          -1
          -1           1           1           1          -1          -1
          -1          -1           0           0           0           0
           0           0           0           0           0           0
           0           0
RotTr to input orientation                 R   N=          12
 -8.55083061E-17  1.00000000E+00  0.00000000E+00 -1.00000000E+00 -8.53618159E-17
  0.00000000E+00  0.00000000E+00  0.00000000E+00  1.00000000E+00 -5.55111512E-17
  0.00000000E+00  0.00000000E+00
Number of contracted shells                I               28
Number of primitive shells                 I               50
Pure/Cartesian d shells                    I                0
Pure/Cartesian f shells                    I                0
Highest angular momentum                   I                2
Largest degree of contraction              I                6
Shell types                                I   N=          28
           0          -1          -1          -1          -1          -2
           0          -1          -1          -1          -1          -2
           0           0           0           1           0           0
           0           1           0           0           0           1
           0           0           0           1
Number of primitives per shell             I   N=          28
           6           3           1           1           1           1
           6           3           1           1           1           1
           3           1           1           1           3           1
           1           1           3           1           1           1
           3           1           1           1
Shell to atom map                          I   N=          28
           1           1           1           1           1           1
           2           2           2           2           2           2
           3           3           3           3           4           4
           4           4           5           5           5           5
           6           6           6           6
Primitive exponents                        R   N=          50
  4.56324000E+03  6.82024000E+02  1.54973000E+02  4.44553000E+01  1.30290000E+01
  1.82773000E+00  2.09642000E+01  4.80331000E+00  1.45933000E+00  4.83456000E-01
  1.45585000E-01  4.38000000E-02  6.26000000E-01  4.56324000E+03  6.82024000E+02
  1.54973000E+02  4.44553000E+01  1.30290000E+01  1.82773000E+00  2.09642000E+01
  4.80331000E+00  1.45933000E+00  4.83456000E-01  1.45585000E-01  4.38000000E-02
  6.26000000E-01  3.38650000E+01  5.09479000E+00  1.15879000E+00  3.25840000E-01
  1.02741000E-01  7.50000000E-01  3.38650000E+01  5.09479000E+00  1.15879000E+00
  3.25840000E-01  1.02741000E-01  7.50000000E-01  3.38650000E+01  5.09479000E+00
  1.15879000E+00  3.25840000E-01  1.02741000E-01  7.50000000E-01  3.38650000E+01
  5.09479000E+00  1.15879000E+00  3.25840000E-01  1.02741000E-01  7.50000000E-01
Contraction coefficients                   R   N=          50
  1.96665025E-03  1.52306019E-02  7.61269097E-02  2.60801033E-01  6.16462078E-01
  2.21006028E-01  1.14660081E-01  9.19999648E-01 -3.03068213E-03  1.00000000E+00
  1.00000000E+00  1.00000000E+00  1.00000000E+00  1.96665025E-03  1.52306019E-02
  7.61269097E-02  2.60801033E-01  6.16462078E-01  2.21006028E-01  1.14660081E-01
  9.19999648E-01 -3.03068213E-03  1.00000000E+00  1.00000000E+00  1.00000000E+00
  1.00000000E+00  2.54938145E-02  1.90373109E-01  8.52161486E-01  1.00000000E+00
  1.00000000E+00  1.00000000E+00  2.54938145E-02  1.90373109E-01  8.52161486E-01
  1.00000000E+00  1.00000000E+00  1.00000000E+00  2.54938145E-02  1.90373109E-01
  8.52161486E-01  1.00000000E+00  1.00000000E+00  1.00000000E+00  2.54938145E-02
  1.90373109E-01  8.52161486E-01  1.00000000E+00  1.00000000E+00  1.00000000E+00
P(S=P) Contraction coefficients            R   N=          50
  0.00000000E+00  0.00000000E+00  0.00000000E+00  0.00000000E+00  0.00000000E+00
  0.00000000E+00  4.02486927E-02  2.37593957E-01  8.15853851E-01  1.00000000E+00
  1.00000000E+00  1.00000000E+00  0.00000000E+00  0.00000000E+00  0.00000000E+00
  0.00000000E+00  0.00000000E+00  0.00000000E+00  0.00000000E+00  4.02486927E-02
  2.37593957E-01  8.15853851E-01  1.00000000E+00  1.00000000E+00  1.00000000E+00
  0.00000000E+00  0.00000000E+00  0.00000000E+00  0.00000000E+00  0.00000000E+00
  0.00000000E+00  0.00000000E+00  0.00000000E+00  0.00000000E+00  0.00000000E+00
  0.00000000E+00  0.00000000E+00  0.00000000E+00  0.00000000E+00  0.00000000E+00
  0.00000000E+00  0.00000000E+00  0.00000000E+00  0.00000000E+00  0.00000000E+00
  0.00000000E+00  0.00000000E+00  0.00000000E+00  0.00000000E+00  0.00000000E+00
Coordinates of each shell                  R   N=          84
  2.85702036E-19  9.75157262E-01  0.00000000E+00  2.85702036E-19  9.75157262E-01
  0.00000000E+00  2.85702036E-19  9.75157262E-01  0.00000000E+00  2.85702036E-19
  9.75157262E-01  0.00000000E+00  2.85702036E-19  9.75157262E-01  0.00000000E+00
  2.85702036E-19  9.75157262E-01  0.00000000E+00 -1.19993726E-16 -9.75157262E-01
  0.00000000E+00 -1.19993726E-16 -9.75157262E-01  0.00000000E+00 -1.19993726E-16
 -9.75157262E-01  0.00000000E+00 -1.19993726E-16 -9.75157262E-01  0.00000000E+00
 -1.19993726E-16 -9.75157262E-01  0.00000000E+00 -1.19993726E-16 -9.75157262E-01
  0.00000000E+00 -1.57124491E+00  2.42994213E+00  0.00000000E+00 -1.57124491E+00
  2.42994213E+00  0.00000000E+00 -1.57124491E+00  2.42994213E+00  0.00000000E+00
 -1.57124491E+00  2.42994213E+00  0.00000000E+00  1.59179568E+00  2.41272295E+00
  0.00000000E+00  1.59179568E+00  2.41272295E+00  0.00000000E+00  1.59179568E+00
  2.41272295E+00  0.00000000E+00  1.59179568E+00  2.41272295E+00  0.00000000E+00
  1.57124491E+00 -2.42994213E+00  0.00000000E+00  1.57124491E+00 -2.42994213E+00
  0.00000000E+00  1.57124491E+00 -2.42994213E+00  0.00000000E+00  1.57124491E+00
 -2.42994213E+00  0.00000000E+00 -1.59179568E+00 -2.41272295E+00  0.00000000E+00
 -1.59179568E+00 -2.41272295E+00  0.00000000E+00 -1.59179568E+00 -2.41272295E+00
  0.00000000E+00 -1.59179568E+00 -2.41272295E+00  0.00000000E+00
Num ILSW                                   I              100
ILSW                                       I   N=         100
           1           0           0           0           2           0
           0           0           0           0        4336          -1
           7           0           0           0           2           0
           0           0           0           0           1           0
           1           0           0           0           0           0
           0           0      100000           0          -1           0
           0           0           0           0           0           0
           0           0           0           1           0           0
           0 -2000000000           1           0           0           0
           0           0           4          52           0           0
           0           0          55           0           0           0
           0           0           0           6           0           1
           0           0           0           0           0           0
           0           0           0           0           0           0
           0           0           0           0           0           0
           0           0           0           0           0           0
           0           0           0           0
Num RLSW                                   I               52
RLSW                                       R   N=          52
  1.00000000E+00  1.00000000E+00  1.00000000E+00  1.00000000E+00  5.40000000E-01
  0.00000000E+00  0.00000000E+00  1.00000000E+00  0.00000000E+00  0.00000000E+00
  0.00000000E+00  0.00000000E+00  1.00000000E+00  0.00000000E+00  0.00000000E+00
  0.00000000E+00  0.00000000E+00  1.00000000E+00  0.00000000E+00  0.00000000E+00
  0.00000000E+00  0.00000000E+00  1.00000000E+00  0.00000000E+00  0.00000000E+00
  0.00000000E+00  0.00000000E+00  1.00000000E+00  0.00000000E+00  0.00000000E+00
  0.00000000E+00  0.00000000E+00  1.00000000E+00  0.00000000E+00  0.00000000E+00
  0.00000000E+00  0.00000000E+00  0.00000000E+00  1.00000000E+00  1.00000000E+00
  0.00000000E+00  1.00000000E+00  0.00000000E+00  0.00000000E+00  0.00000000E+00
  0.00000000E+00  0.00000000E+00  0.00000000E+00  0.00000000E+00  0.00000000E+00
  0.00000000E+00  0.00000000E+00
MxBond                                     I                3
NBond                                      I   N=           6
           3           3           1           1           1           1
IBond                                      I   N=          18
           2           3           4           1           5           6
           1           0           0           1           0           0
           2           0           0           2           0           0
RBond                                      R   N=          18
  3.00000000E+00  1.00000000E+00  1.00000000E+00  3.00000000E+00  1.00000000E+00
  1.00000000E+00  1.00000000E+00  0.00000000E+00  0.00000000E+00  1.00000000E+00
  0.00000000E+00  0.00000000E+00  1.00000000E+00  0.00000000E+00  0.00000000E+00
  1.00000000E+00  0.00000000E+00  0.00000000E+00
Virial Ratio                               R      1.986791510162386E+00
SCF Energy                                 R     -7.798002862111258E+01
Total Energy                               R     -7.798002862111258E+01
S**2                                       R      7.576294661049241E-01
S**2 after annihilation                    R      7.500315135495682E-01
RMS Force                                  R      2.383240189006342E-01
RMS Density                                R      9.679353177159926E-09
Job Status                                 I                1
Nuclear derivative order                   I                1
External E-field                           R   N=          35
  0.00000000E+00  0.00000000E+00  0.00000000E+00  0.00000000E+00  0.00000000E+00
  0.00000000E+00  0.00000000E+00  0.00000000E+00  0.00000000E+00  0.00000000E+00
  0.00000000E+00  0.00000000E+00  0.00000000E+00  0.00000000E+00  0.00000000E+00
  0.00000000E+00  0.00000000E+00  0.00000000E+00  0.00000000E+00  0.00000000E+00
  0.00000000E+00  0.00000000E+00  0.00000000E+00  0.00000000E+00  0.00000000E+00
  0.00000000E+00  0.00000000E+00  0.00000000E+00  0.00000000E+00  0.00000000E+00
  0.00000000E+00  0.00000000E+00  0.00000000E+00  0.00000000E+00  0.00000000E+00
IOpCl                                      I                1
IROHF                                      I                0
Alpha Orbital Energies                     R   N=          68
 -1.08175284E+01 -1.08074046E+01 -1.23655259E+00 -9.71251417E-01 -8.70908731E-01
 -8.64521793E-01 -7.03544417E-01 -6.62302891E-01 -1.71710951E-01 -1.66130238E-01
 -1.51556526E-01 -1.37733526E-01 -1.04928467E-01 -8.78800666E-02 -7.43792577E-02
 -6.75298864E-02 -2.74866950E-02 -2.65528438E-02 -1.48888672E-03  2.49630028E-02
  1.30820823E-01  1.73234526E-01  1.97512951E-01  2.17858849E-01  2.63697849E-01
  2.93770823E-01  3.31171422E-01  3.46107458E-01  4.38042457E-01  4.72923983E-01
  4.93009009E-01  5.19278398E-01  5.52009274E-01  7.39748214E-01  9.12811487E-01
  9.26164629E-01  9.45829780E-01  1.04603606E+00  1.26774511E+00  1.30971317E+00
  1.39162931E+00  1.39923189E+00  1.40824421E+00  1.41114173E+00  1.41816398E+00
  1.65673827E+00  1.74381342E+00  1.75478652E+00  1.84290109E+00  1.90429860E+00
  2.04471466E+00  2.10907183E+00  2.15245993E+00  2.28276187E+00  2.29031061E+00
  2.33663244E+00  2.40219088E+00  2.44610639E+00  2.52668985E+00  2.69628699E+00
  2.87631820E+00  3.05106060E+00  3.07513520E+00  3.46676649E+00  3.60938022E+00
  3.62694732E+00  2.34997124E+01  2.53133691E+01
Beta Orbital Energies                      R   N=          68
 -1.08176258E+01 -1.08073264E+01 -1.22571674E+00 -9.23408026E-01 -8.40672798E-01
 -8.12577647E-01 -7.00383653E-01 -4.54460294E-01 -1.69111233E-01 -1.55018865E-01
 -1.50462758E-01 -1.35331208E-01 -1.03130636E-01 -8.67963865E-02 -5.17831327E-02
 -4.92020964E-02 -2.49798148E-02 -1.89606471E-02  2.64592594E-03  3.26175958E-02
  1.32469452E-01  1.72111550E-01  1.94819341E-01  2.20275501E-01  2.70433364E-01
  2.93857079E-01  3.22543421E-01  3.51786847E-01  4.38271993E-01  4.74434432E-01
  4.90012981E-01  5.14120272E-01  5.47427204E-01  7.43851435E-01  9.15588446E-01
  9.33408484E-01  9.43666368E-01  1.04719826E+00  1.28118512E+00  1.30708093E+00
  1.38730403E+00  1.39794892E+00  1.40451735E+00  1.41300926E+00  1.41449364E+00
  1.65446775E+00  1.75186271E+00  1.76516371E+00  1.84012363E+00  1.90297849E+00
  2.06016661E+00  2.12828795E+00  2.15389916E+00  2.28132632E+00  2.30087202E+00
  2.32988016E+00  2.39171441E+00  2.44338740E+00  2.52274377E+00  2.69377066E+00
  2.86927047E+00  3.04551976E+00  3.08387040E+00  3.45850139E+00  3.60247693E+00
  3.62455861E+00  2.34989587E+01  2.53133340E+01
Alpha MO coefficients                      R   N=        4624
  3.97938736E-01  3.27641240E-01  9.09206959E-06 -8.74785464E-04  0.00000000E+00
  8.47286868E-03 -9.63539239E-06  1.43838074E-03  0.00000000E+00 -1.26919841E-03
 -7.51360640E-05  7.88223224E-04  0.00000000E+00 -6.12853534E-04  9.77993362E-06
 -1.10560011E-03  0.00000000E+00 -1.35090235E-03  0.00000000E+00  0.00000000E+00
 -1.24608463E-03 -5.92556868E-05  3.97938736E-01  3.27641240E-01 -9.09206959E-06
  8.74785464E-04  0.00000000E+00  8.47286868E-03  9.63539239E-06 -1.43838074E-03
  0.00000000E+00 -1.26919841E-03  7.51360640E-05 -7.88223224E-04  0.00000000E+00
 -6.12853534E-04 -9.77993362E-06  1.10560011E-03  0.00000000E+00 -1.35090235E-03
  0.00000000E+00  0.00000000E+00 -1.24608463E-03 -5.92556868E-05  2.14946767E-04
 -2.43076485E-03  1.31394357E-03 -1.33553102E-03  5.24119257E-04  0.00000000E+00
  2.26980604E-04 -2.29956993E-03  1.30570236E-03  1.29492962E-03  4.66749967E-04
  0.00000000E+00  2.14946767E-04 -2.43076485E-03  1.31394357E-03  1.33553102E-03
 -5.24119257E-04  0.00000000E+00  2.26980604E-04 -2.29956993E-03  1.30570236E-03
 -1.29492962E-03 -4.66749967E-04  0.00000000E+00  3.99050917E-01  3.27068967E-01
  7.69744801E-06  7.24164772E-05  0.00000000E+00  2.98188534E-02 -1.43931654E-05
 -2.29980885E-02  0.00000000E+00  1.02400698E-04  4.12845011E-06  2.97251990E-03
  0.00000000E+00 -4.67380209E-03  8.66738852E-08  1.26030748E-03  0.00000000E+00
 -3.85618477E-03  0.00000000E+00  0.00000000E+00 -7.34844676E-03 -6.48481017E-06
 -3.99050917E-01 -3.27068967E-01  7.69744801E-06  7.24164772E-05  0.00000000E+00
 -2.98188534E-02 -1.43931654E-05 -2.29980885E-02  0.00000000E+00 -1.02400698E-04
  4.12845011E-06  2.97251990E-03  0.00000000E+00  4.67380209E-03  8.66738852E-08
  1.26030748E-03  0.00000000E+00  3.85618477E-03  0.00000000E+00  0.00000000E+00
  7.34844676E-03  6.48481017E-06  5.34328039E-04  3.51012028E-04 -1.40592994E-03
 -3.25956444E-05 -3.51836595E-04  0.00000000E+00  5.45801679E-04  3.55180378E-04
 -1.39052465E-03  4.03403507E-06 -3.51400847E-04  0.00000000E+00 -5.34328039E-04
 -3.51012028E-04  1.40592994E-03 -3.25956444E-05 -3.51836595E-04  0.00000000E+00
 -5.45801679E-04 -3.55180378E-04  1.39052465E-03  4.03403507E-06 -3.51400847E-04
  0.00000000E+00 -9.88808315E-02 -1.58438195E-01  8.76556952E-05 -1.00469645E-01
  0.00000000E+00  3.69636602E-01  1.26863298E-04 -8.41389448E-02  0.00000000E+00
  1.54549109E-01 -3.69037963E-04 -2.08061527E-02  0.00000000E+00 -2.45871006E-03
  1.92493466E-06  1.47537311E-02  0.00000000E+00 -1.60471627E-02  0.00000000E+00
  0.00000000E+00 -1.42168516E-02 -2.18285161E-04 -9.88808315E-02 -1.58438195E-01
 -8.76556952E-05  1.00469645E-01  0.00000000E+00  3.69636602E-01 -1.26863298E-04
  8.41389448E-02  0.00000000E+00  1.54549109E-01  3.69037963E-04  2.08061527E-02
  0.00000000E+00 -2.45871006E-03 -1.92493466E-06 -1.47537311E-02  0.00000000E+00
 -1.60471627E-02  0.00000000E+00  0.00000000E+00 -1.42168516E-02 -2.18285161E-04
  4.12506796E-02  4.33595291E-02 -4.66514259E-03  2.28694045E-03 -7.23780323E-03
  0.00000000E+00  4.15654238E-02  4.41694811E-02 -4.52279828E-03 -2.58831401E-03
 -7.42736888E-03  0.00000000E+00  4.12506796E-02  4.33595291E-02 -4.66514259E-03
 -2.28694045E-03  7.23780323E-03  0.00000000E+00  4.15654238E-02  4.41694811E-02
 -4.52279828E-03  2.58831401E-03  7.42736888E-03  0.00000000E+00 -5.91971612E-02
 -9.66034390E-02  6.43388909E-04  8.42603217E-02  0.00000000E+00  2.41808336E-01
  9.53041191E-04  1.43174430E-01  0.00000000E+00  1.90975816E-01  3.51448078E-04
  5.86403005E-02  0.00000000E+00 -1.72162440E-01  1.98696651E-05  4.06918890E-02
  0.00000000E+00 -7.74716205E-03  0.00000000E+00  0.00000000E+00  5.29005525E-03
 -6.25144642E-05  5.91971612E-02  9.66034390E-02  6.43388909E-04  8.42603217E-02
  0.00000000E+00 -2.41808336E-01  9.53041191E-04  1.43174430E-01  0.00000000E+00
 -1.90975816E-01  3.51448078E-04  5.86403005E-02  0.00000000E+00  1.72162440E-01
  1.98696651E-05  4.06918890E-02  0.00000000E+00  7.74716205E-03  0.00000000E+00
  0.00000000E+00 -5.29005525E-03  6.25144642E-05  9.98970092E-02  1.30560013E-01
 -1.71308581E-03  1.43050023E-02 -8.85264298E-03  0.00000000E+00  1.00051462E-01
  1.31089726E-01 -1.59243043E-03 -1.44643480E-02 -8.71993605E-03  0.00000000E+00
 -9.98970092E-02 -1.30560013E-01  1.71308581E-03  1.43050023E-02 -8.85264298E-03
  0.00000000E+00 -1.00051462E-01 -1.31089726E-01  1.59243043E-03 -1.44643480E-02
 -8.71993605E-03  0.00000000E+00  9.92171699E-03  1.48866238E-02 -1.01697216E-04
  2.11170477E-01  0.00000000E+00 -1.17935357E-02  2.30157776E-05  2.41576197E-01
  0.00000000E+00  7.97668180E-02  5.89242784E-05  1.10552835E-01  0.00000000E+00
  8.44882840E-03 -4.85266133E-04  7.80319760E-04  0.00000000E+00  3.08397345E-03
  0.00000000E+00  0.00000000E+00  1.35112677E-02  2.34994186E-04  9.92171699E-03
  1.48866238E-02  1.01697216E-04 -2.11170477E-01  0.00000000E+00 -1.17935357E-02
 -2.30157776E-05 -2.41576197E-01  0.00000000E+00  7.97668180E-02 -5.89242784E-05
 -1.10552835E-01  0.00000000E+00  8.44882840E-03  4.85266133E-04 -7.80319760E-04
  0.00000000E+00  3.08397345E-03  0.00000000E+00  0.00000000E+00  1.35112677E-02
  2.34994186E-04  9.33972571E-02  1.38710837E-01  6.25972548E-03  1.96771662E-02
 -4.82371608E-03  0.00000000E+00  9.23544674E-02  1.37009745E-01  6.87791178E-03
 -1.94604406E-02 -4.22950391E-03  0.00000000E+00  9.33972571E-02  1.38710837E-01
  6.25972548E-03 -1.96771662E-02  4.82371608E-03  0.00000000E+00  9.23544674E-02
  1.37009745E-01  6.87791178E-03  1.94604406E-02  4.22950391E-03  0.00000000E+00
  2.88907866E-04  4.76594310E-04  1.67162053E-01 -5.96241713E-04  0.00000000E+00
 -1.45483723E-03  2.31657751E-01 -5.06718556E-04  0.00000000E+00 -1.29982754E-03
  1.13652219E-01 -3.38616473E-04  0.00000000E+00  6.51781156E-03  3.61745308E-03
 -1.35332539E-03  0.00000000E+00  2.58509780E-05  0.00000000E+00  0.00000000E+00
  2.28594859E-04 -1.18974101E-02 -2.88907866E-04 -4.76594310E-04  1.67162053E-01
 -5.96241713E-04  0.00000000E+00  1.45483723E-03  2.31657751E-01 -5.06718556E-04
  0.00000000E+00  1.29982754E-03  1.13652219E-01 -3.38616473E-04  0.00000000E+00
 -6.51781156E-03  3.61745308E-03 -1.35332539E-03  0.00000000E+00 -2.58509780E-05
  0.00000000E+00  0.00000000E+00 -2.28594859E-04  1.18974101E-02 -9.16843701E-02
 -1.35567776E-01 -1.82078529E-03 -8.36156166E-03  1.68404847E-02  0.00000000E+00
  9.15941832E-02  1.35624080E-01  1.78685015E-03 -8.52174022E-03 -1.66620652E-02
  0.00000000E+00  9.16843701E-02  1.35567776E-01  1.82078529E-03 -8.36156166E-03
  1.68404847E-02  0.00000000E+00 -9.15941832E-02 -1.35624080E-01 -1.78685015E-03
 -8.52174022E-03 -1.66620652E-02  0.00000000E+00  0.00000000E+00  0.00000000E+00
  0.00000000E+00  0.00000000E+00  2.02141343E-01  0.00000000E+00  0.00000000E+00
  0.00000000E+00  3.08330802E-01  0.00000000E+00  0.00000000E+00  0.00000000E+00
  1.82331080E-01  0.00000000E+00  0.00000000E+00  0.00000000E+00 -2.09560254E-03
  0.00000000E+00  1.00468947E-04 -2.63093183E-02  0.00000000E+00  0.00000000E+00
  0.00000000E+00  0.00000000E+00  0.00000000E+00  0.00000000E+00  2.02141343E-01
  0.00000000E+00  0.00000000E+00  0.00000000E+00  3.08330802E-01  0.00000000E+00
  0.00000000E+00  0.00000000E+00  1.82331080E-01  0.00000000E+00  0.00000000E+00
  0.00000000E+00 -2.09560254E-03  0.00000000E+00 -1.00468947E-04  2.63093183E-02
  0.00000000E+00  0.00000000E+00  0.00000000E+00  0.00000000E+00  0.00000000E+00
  0.00000000E+00  0.00000000E+00  1.35378033E-02  0.00000000E+00  0.00000000E+00
  0.00000000E+00  0.00000000E+00  0.00000000E+00  1.35524316E-02  0.00000000E+00
  0.00000000E+00  0.00000000E+00  0.00000000E+00  0.00000000E+00  1.35378033E-02
  0.00000000E+00  0.00000000E+00  0.00000000E+00  0.00000000E+00  0.00000000E+00
  1.35524316E-02  3.04876983E-04  5.20789462E-04  1.20880098E-01  2.53577857E-04
  0.00000000E+00 -1.30384112E-03  1.84306988E-01  1.63199066E-04  0.00000000E+00
 -1.78677073E-03  2.18221027E-01 -5.64379343E-04  0.00000000E+00 -1.04345490E-04
  2.66545501E-02 -4.36177045E-04  0.00000000E+00 -8.04663869E-06  0.00000000E+00
  0.00000000E+00  4.86626993E-04  5.70770703E-02  3.04876983E-04  5.20789462E-04
 -1.20880098E-01 -2.53577857E-04  0.00000000E+00 -1.30384112E-03 -1.84306988E-01
 -1.63199066E-04  0.00000000E+00 -1.78677073E-03 -2.18221027E-01  5.64379343E-04
  0.00000000E+00 -1.04345490E-04 -2.66545501E-02  4.36177045E-04  0.00000000E+00
 -8.04663869E-06  0.00000000E+00  0.00000000E+00  4.86626993E-04  5.70770703E-02
 -1.29529693E-01 -2.00119688E-01 -5.28262358E-02  5.08209482E-05  9.26297025E-03
  0.00000000E+00  1.30693400E-01  2.02793895E-01  5.42676594E-02 -3.19989340E-04
 -9.32889472E-03  0.00000000E+00 -1.29529693E-01 -2.00119688E-01 -5.28262358E-02
 -5.08209482E-05 -9.26297025E-03  0.00000000E+00  1.30693400E-01  2.02793895E-01
  5.42676594E-02  3.19989340E-04  9.32889472E-03  0.00000000E+00  0.00000000E+00
  0.00000000E+00  0.00000000E+00  0.00000000E+00  1.53073544E-01  0.00000000E+00
  0.00000000E+00  0.00000000E+00  2.51446974E-01  0.00000000E+00  0.00000000E+00
  0.00000000E+00  6.47114354E-01  0.00000000E+00  0.00000000E+00  0.00000000E+00
  8.02219889E-01  0.00000000E+00  1.20012352E-04  5.20817793E-02  0.00000000E+00
  0.00000000E+00  0.00000000E+00  0.00000000E+00  0.00000000E+00  0.00000000E+00
 -1.53073544E-01  0.00000000E+00  0.00000000E+00  0.00000000E+00 -2.51446974E-01
  0.00000000E+00  0.00000000E+00  0.00000000E+00 -6.47114354E-01  0.00000000E+00
  0.00000000E+00  0.00000000E+00 -8.02219889E-01  0.00000000E+00  1.20012352E-04
  5.20817793E-02  0.00000000E+00  0.00000000E+00  0.00000000E+00  0.00000000E+00
  0.00000000E+00  0.00000000E+00  0.00000000E+00  2.85422526E-02  0.00000000E+00
  0.00000000E+00  0.00000000E+00  0.00000000E+00  0.00000000E+00  2.85139591E-02
  0.00000000E+00  0.00000000E+00  0.00000000E+00  0.00000000E+00  0.00000000E+00
 -2.85422526E-02  0.00000000E+00  0.00000000E+00  0.00000000E+00  0.00000000E+00
  0.00000000E+00 -2.85139591E-02  1.28975927E-04  2.38722503E-04 -1.30309388E-01
 -4.10482379E-04  0.00000000E+00 -1.15365573E-03 -1.79720890E-01 -1.94421594E-04
  0.00000000E+00 -7.35394118E-03 -3.60413063E-01  1.94034322E-03  0.00000000E+00
  6.44101834E-02  2.40101939E-01 -1.07289238E-02  0.00000000E+00  1.03652629E-04
  0.00000000E+00  0.00000000E+00  5.18250010E-04  5.58426040E-02 -1.28975927E-04
 -2.38722503E-04 -1.30309388E-01 -4.10482379E-04  0.00000000E+00  1.15365573E-03
 -1.79720890E-01 -1.94421594E-04  0.00000000E+00  7.35394118E-03 -3.60413063E-01
  1.94034322E-03  0.00000000E+00 -6.44101834E-02  2.40101939E-01 -1.07289238E-02
  0.00000000E+00 -1.03652629E-04  0.00000000E+00  0.00000000E+00 -5.18250010E-04
 -5.58426040E-02 -6.71021951E-02 -2.14548427E-01 -4.11556225E-01  1.36281039E-02
 -1.70469240E-02  0.00000000E+00  6.77075678E-02  2.17408866E-01  4.12205017E-01
  1.40742414E-02  1.71657716E-02  0.00000000E+00  6.71021951E-02  2.14548427E-01
  4.11556225E-01  1.36281039E-02 -1.70469240E-02  0.00000000E+00 -6.77075678E-02
 -2.17408866E-01 -4.12205017E-01  1.40742414E-02  1.71657716E-02  0.00000000E+00
  2.33627000E-02  4.06350618E-02 -4.51177573E-04 -6.18035113E-02  0.00000000E+00
 -1.18454633E-01 -6.40591493E-04 -9.58046253E-02  0.00000000E+00 -5.29604747E-01
 -5.02288483E-03 -2.21441888E-01  0.00000000E+00  8.93170307E-01 -4.89176418E-03
  5.18328931E-01  0.00000000E+00  7.50408595E-03  0.00000000E+00  0.00000000E+00
  6.09898956E-03 -6.87553994E-05  2.33627000E-02  4.06350618E-02  4.51177573E-04
  6.18035113E-02  0.00000000E+00 -1.18454633E-01  6.40591493E-04  9.58046253E-02
  0.00000000E+00 -5.29604747E-01  5.02288483E-03  2.21441888E-01  0.00000000E+00
  8.93170307E-01  4.89176418E-03 -5.18328931E-01  0.00000000E+00  7.50408595E-03
  0.00000000E+00  0.00000000E+00  6.09898956E-03 -6.87553994E-05 -7.86771787E-03
  8.34240828E-02 -7.30487448E-02 -1.18688348E-02  6.57577318E-03  0.00000000E+00
 -7.80608015E-03  8.35479576E-02 -6.55703478E-02  1.19855884E-02  6.43653084E-03
  0.00000000E+00 -7.86771787E-03  8.34240828E-02 -7.30487448E-02  1.18688348E-02
 -6.57577318E-03  0.00000000E+00 -7.80608015E-03  8.35479576E-02 -6.55703478E-02
 -1.19855884E-02 -6.43653084E-03  0.00000000E+00 -3.04088134E-02 -5.26341165E-02
 -4.26985402E-04  4.25824538E-02  0.00000000E+00  1.53333178E-01 -6.26277962E-04
  7.69880477E-02  0.00000000E+00  5.81053290E-01 -1.06918596E-03  6.73070094E-02
  0.00000000E+00  1.31433992E+01  6.75302254E-04 -3.32837317E+00  0.00000000E+00
  2.27704980E-03  0.00000000E+00  0.00000000E+00  6.06408694E-03  2.36893085E-04
  3.04088134E-02  5.26341165E-02 -4.26985402E-04  4.25824538E-02  0.00000000E+00
 -1.53333178E-01 -6.26277962E-04  7.69880477E-02  0.00000000E+00 -5.81053290E-01
 -1.06918596E-03  6.73070094E-02  0.00000000E+00 -1.31433992E+01  6.75302254E-04
 -3.32837317E+00  0.00000000E+00 -2.27704980E-03  0.00000000E+00  0.00000000E+00