 Entering Gaussian System, Link 0=g16
 Initial command:
 /home/szhao/Apps/g16/l1.exe "/home/szhao/tmp/Gau-115694.inp" -scrdir="/home/szhao/tmp/"
 Default is to use a total of  16 processors:
                               16 via shared-memory
                                1 via Linda
 Entering Link 1 = /home/szhao/Apps/g16/l1.exe PID=    115696.
  
 Copyright (c) 1988,1990,1992,1993,1995,1998,2003,2009,2016,
            Gaussian, Inc.  All Rights Reserved.
  
 This is part of the Gaussian(R) 16 program.  It is based on
 the Gaussian(R) 09 system (copyright 2009, Gaussian, Inc.),
 the Gaussian(R) 03 system (copyright 2003, Gaussian, Inc.),
 the Gaussian(R) 98 system (copyright 1998, Gaussian, Inc.),
 the Gaussian(R) 94 system (copyright 1995, Gaussian, Inc.),
 the Gaussian 92(TM) system (copyright 1992, Gaussian, Inc.),
 the Gaussian 90(TM) system (copyright 1990, Gaussian, Inc.),
 the Gaussian 88(TM) system (copyright 1988, Gaussian, Inc.),
 the Gaussian 86(TM) system (copyright 1986, Carnegie Mellon
 University), and the Gaussian 82(TM) system (copyright 1983,
 Carnegie Mellon University). Gaussian is a federally registered
 trademark of Gaussian, Inc.
  
 This software contains proprietary and confidential information,
 including trade secrets, belonging to Gaussian, Inc.
  
 This software is provided under written license and may be
 used, copied, transmitted, or stored only in accord with that
 written license.
  
 The following legend is applicable only to US Government
 contracts under FAR:
  
                    RESTRICTED RIGHTS LEGEND
  
 Use, reproduction and disclosure by the US Government is
 subject to restrictions as set forth in subparagraphs (a)
 and (c) of the Commercial Computer Software - Restricted
 Rights clause in FAR 52.227-19.
  
 Gaussian, Inc.
 340 Quinnipiac St., Bldg. 40, Wallingford CT 06492
  
  
 ---------------------------------------------------------------
 Warning -- This program may not be used in any manner that
 competes with the business of Gaussian, Inc. or will provide
 assistance to any competitor of Gaussian, Inc.  The licensee
 of this program is prohibited from giving any competitor of
 Gaussian, Inc. access to this program.  By using this program,
 the user acknowledges that Gaussian, Inc. is engaged in the
 business of creating and licensing software in the field of
 computational chemistry and represents and warrants to the
 licensee that it is not a competitor of Gaussian, Inc. and that
 it will not use this program in any manner prohibited above.
 ---------------------------------------------------------------
  

 Cite this work as:
 Gaussian 16, Revision A.03,
 M. J. Frisch, G. W. Trucks, H. B. Schlegel, G. E. Scuseria, 
 M. A. Robb, J. R. Cheeseman, G. Scalmani, V. Barone, 
 G. A. Petersson, H. Nakatsuji, X. Li, M. Caricato, A. V. Marenich, 
 J. Bloino, B. G. Janesko, R. Gomperts, B. Mennucci, H. P. Hratchian, 
 J. V. Ortiz, A. F. Izmaylov, J. L. Sonnenberg, D. Williams-Young, 
 F. Ding, F. Lipparini, F. Egidi, J. Goings, B. Peng, A. Petrone, 
 T. Henderson, D. Ranasinghe, V. G. Zakrzewski, J. Gao, N. Rega, 
 G. Zheng, W. Liang, M. Hada, M. Ehara, K. Toyota, R. Fukuda, 
 J. Hasegawa, M. Ishida, T. Nakajima, Y. Honda, O. Kitao, H. Nakai, 
 T. Vreven, K. Throssell, J. A. Montgomery, Jr., J. E. Peralta, 
 F. Ogliaro, M. J. Bearpark, J. J. Heyd, E. N. Brothers, K. N. Kudin, 
 V. N. Staroverov, T. A. Keith, R. Kobayashi, J. Normand, 
 K. Raghavachari, A. P. Rendell, J. C. Burant, S. S. Iyengar, 
 J. Tomasi, M. Cossi, J. M. Millam, M. Klene, C. Adamo, R. Cammi, 
 J. W. Ochterski, R. L. Martin, K. Morokuma, O. Farkas, 
 J. B. Foresman, and D. J. Fox, Gaussian, Inc., Wallingford CT, 2016.
 
 ******************************************
 Gaussian 16:  ES64L-G16RevA.03 25-Dec-2016
                 3-Dec-2024 
 ******************************************
 %chk=opt.chk
 %mem=4GB
 %nprocshared=8
 Will use up to    8 processors via shared memory.
 --------------------------------------------
 #p opt UM062X/6-311+G** nosymm int=superfine
 --------------------------------------------
 1/18=20,19=15,26=5,38=1/1,3;
 2/9=110,12=2,15=1,17=6,18=5,40=1/2;
 3/5=4,6=6,7=111,11=2,25=1,30=1,71=1,74=-55,75=-7,116=2/1,2,3;
 4//1;
 5/5=2,38=5/2;
 6/7=2,8=2,9=2,10=2,28=1/1;
 7/30=1/1,2,3,16;
 1/18=20,19=15,26=5/3(2);
 2/9=110,15=1/2;
 99//99;
 2/9=110,15=1/2;
 3/5=4,6=6,7=111,11=2,25=1,30=1,71=1,74=-55,75=-7,116=2/1,2,3;
 4/5=5,16=3,69=1/1;
 5/5=2,38=5/2;
 7/30=1/1,2,3,16;
 1/18=20,19=15,26=5/3(-5);
 2/9=110,15=1/2;
 6/7=2,8=2,9=2,10=2,19=2,28=1/1;
 99/9=1/99;
 Leave Link    1 at Tue Dec  3 23:46:18 2024, MaxMem=   536870912 cpu:               0.3 elap:               0.0
 (Enter /home/szhao/Apps/g16/l101.exe)
 -------------------
 Title Card Required
 -------------------
 Symbolic Z-matrix:
 Charge =  0 Multiplicity = 1
 C                    -1   -1.85763   0.        0. 
 C                    -1    1.85763   0.        0. 
 H                    0    -1.97067   0.32135   1.06377 
 H                    0     1.97132   1.03392  -0.40698 
 
 Add virtual bond connecting atoms C2         and C1         Dist= 7.02D+00.
 ITRead=  2  2  0  0
 MicOpt= -2 -2 -1 -1
 NAtoms=      4 NQM=        2 NQMF=       2 NMMI=      0 NMMIF=      0
                NMic=       0 NMicF=      0.
                    Isotopes and Nuclear Properties:
 (Nuclear quadrupole moments (NQMom) in fm**2, nuclear magnetic moments (NMagM)
  in nuclear magnetons)

  Atom         1           2           3           4
 IAtWgt=          12          12           1           1
 AtmWgt=  12.0000000  12.0000000   1.0078250   1.0078250
 NucSpn=           0           0           1           1
 AtZEff=  -0.0000000  -0.0000000  -0.0000000  -0.0000000
 NQMom=    0.0000000   0.0000000   0.0000000   0.0000000
 NMagM=    0.0000000   0.0000000   2.7928460   2.7928460
 AtZNuc=   6.0000000   6.0000000   1.0000000   1.0000000
 Leave Link  101 at Tue Dec  3 23:46:18 2024, MaxMem=   536870912 cpu:               2.5 elap:               0.3
 (Enter /home/szhao/Apps/g16/l103.exe)

 GradGradGradGradGradGradGradGradGradGradGradGradGradGradGradGradGradGrad
 Berny optimization.
 Initialization pass.
                           ----------------------------
                           !    Initial Parameters    !
                           ! (Angstroms and Degrees)  !
 --------------------------                            --------------------------
 ! Name  Definition              Value          Derivative Info.                !
 --------------------------------------------------------------------------------
 ! X1    R(1,-1)                -1.8576         Frozen                          !
 ! Y1    R(1,-2)                 0.0            Frozen                          !
 ! Z1    R(1,-3)                 0.0            Frozen                          !
 ! X2    R(2,-1)                 1.8576         Frozen                          !
 ! Y2    R(2,-2)                 0.0            Frozen                          !
 ! Z2    R(2,-3)                 0.0            Frozen                          !
 ! R1    R(1,3)                  1.117          estimate D2E/DX2                !
 ! R2    R(2,4)                  1.1169         estimate D2E/DX2                !
 ! A1    A(2,1,3)               95.8086         estimate D2E/DX2                !
 ! A2    A(1,2,4)               95.8424         estimate D2E/DX2                !
 ! D1    D(3,1,2,4)            -94.6772         estimate D2E/DX2                !
 --------------------------------------------------------------------------------
 Trust Radius=3.00D-01 FncErr=1.00D-07 GrdErr=1.00D-07 EigMax=2.50D+02 EigMin=1.00D-04
 Number of steps in this run=     21 maximum allowed number of steps=    100.
 GradGradGradGradGradGradGradGradGradGradGradGradGradGradGradGradGradGrad

 Leave Link  103 at Tue Dec  3 23:46:18 2024, MaxMem=   536870912 cpu:               0.1 elap:               0.0
 (Enter /home/szhao/Apps/g16/l202.exe)
                          Input orientation:                          
 ---------------------------------------------------------------------
 Center     Atomic      Atomic             Coordinates (Angstroms)
 Number     Number       Type             X           Y           Z
 ---------------------------------------------------------------------
      1          6           0       -1.857625    0.000000    0.000000
      2          6           0        1.857625    0.000000    0.000000
      3          1           0       -1.970671    0.321352    1.063773
      4          1           0        1.971320    1.033920   -0.406981
 ---------------------------------------------------------------------
                    Distance matrix (angstroms):
                    1          2          3          4
     1  C    0.000000
     2  C    3.715250   0.000000
     3  H    1.116987   3.986318   0.000000
     4  H    3.986909   1.116938   4.267337   0.000000
 Symmetry turned off by external request.
 Stoichiometry    C2H2
 Framework group  C1[X(C2H2)]
 Deg. of freedom     6
 Full point group                 C1      NOp   1
 Rotational constants (GHZ):         221.4226522           5.5039477           5.4935591
 Leave Link  202 at Tue Dec  3 23:46:18 2024, MaxMem=   536870912 cpu:               0.0 elap:               0.0
 (Enter /home/szhao/Apps/g16/l301.exe)
 Standard basis: 6-311+G(d,p) (5D, 7F)
 Ernie: Thresh=  0.10000D-02 Tol=  0.10000D-05 Strict=F.
    56 basis functions,    88 primitive gaussians,    58 cartesian basis functions
     7 alpha electrons        7 beta electrons
       nuclear repulsion energy        12.5296606085 Hartrees.
 IExCor= 4336 DFT=T Ex+Corr=M062X ExCW=0 ScaHFX=  0.540000
 ScaDFX=  1.000000  1.000000  1.000000  1.000000 ScalE2=  1.000000  1.000000
 IRadAn=      7 IRanWt=     -1 IRanGd=            0 ICorTp=0 IEmpDi=  4
 NAtoms=    4 NActive=    4 NUniq=    4 SFac= 1.00D+00 NAtFMM=   60 NAOKFM=F Big=F
 Integral buffers will be    131072 words long.
 Raffenetti 2 integral format.
 Two-electron integral symmetry is turned off.
 Leave Link  301 at Tue Dec  3 23:46:18 2024, MaxMem=   536870912 cpu:               0.3 elap:               0.0
 (Enter /home/szhao/Apps/g16/l302.exe)
 NPDir=0 NMtPBC=     1 NCelOv=     1 NCel=       1 NClECP=     1 NCelD=      1
         NCelK=      1 NCelE2=     1 NClLst=     1 CellRange=     0.0.
 One-electron integrals computed using PRISM.
 NBasis=    56 RedAO= T EigKep=  1.39D-02  NBF=    56
 NBsUse=    56 1.00D-06 EigRej= -1.00D+00 NBFU=    56
 Precomputing XC quadrature grid using
 IXCGrd= 4 IRadAn=           7 IRanWt=          -1 IRanGd=           0 AccXCQ= 0.00D+00.
 Generated NRdTot=       0 NPtTot=           0 NUsed=           0 NTot=          32
 NSgBfM=    58    58    58    58    58 MxSgAt=     4 MxSgA2=     4.
 Leave Link  302 at Tue Dec  3 23:46:18 2024, MaxMem=   536870912 cpu:               1.0 elap:               0.1
 (Enter /home/szhao/Apps/g16/l303.exe)
 DipDrv:  MaxL=1.
 Leave Link  303 at Tue Dec  3 23:46:18 2024, MaxMem=   536870912 cpu:               0.3 elap:               0.0
 (Enter /home/szhao/Apps/g16/l401.exe)
 ExpMin= 4.38D-02 ExpMax= 4.56D+03 ExpMxC= 6.82D+02 IAcc=3 IRadAn=         7 AccDes= 0.00D+00
 Harris functional with IExCor= 1009 and IRadAn=       7 diagonalized for initial guess.
 HarFok:  IExCor= 1009 AccDes= 0.00D+00 IRadAn=         7 IDoV= 1 UseB2=F ITyADJ=14
 ICtDFT=  3500011 ScaDFX=  1.000000  1.000000  1.000000  1.000000
 FoFCou: FMM=F IPFlag=           0 FMFlag=      100000 FMFlg1=           0
         NFxFlg=           0 DoJE=T BraDBF=F KetDBF=T FulRan=T
         wScrn=  0.000000 ICntrl=       500 IOpCl=  0 I1Cent=   200000004 NGrid=           0
         NMat0=    1 NMatS0=      1 NMatT0=    0 NMatD0=    1 NMtDS0=    0 NMtDT0=    0
 Symmetry not used in FoFCou.
 Harris En= -76.8427933355522    
 JPrj=0 DoOrth=F DoCkMO=F.
 Initial guess <Sx>= 0.0000 <Sy>= 0.0000 <Sz>= 0.0000 <S**2>=-0.0000 S=-0.0000
 Leave Link  401 at Tue Dec  3 23:46:18 2024, MaxMem=   536870912 cpu:               1.8 elap:               0.2
 (Enter /home/szhao/Apps/g16/l502.exe)
 Keep R1 and R2 ints in memory in canonical form, NReq=9624198.
 FoFCou: FMM=F IPFlag=           0 FMFlag=           0 FMFlg1=           0
         NFxFlg=           0 DoJE=F BraDBF=F KetDBF=F FulRan=T
         wScrn=  0.000000 ICntrl=       600 IOpCl=  0 I1Cent=           0 NGrid=           0
         NMat0=    1 NMatS0=   1596 NMatT0=    0 NMatD0=    1 NMtDS0=    0 NMtDT0=    0
 Symmetry not used in FoFCou.
 Two-electron integral symmetry not used.
 UHF open shell SCF:
 Using DIIS extrapolation, IDIIS=  1040.
 NGot=   536870912 LenX=   534314338 LenY=   534310533
 Requested convergence on RMS density matrix=1.00D-08 within 128 cycles.
 Requested convergence on MAX density matrix=1.00D-06.
 Requested convergence on             energy=1.00D-06.
 No special actions if energy rises.

 Cycle   1  Pass 1  IDiag  1:
 E= -76.8627372354958    
 DIIS: error= 1.07D-02 at cycle   1 NSaved=   1.
 NSaved= 1 IEnMin= 1 EnMin= -76.8627372354958     IErMin= 1 ErrMin= 1.07D-02
 ErrMax= 1.07D-02  0.00D+00 EMaxC= 1.00D-01 BMatC= 4.75D-02 BMatP= 4.75D-02
 IDIUse=3 WtCom= 8.93D-01 WtEn= 1.07D-01
 Coeff-Com:  0.100D+01
 Coeff-En:   0.100D+01
 Coeff:      0.100D+01
 Gap=     0.143 Goal=   None    Shift=    0.000
 Gap=     0.143 Goal=   None    Shift=    0.000
 GapD=    0.143 DampG=1.000 DampE=0.500 DampFc=0.5000 IDamp=-1.
 Damping current iteration by 5.00D-01
 RMSDP=1.86D-03 MaxDP=1.46D-02              OVMax= 6.36D-02

 Cycle   2  Pass 1  IDiag  1:
 E= -76.8670197899382     Delta-E=       -0.004282554442 Rises=F Damp=T
 DIIS: error= 4.56D-03 at cycle   2 NSaved=   2.
 NSaved= 2 IEnMin= 2 EnMin= -76.8670197899382     IErMin= 2 ErrMin= 4.56D-03
 ErrMax= 4.56D-03  0.00D+00 EMaxC= 1.00D-01 BMatC= 1.15D-02 BMatP= 4.75D-02
 IDIUse=3 WtCom= 9.54D-01 WtEn= 4.56D-02
 Coeff-Com: -0.827D+00 0.183D+01
 Coeff-En:   0.000D+00 0.100D+01
 Coeff:     -0.790D+00 0.179D+01
 Gap=     0.109 Goal=   None    Shift=    0.000
 Gap=     0.109 Goal=   None    Shift=    0.000
 RMSDP=9.97D-04 MaxDP=1.73D-02 DE=-4.28D-03 OVMax= 1.31D-02

 Cycle   3  Pass 1  IDiag  1:
 E= -76.8715113535310     Delta-E=       -0.004491563593 Rises=F Damp=F
 DIIS: error= 1.55D-03 at cycle   3 NSaved=   3.
 NSaved= 3 IEnMin= 3 EnMin= -76.8715113535310     IErMin= 3 ErrMin= 1.55D-03
 ErrMax= 1.55D-03  0.00D+00 EMaxC= 1.00D-01 BMatC= 3.96D-04 BMatP= 1.15D-02
 IDIUse=3 WtCom= 9.85D-01 WtEn= 1.55D-02
 Coeff-Com: -0.266D+00 0.520D+00 0.746D+00
 Coeff-En:   0.000D+00 0.000D+00 0.100D+01
 Coeff:     -0.262D+00 0.512D+00 0.750D+00
 Gap=     0.110 Goal=   None    Shift=    0.000
 Gap=     0.110 Goal=   None    Shift=    0.000
 RMSDP=2.29D-04 MaxDP=4.08D-03 DE=-4.49D-03 OVMax= 1.03D-02

 Cycle   4  Pass 1  IDiag  1:
 E= -76.8716319585572     Delta-E=       -0.000120605026 Rises=F Damp=F
 DIIS: error= 8.30D-04 at cycle   4 NSaved=   4.
 NSaved= 4 IEnMin= 4 EnMin= -76.8716319585572     IErMin= 4 ErrMin= 8.30D-04
 ErrMax= 8.30D-04  0.00D+00 EMaxC= 1.00D-01 BMatC= 7.66D-05 BMatP= 3.96D-04
 IDIUse=3 WtCom= 9.92D-01 WtEn= 8.30D-03
 Coeff-Com: -0.100D+00 0.192D+00 0.371D+00 0.537D+00
 Coeff-En:   0.000D+00 0.000D+00 0.000D+00 0.100D+01
 Coeff:     -0.997D-01 0.191D+00 0.368D+00 0.541D+00
 Gap=     0.110 Goal=   None    Shift=    0.000
 Gap=     0.110 Goal=   None    Shift=    0.000
 RMSDP=1.68D-04 MaxDP=2.57D-03 DE=-1.21D-04 OVMax= 1.35D-02

 Cycle   5  Pass 1  IDiag  1:
 E= -76.8715653790989     Delta-E=        0.000066579458 Rises=F Damp=F
 DIIS: error= 1.58D-03 at cycle   5 NSaved=   5.
 NSaved= 5 IEnMin= 4 EnMin= -76.8716319585572     IErMin= 4 ErrMin= 8.30D-04
 ErrMax= 1.58D-03  0.00D+00 EMaxC= 1.00D-01 BMatC= 2.42D-04 BMatP= 7.66D-05
 IDIUse=3 WtCom= 2.01D-01 WtEn= 7.99D-01
 Coeff-Com:  0.642D-01-0.131D+00-0.462D-01 0.724D+00 0.389D+00
 Coeff-En:   0.000D+00 0.000D+00 0.000D+00 0.670D+00 0.330D+00
 Coeff:      0.129D-01-0.263D-01-0.929D-02 0.681D+00 0.342D+00
 Gap=     0.110 Goal=   None    Shift=    0.000
 Gap=     0.110 Goal=   None    Shift=    0.000
 RMSDP=1.07D-04 MaxDP=1.61D-03 DE= 6.66D-05 OVMax= 8.33D-03

 Cycle   6  Pass 1  IDiag  1:
 E= -76.8716741872431     Delta-E=       -0.000108808144 Rises=F Damp=F
 DIIS: error= 1.26D-04 at cycle   6 NSaved=   6.
 NSaved= 6 IEnMin= 6 EnMin= -76.8716741872431     IErMin= 6 ErrMin= 1.26D-04
 ErrMax= 1.26D-04  0.00D+00 EMaxC= 1.00D-01 BMatC= 3.13D-06 BMatP= 7.66D-05
 IDIUse=3 WtCom= 9.99D-01 WtEn= 1.26D-03
 Coeff-Com: -0.418D-02 0.927D-02-0.664D-01-0.128D+00-0.164D+00 0.135D+01
 Coeff-En:   0.000D+00 0.000D+00 0.000D+00 0.000D+00 0.000D+00 0.100D+01
 Coeff:     -0.417D-02 0.926D-02-0.664D-01-0.128D+00-0.164D+00 0.135D+01
 Gap=     0.110 Goal=   None    Shift=    0.000
 Gap=     0.110 Goal=   None    Shift=    0.000
 RMSDP=5.13D-05 MaxDP=4.05D-04 DE=-1.09D-04 OVMax= 4.34D-03

 Cycle   7  Pass 1  IDiag  1:
 E= -76.8716821321257     Delta-E=       -0.000007944883 Rises=F Damp=F
 DIIS: error= 1.02D-04 at cycle   7 NSaved=   7.
 NSaved= 7 IEnMin= 7 EnMin= -76.8716821321257     IErMin= 7 ErrMin= 1.02D-04
 ErrMax= 1.02D-04  0.00D+00 EMaxC= 1.00D-01 BMatC= 5.93D-07 BMatP= 3.13D-06
 IDIUse=3 WtCom= 9.99D-01 WtEn= 1.02D-03
 Coeff-Com: -0.896D-02 0.179D-01 0.468D-01-0.464D-01 0.296D-01-0.765D+00
 Coeff-Com:  0.173D+01
 Coeff-En:   0.000D+00 0.000D+00 0.000D+00 0.000D+00 0.000D+00 0.000D+00
 Coeff-En:   0.100D+01
 Coeff:     -0.895D-02 0.179D-01 0.468D-01-0.464D-01 0.296D-01-0.764D+00
 Coeff:      0.172D+01
 Gap=     0.110 Goal=   None    Shift=    0.000
 Gap=     0.110 Goal=   None    Shift=    0.000
 RMSDP=5.62D-05 MaxDP=4.60D-04 DE=-7.94D-06 OVMax= 5.03D-03

 Cycle   8  Pass 1  IDiag  1:
 E= -76.8716887050528     Delta-E=       -0.000006572927 Rises=F Damp=F
 DIIS: error= 8.53D-05 at cycle   8 NSaved=   8.
 NSaved= 8 IEnMin= 8 EnMin= -76.8716887050528     IErMin= 8 ErrMin= 8.53D-05
 ErrMax= 8.53D-05  0.00D+00 EMaxC= 1.00D-01 BMatC= 3.71D-07 BMatP= 5.93D-07
 IDIUse=1 WtCom= 1.00D+00 WtEn= 0.00D+00
 Coeff-Com:  0.860D-02-0.177D-01 0.126D-01 0.120D+00 0.924D-01-0.410D+00
 Coeff-Com: -0.202D+01 0.322D+01
 Coeff:      0.860D-02-0.177D-01 0.126D-01 0.120D+00 0.924D-01-0.410D+00
 Coeff:     -0.202D+01 0.322D+01
 Gap=     0.110 Goal=   None    Shift=    0.000
 Gap=     0.110 Goal=   None    Shift=    0.000
 RMSDP=1.36D-04 MaxDP=1.11D-03 DE=-6.57D-06 OVMax= 1.22D-02

 Cycle   9  Pass 1  IDiag  1:
 E= -76.8716985024680     Delta-E=       -0.000009797415 Rises=F Damp=F
 DIIS: error= 3.29D-05 at cycle   9 NSaved=   9.
 NSaved= 9 IEnMin= 9 EnMin= -76.8716985024680     IErMin= 9 ErrMin= 3.29D-05
 ErrMax= 3.29D-05  0.00D+00 EMaxC= 1.00D-01 BMatC= 9.16D-08 BMatP= 3.71D-07
 IDIUse=1 WtCom= 1.00D+00 WtEn= 0.00D+00
 Coeff-Com:  0.162D-03 0.232D-04-0.503D-01-0.442D-01-0.972D-01 0.103D+01
 Coeff-Com: -0.969D+00-0.591D+00 0.172D+01
 Coeff:      0.162D-03 0.232D-04-0.503D-01-0.442D-01-0.972D-01 0.103D+01
 Coeff:     -0.969D+00-0.591D+00 0.172D+01
 Gap=     0.110 Goal=   None    Shift=    0.000
 Gap=     0.110 Goal=   None    Shift=    0.000
 RMSDP=7.64D-05 MaxDP=6.25D-04 DE=-9.80D-06 OVMax= 6.85D-03

 Cycle  10  Pass 1  IDiag  1:
 E= -76.8717003104360     Delta-E=       -0.000001807968 Rises=F Damp=F
 DIIS: error= 5.79D-06 at cycle  10 NSaved=  10.
 NSaved=10 IEnMin=10 EnMin= -76.8717003104360     IErMin=10 ErrMin= 5.79D-06
 ErrMax= 5.79D-06  0.00D+00 EMaxC= 1.00D-01 BMatC= 4.11D-09 BMatP= 9.16D-08
 IDIUse=1 WtCom= 1.00D+00 WtEn= 0.00D+00
 Coeff-Com: -0.127D-02 0.257D-02 0.629D-03-0.163D-01-0.940D-02 0.110D-01
 Coeff-Com:  0.174D+00-0.145D+00-0.281D+00 0.127D+01
 Coeff:     -0.127D-02 0.257D-02 0.629D-03-0.163D-01-0.940D-02 0.110D-01
 Coeff:      0.174D+00-0.145D+00-0.281D+00 0.127D+01
 Gap=     0.110 Goal=   None    Shift=    0.000
 Gap=     0.110 Goal=   None    Shift=    0.000
 RMSDP=1.07D-05 MaxDP=8.64D-05 DE=-1.81D-06 OVMax= 9.47D-04

 Cycle  11  Pass 1  IDiag  1:
 E= -76.8717003472605     Delta-E=       -0.000000036824 Rises=F Damp=F
 DIIS: error= 9.85D-07 at cycle  11 NSaved=  11.
 NSaved=11 IEnMin=11 EnMin= -76.8717003472605     IErMin=11 ErrMin= 9.85D-07
 ErrMax= 9.85D-07  0.00D+00 EMaxC= 1.00D-01 BMatC= 2.16D-10 BMatP= 4.11D-09
 IDIUse=1 WtCom= 1.00D+00 WtEn= 0.00D+00
 Coeff-Com:  0.111D-03-0.240D-03 0.255D-02 0.318D-02 0.559D-02-0.543D-01
 Coeff-Com:  0.136D-01 0.846D-01-0.122D+00 0.425D-01 0.102D+01
 Coeff:      0.111D-03-0.240D-03 0.255D-02 0.318D-02 0.559D-02-0.543D-01
 Coeff:      0.136D-01 0.846D-01-0.122D+00 0.425D-01 0.102D+01
 Gap=     0.110 Goal=   None    Shift=    0.000
 Gap=     0.110 Goal=   None    Shift=    0.000
 RMSDP=1.19D-06 MaxDP=9.39D-06 DE=-3.68D-08 OVMax= 1.03D-04

 Cycle  12  Pass 1  IDiag  1:
 E= -76.8717003477948     Delta-E=       -0.000000000534 Rises=F Damp=F
 DIIS: error= 3.04D-07 at cycle  12 NSaved=  12.
 NSaved=12 IEnMin=12 EnMin= -76.8717003477948     IErMin=12 ErrMin= 3.04D-07
 ErrMax= 3.04D-07  0.00D+00 EMaxC= 1.00D-01 BMatC= 1.82D-11 BMatP= 2.16D-10
 IDIUse=1 WtCom= 1.00D+00 WtEn= 0.00D+00
 Coeff-Com:  0.455D-05-0.848D-05-0.470D-03-0.890D-05-0.681D-03 0.939D-02
 Coeff-Com: -0.945D-02-0.281D-02 0.153D-01-0.317D-01-0.291D+00 0.131D+01
 Coeff:      0.455D-05-0.848D-05-0.470D-03-0.890D-05-0.681D-03 0.939D-02
 Coeff:     -0.945D-02-0.281D-02 0.153D-01-0.317D-01-0.291D+00 0.131D+01
 Gap=     0.110 Goal=   None    Shift=    0.000
 Gap=     0.110 Goal=   None    Shift=    0.000
 RMSDP=1.27D-07 MaxDP=8.74D-07 DE=-5.34D-10 OVMax= 5.43D-06

 Cycle  13  Pass 1  IDiag  1:
 E= -76.8717003478286     Delta-E=       -0.000000000034 Rises=F Damp=F
 DIIS: error= 1.39D-07 at cycle  13 NSaved=  13.
 NSaved=13 IEnMin=13 EnMin= -76.8717003478286     IErMin=13 ErrMin= 1.39D-07
 ErrMax= 1.39D-07  0.00D+00 EMaxC= 1.00D-01 BMatC= 2.89D-12 BMatP= 1.82D-11
 IDIUse=1 WtCom= 1.00D+00 WtEn= 0.00D+00
 Coeff-Com: -0.287D-04 0.595D-04-0.249D-03-0.566D-03-0.691D-03 0.544D-02
 Coeff-Com: -0.180D-02-0.671D-02 0.869D-02 0.141D-01-0.146D+00 0.398D-02
 Coeff-Com:  0.112D+01
 Coeff:     -0.287D-04 0.595D-04-0.249D-03-0.566D-03-0.691D-03 0.544D-02
 Coeff:     -0.180D-02-0.671D-02 0.869D-02 0.141D-01-0.146D+00 0.398D-02
 Coeff:      0.112D+01
 Gap=     0.110 Goal=   None    Shift=    0.000
 Gap=     0.110 Goal=   None    Shift=    0.000
 RMSDP=3.31D-08 MaxDP=2.32D-07 DE=-3.38D-11 OVMax= 1.85D-06

 Cycle  14  Pass 1  IDiag  1:
 E= -76.8717003478322     Delta-E=       -0.000000000004 Rises=F Damp=F
 DIIS: error= 3.41D-08 at cycle  14 NSaved=  14.
 NSaved=14 IEnMin=14 EnMin= -76.8717003478322     IErMin=14 ErrMin= 3.41D-08
 ErrMax= 3.41D-08  0.00D+00 EMaxC= 1.00D-01 BMatC= 1.99D-13 BMatP= 2.89D-12
 IDIUse=1 WtCom= 1.00D+00 WtEn= 0.00D+00
 Coeff-Com:  0.837D-05-0.173D-04 0.132D-03 0.189D-03 0.301D-03-0.279D-02
 Coeff-Com:  0.145D-02 0.327D-02-0.638D-02 0.377D-02 0.635D-01-0.131D+00
 Coeff-Com: -0.360D+00 0.143D+01
 Coeff:      0.837D-05-0.173D-04 0.132D-03 0.189D-03 0.301D-03-0.279D-02
 Coeff:      0.145D-02 0.327D-02-0.638D-02 0.377D-02 0.635D-01-0.131D+00
 Coeff:     -0.360D+00 0.143D+01
 Gap=     0.110 Goal=   None    Shift=    0.000
 Gap=     0.110 Goal=   None    Shift=    0.000
 RMSDP=1.61D-08 MaxDP=1.08D-07 DE=-3.61D-12 OVMax= 7.21D-07

 Cycle  15  Pass 1  IDiag  1:
 E= -76.8717003478326     Delta-E=       -0.000000000000 Rises=F Damp=F
 DIIS: error= 2.91D-09 at cycle  15 NSaved=  15.
 NSaved=15 IEnMin=15 EnMin= -76.8717003478326     IErMin=15 ErrMin= 2.91D-09
 ErrMax= 2.91D-09  0.00D+00 EMaxC= 1.00D-01 BMatC= 1.88D-15 BMatP= 1.99D-13
 IDIUse=1 WtCom= 1.00D+00 WtEn= 0.00D+00
 Coeff-Com: -0.487D-06 0.996D-06-0.107D-04-0.148D-04-0.245D-04 0.228D-03
 Coeff-Com: -0.191D-03-0.135D-03 0.388D-03-0.243D-03-0.314D-02 0.762D-02
 Coeff-Com:  0.170D-01-0.143D+00 0.112D+01
 Coeff:     -0.487D-06 0.996D-06-0.107D-04-0.148D-04-0.245D-04 0.228D-03
 Coeff:     -0.191D-03-0.135D-03 0.388D-03-0.243D-03-0.314D-02 0.762D-02
 Coeff:      0.170D-01-0.143D+00 0.112D+01
 Gap=     0.110 Goal=   None    Shift=    0.000
 Gap=     0.110 Goal=   None    Shift=    0.000
 RMSDP=1.66D-09 MaxDP=1.04D-08 DE=-4.26D-13 OVMax= 9.62D-08

 SCF Done:  E(UM062X) =  -76.8717003478     A.U. after   15 cycles
            NFock= 15  Conv=0.17D-08     -V/T= 2.0049
 <Sx>= 0.0000 <Sy>= 0.0000 <Sz>= 0.0000 <S**2>=-0.0000 S=-0.0000
 <L.S>=  0.00000000000    
 KE= 7.649348367911D+01 PE=-2.032769767492D+02 EE= 3.738213211374D+01
 Annihilation of the first spin contaminant:
 S**2 before annihilation    -0.0000,   after     0.0000
 Leave Link  502 at Tue Dec  3 23:46:40 2024, MaxMem=   536870912 cpu:             155.6 elap:              21.7
 (Enter /home/szhao/Apps/g16/l601.exe)
 Copying SCF densities to generalized density rwf, IOpCl= 1 IROHF=0.

 **********************************************************************

            Population analysis using the SCF density.

 **********************************************************************

 Alpha  occ. eigenvalues --  -10.67520 -10.67518  -0.72958  -0.72525  -0.39001
 Alpha  occ. eigenvalues --   -0.38643  -0.23547
 Alpha virt. eigenvalues --   -0.12548  -0.09790  -0.09719   0.02953   0.04597
 Alpha virt. eigenvalues --    0.07447   0.07572   0.09602   0.09632   0.11231
 Alpha virt. eigenvalues --    0.14158   0.18392   0.19247   0.45027   0.45796
 Alpha virt. eigenvalues --    0.53598   0.57481   0.57563   0.61161   0.62696
 Alpha virt. eigenvalues --    0.62975   0.67758   0.73658   1.12618   1.12627
 Alpha virt. eigenvalues --    1.13547   1.14395   1.33447   1.33460   1.34735
 Alpha virt. eigenvalues --    1.36269   1.58279   1.58385   1.85070   1.85079
 Alpha virt. eigenvalues --    1.85381   1.87464   2.39342   2.39854   2.47572
 Alpha virt. eigenvalues --    2.50466   2.68950   2.70383   2.70510   2.76382
 Alpha virt. eigenvalues --    3.16747   3.19282  23.50732  23.50984
  Beta  occ. eigenvalues --  -10.67520 -10.67518  -0.72958  -0.72525  -0.39001
  Beta  occ. eigenvalues --   -0.38643  -0.23547
  Beta virt. eigenvalues --   -0.12548  -0.09790  -0.09719   0.02953   0.04597
  Beta virt. eigenvalues --    0.07447   0.07572   0.09602   0.09632   0.11231
  Beta virt. eigenvalues --    0.14158   0.18392   0.19247   0.45027   0.45796
  Beta virt. eigenvalues --    0.53598   0.57481   0.57563   0.61161   0.62696
  Beta virt. eigenvalues --    0.62975   0.67758   0.73658   1.12618   1.12627
  Beta virt. eigenvalues --    1.13547   1.14395   1.33447   1.33460   1.34735
  Beta virt. eigenvalues --    1.36269   1.58279   1.58385   1.85070   1.85079
  Beta virt. eigenvalues --    1.85381   1.87464   2.39342   2.39854   2.47572
  Beta virt. eigenvalues --    2.50466   2.68950   2.70383   2.70510   2.76382
  Beta virt. eigenvalues --    3.16747   3.19282  23.50732  23.50984
          Condensed to atoms (all electrons):
               1          2          3          4
     1  C    5.842744   0.092282   0.199023  -0.000879
     2  C    0.092282   5.842860  -0.000877   0.199009
     3  H    0.199023  -0.000877   0.668643  -0.000009
     4  H   -0.000879   0.199009  -0.000009   0.668654
          Atomic-Atomic Spin Densities.
               1          2          3          4
     1  C    0.000000   0.000000   0.000000   0.000000
     2  C    0.000000  -0.000000  -0.000000  -0.000000
     3  H    0.000000  -0.000000  -0.000000   0.000000
     4  H    0.000000  -0.000000   0.000000   0.000000
 Mulliken charges and spin densities:
               1          2
     1  C   -0.133170   0.000000
     2  C   -0.133274  -0.000000
     3  H    0.133220  -0.000000
     4  H    0.133225   0.000000
 Sum of Mulliken charges =  -0.00000  -0.00000
 Mulliken charges and spin densities with hydrogens summed into heavy atoms:
               1          2
     1  C    0.000049   0.000000
     2  C   -0.000049  -0.000000
 Electronic spatial extent (au):  <R**2>=            214.9836
 Charge=             -0.0000 electrons
 Dipole moment (field-independent basis, Debye):
    X=              0.0005    Y=              1.9233    Z=              0.9321  Tot=              2.1373
 Quadrupole moment (field-independent basis, Debye-Ang):
   XX=            -14.1644   YY=            -13.4236   ZZ=            -13.4944
   XY=              2.0236   XZ=             -4.1758   YZ=              0.0452
 Traceless Quadrupole moment (field-independent basis, Debye-Ang):
   XX=             -0.4703   YY=              0.2705   ZZ=              0.1997
   XY=              2.0236   XZ=             -4.1758   YZ=              0.0452
 Octapole moment (field-independent basis, Debye-Ang**2):
  XXX=              0.0069  YYY=             -0.8738  ZZZ=             -0.1745  XYY=             -1.9590
  XXY=              8.7915  XXZ=              4.2569  XZZ=              1.9581  YZZ=             -0.2252
  YYZ=             -0.3575  XYZ=              1.5462
 Hexadecapole moment (field-independent basis, Debye-Ang**3):
 XXXX=           -356.5686 YYYY=            -22.4646 ZZZZ=            -23.0218 XXXY=              5.6148
 XXXZ=            -11.5800 YYYX=             -0.1761 YYYZ=             -0.1639 ZZZX=              1.2242
 ZZZY=              0.5172 XXYY=            -52.8964 XXZZ=            -53.2929 YYZZ=             -7.6893
 XXYZ=              0.2510 YYXZ=              0.2971 ZZXY=             -0.5615
 N-N= 1.252966060852D+01 E-N=-2.032769767699D+02  KE= 7.649348367911D+01
                          Isotropic Fermi Contact Couplings
        Atom                 a.u.       MegaHertz       Gauss      10(-4) cm-1
     1  C(13)              0.00000       0.00000       0.00000       0.00000
     2  C(13)             -0.00000      -0.00000      -0.00000      -0.00000
     3  H(1)              -0.00000      -0.00000      -0.00000      -0.00000
     4  H(1)               0.00000       0.00000       0.00000       0.00000
 --------------------------------------------------------
       Center         ----  Spin Dipole Couplings  ----
                      3XX-RR        3YY-RR        3ZZ-RR
 --------------------------------------------------------
     1   Atom        0.000000     -0.000000     -0.000000
     2   Atom       -0.000000      0.000000      0.000000
     3   Atom       -0.000000     -0.000000      0.000000
     4   Atom        0.000000     -0.000000      0.000000
 --------------------------------------------------------
                        XY            XZ            YZ
 --------------------------------------------------------
     1   Atom        0.000000      0.000000      0.000000
     2   Atom        0.000000      0.000000     -0.000000
     3   Atom        0.000000     -0.000000      0.000000
     4   Atom       -0.000000      0.000000      0.000000
 --------------------------------------------------------


 ---------------------------------------------------------------------------------
              Anisotropic Spin Dipole Couplings in Principal Axis System
 ---------------------------------------------------------------------------------

       Atom             a.u.   MegaHertz   Gauss  10(-4) cm-1        Axes

              Baa    -0.0000    -0.000    -0.000    -0.000 -0.1001  0.9385 -0.3305
     1 C(13)  Bbb    -0.0000    -0.000    -0.000    -0.000 -0.0935  0.3219  0.9422
              Bcc     0.0000     0.000     0.000     0.000  0.9906  0.1252  0.0555
 
              Baa    -0.0000    -0.000    -0.000    -0.000  0.9905 -0.1216 -0.0635
     2 C(13)  Bbb     0.0000     0.000     0.000     0.000  0.0934  0.9367 -0.3375
              Bcc     0.0000     0.000     0.000     0.000  0.1006  0.3284  0.9392
 
              Baa    -0.0000    -0.000    -0.000    -0.000 -0.1148  0.9481 -0.2965
     3 H(1)   Bbb    -0.0000    -0.000    -0.000    -0.000  0.9923  0.1234  0.0106
              Bcc     0.0000     0.000     0.000     0.000 -0.0466  0.2930  0.9550
 
              Baa    -0.0000    -0.000    -0.000    -0.000  0.0472  0.9310 -0.3619
     4 H(1)   Bbb     0.0000     0.000     0.000     0.000  0.9923 -0.0853 -0.0900
              Bcc     0.0000     0.000     0.000     0.000  0.1146  0.3548  0.9279
 

 ---------------------------------------------------------------------------------

 No NMR shielding tensors so no spin-rotation constants.
 Leave Link  601 at Tue Dec  3 23:46:40 2024, MaxMem=   536870912 cpu:               1.3 elap:               0.2
 (Enter /home/szhao/Apps/g16/l701.exe)
 ... and contract with generalized density number  0.
 Compute integral first derivatives.
 Leave Link  701 at Tue Dec  3 23:46:40 2024, MaxMem=   536870912 cpu:               0.7 elap:               0.1
 (Enter /home/szhao/Apps/g16/l702.exe)
 L702 exits ... SP integral derivatives will be done elsewhere.
 Leave Link  702 at Tue Dec  3 23:46:41 2024, MaxMem=   536870912 cpu:               0.2 elap:               0.0
 (Enter /home/szhao/Apps/g16/l703.exe)
 Integral derivatives from FoFJK, PRISM(SPDF).
 Compute integral first derivatives, UseDBF=F ICtDFT=           0.
 Calling FoFJK, ICntrl=      2127 FMM=F ISym2X=0 I1Cent= 0 IOpClX= 1 NMat=1 NMatS=1 NMatT=0.
 FoFJK:  IHMeth= 1 ICntrl=    2127 DoSepK=F KAlg= 0 I1Cent=           0 FoldK=F
 IRaf=         0 NMat=       1 IRICut=       1 DoRegI=T DoRafI=F ISym2E= 0 IDoP0=0 IntGTp=1.
 FoFCou: FMM=F IPFlag=           0 FMFlag=      100000 FMFlg1=         800
         NFxFlg=           0 DoJE=F BraDBF=F KetDBF=F FulRan=T
         wScrn=  0.000000 ICntrl=      2127 IOpCl=  1 I1Cent=           0 NGrid=           0
         NMat0=    1 NMatS0=      1 NMatT0=    0 NMatD0=    1 NMtDS0=    0 NMtDT0=    0
 Symmetry not used in FoFCou.
 Leave Link  703 at Tue Dec  3 23:46:42 2024, MaxMem=   536870912 cpu:               7.6 elap:               1.0
 (Enter /home/szhao/Apps/g16/l716.exe)
 Dipole        = 1.89820450D-04 7.56689897D-01 3.66706811D-01
 -------------------------------------------------------------------
 Center     Atomic                   Forces (Hartrees/Bohr)
 Number     Number              X              Y              Z
 -------------------------------------------------------------------
      1        6          -0.000000000   -0.000000000   -0.000000000
      2        6          -0.000000000   -0.000000000   -0.000000000
      3        1           0.002854222    0.000195856    0.001759175
      4        1          -0.002857869    0.001531186   -0.000948954
 -------------------------------------------------------------------
 Cartesian Forces:  Max     0.002857869 RMS     0.001375139
 Leave Link  716 at Tue Dec  3 23:46:42 2024, MaxMem=   536870912 cpu:               0.3 elap:               0.0
 (Enter /home/szhao/Apps/g16/l103.exe)

 GradGradGradGradGradGradGradGradGradGradGradGradGradGradGradGradGradGrad
 Berny optimization.
 FormGI is forming the generalized inverse of G from B-inverse, IUseBI=4.
 Internal  Forces:  Max     0.006381587 RMS     0.003308710
 Search for a local minimum.
 Step number   1 out of a maximum of   21
 All quantities printed in internal units (Hartrees-Bohrs-Radians)
 RMS Force = .41461D-02 SwitMx=.10000D-02 MixMth= 1
 Mixed Optimization -- RFO/linear search
 Second derivative matrix not updated -- first step.
 The second derivative matrix:
                          X1        Y1        Z1        X2        Y2
           X1           0.50000
           Y1           0.00000   0.50000
           Z1           0.00000   0.00000   0.50000
           X2           0.00000   0.00000   0.00000   0.50000
           Y2           0.00000   0.00000   0.00000   0.00000   0.50000
           Z2           0.00000   0.00000   0.00000   0.00000   0.00000
           R1           0.00000   0.00000   0.00000   0.00000   0.00000
           R2           0.00000   0.00000   0.00000   0.00000   0.00000
           A1           0.00000   0.00000   0.00000   0.00000   0.00000
           A2           0.00000   0.00000   0.00000   0.00000   0.00000
           D1           0.00000   0.00000   0.00000   0.00000   0.00000
                          Z2        R1        R2        A1        A2
           Z2           0.50000
           R1           0.00000   0.31871
           R2           0.00000   0.00000   0.31876
           A1           0.00000   0.00000   0.00000   0.16000
           A2           0.00000   0.00000   0.00000   0.00000   0.16000
           D1           0.00000   0.00000   0.00000   0.00000   0.00000
                          D1
           D1           0.00230
 ITU=  0
     Eigenvalues ---    0.00230   0.16000   0.16000   0.31871   0.31876
     Eigenvalues --- 1000.000001000.000001000.000001000.000001000.00000
     Eigenvalues --- 1000.00000
 RFO step:  Lambda=-6.72475614D-04 EMin= 2.30000000D-03
 Linear search not attempted -- first point.
 Iteration  1 RMS(Cart)=  0.09641718 RMS(Int)=  0.01024220
 Iteration  2 RMS(Cart)=  0.01479118 RMS(Int)=  0.00013166
 Iteration  3 RMS(Cart)=  0.00014582 RMS(Int)=  0.00000001
 Iteration  4 RMS(Cart)=  0.00000001 RMS(Int)=  0.00000000
 ITry= 1 IFail=0 DXMaxC= 2.49D-01 DCOld= 1.00D+10 DXMaxT= 3.00D-01 DXLimC= 3.00D+00 Rises=F
 Variable       Old X    -DE/DX   Delta X   Delta X   Delta X     New X
                                 (Linear)    (Quad)   (Total)
    X1       -3.51040   0.00285   0.00000   0.00000   0.00000  -3.51040
    Y1        0.00000  -0.00039   0.00000   0.00000   0.00000   0.00000
    Z1        0.00000   0.00297   0.00000   0.00000   0.00000   0.00000
    X2        3.51040  -0.00286   0.00000   0.00000   0.00000   3.51040
    Y2        0.00000   0.00212   0.00000   0.00000   0.00000   0.00000
    Z2        0.00000  -0.00216   0.00000   0.00000   0.00000   0.00000
    R1        2.11080   0.00144   0.00000   0.00452   0.00452   2.11532
    R2        2.11071   0.00147   0.00000   0.00461   0.00461   2.11532
    A1        1.67218  -0.00637   0.00000  -0.03962  -0.03962   1.63256
    A2        1.67276  -0.00638   0.00000  -0.03972  -0.03972   1.63305
    D1       -1.65243  -0.00068   0.00000  -0.22726  -0.22726  -1.87969
         Item               Value     Threshold  Converged?
 Maximum Force            0.006382     0.000450     NO 
 RMS     Force            0.004146     0.000300     NO 
 Maximum Displacement     0.249273     0.001800     NO 
 RMS     Displacement     0.108387     0.001200     NO 
 Predicted change in Energy=-3.546798D-04
 Lowest energy point so far.  Saving SCF results.
 GradGradGradGradGradGradGradGradGradGradGradGradGradGradGradGradGradGrad

 Leave Link  103 at Tue Dec  3 23:46:42 2024, MaxMem=   536870912 cpu:               0.0 elap:               0.0
 (Enter /home/szhao/Apps/g16/l202.exe)
                          Input orientation:                          
 ---------------------------------------------------------------------
 Center     Atomic      Atomic             Coordinates (Angstroms)
 Number     Number       Type             X           Y           Z
 ---------------------------------------------------------------------
      1          6           0       -1.857625    0.000000    0.000000
      2          6           0        1.857625    0.000000    0.000000
      3          1           0       -1.926715    0.189442    1.101065
      4          1           0        1.927262    0.991331   -0.515188
 ---------------------------------------------------------------------
                    Distance matrix (angstroms):
                    1          2          3          4
     1  C    0.000000
     2  C    3.715250   0.000000
     3  H    1.119377   3.945816   0.000000
     4  H    3.946330   1.119377   4.255401   0.000000
 Symmetry turned off by external request.
 Stoichiometry    C2H2
 Framework group  C1[X(C2H2)]
 Deg. of freedom     6
 Full point group                 C1      NOp   1
 Rotational constants (GHZ):         218.7953121           5.5384523           5.4966220
 Leave Link  202 at Tue Dec  3 23:46:42 2024, MaxMem=   536870912 cpu:               0.0 elap:               0.0
 (Enter /home/szhao/Apps/g16/l301.exe)
 Standard basis: 6-311+G(d,p) (5D, 7F)
 Ernie: Thresh=  0.10000D-02 Tol=  0.10000D-05 Strict=F.
    56 basis functions,    88 primitive gaussians,    58 cartesian basis functions
     7 alpha electrons        7 beta electrons
       nuclear repulsion energy        12.5341086457 Hartrees.
 IExCor= 4336 DFT=T Ex+Corr=M062X ExCW=0 ScaHFX=  0.540000
 ScaDFX=  1.000000  1.000000  1.000000  1.000000 ScalE2=  1.000000  1.000000
 IRadAn=      7 IRanWt=     -1 IRanGd=            0 ICorTp=0 IEmpDi=  4
 NAtoms=    4 NActive=    4 NUniq=    4 SFac= 1.00D+00 NAtFMM=   60 NAOKFM=F Big=F
 Integral buffers will be    131072 words long.
 Raffenetti 2 integral format.
 Two-electron integral symmetry is turned off.
 Leave Link  301 at Tue Dec  3 23:46:42 2024, MaxMem=   536870912 cpu:               0.3 elap:               0.0
 (Enter /home/szhao/Apps/g16/l302.exe)
 NPDir=0 NMtPBC=     1 NCelOv=     1 NCel=       1 NClECP=     1 NCelD=      1
         NCelK=      1 NCelE2=     1 NClLst=     1 CellRange=     0.0.
 One-electron integrals computed using PRISM.
 NBasis=    56 RedAO= T EigKep=  1.38D-02  NBF=    56
 NBsUse=    56 1.00D-06 EigRej= -1.00D+00 NBFU=    56
 Precomputing XC quadrature grid using
 IXCGrd= 4 IRadAn=           7 IRanWt=          -1 IRanGd=           0 AccXCQ= 0.00D+00.
 Generated NRdTot=       0 NPtTot=           0 NUsed=           0 NTot=          32
 NSgBfM=    58    58    58    58    58 MxSgAt=     4 MxSgA2=     4.
 Leave Link  302 at Tue Dec  3 23:46:42 2024, MaxMem=   536870912 cpu:               1.0 elap:               0.1
 (Enter /home/szhao/Apps/g16/l303.exe)
 DipDrv:  MaxL=1.
 Leave Link  303 at Tue Dec  3 23:46:42 2024, MaxMem=   536870912 cpu:               0.3 elap:               0.0
 (Enter /home/szhao/Apps/g16/l401.exe)
 Initial guess from the checkpoint file:  "opt.chk"
 B after Tr=    -0.000014   -0.022716   -0.011280
         Rot=    0.999981   -0.004681   -0.003618   -0.001775 Ang=  -0.71 deg.
 Guess basis will be translated and rotated to current coordinates.
 JPrj=2 DoOrth=T DoCkMO=T.
 Initial guess <Sx>= 0.0000 <Sy>= 0.0000 <Sz>= 0.0000 <S**2>=-0.0000 S=-0.0000
 Generating alternative initial guess.
 ExpMin= 4.38D-02 ExpMax= 4.56D+03 ExpMxC= 6.82D+02 IAcc=3 IRadAn=         5 AccDes= 0.00D+00
 Harris functional with IExCor= 1009 and IRadAn=       5 diagonalized for initial guess.
 HarFok:  IExCor= 1009 AccDes= 0.00D+00 IRadAn=         5 IDoV= 1 UseB2=F ITyADJ=14
 ICtDFT=  3500011 ScaDFX=  1.000000  1.000000  1.000000  1.000000
 FoFCou: FMM=F IPFlag=           0 FMFlag=      100000 FMFlg1=           0
         NFxFlg=           0 DoJE=T BraDBF=F KetDBF=T FulRan=T
         wScrn=  0.000000 ICntrl=       500 IOpCl=  0 I1Cent=   200000004 NGrid=           0
         NMat0=    1 NMatS0=      1 NMatT0=    0 NMatD0=    1 NMtDS0=    0 NMtDT0=    0
 Symmetry not used in FoFCou.
 Harris En= -76.8434652136814    
 Leave Link  401 at Tue Dec  3 23:46:42 2024, MaxMem=   536870912 cpu:               1.6 elap:               0.2
 (Enter /home/szhao/Apps/g16/l502.exe)
 Keep R1 and R2 ints in memory in canonical form, NReq=9624198.
 FoFCou: FMM=F IPFlag=           0 FMFlag=           0 FMFlg1=           0
         NFxFlg=           0 DoJE=F BraDBF=F KetDBF=F FulRan=T
         wScrn=  0.000000 ICntrl=       600 IOpCl=  0 I1Cent=           0 NGrid=           0
         NMat0=    1 NMatS0=   1596 NMatT0=    0 NMatD0=    1 NMtDS0=    0 NMtDT0=    0
 Symmetry not used in FoFCou.
 Two-electron integral symmetry not used.
 UHF open shell SCF:
 Using DIIS extrapolation, IDIIS=  1040.
 NGot=   536870912 LenX=   534314338 LenY=   534310533
 Requested convergence on RMS density matrix=1.00D-08 within 128 cycles.
 Requested convergence on MAX density matrix=1.00D-06.
 Requested convergence on             energy=1.00D-06.
 No special actions if energy rises.

 Cycle   1  Pass 1  IDiag  1:
 E= -76.8682624908375    
 DIIS: error= 3.90D-03 at cycle   1 NSaved=   1.
 NSaved= 1 IEnMin= 1 EnMin= -76.8682624908375     IErMin= 1 ErrMin= 3.90D-03
 ErrMax= 3.90D-03  0.00D+00 EMaxC= 1.00D-01 BMatC= 3.00D-03 BMatP= 3.00D-03
 IDIUse=3 WtCom= 9.61D-01 WtEn= 3.90D-02
 Coeff-Com:  0.100D+01
 Coeff-En:   0.100D+01
 Coeff:      0.100D+01
 Gap=     0.413 Goal=   None    Shift=    0.000
 Gap=     0.413 Goal=   None    Shift=    0.000
 GapD=    0.413 DampG=2.000 DampE=1.000 DampFc=2.0000 IDamp=-1.
 RMSDP=6.09D-04 MaxDP=5.44D-03              OVMax= 3.17D-02

 Cycle   2  Pass 1  IDiag  1:
 E= -76.8712319292841     Delta-E=       -0.002969438447 Rises=F Damp=F
 DIIS: error= 1.69D-03 at cycle   2 NSaved=   2.
 NSaved= 2 IEnMin= 2 EnMin= -76.8712319292841     IErMin= 2 ErrMin= 1.69D-03
 ErrMax= 1.69D-03  0.00D+00 EMaxC= 1.00D-01 BMatC= 4.45D-04 BMatP= 3.00D-03
 IDIUse=3 WtCom= 9.83D-01 WtEn= 1.69D-02
 Coeff-Com: -0.362D+00 0.136D+01
 Coeff-En:   0.000D+00 0.100D+01
 Coeff:     -0.356D+00 0.136D+01
 Gap=     0.110 Goal=   None    Shift=    0.000
 Gap=     0.110 Goal=   None    Shift=    0.000
 RMSDP=4.57D-04 MaxDP=3.81D-03 DE=-2.97D-03 OVMax= 2.50D-02

 Cycle   3  Pass 1  IDiag  1:
 E= -76.8721560158427     Delta-E=       -0.000924086559 Rises=F Damp=F
 DIIS: error= 7.82D-04 at cycle   3 NSaved=   3.
 NSaved= 3 IEnMin= 3 EnMin= -76.8721560158427     IErMin= 3 ErrMin= 7.82D-04
 ErrMax= 7.82D-04  0.00D+00 EMaxC= 1.00D-01 BMatC= 8.37D-05 BMatP= 4.45D-04
 IDIUse=3 WtCom= 9.92D-01 WtEn= 7.82D-03
 Coeff-Com:  0.170D-02-0.409D+00 0.141D+01
 Coeff-En:   0.000D+00 0.000D+00 0.100D+01
 Coeff:      0.169D-02-0.405D+00 0.140D+01
 Gap=     0.110 Goal=   None    Shift=    0.000
 Gap=     0.110 Goal=   None    Shift=    0.000
 RMSDP=2.26D-04 MaxDP=1.78D-03 DE=-9.24D-04 OVMax= 1.23D-02

 Cycle   4  Pass 1  IDiag  1:
 E= -76.8723130316859     Delta-E=       -0.000157015843 Rises=F Damp=F
 DIIS: error= 2.20D-04 at cycle   4 NSaved=   4.
 NSaved= 4 IEnMin= 4 EnMin= -76.8723130316859     IErMin= 4 ErrMin= 2.20D-04
 ErrMax= 2.20D-04  0.00D+00 EMaxC= 1.00D-01 BMatC= 4.83D-06 BMatP= 8.37D-05
 IDIUse=3 WtCom= 9.98D-01 WtEn= 2.20D-03
 Coeff-Com:  0.327D-01-0.201D+00 0.210D+00 0.959D+00
 Coeff-En:   0.000D+00 0.000D+00 0.000D+00 0.100D+01
 Coeff:      0.327D-01-0.201D+00 0.210D+00 0.959D+00
 Gap=     0.110 Goal=   None    Shift=    0.000
 Gap=     0.110 Goal=   None    Shift=    0.000
 RMSDP=6.57D-05 MaxDP=5.42D-04 DE=-1.57D-04 OVMax= 3.15D-03

 Cycle   5  Pass 1  IDiag  1:
 E= -76.8723222085815     Delta-E=       -0.000009176896 Rises=F Damp=F
 DIIS: error= 1.36D-04 at cycle   5 NSaved=   5.
 NSaved= 5 IEnMin= 5 EnMin= -76.8723222085815     IErMin= 5 ErrMin= 1.36D-04
 ErrMax= 1.36D-04  0.00D+00 EMaxC= 1.00D-01 BMatC= 2.43D-06 BMatP= 4.83D-06
 IDIUse=3 WtCom= 9.99D-01 WtEn= 1.36D-03
 Coeff-Com:  0.148D-01-0.779D-01 0.392D-01 0.510D+00 0.514D+00
 Coeff-En:   0.000D+00 0.000D+00 0.000D+00 0.000D+00 0.100D+01
 Coeff:      0.147D-01-0.778D-01 0.392D-01 0.509D+00 0.515D+00
 Gap=     0.110 Goal=   None    Shift=    0.000
 Gap=     0.110 Goal=   None    Shift=    0.000
 RMSDP=2.78D-05 MaxDP=4.04D-04 DE=-9.18D-06 OVMax= 2.26D-03

 Cycle   6  Pass 1  IDiag  1:
 E= -76.8723217493444     Delta-E=        0.000000459237 Rises=F Damp=F
 DIIS: error= 2.36D-04 at cycle   6 NSaved=   6.
 NSaved= 6 IEnMin= 5 EnMin= -76.8723222085815     IErMin= 5 ErrMin= 1.36D-04
 ErrMax= 2.36D-04  0.00D+00 EMaxC= 1.00D-01 BMatC= 5.62D-06 BMatP= 2.43D-06
 IDIUse=3 WtCom= 9.99D-01 WtEn= 1.36D-03
 Coeff-Com: -0.178D-02 0.285D-01-0.910D-01 0.700D-01 0.634D+00 0.361D+00
 Coeff-En:   0.000D+00 0.000D+00 0.000D+00 0.000D+00 0.552D+00 0.448D+00
 Coeff:     -0.178D-02 0.284D-01-0.909D-01 0.699D-01 0.633D+00 0.361D+00
 Gap=     0.110 Goal=   None    Shift=    0.000
 Gap=     0.110 Goal=   None    Shift=    0.000
 RMSDP=2.15D-05 MaxDP=2.77D-04 DE= 4.59D-07 OVMax= 1.78D-03

 Cycle   7  Pass 1  IDiag  1:
 E= -76.8723251327393     Delta-E=       -0.000003383395 Rises=F Damp=F
 DIIS: error= 5.88D-05 at cycle   7 NSaved=   7.
 NSaved= 7 IEnMin= 7 EnMin= -76.8723251327393     IErMin= 7 ErrMin= 5.88D-05
 ErrMax= 5.88D-05  0.00D+00 EMaxC= 1.00D-01 BMatC= 2.35D-07 BMatP= 2.43D-06
 IDIUse=1 WtCom= 1.00D+00 WtEn= 0.00D+00
 Coeff-Com: -0.399D-02 0.272D-01-0.459D-01-0.883D-01 0.193D-01 0.559D-01
 Coeff-Com:  0.104D+01
 Coeff:     -0.399D-02 0.272D-01-0.459D-01-0.883D-01 0.193D-01 0.559D-01
 Coeff:      0.104D+01
 Gap=     0.110 Goal=   None    Shift=    0.000
 Gap=     0.110 Goal=   None    Shift=    0.000
 RMSDP=2.09D-05 MaxDP=1.73D-04 DE=-3.38D-06 OVMax= 1.86D-03

 Cycle   8  Pass 1  IDiag  1:
 E= -76.8723266248539     Delta-E=       -0.000001492115 Rises=F Damp=F
 DIIS: error= 4.96D-05 at cycle   8 NSaved=   8.
 NSaved= 8 IEnMin= 8 EnMin= -76.8723266248539     IErMin= 8 ErrMin= 4.96D-05
 ErrMax= 4.96D-05  0.00D+00 EMaxC= 1.00D-01 BMatC= 1.52D-07 BMatP= 2.35D-07
 IDIUse=1 WtCom= 1.00D+00 WtEn= 0.00D+00
 Coeff-Com:  0.973D-02-0.848D-01 0.196D+00 0.123D+00-0.770D+00-0.538D+00
 Coeff-Com: -0.220D+01 0.426D+01
 Coeff:      0.973D-02-0.848D-01 0.196D+00 0.123D+00-0.770D+00-0.538D+00
 Coeff:     -0.220D+01 0.426D+01
 Gap=     0.110 Goal=   None    Shift=    0.000
 Gap=     0.110 Goal=   None    Shift=    0.000
 RMSDP=8.58D-05 MaxDP=7.25D-04 DE=-1.49D-06 OVMax= 7.73D-03

 Cycle   9  Pass 1  IDiag  1:
 E= -76.8723306612004     Delta-E=       -0.000004036347 Rises=F Damp=F
 DIIS: error= 2.06D-05 at cycle   9 NSaved=   9.
 NSaved= 9 IEnMin= 9 EnMin= -76.8723306612004     IErMin= 9 ErrMin= 2.06D-05
 ErrMax= 2.06D-05  0.00D+00 EMaxC= 1.00D-01 BMatC= 2.99D-08 BMatP= 1.52D-07
 IDIUse=1 WtCom= 1.00D+00 WtEn= 0.00D+00
 Coeff-Com: -0.267D-02 0.235D-01-0.581D-01-0.401D-01 0.238D+00 0.170D+00
 Coeff-Com:  0.746D+00-0.196D+01 0.189D+01
 Coeff:     -0.267D-02 0.235D-01-0.581D-01-0.401D-01 0.238D+00 0.170D+00
 Coeff:      0.746D+00-0.196D+01 0.189D+01
 Gap=     0.110 Goal=   None    Shift=    0.000
 Gap=     0.110 Goal=   None    Shift=    0.000
 RMSDP=5.13D-05 MaxDP=4.34D-04 DE=-4.04D-06 OVMax= 4.62D-03

 Cycle  10  Pass 1  IDiag  1:
 E= -76.8723314735885     Delta-E=       -0.000000812388 Rises=F Damp=F
 DIIS: error= 3.45D-06 at cycle  10 NSaved=  10.
 NSaved=10 IEnMin=10 EnMin= -76.8723314735885     IErMin=10 ErrMin= 3.45D-06
 ErrMax= 3.45D-06  0.00D+00 EMaxC= 1.00D-01 BMatC= 1.48D-09 BMatP= 2.99D-08
 IDIUse=1 WtCom= 1.00D+00 WtEn= 0.00D+00
 Coeff-Com: -0.446D-03 0.374D-02-0.789D-02-0.554D-02 0.368D-01 0.254D-01
 Coeff-Com:  0.101D+00-0.149D+00-0.243D+00 0.124D+01
 Coeff:     -0.446D-03 0.374D-02-0.789D-02-0.554D-02 0.368D-01 0.254D-01
 Coeff:      0.101D+00-0.149D+00-0.243D+00 0.124D+01
 Gap=     0.110 Goal=   None    Shift=    0.000
 Gap=     0.110 Goal=   None    Shift=    0.000
 RMSDP=8.11D-06 MaxDP=6.88D-05 DE=-8.12D-07 OVMax= 7.27D-04

 Cycle  11  Pass 1  IDiag  1:
 E= -76.8723314927580     Delta-E=       -0.000000019169 Rises=F Damp=F
 DIIS: error= 1.04D-06 at cycle  11 NSaved=  11.
 NSaved=11 IEnMin=11 EnMin= -76.8723314927580     IErMin=11 ErrMin= 1.04D-06
 ErrMax= 1.04D-06  0.00D+00 EMaxC= 1.00D-01 BMatC= 1.45D-10 BMatP= 1.48D-09
 IDIUse=1 WtCom= 1.00D+00 WtEn= 0.00D+00
 Coeff-Com:  0.186D-03-0.166D-02 0.429D-02 0.300D-02-0.187D-01-0.140D-01
 Coeff-Com: -0.730D-01 0.198D+00-0.202D+00-0.579D-01 0.116D+01
 Coeff:      0.186D-03-0.166D-02 0.429D-02 0.300D-02-0.187D-01-0.140D-01
 Coeff:     -0.730D-01 0.198D+00-0.202D+00-0.579D-01 0.116D+01
 Gap=     0.110 Goal=   None    Shift=    0.000
 Gap=     0.110 Goal=   None    Shift=    0.000
 RMSDP=6.69D-07 MaxDP=5.30D-06 DE=-1.92D-08 OVMax= 5.34D-05

 Cycle  12  Pass 1  IDiag  1:
 E= -76.8723314930426     Delta-E=       -0.000000000285 Rises=F Damp=F
 DIIS: error= 3.46D-07 at cycle  12 NSaved=  12.
 NSaved=12 IEnMin=12 EnMin= -76.8723314930426     IErMin=12 ErrMin= 3.46D-07
 ErrMax= 3.46D-07  0.00D+00 EMaxC= 1.00D-01 BMatC= 8.66D-12 BMatP= 1.45D-10
 IDIUse=1 WtCom= 1.00D+00 WtEn= 0.00D+00
 Coeff-Com:  0.759D-05-0.598D-04 0.194D-03 0.320D-03-0.122D-02-0.101D-02
 Coeff-Com: -0.738D-02 0.133D-01-0.494D-02-0.202D-01 0.716D-01 0.949D+00
 Coeff:      0.759D-05-0.598D-04 0.194D-03 0.320D-03-0.122D-02-0.101D-02
 Coeff:     -0.738D-02 0.133D-01-0.494D-02-0.202D-01 0.716D-01 0.949D+00
 Gap=     0.110 Goal=   None    Shift=    0.000
 Gap=     0.110 Goal=   None    Shift=    0.000
 RMSDP=1.23D-07 MaxDP=2.08D-06 DE=-2.85D-10 OVMax= 1.03D-05

 Cycle  13  Pass 1  IDiag  1:
 E= -76.8723314931205     Delta-E=       -0.000000000078 Rises=F Damp=F
 DIIS: error= 7.87D-07 at cycle  13 NSaved=  13.
 NSaved=13 IEnMin=13 EnMin= -76.8723314931205     IErMin=12 ErrMin= 3.46D-07
 ErrMax= 7.87D-07  0.00D+00 EMaxC= 1.00D-01 BMatC= 3.11D-11 BMatP= 8.66D-12
 IDIUse=1 WtCom= 1.00D+00 WtEn= 0.00D+00
 Coeff-Com: -0.549D-05 0.610D-04-0.896D-04 0.198D-03-0.178D-03-0.291D-03
 Coeff-Com: -0.488D-02 0.200D-02 0.129D-01-0.298D-01 0.115D-01 0.156D+01
 Coeff-Com: -0.554D+00
 Coeff:     -0.549D-05 0.610D-04-0.896D-04 0.198D-03-0.178D-03-0.291D-03
 Coeff:     -0.488D-02 0.200D-02 0.129D-01-0.298D-01 0.115D-01 0.156D+01
 Coeff:     -0.554D+00
 Gap=     0.110 Goal=   None    Shift=    0.000
 Gap=     0.110 Goal=   None    Shift=    0.000
 RMSDP=1.43D-07 MaxDP=2.44D-06 DE=-7.79D-11 OVMax= 1.22D-05

 Cycle  14  Pass 1  IDiag  1:
 E= -76.8723314930358     Delta-E=        0.000000000085 Rises=F Damp=F
 DIIS: error= 2.46D-07 at cycle  14 NSaved=  14.
 NSaved=14 IEnMin=13 EnMin= -76.8723314931205     IErMin=14 ErrMin= 2.46D-07
 ErrMax= 2.46D-07  0.00D+00 EMaxC= 1.00D-01 BMatC= 3.53D-12 BMatP= 8.66D-12
 IDIUse=1 WtCom= 1.00D+00 WtEn= 0.00D+00
 Coeff-Com: -0.909D-05 0.885D-04-0.250D-03-0.361D-04 0.927D-03 0.672D-03
 Coeff-Com:  0.348D-02-0.104D-01 0.126D-01-0.228D-02-0.102D+00 0.203D+00
 Coeff-Com: -0.506D+00 0.140D+01
 Coeff:     -0.909D-05 0.885D-04-0.250D-03-0.361D-04 0.927D-03 0.672D-03
 Coeff:      0.348D-02-0.104D-01 0.126D-01-0.228D-02-0.102D+00 0.203D+00
 Coeff:     -0.506D+00 0.140D+01
 Gap=     0.110 Goal=   None    Shift=    0.000
 Gap=     0.110 Goal=   None    Shift=    0.000
 RMSDP=6.73D-08 MaxDP=1.15D-06 DE= 8.47D-11 OVMax= 5.62D-06

 Cycle  15  Pass 1  IDiag  1:
 E= -76.8723314930273     Delta-E=        0.000000000009 Rises=F Damp=F
 DIIS: error= 7.44D-09 at cycle  15 NSaved=  15.
 NSaved=15 IEnMin=13 EnMin= -76.8723314931205     IErMin=15 ErrMin= 7.44D-09
 ErrMax= 7.44D-09  0.00D+00 EMaxC= 1.00D-01 BMatC= 9.74D-15 BMatP= 3.53D-12
 IDIUse=1 WtCom= 1.00D+00 WtEn= 0.00D+00
 Coeff-Com:  0.226D-05-0.210D-04 0.498D-04 0.361D-04-0.209D-03-0.145D-03
 Coeff-Com: -0.520D-03 0.154D-02-0.152D-02 0.104D-03 0.116D-01-0.433D-01
 Coeff-Com:  0.521D-01-0.124D+00 0.110D+01
 Coeff:      0.226D-05-0.210D-04 0.498D-04 0.361D-04-0.209D-03-0.145D-03
 Coeff:     -0.520D-03 0.154D-02-0.152D-02 0.104D-03 0.116D-01-0.433D-01
 Coeff:      0.521D-01-0.124D+00 0.110D+01
 Gap=     0.110 Goal=   None    Shift=    0.000
 Gap=     0.110 Goal=   None    Shift=    0.000
 RMSDP=3.28D-09 MaxDP=3.06D-08 DE= 8.51D-12 OVMax= 2.38D-07

 SCF Done:  E(UM062X) =  -76.8723314930     A.U. after   15 cycles
            NFock= 15  Conv=0.33D-08     -V/T= 2.0050
 <Sx>= 0.0000 <Sy>= 0.0000 <Sz>= 0.0000 <S**2>=-0.0000 S=-0.0000
 <L.S>=  0.00000000000    
 KE= 7.648652488758D+01 PE=-2.032788229175D+02 EE= 3.738585789121D+01
 Annihilation of the first spin contaminant:
 S**2 before annihilation    -0.0000,   after     0.0000
 Leave Link  502 at Tue Dec  3 23:47:10 2024, MaxMem=   536870912 cpu:             200.9 elap:              28.2
 (Enter /home/szhao/Apps/g16/l701.exe)
 ... and contract with generalized density number  0.
 Compute integral first derivatives.
 Leave Link  701 at Tue Dec  3 23:47:10 2024, MaxMem=   536870912 cpu:               0.7 elap:               0.1
 (Enter /home/szhao/Apps/g16/l702.exe)
 L702 exits ... SP integral derivatives will be done elsewhere.
 Leave Link  702 at Tue Dec  3 23:47:10 2024, MaxMem=   536870912 cpu:               0.3 elap:               0.0
 (Enter /home/szhao/Apps/g16/l703.exe)
 Integral derivatives from FoFJK, PRISM(SPDF).
 Compute integral first derivatives, UseDBF=F ICtDFT=           0.
 Calling FoFJK, ICntrl=      2127 FMM=F ISym2X=0 I1Cent= 0 IOpClX= 1 NMat=1 NMatS=1 NMatT=0.
 FoFJK:  IHMeth= 1 ICntrl=    2127 DoSepK=F KAlg= 0 I1Cent=           0 FoldK=F
 IRaf=         0 NMat=       1 IRICut=       1 DoRegI=T DoRafI=F ISym2E= 0 IDoP0=0 IntGTp=1.
 FoFCou: FMM=F IPFlag=           0 FMFlag=      100000 FMFlg1=         800
         NFxFlg=           0 DoJE=F BraDBF=F KetDBF=F FulRan=T
         wScrn=  0.000000 ICntrl=      2127 IOpCl=  1 I1Cent=           0 NGrid=           0
         NMat0=    1 NMatS0=      1 NMatT0=    0 NMatD0=    1 NMtDS0=    0 NMtDT0=    0
 Symmetry not used in FoFCou.
 Leave Link  703 at Tue Dec  3 23:47:11 2024, MaxMem=   536870912 cpu:               4.3 elap:               0.5
 (Enter /home/szhao/Apps/g16/l716.exe)
 Dipole        = 1.52061669D-04 6.59935701D-01 3.27485161D-01
 -------------------------------------------------------------------
 Center     Atomic                   Forces (Hartrees/Bohr)
 Number     Number              X              Y              Z
 -------------------------------------------------------------------
      1        6          -0.000000000   -0.000000000   -0.000000000
      2        6          -0.000000000   -0.000000000   -0.000000000
      3        1           0.002692662   -0.000270244    0.000113012
      4        1          -0.002692658   -0.000068645   -0.000285802
 -------------------------------------------------------------------
 Cartesian Forces:  Max     0.002692662 RMS     0.001105782
 Leave Link  716 at Tue Dec  3 23:47:11 2024, MaxMem=   536870912 cpu:               0.3 elap:               0.0
 (Enter /home/szhao/Apps/g16/l103.exe)

 GradGradGradGradGradGradGradGradGradGradGradGradGradGradGradGradGradGrad
 Berny optimization.
 Using GEDIIS/GDIIS optimizer.
 FormGI is forming the generalized inverse of G from B-inverse, IUseBI=4.
 Internal  Forces:  Max     0.005694118 RMS     0.002772177
 Search for a local minimum.
 Step number   2 out of a maximum of   21
 All quantities printed in internal units (Hartrees-Bohrs-Radians)
 RMS Force = .36117D-02 SwitMx=.10000D-02 MixMth= 1
 Mixed Optimization -- RFO/linear search
 Update second derivatives using D2CorX and points    1    2
 DE= -6.31D-04 DEPred=-3.55D-04 R= 1.78D+00
 TightC=F SS=  1.41D+00  RLast= 2.34D-01 DXNew= 5.0454D-01 7.0251D-01
 Trust test= 1.78D+00 RLast= 2.34D-01 DXMaxT set to 5.05D-01
 The second derivative matrix:
                          X1        Y1        Z1        X2        Y2
           X1           0.50031
           Y1           0.00088   0.50251
           Z1           0.00320   0.00914   0.53332
           X2          -0.00032  -0.00090  -0.00328   0.50032
           Y2           0.00306   0.00873   0.03182  -0.00313   0.53038
           Z2          -0.00133  -0.00379  -0.01381   0.00136  -0.01319
           R1           0.00294   0.00840   0.03061  -0.00301   0.02923
           R2           0.00299   0.00854   0.03111  -0.00306   0.02971
           A1          -0.00128  -0.00366  -0.01333   0.00131  -0.01273
           A2          -0.00131  -0.00374  -0.01363   0.00134  -0.01302
           D1          -0.00014  -0.00040  -0.00145   0.00014  -0.00138
                          Z2        R1        R2        A1        A2
           Z2           0.50573
           R1          -0.01269   0.34357
           R2          -0.01290   0.02526   0.34442
           A1           0.00553   0.00212   0.00221   0.10211
           A2           0.00565   0.00187   0.00196  -0.05792   0.10204
           D1           0.00060  -0.00015  -0.00014  -0.00463  -0.00463
                          D1
           D1           0.00193
 ITU=  1  0
 Use linear search instead of GDIIS.
     Eigenvalues ---    0.00094   0.04509   0.16000   0.31874   0.36931
     Eigenvalues --- 1000.000001000.000001000.000001000.000001000.00000
     Eigenvalues --- 1000.00000
 RFO step:  Lambda=-8.76796965D-04 EMin= 9.38935477D-04
 Quartic linear search produced a step of  2.00000.
 Iteration  1 RMS(Cart)=  0.15638723 RMS(Int)=  0.01462153
 Iteration  2 RMS(Cart)=  0.01723231 RMS(Int)=  0.00012221
 Iteration  3 RMS(Cart)=  0.00016487 RMS(Int)=  0.00000001
 Iteration  4 RMS(Cart)=  0.00000002 RMS(Int)=  0.00000000
 ITry= 1 IFail=0 DXMaxC= 3.03D-01 DCOld= 1.00D+10 DXMaxT= 5.05D-01 DXLimC= 3.00D+00 Rises=F
 Variable       Old X    -DE/DX   Delta X   Delta X   Delta X     New X
                                 (Linear)    (Quad)   (Total)
    X1       -3.51040   0.00269   0.00000   0.00000   0.00000  -3.51040
    Y1        0.00000  -0.00086   0.00000   0.00000   0.00000   0.00000
    Z1        0.00000   0.00129   0.00000   0.00000   0.00000   0.00000
    X2        3.51040  -0.00269   0.00000   0.00000   0.00000   3.51040
    Y2        0.00000   0.00052   0.00000   0.00000   0.00000   0.00000
    Z2        0.00000  -0.00146   0.00000   0.00000   0.00000   0.00000
    R1        2.11532  -0.00010   0.00904  -0.00793   0.00111   2.11643
    R2        2.11532  -0.00010   0.00922  -0.00802   0.00120   2.11651
    A1        1.63256  -0.00569  -0.07924  -0.06384  -0.14308   1.48948
    A2        1.63305  -0.00569  -0.07944  -0.06370  -0.14314   1.48991
    D1       -1.87969  -0.00060  -0.45452   0.24334  -0.21118  -2.09087
         Item               Value     Threshold  Converged?
 Maximum Force            0.005694     0.000450     NO 
 RMS     Force            0.003612     0.000300     NO 
 Maximum Displacement     0.302613     0.001800     NO 
 RMS     Displacement     0.162602     0.001200     NO 
 Predicted change in Energy=-1.090207D-03
 Lowest energy point so far.  Saving SCF results.
 GradGradGradGradGradGradGradGradGradGradGradGradGradGradGradGradGradGrad

 Leave Link  103 at Tue Dec  3 23:47:11 2024, MaxMem=   536870912 cpu:               0.0 elap:               0.0
 (Enter /home/szhao/Apps/g16/l202.exe)
                          Input orientation:                          
 ---------------------------------------------------------------------
 Center     Atomic      Atomic             Coordinates (Angstroms)
 Number     Number       Type             X           Y           Z
 ---------------------------------------------------------------------
      1          6           0       -1.857625    0.000000    0.000000
      2          6           0        1.857625    0.000000    0.000000
      3          1           0       -1.766650    0.037664    1.115628
      4          1           0        1.767125    0.949478   -0.587134
 ---------------------------------------------------------------------
                    Distance matrix (angstroms):
                    1          2          3          4
     1  C    0.000000
     2  C    3.715250   0.000000
     3  H    1.119964   3.792283   0.000000
     4  H    3.792763   1.120011   4.027204   0.000000
 Symmetry turned off by external request.
 Stoichiometry    C2H2
 Framework group  C1[X(C2H2)]
 Deg. of freedom     6
 Full point group                 C1      NOp   1
 Rotational constants (GHZ):         217.1409897           5.6259881           5.5541566
 Leave Link  202 at Tue Dec  3 23:47:11 2024, MaxMem=   536870912 cpu:               0.0 elap:               0.0
 (Enter /home/szhao/Apps/g16/l301.exe)
 Standard basis: 6-311+G(d,p) (5D, 7F)
 Ernie: Thresh=  0.10000D-02 Tol=  0.10000D-05 Strict=F.
    56 basis functions,    88 primitive gaussians,    58 cartesian basis functions
     7 alpha electrons        7 beta electrons
       nuclear repulsion energy        12.6032155644 Hartrees.
 IExCor= 4336 DFT=T Ex+Corr=M062X ExCW=0 ScaHFX=  0.540000
 ScaDFX=  1.000000  1.000000  1.000000  1.000000 ScalE2=  1.000000  1.000000
 IRadAn=      7 IRanWt=     -1 IRanGd=            0 ICorTp=0 IEmpDi=  4
 NAtoms=    4 NActive=    4 NUniq=    4 SFac= 1.00D+00 NAtFMM=   60 NAOKFM=F Big=F
 Integral buffers will be    131072 words long.
 Raffenetti 2 integral format.
 Two-electron integral symmetry is turned off.
 Leave Link  301 at Tue Dec  3 23:47:11 2024, MaxMem=   536870912 cpu:               0.3 elap:               0.0
 (Enter /home/szhao/Apps/g16/l302.exe)
 NPDir=0 NMtPBC=     1 NCelOv=     1 NCel=       1 NClECP=     1 NCelD=      1
         NCelK=      1 NCelE2=     1 NClLst=     1 CellRange=     0.0.
 One-electron integrals computed using PRISM.
 NBasis=    56 RedAO= T EigKep=  1.35D-02  NBF=    56
 NBsUse=    56 1.00D-06 EigRej= -1.00D+00 NBFU=    56
 Precomputing XC quadrature grid using
 IXCGrd= 4 IRadAn=           7 IRanWt=          -1 IRanGd=           0 AccXCQ= 0.00D+00.
 Generated NRdTot=       0 NPtTot=           0 NUsed=           0 NTot=          32
 NSgBfM=    58    58    58    58    58 MxSgAt=     4 MxSgA2=     4.
 Leave Link  302 at Tue Dec  3 23:47:11 2024, MaxMem=   536870912 cpu:               1.0 elap:               0.1
 (Enter /home/szhao/Apps/g16/l303.exe)
 DipDrv:  MaxL=1.
 Leave Link  303 at Tue Dec  3 23:47:11 2024, MaxMem=   536870912 cpu:               0.3 elap:               0.0
 (Enter /home/szhao/Apps/g16/l401.exe)
 Initial guess from the checkpoint file:  "opt.chk"
 B after Tr=    -0.000009   -0.023605   -0.012654
         Rot=    0.999865   -0.015522   -0.004750   -0.002451 Ang=  -1.88 deg.
 Guess basis will be translated and rotated to current coordinates.
 JPrj=2 DoOrth=T DoCkMO=T.
 Initial guess <Sx>= 0.0000 <Sy>= 0.0000 <Sz>= 0.0000 <S**2>= 0.0000 S= 0.0000
 Generating alternative initial guess.
 ExpMin= 4.38D-02 ExpMax= 4.56D+03 ExpMxC= 6.82D+02 IAcc=3 IRadAn=         5 AccDes= 0.00D+00
 Harris functional with IExCor= 1009 and IRadAn=       5 diagonalized for initial guess.
 HarFok:  IExCor= 1009 AccDes= 0.00D+00 IRadAn=         5 IDoV= 1 UseB2=F ITyADJ=14
 ICtDFT=  3500011 ScaDFX=  1.000000  1.000000  1.000000  1.000000
 FoFCou: FMM=F IPFlag=           0 FMFlag=      100000 FMFlg1=           0
         NFxFlg=           0 DoJE=T BraDBF=F KetDBF=T FulRan=T
         wScrn=  0.000000 ICntrl=       500 IOpCl=  0 I1Cent=   200000004 NGrid=           0
         NMat0=    1 NMatS0=      1 NMatT0=    0 NMatD0=    1 NMtDS0=    0 NMtDT0=    0
 Symmetry not used in FoFCou.
 Harris En= -76.8440111970642    
 Leave Link  401 at Tue Dec  3 23:47:11 2024, MaxMem=   536870912 cpu:               1.6 elap:               0.2
 (Enter /home/szhao/Apps/g16/l502.exe)
 Keep R1 and R2 ints in memory in canonical form, NReq=9624198.
 FoFCou: FMM=F IPFlag=           0 FMFlag=           0 FMFlg1=           0
         NFxFlg=           0 DoJE=F BraDBF=F KetDBF=F FulRan=T
         wScrn=  0.000000 ICntrl=       600 IOpCl=  0 I1Cent=           0 NGrid=           0
         NMat0=    1 NMatS0=   1596 NMatT0=    0 NMatD0=    1 NMtDS0=    0 NMtDT0=    0
 Symmetry not used in FoFCou.
 Two-electron integral symmetry not used.
 UHF open shell SCF:
 Using DIIS extrapolation, IDIIS=  1040.
 NGot=   536870912 LenX=   534314338 LenY=   534310533
 Requested convergence on RMS density matrix=1.00D-08 within 128 cycles.
 Requested convergence on MAX density matrix=1.00D-06.
 Requested convergence on             energy=1.00D-06.
 No special actions if energy rises.

 Cycle   1  Pass 1  IDiag  1:
 E= -76.8655493305682    
 DIIS: error= 6.05D-03 at cycle   1 NSaved=   1.
 NSaved= 1 IEnMin= 1 EnMin= -76.8655493305682     IErMin= 1 ErrMin= 6.05D-03
 ErrMax= 6.05D-03  0.00D+00 EMaxC= 1.00D-01 BMatC= 8.75D-03 BMatP= 8.75D-03
 IDIUse=3 WtCom= 9.40D-01 WtEn= 6.05D-02
 Coeff-Com:  0.100D+01
 Coeff-En:   0.100D+01
 Coeff:      0.100D+01
 Gap=     0.409 Goal=   None    Shift=    0.000
 Gap=     0.409 Goal=   None    Shift=    0.000
 GapD=    0.409 DampG=2.000 DampE=1.000 DampFc=2.0000 IDamp=-1.
 RMSDP=1.11D-03 MaxDP=9.22D-03              OVMax= 4.65D-02

 Cycle   2  Pass 1  IDiag  1:
 E= -76.8719784498498     Delta-E=       -0.006429119282 Rises=F Damp=F
 DIIS: error= 2.44D-03 at cycle   2 NSaved=   2.
 NSaved= 2 IEnMin= 2 EnMin= -76.8719784498498     IErMin= 2 ErrMin= 2.44D-03
 ErrMax= 2.44D-03  0.00D+00 EMaxC= 1.00D-01 BMatC= 7.69D-04 BMatP= 8.75D-03
 IDIUse=3 WtCom= 9.76D-01 WtEn= 2.44D-02
 Coeff-Com: -0.229D+00 0.123D+01
 Coeff-En:   0.000D+00 0.100D+01
 Coeff:     -0.224D+00 0.122D+01
 Gap=     0.111 Goal=   None    Shift=    0.000
 Gap=     0.111 Goal=   None    Shift=    0.000
 RMSDP=5.48D-04 MaxDP=3.84D-03 DE=-6.43D-03 OVMax= 2.97D-02

 Cycle   3  Pass 1  IDiag  1:
 E= -76.8732708185974     Delta-E=       -0.001292368748 Rises=F Damp=F
 DIIS: error= 8.29D-04 at cycle   3 NSaved=   3.
 NSaved= 3 IEnMin= 3 EnMin= -76.8732708185974     IErMin= 3 ErrMin= 8.29D-04
 ErrMax= 8.29D-04  0.00D+00 EMaxC= 1.00D-01 BMatC= 1.25D-04 BMatP= 7.69D-04
 IDIUse=3 WtCom= 9.92D-01 WtEn= 8.29D-03
 Coeff-Com:  0.756D-02-0.339D+00 0.133D+01
 Coeff-En:   0.000D+00 0.000D+00 0.100D+01
 Coeff:      0.750D-02-0.336D+00 0.133D+01
 Gap=     0.111 Goal=   None    Shift=    0.000
 Gap=     0.111 Goal=   None    Shift=    0.000
 RMSDP=2.60D-04 MaxDP=1.85D-03 DE=-1.29D-03 OVMax= 1.48D-02

 Cycle   4  Pass 1  IDiag  1:
 E= -76.8735100108035     Delta-E=       -0.000239192206 Rises=F Damp=F
 DIIS: error= 3.27D-04 at cycle   4 NSaved=   4.
 NSaved= 4 IEnMin= 4 EnMin= -76.8735100108035     IErMin= 4 ErrMin= 3.27D-04
 ErrMax= 3.27D-04  0.00D+00 EMaxC= 1.00D-01 BMatC= 1.61D-05 BMatP= 1.25D-04
 IDIUse=3 WtCom= 9.97D-01 WtEn= 3.27D-03
 Coeff-Com:  0.300D-01-0.223D+00 0.153D+00 0.104D+01
 Coeff-En:   0.000D+00 0.000D+00 0.000D+00 0.100D+01
 Coeff:      0.299D-01-0.222D+00 0.152D+00 0.104D+01
 Gap=     0.111 Goal=   None    Shift=    0.000
 Gap=     0.111 Goal=   None    Shift=    0.000
 RMSDP=1.10D-04 MaxDP=8.08D-04 DE=-2.39D-04 OVMax= 5.48D-03

 Cycle   5  Pass 1  IDiag  1:
 E= -76.8735405549360     Delta-E=       -0.000030544132 Rises=F Damp=F
 DIIS: error= 1.20D-04 at cycle   5 NSaved=   5.
 NSaved= 5 IEnMin= 5 EnMin= -76.8735405549360     IErMin= 5 ErrMin= 1.20D-04
 ErrMax= 1.20D-04  0.00D+00 EMaxC= 1.00D-01 BMatC= 3.28D-06 BMatP= 1.61D-05
 IDIUse=3 WtCom= 9.99D-01 WtEn= 1.20D-03
 Coeff-Com:  0.473D-02-0.946D-02-0.106D+00 0.289D+00 0.821D+00
 Coeff-En:   0.000D+00 0.000D+00 0.000D+00 0.000D+00 0.100D+01
 Coeff:      0.472D-02-0.945D-02-0.105D+00 0.289D+00 0.821D+00
 Gap=     0.111 Goal=   None    Shift=    0.000
 Gap=     0.111 Goal=   None    Shift=    0.000
 RMSDP=4.63D-05 MaxDP=5.78D-04 DE=-3.05D-05 OVMax= 3.49D-03

 Cycle   6  Pass 1  IDiag  1:
 E= -76.8735391649008     Delta-E=        0.000001390035 Rises=F Damp=F
 DIIS: error= 3.98D-04 at cycle   6 NSaved=   6.
 NSaved= 6 IEnMin= 5 EnMin= -76.8735405549360     IErMin= 5 ErrMin= 1.20D-04
 ErrMax= 3.98D-04  0.00D+00 EMaxC= 1.00D-01 BMatC= 1.44D-05 BMatP= 3.28D-06
 IDIUse=3 WtCom= 9.99D-01 WtEn= 1.20D-03
 Coeff-Com: -0.230D-02 0.431D-01-0.145D+00 0.553D-01 0.796D+00 0.252D+00
 Coeff-En:   0.000D+00 0.000D+00 0.000D+00 0.000D+00 0.606D+00 0.394D+00
 Coeff:     -0.229D-02 0.431D-01-0.145D+00 0.553D-01 0.796D+00 0.252D+00
 Gap=     0.111 Goal=   None    Shift=    0.000
 Gap=     0.111 Goal=   None    Shift=    0.000
 RMSDP=3.06D-05 MaxDP=4.43D-04 DE= 1.39D-06 OVMax= 2.47D-03

 Cycle   7  Pass 1  IDiag  1:
 E= -76.8735464580549     Delta-E=       -0.000007293154 Rises=F Damp=F
 DIIS: error= 7.39D-05 at cycle   7 NSaved=   7.
 NSaved= 7 IEnMin= 7 EnMin= -76.8735464580549     IErMin= 7 ErrMin= 7.39D-05
 ErrMax= 7.39D-05  0.00D+00 EMaxC= 1.00D-01 BMatC= 5.47D-07 BMatP= 3.28D-06
 IDIUse=1 WtCom= 1.00D+00 WtEn= 0.00D+00
 Coeff-Com: -0.361D-02 0.327D-01-0.520D-01-0.769D-01 0.832D-01 0.987D-01
 Coeff-Com:  0.918D+00
 Coeff:     -0.361D-02 0.327D-01-0.520D-01-0.769D-01 0.832D-01 0.987D-01
 Coeff:      0.918D+00
 Gap=     0.111 Goal=   None    Shift=    0.000
 Gap=     0.111 Goal=   None    Shift=    0.000
 RMSDP=2.57D-05 MaxDP=2.17D-04 DE=-7.29D-06 OVMax= 2.26D-03

 Cycle   8  Pass 1  IDiag  1:
 E= -76.8735489621561     Delta-E=       -0.000002504101 Rises=F Damp=F
 DIIS: error= 6.96D-05 at cycle   8 NSaved=   8.
 NSaved= 8 IEnMin= 8 EnMin= -76.8735489621561     IErMin= 8 ErrMin= 6.96D-05
 ErrMax= 6.96D-05  0.00D+00 EMaxC= 1.00D-01 BMatC= 2.76D-07 BMatP= 5.47D-07
 IDIUse=1 WtCom= 1.00D+00 WtEn= 0.00D+00
 Coeff-Com:  0.306D-02-0.359D-01 0.804D-01 0.538D-01-0.340D+00-0.181D+00
 Coeff-Com: -0.873D+00 0.229D+01
 Coeff:      0.306D-02-0.359D-01 0.804D-01 0.538D-01-0.340D+00-0.181D+00
 Coeff:     -0.873D+00 0.229D+01
 Gap=     0.111 Goal=   None    Shift=    0.000
 Gap=     0.111 Goal=   None    Shift=    0.000
 RMSDP=5.42D-05 MaxDP=4.73D-04 DE=-2.50D-06 OVMax= 4.87D-03

 Cycle   9  Pass 1  IDiag  1:
 E= -76.8735531048716     Delta-E=       -0.000004142716 Rises=F Damp=F
 DIIS: error= 5.25D-05 at cycle   9 NSaved=   9.
 NSaved= 9 IEnMin= 9 EnMin= -76.8735531048716     IErMin= 9 ErrMin= 5.25D-05
 ErrMax= 5.25D-05  0.00D+00 EMaxC= 1.00D-01 BMatC= 1.45D-07 BMatP= 2.76D-07
 IDIUse=1 WtCom= 1.00D+00 WtEn= 0.00D+00
 Coeff-Com: -0.205D-02 0.253D-01-0.580D-01-0.597D-01 0.268D+00 0.161D+00
 Coeff-Com:  0.819D+00-0.322D+01 0.307D+01
 Coeff:     -0.205D-02 0.253D-01-0.580D-01-0.597D-01 0.268D+00 0.161D+00
 Coeff:      0.819D+00-0.322D+01 0.307D+01
 Gap=     0.111 Goal=   None    Shift=    0.000
 Gap=     0.111 Goal=   None    Shift=    0.000
 RMSDP=8.51D-05 MaxDP=7.44D-04 DE=-4.14D-06 OVMax= 7.68D-03

 Cycle  10  Pass 1  IDiag  1:
 E= -76.8735568915920     Delta-E=       -0.000003786720 Rises=F Damp=F
 DIIS: error= 2.22D-05 at cycle  10 NSaved=  10.
 NSaved=10 IEnMin=10 EnMin= -76.8735568915920     IErMin=10 ErrMin= 2.22D-05
 ErrMax= 2.22D-05  0.00D+00 EMaxC= 1.00D-01 BMatC= 3.10D-08 BMatP= 1.45D-07
 IDIUse=1 WtCom= 1.00D+00 WtEn= 0.00D+00
 Coeff-Com: -0.145D-02 0.153D-01-0.274D-01-0.311D-01 0.135D+00 0.880D-01
 Coeff-Com:  0.540D+00-0.106D+01-0.249D+00 0.160D+01
 Coeff:     -0.145D-02 0.153D-01-0.274D-01-0.311D-01 0.135D+00 0.880D-01
 Coeff:      0.540D+00-0.106D+01-0.249D+00 0.160D+01
 Gap=     0.111 Goal=   None    Shift=    0.000
 Gap=     0.111 Goal=   None    Shift=    0.000
 RMSDP=4.94D-05 MaxDP=4.31D-04 DE=-3.79D-06 OVMax= 4.46D-03

 Cycle  11  Pass 1  IDiag  1:
 E= -76.8735575694795     Delta-E=       -0.000000677887 Rises=F Damp=F
 DIIS: error= 1.84D-06 at cycle  11 NSaved=  11.
 NSaved=11 IEnMin=11 EnMin= -76.8735575694795     IErMin=11 ErrMin= 1.84D-06
 ErrMax= 1.84D-06  0.00D+00 EMaxC= 1.00D-01 BMatC= 8.80D-10 BMatP= 3.10D-08
 IDIUse=1 WtCom= 1.00D+00 WtEn= 0.00D+00
 Coeff-Com:  0.122D-03-0.161D-02 0.334D-02 0.170D-02-0.218D-01-0.119D-01
 Coeff-Com: -0.525D-01 0.268D+00-0.251D+00-0.476D-01 0.111D+01
 Coeff:      0.122D-03-0.161D-02 0.334D-02 0.170D-02-0.218D-01-0.119D-01
 Coeff:     -0.525D-01 0.268D+00-0.251D+00-0.476D-01 0.111D+01
 Gap=     0.111 Goal=   None    Shift=    0.000
 Gap=     0.111 Goal=   None    Shift=    0.000
 RMSDP=4.06D-06 MaxDP=3.46D-05 DE=-6.78D-07 OVMax= 3.57D-04

 Cycle  12  Pass 1  IDiag  1:
 E= -76.8735575749228     Delta-E=       -0.000000005443 Rises=F Damp=F
 DIIS: error= 2.39D-06 at cycle  12 NSaved=  12.
 NSaved=12 IEnMin=12 EnMin= -76.8735575749228     IErMin=11 ErrMin= 1.84D-06
 ErrMax= 2.39D-06  0.00D+00 EMaxC= 1.00D-01 BMatC= 2.81D-10 BMatP= 8.80D-10
 IDIUse=1 WtCom= 1.00D+00 WtEn= 0.00D+00
 Coeff-Com:  0.695D-04-0.889D-03 0.190D-02 0.131D-02-0.116D-01-0.658D-02
 Coeff-Com: -0.316D-01 0.136D+00-0.113D+00-0.395D-01 0.546D+00 0.518D+00
 Coeff:      0.695D-04-0.889D-03 0.190D-02 0.131D-02-0.116D-01-0.658D-02
 Coeff:     -0.316D-01 0.136D+00-0.113D+00-0.395D-01 0.546D+00 0.518D+00
 Gap=     0.111 Goal=   None    Shift=    0.000
 Gap=     0.111 Goal=   None    Shift=    0.000
 RMSDP=4.20D-07 MaxDP=7.14D-06 DE=-5.44D-09 OVMax= 3.55D-05

 Cycle  13  Pass 1  IDiag  1:
 E= -76.8735575763551     Delta-E=       -0.000000001432 Rises=F Damp=F
 DIIS: error= 4.03D-06 at cycle  13 NSaved=  13.
 NSaved=13 IEnMin=13 EnMin= -76.8735575763551     IErMin=11 ErrMin= 1.84D-06
 ErrMax= 4.03D-06  0.00D+00 EMaxC= 1.00D-01 BMatC= 7.14D-10 BMatP= 2.81D-10
 IDIUse=1 WtCom= 1.00D+00 WtEn= 0.00D+00
 Coeff-Com:  0.951D-04-0.110D-02 0.237D-02 0.250D-02-0.118D-01-0.753D-02
 Coeff-Com: -0.435D-01 0.114D+00-0.396D-01-0.942D-01 0.326D+00 0.196D+01
 Coeff-Com: -0.121D+01
 Coeff:      0.951D-04-0.110D-02 0.237D-02 0.250D-02-0.118D-01-0.753D-02
 Coeff:     -0.435D-01 0.114D+00-0.396D-01-0.942D-01 0.326D+00 0.196D+01
 Coeff:     -0.121D+01
 Gap=     0.111 Goal=   None    Shift=    0.000
 Gap=     0.111 Goal=   None    Shift=    0.000
 RMSDP=9.56D-07 MaxDP=1.64D-05 DE=-1.43D-09 OVMax= 8.14D-05

 Cycle  14  Pass 1  IDiag  1:
 E= -76.8735575742063     Delta-E=        0.000000002149 Rises=F Damp=F
 DIIS: error= 2.00D-07 at cycle  14 NSaved=  14.
 NSaved=14 IEnMin=13 EnMin= -76.8735575763551     IErMin=14 ErrMin= 2.00D-07
 ErrMax= 2.00D-07  0.00D+00 EMaxC= 1.00D-01 BMatC= 3.44D-12 BMatP= 2.81D-10
 IDIUse=1 WtCom= 1.00D+00 WtEn= 0.00D+00
 Coeff-Com: -0.128D-04 0.165D-03-0.406D-03-0.157D-03 0.175D-02 0.951D-03
 Coeff-Com:  0.444D-02-0.183D-01 0.131D-01 0.837D-02-0.711D-01-0.208D+00
 Coeff-Com:  0.804D-01 0.119D+01
 Coeff:     -0.128D-04 0.165D-03-0.406D-03-0.157D-03 0.175D-02 0.951D-03
 Coeff:      0.444D-02-0.183D-01 0.131D-01 0.837D-02-0.711D-01-0.208D+00
 Coeff:      0.804D-01 0.119D+01
 Gap=     0.111 Goal=   None    Shift=    0.000
 Gap=     0.111 Goal=   None    Shift=    0.000
 RMSDP=1.02D-07 MaxDP=1.06D-06 DE= 2.15D-09 OVMax= 8.47D-06

 Cycle  15  Pass 1  IDiag  1:
 E= -76.8735575742042     Delta-E=        0.000000000002 Rises=F Damp=F
 DIIS: error= 1.60D-08 at cycle  15 NSaved=  15.
 NSaved=15 IEnMin=13 EnMin= -76.8735575763551     IErMin=15 ErrMin= 1.60D-08
 ErrMax= 1.60D-08  0.00D+00 EMaxC= 1.00D-01 BMatC= 6.02D-14 BMatP= 3.44D-12
 IDIUse=1 WtCom= 1.00D+00 WtEn= 0.00D+00
 Coeff-Com:  0.944D-06-0.872D-05 0.427D-05 0.317D-04-0.116D-04-0.139D-04
 Coeff-Com: -0.108D-03 0.285D-03-0.109D-03 0.149D-03-0.888D-03-0.405D-01
 Coeff-Com:  0.271D-01-0.730D-01 0.109D+01
 Coeff:      0.944D-06-0.872D-05 0.427D-05 0.317D-04-0.116D-04-0.139D-04
 Coeff:     -0.108D-03 0.285D-03-0.109D-03 0.149D-03-0.888D-03-0.405D-01
 Coeff:      0.271D-01-0.730D-01 0.109D+01
 Gap=     0.111 Goal=   None    Shift=    0.000
 Gap=     0.111 Goal=   None    Shift=    0.000
 RMSDP=1.31D-08 MaxDP=1.02D-07 DE= 2.10D-12 OVMax= 1.04D-06

 Cycle  16  Pass 1  IDiag  1:
 E= -76.8735575742043     Delta-E=       -0.000000000000 Rises=F Damp=F
 DIIS: error= 9.65D-09 at cycle  16 NSaved=  16.
 NSaved=16 IEnMin=13 EnMin= -76.8735575763551     IErMin=16 ErrMin= 9.65D-09
 ErrMax= 9.65D-09  0.00D+00 EMaxC= 1.00D-01 BMatC= 4.19D-15 BMatP= 6.02D-14
 IDIUse=1 WtCom= 1.00D+00 WtEn= 0.00D+00
 Coeff-Com:  0.588D-07-0.111D-05 0.328D-05-0.441D-06-0.287D-04-0.132D-04
 Coeff-Com: -0.382D-04 0.283D-03-0.256D-03-0.200D-03 0.196D-02 0.477D-02
 Coeff-Com: -0.225D-02-0.193D-01-0.121D+00 0.114D+01
 Coeff:      0.588D-07-0.111D-05 0.328D-05-0.441D-06-0.287D-04-0.132D-04
 Coeff:     -0.382D-04 0.283D-03-0.256D-03-0.200D-03 0.196D-02 0.477D-02
 Coeff:     -0.225D-02-0.193D-01-0.121D+00 0.114D+01
 Gap=     0.111 Goal=   None    Shift=    0.000
 Gap=     0.111 Goal=   None    Shift=    0.000
 RMSDP=2.76D-09 MaxDP=3.08D-08 DE=-1.42D-13 OVMax= 2.64D-07

 SCF Done:  E(UM062X) =  -76.8735575742     A.U. after   16 cycles
            NFock= 16  Conv=0.28D-08     -V/T= 2.0051
 <Sx>= 0.0000 <Sy>= 0.0000 <Sz>= 0.0000 <S**2>= 0.0000 S= 0.0000
 <L.S>=  0.00000000000    
 KE= 7.648387784726D+01 PE=-2.034013707955D+02 EE= 3.744071980960D+01
 Annihilation of the first spin contaminant:
 S**2 before annihilation     0.0000,   after     0.0000
 Leave Link  502 at Tue Dec  3 23:47:34 2024, MaxMem=   536870912 cpu:             162.3 elap:              22.6
 (Enter /home/szhao/Apps/g16/l701.exe)
 ... and contract with generalized density number  0.
 Compute integral first derivatives.
 Leave Link  701 at Tue Dec  3 23:47:34 2024, MaxMem=   536870912 cpu:               0.8 elap:               0.1
 (Enter /home/szhao/Apps/g16/l702.exe)
 L702 exits ... SP integral derivatives will be done elsewhere.
 Leave Link  702 at Tue Dec  3 23:47:34 2024, MaxMem=   536870912 cpu:               0.3 elap:               0.0
 (Enter /home/szhao/Apps/g16/l703.exe)
 Integral derivatives from FoFJK, PRISM(SPDF).
 Compute integral first derivatives, UseDBF=F ICtDFT=           0.
 Calling FoFJK, ICntrl=      2127 FMM=F ISym2X=0 I1Cent= 0 IOpClX= 1 NMat=1 NMatS=1 NMatT=0.
 FoFJK:  IHMeth= 1 ICntrl=    2127 DoSepK=F KAlg= 0 I1Cent=           0 FoldK=F
 IRaf=         0 NMat=       1 IRICut=       1 DoRegI=T DoRafI=F ISym2E= 0 IDoP0=0 IntGTp=1.
 FoFCou: FMM=F IPFlag=           0 FMFlag=      100000 FMFlg1=         800
         NFxFlg=           0 DoJE=F BraDBF=F KetDBF=F FulRan=T
         wScrn=  0.000000 ICntrl=      2127 IOpCl=  1 I1Cent=           0 NGrid=           0
[...]
 Coeff:      0.201D-01 0.736D+00-0.644D+00-0.875D+00 0.181D+01
 Gap=     0.111 Goal=   None    Shift=    0.000
 Gap=     0.111 Goal=   None    Shift=    0.000
 RMSDP=1.13D-07 MaxDP=8.27D-07 DE=-1.85D-11 OVMax= 1.04D-05

 Cycle  12  Pass 1  IDiag  1:
 E= -76.8741398122081     Delta-E=       -0.000000000004 Rises=F Damp=F
 DIIS: error= 5.31D-08 at cycle  12 NSaved=  12.
 NSaved=12 IEnMin=12 EnMin= -76.8741398122081     IErMin=12 ErrMin= 5.31D-08
 ErrMax= 5.31D-08  0.00D+00 EMaxC= 1.00D-01 BMatC= 9.86D-14 BMatP= 1.64D-13
 IDIUse=1 WtCom= 1.00D+00 WtEn= 0.00D+00
 Coeff-Com:  0.153D-03-0.133D-02 0.336D-02 0.320D-02-0.161D-01-0.325D-01
 Coeff-Com:  0.188D-01 0.683D+00-0.606D+00-0.802D+00 0.168D+01 0.720D-01
 Coeff:      0.153D-03-0.133D-02 0.336D-02 0.320D-02-0.161D-01-0.325D-01
 Coeff:      0.188D-01 0.683D+00-0.606D+00-0.802D+00 0.168D+01 0.720D-01
 Gap=     0.111 Goal=   None    Shift=    0.000
 Gap=     0.111 Goal=   None    Shift=    0.000
 RMSDP=1.12D-09 MaxDP=1.84D-08 DE=-4.18D-12 OVMax= 9.70D-08

 SCF Done:  E(UM062X) =  -76.8741398122     A.U. after   12 cycles
            NFock= 12  Conv=0.11D-08     -V/T= 2.0051
 <Sx>= 0.0000 <Sy>= 0.0000 <Sz>= 0.0000 <S**2>= 0.0000 S= 0.0000
 <L.S>=  0.00000000000    
 KE= 7.648778965110D+01 PE=-2.034911811978D+02 EE= 3.748179851237D+01
 Annihilation of the first spin contaminant:
 S**2 before annihilation     0.0000,   after     0.0000
 Leave Link  502 at Tue Dec  3 23:49:15 2024, MaxMem=   536870912 cpu:             158.3 elap:              22.2
 (Enter /home/szhao/Apps/g16/l701.exe)
 ... and contract with generalized density number  0.
 Compute integral first derivatives.
 Leave Link  701 at Tue Dec  3 23:49:15 2024, MaxMem=   536870912 cpu:               0.7 elap:               0.1
 (Enter /home/szhao/Apps/g16/l702.exe)
 L702 exits ... SP integral derivatives will be done elsewhere.
 Leave Link  702 at Tue Dec  3 23:49:15 2024, MaxMem=   536870912 cpu:               0.2 elap:               0.0
 (Enter /home/szhao/Apps/g16/l703.exe)
 Integral derivatives from FoFJK, PRISM(SPDF).
 Compute integral first derivatives, UseDBF=F ICtDFT=           0.
 Calling FoFJK, ICntrl=      2127 FMM=F ISym2X=0 I1Cent= 0 IOpClX= 1 NMat=1 NMatS=1 NMatT=0.
 FoFJK:  IHMeth= 1 ICntrl=    2127 DoSepK=F KAlg= 0 I1Cent=           0 FoldK=F
 IRaf=         0 NMat=       1 IRICut=       1 DoRegI=T DoRafI=F ISym2E= 0 IDoP0=0 IntGTp=1.
 FoFCou: FMM=F IPFlag=           0 FMFlag=      100000 FMFlg1=         800
         NFxFlg=           0 DoJE=F BraDBF=F KetDBF=F FulRan=T
         wScrn=  0.000000 ICntrl=      2127 IOpCl=  1 I1Cent=           0 NGrid=           0
         NMat0=    1 NMatS0=      1 NMatT0=    0 NMatD0=    1 NMtDS0=    0 NMtDT0=    0
 Symmetry not used in FoFCou.
 Leave Link  703 at Tue Dec  3 23:49:15 2024, MaxMem=   536870912 cpu:               4.8 elap:               0.6
 (Enter /home/szhao/Apps/g16/l716.exe)
 Dipole        = 6.67171435D-05 8.86451286D-04 6.51193317D-04
 -------------------------------------------------------------------
 Center     Atomic                   Forces (Hartrees/Bohr)
 Number     Number              X              Y              Z
 -------------------------------------------------------------------
      1        6          -0.000000000   -0.000000000   -0.000000000
      2        6          -0.000000000   -0.000000000   -0.000000000
      3        1           0.000000209   -0.000011296    0.000012805
      4        1          -0.000002264    0.000011048   -0.000014689
 -------------------------------------------------------------------
 Cartesian Forces:  Max     0.000014689 RMS     0.000007272
 Leave Link  716 at Tue Dec  3 23:49:26 2024, MaxMem=   536870912 cpu:              75.4 elap:              10.8
 (Enter /home/szhao/Apps/g16/l103.exe)

 GradGradGradGradGradGradGradGradGradGradGradGradGradGradGradGradGradGrad
 Berny optimization.
 Using GEDIIS/GDIIS optimizer.
 FormGI is forming the generalized inverse of G from B-inverse, IUseBI=4.
 Internal  Forces:  Max     0.000018510 RMS     0.000010562
 Search for a local minimum.
 Step number   7 out of a maximum of   21
 All quantities printed in internal units (Hartrees-Bohrs-Radians)
 RMS Force = .11440D-04 SwitMx=.10000D-02 MixMth= 2
 Mixed Optimization -- En-DIIS/RFO-DIIS
 Swapping is turned off.
 Update second derivatives using D2CorX and points    4    5    6    7
 DE= -1.24D-07 DEPred=-1.12D-07 R= 1.10D+00
 Trust test= 1.10D+00 RLast= 1.31D-02 DXMaxT set to 1.43D+00
 The second derivative matrix:
                          X1        Y1        Z1        X2        Y2
           X1           0.50282
           Y1          -0.00072   0.51004
           Z1           0.00114  -0.00825   0.51959
           X2          -0.00279   0.00095  -0.00144   0.50278
           Y2           0.00050  -0.00481   0.01570  -0.00071   0.51312
           Z2          -0.00122   0.01106  -0.01616   0.00153  -0.01177
           R1           0.01005  -0.00575   0.04864  -0.01042   0.04201
           R2           0.01024  -0.00550   0.04915  -0.01061   0.04252
           A1          -0.00588  -0.00213   0.00611   0.00570   0.00586
           A2          -0.00618  -0.00169   0.00547   0.00601   0.00536
           D1          -0.00023   0.00281  -0.00160   0.00028  -0.00069
                          Z2        R1        R2        A1        A2
           Z2           0.51610
           R1          -0.03091   0.33811
           R2          -0.03104   0.01926   0.33789
           A1          -0.00445  -0.00302  -0.00319   0.09600
           A2          -0.00388  -0.00184  -0.00198  -0.06349   0.09688
           D1           0.00270   0.00068   0.00077  -0.00003  -0.00031
                          D1
           D1           0.00083
 ITU=  0  1  1  1  1  1  0
     Eigenvalues ---    0.00082   0.03287   0.15992   0.31874   0.35734
     Eigenvalues --- 1000.000001000.000001000.000001000.000001000.00000
     Eigenvalues --- 1000.00000
 En-DIIS/RFO-DIIS/Sim-DIIS IScMMF=       -3 using points:     7    6    5    4
 RFO step:  Lambda=-1.88433893D-09.
 NNeg= 0 NGDIIS= 4 SimSw=  2.50D-01 Rises=F DC= -1.24D-07 SmlDif=  1.00D-05
 NRisDI= 0 DoIntr=F SqrtH=F CThrHd= 10.0 CDAdj=  3.0
 RMS Error=  0.5317947014D-03 NUsed= 4 OKEnD=F EnDIS=F
 InvSVX:  RCond= 9.24D-09 Info=           0 Equed=N FErr=  1.91D-12 BErr=  8.85D-17
 DIIS inversion failure, remove point   4.
 InvSVX:  RCond= 6.18D-08 Info=           0 Equed=N FErr=  1.66D-13 BErr=  3.85D-17
 DIIS inversion failure, remove point   3.
 InvSVX:  RCond= 4.29D-05 Info=           0 Equed=N FErr=  1.18D-15 BErr=  6.22D-17
 RFO-DIIS uses    2 points instead of    4
 DidBck=F Rises=F RFO-DIIS coefs:    1.13459   -0.13459    0.00000    0.00000
 Iteration  1 RMS(Cart)=  0.00078736 RMS(Int)=  0.00000035
 Iteration  2 RMS(Cart)=  0.00000036 RMS(Int)=  0.00000000
 ITry= 1 IFail=0 DXMaxC= 1.54D-03 DCOld= 1.00D+10 DXMaxT= 1.43D+00 DXLimC= 3.00D+00 Rises=F
 Variable       Old X    -DE/DX   Delta X   Delta X   Delta X     New X
                                 (Linear)    (Quad)   (Total)
    X1       -3.51040   0.00000   0.00000   0.00000   0.00000  -3.51040
    Y1        0.00000  -0.00001   0.00000   0.00000   0.00000   0.00000
    Z1        0.00000   0.00001   0.00000   0.00000   0.00000   0.00000
    X2        3.51040  -0.00000   0.00000   0.00000   0.00000   3.51040
    Y2        0.00000   0.00001   0.00000   0.00000   0.00000   0.00000
    Z2        0.00000  -0.00001   0.00000   0.00000   0.00000   0.00000
    R1        2.11294   0.00002   0.00003   0.00002   0.00005   2.11300
    R2        2.11294   0.00002   0.00003   0.00003   0.00006   2.11300
    A1        1.41915   0.00000   0.00007   0.00004   0.00011   1.41925
    A2        1.41934   0.00000   0.00007   0.00001   0.00008   1.41942
    D1       -3.13989  -0.00000  -0.00176   0.00000  -0.00176   3.14154
         Item               Value     Threshold  Converged?
 Maximum Force            0.000019     0.000450     YES
 RMS     Force            0.000011     0.000300     YES
 Maximum Displacement     0.001545     0.001800     YES
 RMS     Displacement     0.000787     0.001200     YES
 Predicted change in Energy=-2.505381D-09
 Optimization completed.
    -- Stationary point found.
                           ----------------------------
                           !   Optimized Parameters   !
                           ! (Angstroms and Degrees)  !
 --------------------------                            --------------------------
 ! Name  Definition              Value          Derivative Info.                !
 --------------------------------------------------------------------------------
 ! X1    R(1,-1)                -1.8576         -DE/DX =    0.0                 !
 ! Y1    R(1,-2)                 0.0            -DE/DX =    0.0                 !
 ! Z1    R(1,-3)                 0.0            -DE/DX =    0.0                 !
 ! X2    R(2,-1)                 1.8576         -DE/DX =    0.0                 !
 ! Y2    R(2,-2)                 0.0            -DE/DX =    0.0                 !
 ! Z2    R(2,-3)                 0.0            -DE/DX =    0.0                 !
 ! R1    R(1,3)                  1.1181         -DE/DX =    0.0                 !
 ! R2    R(2,4)                  1.1181         -DE/DX =    0.0                 !
 ! A1    A(2,1,3)               81.3112         -DE/DX =    0.0                 !
 ! A2    A(1,2,4)               81.3223         -DE/DX =    0.0                 !
 ! D1    D(3,1,2,4)            180.0976         -DE/DX =    0.0                 !
 --------------------------------------------------------------------------------
 Lowest energy point so far.  Saving SCF results.
 Largest change from initial coordinates is atom    3       0.677 Angstoms.
 GradGradGradGradGradGradGradGradGradGradGradGradGradGradGradGradGradGrad

 Leave Link  103 at Tue Dec  3 23:49:26 2024, MaxMem=   536870912 cpu:               0.0 elap:               0.0
 (Enter /home/szhao/Apps/g16/l202.exe)
                          Input orientation:                          
 ---------------------------------------------------------------------
 Center     Atomic      Atomic             Coordinates (Angstroms)
 Number     Number       Type             X           Y           Z
 ---------------------------------------------------------------------
      1          6           0       -1.857625    0.000000    0.000000
      2          6           0        1.857625    0.000000    0.000000
      3          1           0       -1.688713   -0.652375    0.892229
      4          1           0        1.688928    0.653911   -0.891141
 ---------------------------------------------------------------------
                    Distance matrix (angstroms):
                    1          2          3          4
     1  C    0.000000
     2  C    3.715250   0.000000
     3  H    1.118122   3.714590   0.000000
     4  H    3.714804   1.118119   4.036737   0.000000
 Symmetry turned off by external request.
 Stoichiometry    C2H2
 Framework group  C1[X(C2H2)]
 Deg. of freedom     6
 Full point group                 C1      NOp   1
 Rotational constants (GHZ):         219.8812542           5.6956011           5.5517928
 Leave Link  202 at Tue Dec  3 23:49:26 2024, MaxMem=   536870912 cpu:               0.0 elap:               0.0
 (Enter /home/szhao/Apps/g16/l601.exe)
 Copying SCF densities to generalized density rwf, IOpCl= 1 IROHF=0.

 **********************************************************************

            Population analysis using the SCF density.

 **********************************************************************

 Alpha  occ. eigenvalues --  -10.67679 -10.67677  -0.73002  -0.72477  -0.39150
 Alpha  occ. eigenvalues --   -0.38917  -0.23837
 Alpha virt. eigenvalues --   -0.12690  -0.10394  -0.09537   0.03271   0.04582
 Alpha virt. eigenvalues --    0.07236   0.07314   0.09289   0.09700   0.10944
 Alpha virt. eigenvalues --    0.13942   0.18117   0.19323   0.44177   0.45325
 Alpha virt. eigenvalues --    0.54346   0.56263   0.58196   0.61373   0.61954
 Alpha virt. eigenvalues --    0.64235   0.67189   0.72975   1.12562   1.12633
 Alpha virt. eigenvalues --    1.13983   1.14015   1.33101   1.33259   1.34446
 Alpha virt. eigenvalues --    1.35907   1.58102   1.58757   1.84822   1.85175
 Alpha virt. eigenvalues --    1.85237   1.87643   2.38173   2.40901   2.47527
 Alpha virt. eigenvalues --    2.51512   2.68867   2.69308   2.70994   2.76952
 Alpha virt. eigenvalues --    3.17206   3.18220  23.50402  23.50524
  Beta  occ. eigenvalues --  -10.67679 -10.67677  -0.73002  -0.72477  -0.39150
  Beta  occ. eigenvalues --   -0.38917  -0.23837
  Beta virt. eigenvalues --   -0.12690  -0.10394  -0.09537   0.03271   0.04582
  Beta virt. eigenvalues --    0.07236   0.07314   0.09289   0.09700   0.10944
  Beta virt. eigenvalues --    0.13942   0.18117   0.19323   0.44177   0.45325
  Beta virt. eigenvalues --    0.54346   0.56263   0.58196   0.61373   0.61954
  Beta virt. eigenvalues --    0.64235   0.67189   0.72975   1.12562   1.12633
  Beta virt. eigenvalues --    1.13983   1.14015   1.33101   1.33259   1.34446
  Beta virt. eigenvalues --    1.35907   1.58102   1.58757   1.84822   1.85175
  Beta virt. eigenvalues --    1.85237   1.87643   2.38173   2.40901   2.47527
  Beta virt. eigenvalues --    2.51512   2.68867   2.69308   2.70994   2.76952
  Beta virt. eigenvalues --    3.17206   3.18220  23.50402  23.50524
          Condensed to atoms (all electrons):
               1          2          3          4
     1  C    5.846133   0.091041   0.207385  -0.001135
     2  C    0.091041   5.846164  -0.001135   0.207382
     3  H    0.207385  -0.001135   0.650279   0.000033
     4  H   -0.001135   0.207382   0.000033   0.650285
          Atomic-Atomic Spin Densities.
               1          2          3          4
     1  C    0.000002   0.000000   0.000000  -0.000000
     2  C    0.000000  -0.000002   0.000000  -0.000000
     3  H    0.000000   0.000000  -0.000000   0.000000
     4  H   -0.000000  -0.000000   0.000000   0.000000
 Mulliken charges and spin densities:
               1          2
     1  C   -0.143423   0.000002
     2  C   -0.143452  -0.000002
     3  H    0.143439  -0.000000
     4  H    0.143436   0.000000
 Sum of Mulliken charges =  -0.00000   0.00000
 Mulliken charges and spin densities with hydrogens summed into heavy atoms:
               1          2
     1  C    0.000016   0.000002
     2  C   -0.000016  -0.000002
 Electronic spatial extent (au):  <R**2>=            209.4854
 Charge=             -0.0000 electrons
 Dipole moment (field-independent basis, Debye):
    X=              0.0002    Y=              0.0023    Z=              0.0017  Tot=              0.0028
 Quadrupole moment (field-independent basis, Debye-Ang):
   XX=            -16.9936   YY=            -12.9640   ZZ=            -13.7756
   XY=              3.6097   XZ=             -4.9281   YZ=              1.2827
 Traceless Quadrupole moment (field-independent basis, Debye-Ang):
   XX=             -2.4159   YY=              1.6137   ZZ=              0.8021
   XY=              3.6097   XZ=             -4.9281   YZ=              1.2827
 Octapole moment (field-independent basis, Debye-Ang**2):
  XXX=              0.0016  YYY=             -0.0003  ZZZ=              0.0006  XYY=             -0.0042
  XXY=              0.0090  XXZ=              0.0054  XZZ=              0.0041  YZZ=             -0.0005
  YYZ=             -0.0009  XYZ=              0.0012
 Hexadecapole moment (field-independent basis, Debye-Ang**3):
 XXXX=           -372.9363 YYYY=            -20.2043 ZZZZ=            -25.2692 XXXY=              9.8239
 XXXZ=            -13.4130 YYYX=             -0.7929 YYYZ=              4.2152 ZZZX=              0.6098
 ZZZY=              3.7895 XXYY=            -50.7479 XXZZ=            -54.8450 YYZZ=             -7.1753
 XXYZ=              6.4753 YYXZ=             -0.0039 ZZXY=              0.3489
 N-N= 1.264745322214D+01 E-N=-2.034911811989D+02  KE= 7.648778965110D+01
                          Isotropic Fermi Contact Couplings
        Atom                 a.u.       MegaHertz       Gauss      10(-4) cm-1
     1  C(13)              0.00000       0.00001       0.00000       0.00000
     2  C(13)             -0.00000      -0.00001      -0.00000      -0.00000
     3  H(1)              -0.00000      -0.00002      -0.00001      -0.00001
     4  H(1)               0.00000       0.00002       0.00001       0.00001
 --------------------------------------------------------
       Center         ----  Spin Dipole Couplings  ----
                      3XX-RR        3YY-RR        3ZZ-RR
 --------------------------------------------------------
     1   Atom        0.000002     -0.000001     -0.000001
     2   Atom       -0.000002      0.000001      0.000001
     3   Atom       -0.000000     -0.000000      0.000000
     4   Atom        0.000000      0.000000     -0.000000
 --------------------------------------------------------
                        XY            XZ            YZ
 --------------------------------------------------------
     1   Atom        0.000001     -0.000000     -0.000000
     2   Atom       -0.000001      0.000000      0.000000
     3   Atom        0.000000      0.000000     -0.000000
     4   Atom       -0.000000     -0.000000      0.000000
 --------------------------------------------------------


 ---------------------------------------------------------------------------------
              Anisotropic Spin Dipole Couplings in Principal Axis System
 ---------------------------------------------------------------------------------

       Atom             a.u.   MegaHertz   Gauss  10(-4) cm-1        Axes

              Baa    -0.0000    -0.000    -0.000    -0.000 -0.1748  0.9426  0.2846
     1 C(13)  Bbb    -0.0000    -0.000    -0.000    -0.000  0.0971 -0.2712  0.9576
              Bcc     0.0000     0.000     0.000     0.000  0.9798  0.1950 -0.0441
 
              Baa    -0.0000    -0.000    -0.000    -0.000  0.9802  0.1930 -0.0451
     2 C(13)  Bbb     0.0000     0.000     0.000     0.000  0.0965 -0.2659  0.9592
              Bcc     0.0000     0.000     0.000     0.000 -0.1731  0.9445  0.2793
 
              Baa    -0.0000    -0.000    -0.000    -0.000 -0.1656  0.7852  0.5967
     3 H(1)   Bbb    -0.0000    -0.000    -0.000    -0.000  0.9699  0.2393 -0.0457
              Bcc     0.0000     0.000     0.000     0.000  0.1786 -0.5711  0.8012
 
              Baa    -0.0000    -0.000    -0.000    -0.000  0.1784 -0.5728  0.8001
     4 H(1)   Bbb     0.0000     0.000     0.000     0.000  0.9704  0.2369 -0.0468
              Bcc     0.0000     0.000     0.000     0.000 -0.1628  0.7847  0.5981
 

 ---------------------------------------------------------------------------------

 No NMR shielding tensors so no spin-rotation constants.
 Leave Link  601 at Tue Dec  3 23:49:26 2024, MaxMem=   536870912 cpu:               1.4 elap:               0.2
 (Enter /home/szhao/Apps/g16/l9999.exe)
 1\1\GINC-NODE01\FOpt\UM062X\6-311+G(d,p)\C2H2\SZHAO\03-Dec-2024\0\\#p 
 opt UM062X/6-311+G** nosymm int=superfine\\Title Card Required\\0,1\C,
 -1.857625,0.,0.\C,1.857625,0.,0.\H,-1.6887127114,-0.6523751378,0.89222
 89766\H,1.6889280576,0.6539114361,-0.8911405929\\Version=ES64L-G16RevA
 .03\HF=-76.8741398\S2=0.\S2-1=0.\S2A=0.\RMSD=1.121e-09\RMSF=7.272e-06\
 Dipole=0.0000667,0.0008865,0.0006512\Quadrupole=-1.7961342,1.1997692,0
 .596365,2.6836877,-3.6639266,0.9536488\PG=C01 [X(C2H2)]\\@


 BETTER TO HUNT IN FIELDS, FOR HEALTH UNBOUGHT
 THAN FEE THE DOCTOR FOR A NAUSEOUS DRAUGHT.
 THE WISE, FOR CURE, ON EXERCISE DEPEND;
 GOD NEVER MADE HIS WORK FOR MAN TO MEND.
     -- JOHN DRYDEN (1631-1700)
 Job cpu time:       0 days  0 hours 22 minutes 33.8 seconds.
 Elapsed time:       0 days  0 hours  3 minutes  8.0 seconds.
 File lengths (MBytes):  RWF=      6 Int=      0 D2E=      0 Chk=      1 Scr=      1
 Normal termination of Gaussian 16 at Tue Dec  3 23:49:27 2024.
