Title Card Required                                                     
FOpt      UM062X                                                      6-311+G(d,p)        
Number of atoms                            I                4
Info1-9                                    I   N=           9
          13          13           0           0           0         110
           2          18        -502
Full Title                                 C   N=           2
Title Card Required     
Route                                      C   N=           4
#p opt UM062X/6-311+G** nosymm int=superfine    
Charge                                     I                0
Multiplicity                               I                1
Number of electrons                        I               14
Number of alpha electrons                  I                7
Number of beta electrons                   I                7
Number of basis functions                  I               56
Number of independent functions            I               56
Number of point charges in /Mol/           I                0
Number of translation vectors              I                0
Atomic numbers                             I   N=           4
           6           6           1           1
Nuclear charges                            R   N=           4
  6.00000000E+00  6.00000000E+00  1.00000000E+00  1.00000000E+00
Current cartesian coordinates              R   N=          12
 -1.26675402E+00  0.00000000E+00  0.00000000E+00  1.26675402E+00  0.00000000E+00
  0.00000000E+00 -3.28361217E+00 -2.39116819E-09  1.98839645E-09  3.28361331E+00
 -2.02005698E-09  2.42033735E-10
Number of symbols in /Mol/                 I                0
Force Field                                I                0
Atom Types                                 C   N=           4
                                                
Int Atom Types                             I   N=           4
           0           0           0           0
MM charges                                 R   N=           4
  0.00000000E+00  0.00000000E+00  0.00000000E+00  0.00000000E+00
Integer atomic weights                     I   N=           4
          12          12           1           1
Real atomic weights                        R   N=           4
  1.20000000E+01  1.20000000E+01  1.00782504E+00  1.00782504E+00
Atom fragment info                         I   N=           4
           0           0           0           0
Atom residue num                           I   N=           4
           0           0           0           0
Nuclear spins                              I   N=           4
           0           0           1           1
Nuclear ZEff                               R   N=           4
 -3.60000000E+00 -3.60000000E+00 -1.00000000E+00 -1.00000000E+00
Nuclear ZNuc                               R   N=           4
  6.00000000E+00  6.00000000E+00  1.00000000E+00  1.00000000E+00
Nuclear QMom                               R   N=           4
  0.00000000E+00  0.00000000E+00  0.00000000E+00  0.00000000E+00
Nuclear GFac                               R   N=           4
  0.00000000E+00  0.00000000E+00  2.79284600E+00  2.79284600E+00
MicOpt                                     I   N=           4
          -2          -2          -1          -1
Number of residues                         I                0
Number of secondary structures             I                0
Redundant internal dimensions              I   N=           4
          12           8           4           0
Redundant internal coordinate indices      I   N=          48
           1          -1           0           0           1          -2
           0           0           1          -3           0           0
           2          -1           0           0           2          -2
           0           0           2          -3           0           0
           1           3           0           0           2           4
           0           0           2           1           3          -4
           1           2           4          -4           2           1
           3          -8           1           2           4          -8
Redundant internal coordinates             R   N=          12
 -1.26675402E+00  0.00000000E+00  0.00000000E+00  1.26675402E+00  0.00000000E+00
  0.00000000E+00  2.01685815E+00  2.01685929E+00  3.14159265E+00  3.14159267E+00
  3.14159265E+00  3.14159267E+00
ZRed-IntVec                                I   N=          12
          -1          -1          -1          -1          -1          -1
           0           0           0           0           0           0
ZRed-FPVec                                 R   N=          12
  0.00000000E+00  0.00000000E+00  0.00000000E+00  0.00000000E+00  0.00000000E+00
  0.00000000E+00  0.00000000E+00  0.00000000E+00  0.00000000E+00  0.00000000E+00
  0.00000000E+00  0.00000000E+00
ZRed-Constraint1                           R   N=          12
 -1.26675402E+00  0.00000000E+00  0.00000000E+00  1.26675402E+00  0.00000000E+00
  0.00000000E+00  2.25281447E+00  2.25278061E+00  3.14159265E+00  3.14159265E+00
  3.14159265E+00  3.14159265E+00
ZRed-Constraint2                           R   N=          12
 -1.26675402E+00  0.00000000E+00  0.00000000E+00  1.26675402E+00  0.00000000E+00
  0.00000000E+00  0.00000000E+00  0.00000000E+00  0.00000000E+00  0.00000000E+00
  0.00000000E+00  0.00000000E+00
Number of contracted shells                I               20
Number of primitive shells                 I               38
Pure/Cartesian d shells                    I                0
Pure/Cartesian f shells                    I                0
Highest angular momentum                   I                2
Largest degree of contraction              I                6
Shell types                                I   N=          20
           0          -1          -1          -1          -1          -2
           0          -1          -1          -1          -1          -2
           0           0           0           1           0           0
           0           1
Number of primitives per shell             I   N=          20
           6           3           1           1           1           1
           6           3           1           1           1           1
           3           1           1           1           3           1
           1           1
Shell to atom map                          I   N=          20
           1           1           1           1           1           1
           2           2           2           2           2           2
           3           3           3           3           4           4
           4           4
Primitive exponents                        R   N=          38
  4.56324000E+03  6.82024000E+02  1.54973000E+02  4.44553000E+01  1.30290000E+01
  1.82773000E+00  2.09642000E+01  4.80331000E+00  1.45933000E+00  4.83456000E-01
  1.45585000E-01  4.38000000E-02  6.26000000E-01  4.56324000E+03  6.82024000E+02
  1.54973000E+02  4.44553000E+01  1.30290000E+01  1.82773000E+00  2.09642000E+01
  4.80331000E+00  1.45933000E+00  4.83456000E-01  1.45585000E-01  4.38000000E-02
  6.26000000E-01  3.38650000E+01  5.09479000E+00  1.15879000E+00  3.25840000E-01
  1.02741000E-01  7.50000000E-01  3.38650000E+01  5.09479000E+00  1.15879000E+00
  3.25840000E-01  1.02741000E-01  7.50000000E-01
Contraction coefficients                   R   N=          38
  1.96665025E-03  1.52306019E-02  7.61269097E-02  2.60801033E-01  6.16462078E-01
  2.21006028E-01  1.14660081E-01  9.19999648E-01 -3.03068213E-03  1.00000000E+00
  1.00000000E+00  1.00000000E+00  1.00000000E+00  1.96665025E-03  1.52306019E-02
  7.61269097E-02  2.60801033E-01  6.16462078E-01  2.21006028E-01  1.14660081E-01
  9.19999648E-01 -3.03068213E-03  1.00000000E+00  1.00000000E+00  1.00000000E+00
  1.00000000E+00  2.54938145E-02  1.90373109E-01  8.52161486E-01  1.00000000E+00
  1.00000000E+00  1.00000000E+00  2.54938145E-02  1.90373109E-01  8.52161486E-01
  1.00000000E+00  1.00000000E+00  1.00000000E+00
P(S=P) Contraction coefficients            R   N=          38
  0.00000000E+00  0.00000000E+00  0.00000000E+00  0.00000000E+00  0.00000000E+00
  0.00000000E+00  4.02486927E-02  2.37593957E-01  8.15853851E-01  1.00000000E+00
  1.00000000E+00  1.00000000E+00  0.00000000E+00  0.00000000E+00  0.00000000E+00
  0.00000000E+00  0.00000000E+00  0.00000000E+00  0.00000000E+00  4.02486927E-02
  2.37593957E-01  8.15853851E-01  1.00000000E+00  1.00000000E+00  1.00000000E+00
  0.00000000E+00  0.00000000E+00  0.00000000E+00  0.00000000E+00  0.00000000E+00
  0.00000000E+00  0.00000000E+00  0.00000000E+00  0.00000000E+00  0.00000000E+00
  0.00000000E+00  0.00000000E+00  0.00000000E+00
Coordinates of each shell                  R   N=          60
 -1.26675402E+00  0.00000000E+00  0.00000000E+00 -1.26675402E+00  0.00000000E+00
  0.00000000E+00 -1.26675402E+00  0.00000000E+00  0.00000000E+00 -1.26675402E+00
  0.00000000E+00  0.00000000E+00 -1.26675402E+00  0.00000000E+00  0.00000000E+00
 -1.26675402E+00  0.00000000E+00  0.00000000E+00  1.26675402E+00  0.00000000E+00
  0.00000000E+00  1.26675402E+00  0.00000000E+00  0.00000000E+00  1.26675402E+00
  0.00000000E+00  0.00000000E+00  1.26675402E+00  0.00000000E+00  0.00000000E+00
  1.26675402E+00  0.00000000E+00  0.00000000E+00  1.26675402E+00  0.00000000E+00
  0.00000000E+00 -3.28361217E+00 -2.39116819E-09  1.98839645E-09 -3.28361217E+00
 -2.39116819E-09  1.98839645E-09 -3.28361217E+00 -2.39116819E-09  1.98839645E-09
 -3.28361217E+00 -2.39116819E-09  1.98839645E-09  3.28361331E+00 -2.02005698E-09
  2.42033735E-10  3.28361331E+00 -2.02005698E-09  2.42033735E-10  3.28361331E+00
 -2.02005698E-09  2.42033735E-10  3.28361331E+00 -2.02005698E-09  2.42033735E-10
Num ILSW                                   I              100
ILSW                                       I   N=         100
           1           0           0           0           2           0
           0           0           0           0        4336          -1
           7           0           0           0           2           0
           0           0           0           0           1           0
           1           1           0           0           0           0
           0           0      100000           0          -1           0
           0           0           0           0           0           0
           0           0           0           1           0           0
           0 -2000000000           1           0           0           0
           0           0           4          52           0           0
           0           0          55           0           0           0
           0           0           0           4           0           1
           0           0           0           0           0           0
           0           0           0           0           0           0
           0           0           0           0           0           0
           0           0           0           0           0           0
           0           0           0           0
Num RLSW                                   I               52
RLSW                                       R   N=          52
  1.00000000E+00  1.00000000E+00  1.00000000E+00  1.00000000E+00  5.40000000E-01
  0.00000000E+00  0.00000000E+00  1.00000000E+00  0.00000000E+00  0.00000000E+00
  0.00000000E+00  0.00000000E+00  1.00000000E+00  0.00000000E+00  0.00000000E+00
  0.00000000E+00  0.00000000E+00  1.00000000E+00  0.00000000E+00  0.00000000E+00
  0.00000000E+00  0.00000000E+00  1.00000000E+00  0.00000000E+00  0.00000000E+00
  0.00000000E+00  0.00000000E+00  1.00000000E+00  0.00000000E+00  0.00000000E+00
  0.00000000E+00  0.00000000E+00  1.00000000E+00  0.00000000E+00  0.00000000E+00
  0.00000000E+00  0.00000000E+00  0.00000000E+00  1.00000000E+00  1.00000000E+00
  0.00000000E+00  1.00000000E+00  0.00000000E+00  0.00000000E+00  0.00000000E+00
  0.00000000E+00  0.00000000E+00  0.00000000E+00  0.00000000E+00  0.00000000E+00
  0.00000000E+00  0.00000000E+00
MxBond                                     I                2
NBond                                      I   N=           4
           2           2           1           1
IBond                                      I   N=           8
           2           3           1           4           1           0
           2           0
RBond                                      R   N=           8
  2.00000000E+00  1.00000000E+00  2.00000000E+00  1.00000000E+00  1.00000000E+00
  0.00000000E+00  1.00000000E+00  0.00000000E+00
Virial Ratio                               R      2.010895250795072E+00
SCF Energy                                 R     -7.728351554964259E+01
Total Energy                               R     -7.728351554964259E+01
S**2                                       R     -2.309263891220326E-14
S**2 after annihilation                    R     -1.394440118929182E-13
RMS Force                                  R      5.606568049128803E-05
RMS Density                                R      3.251890772047430E-09
Job Status                                 I                1
Nuclear derivative order                   I                1
External E-field                           R   N=          35
  0.00000000E+00  0.00000000E+00  0.00000000E+00  0.00000000E+00  0.00000000E+00
  0.00000000E+00  0.00000000E+00  0.00000000E+00  0.00000000E+00  0.00000000E+00
  0.00000000E+00  0.00000000E+00  0.00000000E+00  0.00000000E+00  0.00000000E+00
  0.00000000E+00  0.00000000E+00  0.00000000E+00  0.00000000E+00  0.00000000E+00
  0.00000000E+00  0.00000000E+00  0.00000000E+00  0.00000000E+00  0.00000000E+00
  0.00000000E+00  0.00000000E+00  0.00000000E+00  0.00000000E+00  0.00000000E+00
  0.00000000E+00  0.00000000E+00  0.00000000E+00  0.00000000E+00  0.00000000E+00
IOpCl                                      I                1
IROHF                                      I                0
Alpha Orbital Energies                     R   N=          56
 -1.05876686E+01 -1.05865486E+01 -8.24992586E-01 -6.64799087E-01 -5.63013236E-01
 -3.37156607E-01 -3.37156607E-01  2.03279467E-02  2.03279467E-02  2.46338792E-02
  2.50329350E-02  7.88890078E-02  7.88890078E-02  9.31498295E-02  1.29122876E-01
  1.29122876E-01  1.41324161E-01  1.88931481E-01  2.39152868E-01  3.59572476E-01
  4.53938625E-01  5.80067082E-01  5.80067082E-01  6.36250725E-01  6.36250725E-01
  7.19419214E-01  7.21174205E-01  8.34294182E-01  8.78205867E-01  1.06561637E+00
  1.06561637E+00  1.07024663E+00  1.22906192E+00  1.22906280E+00  1.44587844E+00
  1.44587844E+00  1.54667811E+00  1.54667922E+00  1.70043198E+00  1.80950701E+00
  1.80950701E+00  2.01005077E+00  2.40904003E+00  2.40904003E+00  2.53102738E+00
  2.68719073E+00  2.76797274E+00  2.76797274E+00  2.94700548E+00  2.95130707E+00
  2.95130707E+00  3.24964275E+00  3.31641776E+00  3.70906806E+00  2.35942137E+01
  2.46587214E+01
Beta Orbital Energies                      R   N=          56
 -1.05876686E+01 -1.05865486E+01 -8.24992586E-01 -6.64799087E-01 -5.63013236E-01
 -3.37156607E-01 -3.37156607E-01  2.03279467E-02  2.03279467E-02  2.46338792E-02
  2.50329350E-02  7.88890078E-02  7.88890078E-02  9.31498295E-02  1.29122876E-01
  1.29122876E-01  1.41324161E-01  1.88931481E-01  2.39152868E-01  3.59572476E-01
  4.53938625E-01  5.80067082E-01  5.80067082E-01  6.36250725E-01  6.36250725E-01
  7.19419214E-01  7.21174205E-01  8.34294182E-01  8.78205867E-01  1.06561637E+00
  1.06561637E+00  1.07024663E+00  1.22906192E+00  1.22906280E+00  1.44587844E+00
  1.44587844E+00  1.54667811E+00  1.54667922E+00  1.70043198E+00  1.80950701E+00
  1.80950701E+00  2.01005077E+00  2.40904003E+00  2.40904003E+00  2.53102738E+00
  2.68719073E+00  2.76797274E+00  2.76797274E+00  2.94700548E+00  2.95130707E+00
  2.95130707E+00  3.24964275E+00  3.31641776E+00  3.70906806E+00  2.35942137E+01
  2.46587214E+01
Alpha MO coefficients                      R   N=        3136
  3.98830265E-01  3.28143477E-01  4.01363797E-05  1.08783673E-12 -2.56021045E-13
  7.87929970E-03 -2.10497736E-03 -3.47623675E-12  2.23236652E-12 -2.77516774E-03
  7.57456220E-05  6.07005204E-13 -1.76186783E-13 -4.41260984E-04  1.55679054E-03
  7.15615165E-13 -1.25462090E-12 -5.24695369E-04 -2.40437078E-12 -6.72105677E-18
  9.08799038E-04  2.44384747E-12  3.98849290E-01  3.28159094E-01 -4.00986958E-05
  1.22465241E-12 -9.38496716E-13  7.87981047E-03  2.10483164E-03 -3.26164900E-12
  1.26376828E-12 -2.77566997E-03 -7.52108756E-05  6.68373122E-13 -5.39216164E-13
 -4.41888103E-04 -1.55661645E-03  2.99329713E-13  7.67818287E-13 -5.24801074E-04
 -2.55547473E-13  2.51914872E-18  9.08982123E-04 -1.85718347E-12  9.22373319E-05
 -3.33630258E-03  2.79551484E-03 -1.89428850E-03 -2.07966365E-12  1.64716113E-12
  9.22297091E-05 -3.33655373E-03  2.79539961E-03  1.89439685E-03 -1.80723079E-12
  3.23766534E-13  3.99062794E-01  3.27572692E-01 -7.75727311E-04  6.52458071E-13
 -1.04952724E-13  1.08666607E-02  2.88256141E-03 -1.78796534E-12  1.93244562E-12
 -1.06672016E-02 -1.13755510E-02 -5.46671374E-12  3.32956778E-12 -1.38800853E-02
 -3.82327701E-03 -2.37034471E-12  1.47844279E-12 -2.25281843E-03 -3.13174211E-12
  1.84440133E-17  3.90199599E-03  4.32331110E-12 -3.99043780E-01 -3.27557048E-01
 -7.75729362E-04 -7.52901426E-13  6.55975740E-13 -1.08662783E-02  2.88266904E-03
  1.30934723E-12  1.99607565E-13  1.06670766E-02 -1.13755520E-02  5.18782085E-12
 -1.94767574E-12  1.38800638E-02 -3.82335074E-03  2.24458939E-12 -9.18762258E-13
  2.25279179E-03 -8.60002010E-13 -6.13557925E-18 -3.90194984E-03  3.83013747E-12
 -1.95272896E-04 -5.52896836E-03 -2.34785480E-03 -2.38153893E-03 -4.53058114E-12
  4.08263234E-12  1.95274398E-04  5.52879944E-03  2.34798587E-03 -2.38144466E-03
  3.69181841E-12 -1.10599920E-13 -8.88622494E-02 -1.42763951E-01  5.04644379E-02
 -2.59784853E-11  2.07263249E-11  3.77663433E-01  5.56579620E-02 -4.10446399E-11
  3.31231886E-11  2.25513330E-01  7.07344258E-03 -1.62860126E-11  1.62247156E-11
 -6.95556672E-04 -1.59067638E-02 -8.36738339E-12  8.77583043E-12 -1.16769497E-02
 -1.51465549E-11 -2.27633497E-17  2.02250701E-02  1.77924483E-11 -8.88622119E-02
 -1.42763890E-01 -5.04645056E-02 -2.22321045E-11  3.90059757E-12  3.77663276E-01
 -5.56580357E-02 -3.41028383E-11  5.26657721E-12  2.25513232E-01 -7.07346772E-03
 -1.50956620E-11 -3.59267950E-13 -6.95496561E-04  1.59067475E-02  4.55934602E-13
 -4.79393212E-12 -1.16769398E-02  1.34294170E-12 -2.14143891E-17  2.02250531E-02
 -1.45931543E-11  5.53381700E-02  5.71713172E-02 -6.99815272E-03  3.72539178E-03
 -1.91324746E-12  1.18568438E-12  5.53380683E-02  5.71712308E-02 -6.99814900E-03
 -3.72538261E-03 -2.09818048E-12  9.22781505E-13 -6.25988131E-02 -1.02365484E-01
 -9.10946961E-02 -7.00111989E-11  6.71175996E-11  2.77146658E-01 -1.16771795E-01
 -8.39942350E-11  8.84321671E-11  2.34135354E-01 -4.65973350E-02 -4.11208694E-11
  3.61711673E-11 -2.37641220E-01 -6.74297117E-02 -1.26171353E-11  1.03399620E-11
 -8.72054189E-03 -2.18113854E-11  1.74249487E-17  1.51044216E-02  3.12210019E-11
  6.25988622E-02  1.02365567E-01 -9.10943436E-02  5.49527970E-11  4.45592331E-12
 -2.77146912E-01 -1.16771392E-01  6.28586874E-11  1.29281712E-11 -2.34135557E-01
 -4.65972185E-02  3.33083812E-11  2.93366626E-12  2.37641218E-01 -6.74297363E-02
  1.15322722E-11 -8.28959980E-12  8.72055320E-03 -8.46988001E-12  1.39315380E-17
 -1.51044412E-02  2.85632662E-11  1.31200413E-01  1.72456485E-01  2.53516642E-02
  1.79260184E-02  2.40476960E-11 -1.87809063E-11 -1.31200176E-01 -1.72456205E-01
 -2.53516022E-02  1.79259730E-02 -2.12061792E-11  4.00018804E-12 -3.73990230E-03
 -6.75904984E-03  1.84443421E-01  1.25616692E-10 -9.25604448E-11  2.31491589E-02
  2.36144970E-01  1.62685040E-10 -1.15335051E-10 -2.19642916E-02  1.10087090E-01
  8.06158448E-11 -6.06379160E-11 -6.92676766E-03  5.76181622E-03  2.01034214E-12
 -8.95616958E-12 -2.91957291E-03  9.18721499E-12 -8.56914014E-17  5.05684862E-03
 -1.82014282E-12 -3.73981175E-03 -6.75889809E-03 -1.84443535E-01  1.12072457E-10
 -2.71589406E-11  2.31487163E-02 -2.36145198E-01  1.47622720E-10 -4.20626769E-11
 -2.19647309E-02 -1.10087236E-01  6.88181104E-11 -1.37273556E-11 -6.92615190E-03
 -5.76200033E-03  6.18605404E-12  4.35113673E-12 -2.91956040E-03  9.00962448E-12
  7.70210406E-17  5.05682695E-03 -2.08344163E-12 -1.33952436E-01 -2.01488406E-01
 -4.10316515E-02 -2.44796102E-02 -3.61793072E-11  3.16268111E-11 -1.33952592E-01
 -2.01488674E-01 -4.10317152E-02  2.44796239E-02 -2.97913069E-11  1.90972899E-12
 -2.03946408E-11 -3.39894417E-11 -1.57397947E-10  1.83266534E-01  6.21584110E-03
  8.93904531E-11 -2.38830519E-10  2.90318036E-01  9.84670107E-03  2.78911066E-10
 -1.46827765E-10  2.38654529E-01  8.09443271E-03  2.73367718E-12 -5.35742008E-11
  2.54729474E-02  8.63964575E-04  1.93024262E-12  7.05533229E-04  5.62269681E-12
  4.51597726E-12  2.08017913E-02 -1.27962535E-11 -2.12526780E-11  1.50180547E-10
  1.83266533E-01  6.21584108E-03  5.56068121E-11  2.23523733E-10  2.90318030E-01
  9.84670088E-03  1.53863237E-10  1.99617876E-10  2.38654526E-01  8.09443262E-03
  6.08682159E-11  3.93926777E-11  2.54729537E-02  8.63964789E-04  1.43171031E-12
 -7.05533182E-04 -3.87129258E-12  4.47651646E-13 -2.08017899E-02 -8.84166211E-12
 -9.83503211E-13  5.71462361E-12 -2.77388969E-11  1.63569137E-02  5.54776554E-04
 -6.53029192E-13  2.62469629E-12 -1.50363629E-11  2.23048479E-11  1.63569003E-02
  5.54776102E-04  3.06065647E-11  5.19061665E-11  1.04190887E-10 -6.21584110E-03
  1.83266534E-01 -1.54238643E-10  1.74008116E-10 -9.84670107E-03  2.90318036E-01
 -1.08769697E-10  2.68718422E-10 -8.09443271E-03  2.38654529E-01  1.32909581E-10
  7.79950819E-11 -8.63964575E-04  2.54729474E-02  6.65549655E-12  2.08017913E-02
 -3.38738659E-12  6.50394605E-14 -7.05533229E-04 -1.24108017E-11 -2.13655279E-11
 -6.47915376E-11 -6.21584108E-03  1.83266533E-01  7.31359854E-11 -7.56546244E-11
 -9.84670088E-03  2.90318030E-01 -1.27642348E-10  7.25589531E-11 -8.09443262E-03
  2.38654526E-01 -1.67761752E-10  3.25870513E-11 -8.63964789E-04  2.54729537E-02
 -4.59472534E-12 -2.08017899E-02 -1.04951662E-12  6.43471547E-13  7.05533182E-04
  2.07101799E-11  5.89633654E-11  5.77322693E-11  2.91960594E-11 -5.54776554E-04
  1.63569137E-02 -1.56742481E-11 -5.93436131E-11 -5.28940596E-11  3.06812077E-12
 -5.54776102E-04  1.63569003E-02 -2.43325980E-10 -4.10469060E-10 -1.50465324E-10
  1.53678723E-01 -5.18242635E-03  1.25986612E-09 -4.17036146E-10  2.44207755E-01
 -8.23528903E-03  2.35721305E-09  2.02305829E-10  3.79570906E-01 -1.28000690E-02
  8.44291603E-08  2.71432692E-08  9.20981747E-01 -3.10577805E-02  6.67701408E-11
  1.09530460E-03  8.09134460E-12 -1.01729646E-10 -3.24799623E-02  2.48848229E-10
  4.20483335E-10 -1.30716671E-10 -1.53678721E-01  5.18242626E-03 -1.30563225E-09
 -4.02013152E-10 -2.44207755E-01  8.23528901E-03 -2.24381008E-09  3.15403364E-10
 -3.79570886E-01  1.28000683E-02 -8.37210809E-08  2.77983253E-08 -9.20981815E-01
  3.10577829E-02 -5.95620763E-11  1.09530464E-03  1.58168808E-12  9.26990349E-11
 -3.24799635E-02 -2.48048846E-10 -1.07938253E-09  1.29238372E-09  8.92579763E-11
  2.90927144E-02 -9.81078226E-04  2.08105351E-10  1.05341670E-09 -1.82408307E-09
  9.49705360E-11 -2.90927136E-02  9.81078200E-04  1.02654506E-10  1.72731566E-10
  1.07541443E-10  5.18242635E-03  1.53678723E-01 -5.11769066E-10  2.18313495E-10
  8.23528903E-03  2.44207755E-01 -1.07209273E-09  2.51142873E-10  1.28000690E-02
  3.79570906E-01 -3.72510789E-08 -1.06923325E-08  3.10577805E-02  9.20981747E-01
 -2.94629983E-11 -3.24799623E-02 -7.89735590E-12  6.86119573E-11 -1.09530460E-03
 -1.20941219E-10 -2.05550473E-10  2.07252372E-11 -5.18242626E-03 -1.53678721E-01
  6.54876036E-10  1.47805788E-10 -8.23528901E-03 -2.44207755E-01  7.84666668E-10
 -8.73443637E-11 -1.28000683E-02 -3.79570886E-01  3.47361113E-08 -1.29834892E-08
 -3.10577829E-02 -9.20981815E-01  1.16840483E-11 -3.24799635E-02  6.14128502E-12
 -1.74817544E-11 -1.09530464E-03  1.78508433E-10  5.62071260E-10  2.74279514E-10
 -3.21313425E-11  9.81078226E-04  2.90927144E-02 -2.72843507E-11 -4.99024239E-10
  1.49926353E-09 -4.10282027E-11 -9.81078200E-04 -2.90927136E-02 -2.47309137E-02
 -4.17604648E-02 -1.70909904E-02 -9.55274978E-10  5.15154426E-10  1.31254277E-01
 -5.18479547E-02 -1.54844838E-09  7.88789654E-10  3.82148218E-01  3.03940631E-01
 -2.18891413E-09  1.27575000E-09  1.46048582E+01  4.83249605E+00 -4.52439272E-09
  1.52183993E-09  4.99044720E-03 -9.53500906E-11  4.84900579E-17 -8.64370811E-03
  1.97187414E-10  2.47315699E-02  4.17615991E-02 -1.70923539E-02  9.49988648E-10
 -5.01742142E-10 -1.31258203E-01 -5.18508635E-02  1.53988183E-09 -7.18530373E-10
 -3.82149087E-01  3.03940829E-01  2.18836762E-09 -1.46855593E-09 -1.46048121E+01
  4.83254638E+00  4.58476222E-09 -1.52222140E-09 -4.99016961E-03 -1.01462820E-10
  1.00121770E-16  8.64322730E-03  1.98925640E-10 -4.90919887E-03 -5.75080003E-02
  5.03749196E-01  1.79722092E-02 -1.61232175E-10  7.21058267E-11  4.90802566E-03
  5.75114672E-02 -5.03780293E-01  1.79725465E-02  1.63812144E-10 -8.29764009E-11
 -1.57548464E-02 -2.72642059E-02 -3.06587075E-02  2.41810792E-11 -1.45476269E-10
  9.47043022E-02 -6.78932570E-02  7.98643431E-12 -1.99854948E-10  1.01483946E-02
  1.43157141E-02  1.56508005E-10 -4.75992533E-10 -1.12236447E+00  1.20482088E+00
  8.77318350E-10 -1.88971547E-09 -7.03983673E-03  1.29704328E-11  2.05668074E-16
  1.21933549E-02  1.25833751E-11 -1.57538447E-02 -2.72625125E-02  3.06580065E-02
 -4.94007022E-11  1.56563757E-10  9.46989464E-02  6.78910647E-02 -1.02838819E-10
  2.47713971E-10  1.01324853E-02 -1.43023596E-02 -5.81730174E-11  4.28544582E-10
 -1.12296125E+00 -1.20462282E+00  1.20574197E-10  1.38432441E-09 -7.04003039E-03
  3.28196336E-11 -1.04467668E-16  1.21936903E-02 -2.39998743E-11  2.96495608E-02
 -7.91529814E-02  7.67351945E-01  7.35001980E-03  1.75355498E-11 -3.86536673E-11
  2.96497242E-02 -7.91507530E-02  7.67330206E-01 -7.34930751E-03  5.85871461E-13
  2.83865736E-11  4.55012174E-12  8.59274647E-12  1.44458968E-11 -6.93580669E-02
 -1.50179845E-03 -4.62183162E-11  1.48533271E-11 -5.55905401E-02 -1.20369253E-03
  2.84493918E-10  9.47758413E-11 -3.00279353E-01 -6.50189788E-03 -7.58136252E-11
 -9.10692081E-10  6.50637446E-01  1.40881422E-02 -2.20211104E-12 -2.24231621E-04
 -3.04787352E-12  2.46989204E-13 -1.03557650E-02  2.87988183E-12  4.83310133E-12
 -1.35299390E-11 -6.93580958E-02 -1.50179908E-03 -2.23707507E-11 -1.12456237E-11
 -5.55905807E-02 -1.20369341E-03  2.64280012E-11  1.86686151E-10 -3.00279440E-01
 -6.50189976E-03  9.14160007E-10  6.34501811E-10  6.50637477E-01  1.40881429E-02
 -2.24233327E-12  2.24231569E-04  9.90436321E-13  1.90389801E-12  1.03557625E-02
  3.46113491E-12 -7.40362376E-11 -2.13552685E-10  9.00507494E-12  4.66161661E-03
  1.00937193E-04  3.01075674E-12 -1.13984676E-10 -3.65021718E-10 -2.58559150E-12
  4.66162343E-03  1.00937341E-04  5.04137862E-12  9.43921787E-12 -7.63577254E-13
  1.50179845E-03 -6.93580669E-02 -1.67332376E-11  1.57560389E-12  1.20369253E-03
 -5.55905401E-02  2.19289856E-10  7.59293428E-10  6.50189788E-03 -3.00279353E-01
  1.12268628E-08  3.52204676E-09 -1.40881422E-02  6.50637446E-01  9.63208253E-12
 -1.03557650E-02  2.19616281E-12 -2.20552140E-11  2.24231621E-04 -8.26093229E-12
 -1.58362514E-11  2.07339562E-11  1.50179908E-03 -6.93580958E-02  6.01779387E-11
  1.05715036E-11  1.20369341E-03 -5.55905807E-02 -4.17957345E-10  7.51858333E-10
  6.50189976E-03 -3.00279440E-01 -1.16249937E-08  2.55869920E-09 -1.40881429E-02
  6.50637477E-01 -6.81996660E-12  1.03557625E-02  1.35382516E-12  1.36425534E-11
 -2.24231569E-04 -1.93224251E-11  2.68719822E-10  3.29156810E-10  7.75407070E-12
 -1.00937193E-04  4.66161661E-03  1.33157029E-11 -1.74445373E-10 -6.61505282E-11
  8.51919305E-12 -1.00937341E-04  4.66162343E-03  8.20218833E-03  1.25755531E-02
 -6.19554196E-02 -4.43609655E-11  4.71587859E-11 -1.12478148E-02 -3.46422619E-02
 -1.71197656E-11  3.88168301E-11 -1.98534333E-01 -2.34473523E-01 -2.23180700E-10
  2.25475836E-10  4.27919340E-01  1.09317288E+00 -1.57227425E-10  6.34707688E-10
  2.15652110E-02  3.01026642E-11  1.55739595E-16 -3.73520411E-02 -4.00071762E-11
  8.20213440E-03  1.25754591E-02  6.19554165E-02 -3.13302566E-11 -2.75109917E-13
 -1.12475106E-02  3.46423165E-02 -5.94494471E-13 -2.07096314E-11 -1.98534118E-01
  2.34474575E-01 -1.63047116E-10 -1.76520254E-13  4.27912405E-01 -1.09316942E+00
  1.10080041E-10 -6.82569983E-10  2.15652272E-02 -1.03982802E-11  9.44688368E-17
 -3.73520692E-02  3.60776109E-11 -3.17723406E-02 -4.74783344E-02 -4.35316080E-01
  3.20206223E-02  2.03505334E-11 -1.02618452E-11 -3.17725217E-02 -4.74788300E-02
 -4.35318452E-01 -3.20205941E-02  2.13858112E-11 -1.07080155E-11  2.82553091E-10
  4.76931905E-10 -5.39663602E-11 -1.37213110E-01  2.95046695E-03 -1.48543199E-09
 -1.48559633E-10 -1.55863520E-01  3.35150311E-03  1.07095433E-09  7.54683040E-09
 -6.89115512E-01  1.48179175E-02 -7.75762611E-08 -1.50036763E-08  2.06920006E+00
 -4.44936085E-02 -2.06861681E-10 -3.61658760E-04 -9.26746776E-12  3.43628774E-10
  1.68191422E-02 -2.78132878E-10 -4.69259769E-10 -6.88462272E-11  1.37213111E-01
 -2.95046697E-03  1.45929946E-09 -1.65811263E-10  1.55863518E-01 -3.35150307E-03
 -1.10708631E-09  7.54937045E-09  6.89115501E-01 -1.48179173E-02  7.76654092E-08
 -1.50081073E-08 -2.06920002E+00  4.44936076E-02  2.03207397E-10 -3.61658661E-04
 -1.24261225E-12 -3.40895647E-10  1.68191376E-02  6.62127591E-10  1.74346438E-09
  1.45585398E-08 -9.74210912E-11 -6.81235103E-03  1.46484666E-04 -6.53463381E-10
 -1.76248895E-09 -1.45905114E-08 -9.57500288E-11  6.81233948E-03 -1.46484418E-04
 -1.21056350E-10 -2.06496085E-10 -6.77708420E-11 -2.95046695E-03 -1.37213110E-01
  5.16624653E-10 -5.56251067E-13 -3.35150311E-03 -1.55863520E-01  1.48320938E-09
 -2.88964348E-09 -1.48179175E-02 -6.89115512E-01 -3.25028835E-08 -1.00390567E-08
  4.44936085E-02  2.06920006E+00 -1.24550647E-11  1.68191422E-02  7.03885763E-12