 Entering Gaussian System, Link 0=g16
 Initial command:
 /home/szhao/Apps/g16/l1.exe "/home/szhao/tmp/Gau-63982.inp" -scrdir="/home/szhao/tmp/"
 Default is to use a total of  16 processors:
                               16 via shared-memory
                                1 via Linda
 Entering Link 1 = /home/szhao/Apps/g16/l1.exe PID=     63983.
  
 Copyright (c) 1988,1990,1992,1993,1995,1998,2003,2009,2016,
            Gaussian, Inc.  All Rights Reserved.
  
 This is part of the Gaussian(R) 16 program.  It is based on
 the Gaussian(R) 09 system (copyright 2009, Gaussian, Inc.),
 the Gaussian(R) 03 system (copyright 2003, Gaussian, Inc.),
 the Gaussian(R) 98 system (copyright 1998, Gaussian, Inc.),
 the Gaussian(R) 94 system (copyright 1995, Gaussian, Inc.),
 the Gaussian 92(TM) system (copyright 1992, Gaussian, Inc.),
 the Gaussian 90(TM) system (copyright 1990, Gaussian, Inc.),
 the Gaussian 88(TM) system (copyright 1988, Gaussian, Inc.),
 the Gaussian 86(TM) system (copyright 1986, Carnegie Mellon
 University), and the Gaussian 82(TM) system (copyright 1983,
 Carnegie Mellon University). Gaussian is a federally registered
 trademark of Gaussian, Inc.
  
 This software contains proprietary and confidential information,
 including trade secrets, belonging to Gaussian, Inc.
  
 This software is provided under written license and may be
 used, copied, transmitted, or stored only in accord with that
 written license.
  
 The following legend is applicable only to US Government
 contracts under FAR:
  
                    RESTRICTED RIGHTS LEGEND
  
 Use, reproduction and disclosure by the US Government is
 subject to restrictions as set forth in subparagraphs (a)
 and (c) of the Commercial Computer Software - Restricted
 Rights clause in FAR 52.227-19.
  
 Gaussian, Inc.
 340 Quinnipiac St., Bldg. 40, Wallingford CT 06492
  
  
 ---------------------------------------------------------------
 Warning -- This program may not be used in any manner that
 competes with the business of Gaussian, Inc. or will provide
 assistance to any competitor of Gaussian, Inc.  The licensee
 of this program is prohibited from giving any competitor of
 Gaussian, Inc. access to this program.  By using this program,
 the user acknowledges that Gaussian, Inc. is engaged in the
 business of creating and licensing software in the field of
 computational chemistry and represents and warrants to the
 licensee that it is not a competitor of Gaussian, Inc. and that
 it will not use this program in any manner prohibited above.
 ---------------------------------------------------------------
  

 Cite this work as:
 Gaussian 16, Revision A.03,
 M. J. Frisch, G. W. Trucks, H. B. Schlegel, G. E. Scuseria, 
 M. A. Robb, J. R. Cheeseman, G. Scalmani, V. Barone, 
 G. A. Petersson, H. Nakatsuji, X. Li, M. Caricato, A. V. Marenich, 
 J. Bloino, B. G. Janesko, R. Gomperts, B. Mennucci, H. P. Hratchian, 
 J. V. Ortiz, A. F. Izmaylov, J. L. Sonnenberg, D. Williams-Young, 
 F. Ding, F. Lipparini, F. Egidi, J. Goings, B. Peng, A. Petrone, 
 T. Henderson, D. Ranasinghe, V. G. Zakrzewski, J. Gao, N. Rega, 
 G. Zheng, W. Liang, M. Hada, M. Ehara, K. Toyota, R. Fukuda, 
 J. Hasegawa, M. Ishida, T. Nakajima, Y. Honda, O. Kitao, H. Nakai, 
 T. Vreven, K. Throssell, J. A. Montgomery, Jr., J. E. Peralta, 
 F. Ogliaro, M. J. Bearpark, J. J. Heyd, E. N. Brothers, K. N. Kudin, 
 V. N. Staroverov, T. A. Keith, R. Kobayashi, J. Normand, 
 K. Raghavachari, A. P. Rendell, J. C. Burant, S. S. Iyengar, 
 J. Tomasi, M. Cossi, J. M. Millam, M. Klene, C. Adamo, R. Cammi, 
 J. W. Ochterski, R. L. Martin, K. Morokuma, O. Farkas, 
 J. B. Foresman, and D. J. Fox, Gaussian, Inc., Wallingford CT, 2016.
 
 ******************************************
 Gaussian 16:  ES64L-G16RevA.03 25-Dec-2016
                21-Apr-2025 
 ******************************************
 %chk=opt.chk
 %mem=4GB
 %nprocshared=8
 Will use up to    8 processors via shared memory.
 --------------------------------------------
 #p opt UM062X/6-311+G** nosymm int=superfine
 --------------------------------------------
 1/18=20,19=15,26=5,38=1/1,3;
 2/9=110,12=2,15=1,17=6,18=5,40=1/2;
 3/5=4,6=6,7=111,11=2,25=1,30=1,71=1,74=-55,75=-7,116=2/1,2,3;
 4//1;
 5/5=2,38=5/2;
 6/7=2,8=2,9=2,10=2,28=1/1;
 7/30=1/1,2,3,16;
 1/18=20,19=15,26=5/3(2);
 2/9=110,15=1/2;
 99//99;
 2/9=110,15=1/2;
 3/5=4,6=6,7=111,11=2,25=1,30=1,71=1,74=-55,75=-7,116=2/1,2,3;
 4/5=5,16=3,69=1/1;
 5/5=2,38=5/2;
 7/30=1/1,2,3,16;
 1/18=20,19=15,26=5/3(-5);
 2/9=110,15=1/2;
 6/7=2,8=2,9=2,10=2,19=2,28=1/1;
 99/9=1/99;
 Leave Link    1 at Mon Apr 21 18:09:10 2025, MaxMem=   536870912 cpu:               2.1 elap:               0.3
 (Enter /home/szhao/Apps/g16/l101.exe)
 -------------------
 Title Card Required
 -------------------
 Symbolic Z-matrix:
 Charge =  0 Multiplicity = 1
 C                    -1   -0.93054   0.        0. 
 N                    -1    0.93054   0.        0. 
 H                    0     1.29222  -0.946     0. 
 H                    0    -1.28758   1.03082  -0.01934 
 H                    0     1.29222   0.45736   0.82809 
 H                    0    -1.28758  -0.48144  -0.91169 
 H                    0    -1.39434  -0.50545   0.85659 
 
 Add virtual bond connecting atoms N2         and C1         Dist= 3.52D+00.
 ITRead=  2  2  0  0  0  0  0
 MicOpt= -2 -2 -1 -1 -1 -1 -1
 NAtoms=      7 NQM=        5 NQMF=       2 NMMI=      0 NMMIF=      0
                NMic=       0 NMicF=      0.
                    Isotopes and Nuclear Properties:
 (Nuclear quadrupole moments (NQMom) in fm**2, nuclear magnetic moments (NMagM)
  in nuclear magnetons)

  Atom         1           2           3           4           5           6           7
 IAtWgt=          12          14           1           1           1           1           1
 AtmWgt=  12.0000000  14.0030740   1.0078250   1.0078250   1.0078250   1.0078250   1.0078250
 NucSpn=           0           2           1           1           1           1           1
 AtZEff=  -0.0000000  -0.0000000  -0.0000000  -0.0000000  -0.0000000  -0.0000000  -0.0000000
 NQMom=    0.0000000   2.0440000   0.0000000   0.0000000   0.0000000   0.0000000   0.0000000
 NMagM=    0.0000000   0.4037610   2.7928460   2.7928460   2.7928460   2.7928460   2.7928460
 AtZNuc=   6.0000000   7.0000000   1.0000000   1.0000000   1.0000000   1.0000000   1.0000000
 Leave Link  101 at Mon Apr 21 18:09:11 2025, MaxMem=   536870912 cpu:               3.4 elap:               0.4
 (Enter /home/szhao/Apps/g16/l103.exe)

 GradGradGradGradGradGradGradGradGradGradGradGradGradGradGradGradGradGrad
 Berny optimization.
 Initialization pass.
                           ----------------------------
                           !    Initial Parameters    !
                           ! (Angstroms and Degrees)  !
 --------------------------                            --------------------------
 ! Name  Definition              Value          Derivative Info.                !
 --------------------------------------------------------------------------------
 ! X1    R(1,-1)                -0.9305         Frozen                          !
 ! Y1    R(1,-2)                 0.0            Frozen                          !
 ! Z1    R(1,-3)                 0.0            Frozen                          !
 ! X2    R(2,-1)                 0.9305         Frozen                          !
 ! Y2    R(2,-2)                 0.0            Frozen                          !
 ! Z2    R(2,-3)                 0.0            Frozen                          !
 ! R1    R(1,4)                  1.0911         estimate D2E/DX2                !
 ! R2    R(1,6)                  1.0911         estimate D2E/DX2                !
 ! R3    R(1,7)                  1.0974         estimate D2E/DX2                !
 ! R4    R(2,3)                  1.0128         estimate D2E/DX2                !
 ! R5    R(2,5)                  1.0128         estimate D2E/DX2                !
 ! A1    A(2,1,4)              109.1011         estimate D2E/DX2                !
 ! A2    A(2,1,6)              109.1011         estimate D2E/DX2                !
 ! A3    A(2,1,7)              115.0002         estimate D2E/DX2                !
 ! A4    A(4,1,6)              107.1573         estimate D2E/DX2                !
 ! A5    A(4,1,7)              108.1005         estimate D2E/DX2                !
 ! A6    A(6,1,7)              108.1005         estimate D2E/DX2                !
 ! A7    A(1,2,3)              110.9228         estimate D2E/DX2                !
 ! A8    A(1,2,5)              110.923          estimate D2E/DX2                !
 ! A9    A(3,2,5)              107.1144         estimate D2E/DX2                !
 ! D1    D(4,1,2,3)           -178.9252         estimate D2E/DX2                !
 ! D2    D(4,1,2,5)             62.1629         estimate D2E/DX2                !
 ! D3    D(6,1,2,3)            -62.1623         estimate D2E/DX2                !
 ! D4    D(6,1,2,5)            178.9258         estimate D2E/DX2                !
 ! D5    D(7,1,2,3)             59.4563         estimate D2E/DX2                !
 ! D6    D(7,1,2,5)            -59.4556         estimate D2E/DX2                !
 --------------------------------------------------------------------------------
 Trust Radius=3.00D-01 FncErr=1.00D-07 GrdErr=1.00D-07 EigMax=2.50D+02 EigMin=1.00D-04
 Number of steps in this run=     36 maximum allowed number of steps=    100.
 GradGradGradGradGradGradGradGradGradGradGradGradGradGradGradGradGradGrad

 Leave Link  103 at Mon Apr 21 18:09:11 2025, MaxMem=   536870912 cpu:               0.2 elap:               0.1
 (Enter /home/szhao/Apps/g16/l202.exe)
                          Input orientation:                          
 ---------------------------------------------------------------------
 Center     Atomic      Atomic             Coordinates (Angstroms)
 Number     Number       Type             X           Y           Z
 ---------------------------------------------------------------------
      1          6           0       -0.930542    0.000000    0.000000
      2          7           0        0.930542    0.000000    0.000000
      3          1           0        1.292216   -0.945999    0.000000
      4          1           0       -1.287579    1.030817   -0.019339
      5          1           0        1.292218    0.457356    0.828092
      6          1           0       -1.287580   -0.481444   -0.911685
      7          1           0       -1.394338   -0.505453    0.856593
 ---------------------------------------------------------------------
                    Distance matrix (angstroms):
                    1          2          3          4          5
     1  C    0.000000
     2  N    1.861084   0.000000
     3  H    2.415692   1.012779   0.000000
     4  H    1.091070   2.446022   3.250157   0.000000
     5  H    2.415694   1.012779   1.629460   2.775312   0.000000
     6  H    1.091070   2.446022   2.775307   1.755908   3.250158
     7  H    1.097425   2.528696   2.854016   1.771660   2.854014
                    6          7
     6  H    0.000000
     7  H    1.771661   0.000000
 Symmetry turned off by external request.
 Stoichiometry    CH5N
 Framework group  C1[X(CH5N)]
 Deg. of freedom    15
 Full point group                 C1      NOp   1
 Rotational constants (GHZ):         103.8741196          15.2209988          14.8115056
 Leave Link  202 at Mon Apr 21 18:09:11 2025, MaxMem=   536870912 cpu:               0.3 elap:               0.1
 (Enter /home/szhao/Apps/g16/l301.exe)
 Standard basis: 6-311+G(d,p) (5D, 7F)
 Ernie: Thresh=  0.10000D-02 Tol=  0.10000D-05 Strict=F.
    74 basis functions,   112 primitive gaussians,    76 cartesian basis functions
     9 alpha electrons        9 beta electrons
       nuclear repulsion energy        37.3941704659 Hartrees.
 IExCor= 4336 DFT=T Ex+Corr=M062X ExCW=0 ScaHFX=  0.540000
 ScaDFX=  1.000000  1.000000  1.000000  1.000000 ScalE2=  1.000000  1.000000
 IRadAn=      7 IRanWt=     -1 IRanGd=            0 ICorTp=0 IEmpDi=  4
 NAtoms=    7 NActive=    7 NUniq=    7 SFac= 1.00D+00 NAtFMM=   60 NAOKFM=F Big=F
 Integral buffers will be    131072 words long.
 Raffenetti 2 integral format.
 Two-electron integral symmetry is turned off.
 Leave Link  301 at Mon Apr 21 18:09:12 2025, MaxMem=   536870912 cpu:               0.7 elap:               0.2
 (Enter /home/szhao/Apps/g16/l302.exe)
 NPDir=0 NMtPBC=     1 NCelOv=     1 NCel=       1 NClECP=     1 NCelD=      1
         NCelK=      1 NCelE2=     1 NClLst=     1 CellRange=     0.0.
 One-electron integrals computed using PRISM.
 NBasis=    74 RedAO= T EigKep=  2.34D-03  NBF=    74
 NBsUse=    74 1.00D-06 EigRej= -1.00D+00 NBFU=    74
 Precomputing XC quadrature grid using
 IXCGrd= 4 IRadAn=           7 IRanWt=          -1 IRanGd=           0 AccXCQ= 0.00D+00.
 Generated NRdTot=       0 NPtTot=           0 NUsed=           0 NTot=          32
 NSgBfM=    76    76    76    76    76 MxSgAt=     7 MxSgA2=     7.
 Leave Link  302 at Mon Apr 21 18:09:12 2025, MaxMem=   536870912 cpu:               1.7 elap:               0.2
 (Enter /home/szhao/Apps/g16/l303.exe)
 DipDrv:  MaxL=1.
 Leave Link  303 at Mon Apr 21 18:09:12 2025, MaxMem=   536870912 cpu:               0.6 elap:               0.2
 (Enter /home/szhao/Apps/g16/l401.exe)
 ExpMin= 4.38D-02 ExpMax= 6.29D+03 ExpMxC= 9.49D+02 IAcc=3 IRadAn=         7 AccDes= 0.00D+00
 Harris functional with IExCor= 1009 and IRadAn=       7 diagonalized for initial guess.
 HarFok:  IExCor= 1009 AccDes= 0.00D+00 IRadAn=         7 IDoV= 1 UseB2=F ITyADJ=14
 ICtDFT=  3500011 ScaDFX=  1.000000  1.000000  1.000000  1.000000
 FoFCou: FMM=F IPFlag=           0 FMFlag=      100000 FMFlg1=           0
         NFxFlg=           0 DoJE=T BraDBF=F KetDBF=T FulRan=T
         wScrn=  0.000000 ICntrl=       500 IOpCl=  0 I1Cent=   200000004 NGrid=           0
         NMat0=    1 NMatS0=      1 NMatT0=    0 NMatD0=    1 NMtDS0=    0 NMtDT0=    0
 Symmetry not used in FoFCou.
 Harris En= -95.7674697573127    
 JPrj=0 DoOrth=F DoCkMO=F.
 Initial guess <Sx>= 0.0000 <Sy>= 0.0000 <Sz>= 0.0000 <S**2>=-0.0000 S=-0.0000
 Leave Link  401 at Mon Apr 21 18:09:13 2025, MaxMem=   536870912 cpu:               3.5 elap:               0.5
 (Enter /home/szhao/Apps/g16/l502.exe)
 Keep R1 and R2 ints in memory in canonical form, NReq=14944651.
 FoFCou: FMM=F IPFlag=           0 FMFlag=           0 FMFlg1=           0
         NFxFlg=           0 DoJE=F BraDBF=F KetDBF=F FulRan=T
         wScrn=  0.000000 ICntrl=       600 IOpCl=  0 I1Cent=           0 NGrid=           0
         NMat0=    1 NMatS0=   2775 NMatT0=    0 NMatD0=    1 NMtDS0=    0 NMtDT0=    0
 Symmetry not used in FoFCou.
 Two-electron integral symmetry not used.
 UHF open shell SCF:
 Using DIIS extrapolation, IDIIS=  1040.
 NGot=   536870912 LenX=   529154583 LenY=   529148366
 Requested convergence on RMS density matrix=1.00D-08 within 128 cycles.
 Requested convergence on MAX density matrix=1.00D-06.
 Requested convergence on             energy=1.00D-06.
 No special actions if energy rises.

 Cycle   1  Pass 1  IDiag  1:
 E= -95.7070069837434    
 DIIS: error= 3.93D-02 at cycle   1 NSaved=   1.
 NSaved= 1 IEnMin= 1 EnMin= -95.7070069837434     IErMin= 1 ErrMin= 3.93D-02
 ErrMax= 3.93D-02  0.00D+00 EMaxC= 1.00D-01 BMatC= 3.76D-01 BMatP= 3.76D-01
 IDIUse=3 WtCom= 6.07D-01 WtEn= 3.93D-01
 Coeff-Com:  0.100D+01
 Coeff-En:   0.100D+01
 Coeff:      0.100D+01
 Gap=     0.362 Goal=   None    Shift=    0.000
 Gap=     0.362 Goal=   None    Shift=    0.000
 GapD=    0.362 DampG=1.000 DampE=0.500 DampFc=0.5000 IDamp=-1.
 Damping current iteration by 5.00D-01
 RMSDP=5.06D-03 MaxDP=8.12D-02              OVMax= 1.51D-01

 Cycle   2  Pass 1  IDiag  1:
 E= -95.7441822802958     Delta-E=       -0.037175296552 Rises=F Damp=T
 DIIS: error= 1.19D-02 at cycle   2 NSaved=   2.
 NSaved= 2 IEnMin= 2 EnMin= -95.7441822802958     IErMin= 2 ErrMin= 1.19D-02
 ErrMax= 1.19D-02  0.00D+00 EMaxC= 1.00D-01 BMatC= 2.47D-02 BMatP= 3.76D-01
 IDIUse=3 WtCom= 8.81D-01 WtEn= 1.19D-01
 Coeff-Com: -0.665D-01 0.107D+01
 Coeff-En:   0.000D+00 0.100D+01
 Coeff:     -0.586D-01 0.106D+01
 Gap=     0.338 Goal=   None    Shift=    0.000
 Gap=     0.338 Goal=   None    Shift=    0.000
 RMSDP=8.84D-04 MaxDP=1.38D-02 DE=-3.72D-02 OVMax= 8.86D-02

 Cycle   3  Pass 1  IDiag  1:
 E= -95.7800869929233     Delta-E=       -0.035904712628 Rises=F Damp=F
 DIIS: error= 8.81D-03 at cycle   3 NSaved=   3.
 NSaved= 3 IEnMin= 3 EnMin= -95.7800869929233     IErMin= 3 ErrMin= 8.81D-03
 ErrMax= 8.81D-03  0.00D+00 EMaxC= 1.00D-01 BMatC= 8.88D-03 BMatP= 2.47D-02
 IDIUse=3 WtCom= 9.12D-01 WtEn= 8.81D-02
 Coeff-Com: -0.794D-01 0.389D+00 0.690D+00
 Coeff-En:   0.000D+00 0.000D+00 0.100D+01
 Coeff:     -0.724D-01 0.355D+00 0.717D+00
 Gap=     0.324 Goal=   None    Shift=    0.000
 Gap=     0.324 Goal=   None    Shift=    0.000
 RMSDP=4.88D-04 MaxDP=8.95D-03 DE=-3.59D-02 OVMax= 2.60D-02

 Cycle   4  Pass 1  IDiag  1:
 E= -95.7814440097927     Delta-E=       -0.001357016869 Rises=F Damp=F
 DIIS: error= 4.84D-03 at cycle   4 NSaved=   4.
 NSaved= 4 IEnMin= 4 EnMin= -95.7814440097927     IErMin= 4 ErrMin= 4.84D-03
 ErrMax= 4.84D-03  0.00D+00 EMaxC= 1.00D-01 BMatC= 2.69D-03 BMatP= 8.88D-03
 IDIUse=3 WtCom= 9.52D-01 WtEn= 4.84D-02
 Coeff-Com: -0.272D-01 0.826D-01 0.391D+00 0.553D+00
 Coeff-En:   0.000D+00 0.000D+00 0.244D+00 0.756D+00
 Coeff:     -0.259D-01 0.786D-01 0.384D+00 0.563D+00
 Gap=     0.328 Goal=   None    Shift=    0.000
 Gap=     0.328 Goal=   None    Shift=    0.000
 RMSDP=2.03D-04 MaxDP=4.63D-03 DE=-1.36D-03 OVMax= 9.80D-03

 Cycle   5  Pass 1  IDiag  1:
 E= -95.7820685321539     Delta-E=       -0.000624522361 Rises=F Damp=F
 DIIS: error= 3.02D-04 at cycle   5 NSaved=   5.
 NSaved= 5 IEnMin= 5 EnMin= -95.7820685321539     IErMin= 5 ErrMin= 3.02D-04
 ErrMax= 3.02D-04  0.00D+00 EMaxC= 1.00D-01 BMatC= 2.24D-05 BMatP= 2.69D-03
 IDIUse=3 WtCom= 9.97D-01 WtEn= 3.02D-03
 Coeff-Com: -0.331D-02 0.593D-02 0.808D-01 0.164D+00 0.753D+00
 Coeff-En:   0.000D+00 0.000D+00 0.000D+00 0.000D+00 0.100D+01
 Coeff:     -0.330D-02 0.591D-02 0.806D-01 0.163D+00 0.753D+00
 Gap=     0.328 Goal=   None    Shift=    0.000
 Gap=     0.328 Goal=   None    Shift=    0.000
 RMSDP=2.35D-05 MaxDP=3.97D-04 DE=-6.25D-04 OVMax= 7.76D-04

 Cycle   6  Pass 1  IDiag  1:
 E= -95.7820737457125     Delta-E=       -0.000005213559 Rises=F Damp=F
 DIIS: error= 2.27D-05 at cycle   6 NSaved=   6.
 NSaved= 6 IEnMin= 6 EnMin= -95.7820737457125     IErMin= 6 ErrMin= 2.27D-05
 ErrMax= 2.27D-05  0.00D+00 EMaxC= 1.00D-01 BMatC= 1.24D-07 BMatP= 2.24D-05
 IDIUse=1 WtCom= 1.00D+00 WtEn= 0.00D+00
 Coeff-Com:  0.104D-02-0.233D-02-0.136D-01-0.263D-01-0.673D-01 0.111D+01
 Coeff:      0.104D-02-0.233D-02-0.136D-01-0.263D-01-0.673D-01 0.111D+01
 Gap=     0.328 Goal=   None    Shift=    0.000
 Gap=     0.328 Goal=   None    Shift=    0.000
 RMSDP=6.59D-06 MaxDP=8.75D-05 DE=-5.21D-06 OVMax= 1.60D-04

 Cycle   7  Pass 1  IDiag  1:
 E= -95.7820738009086     Delta-E=       -0.000000055196 Rises=F Damp=F
 DIIS: error= 2.77D-06 at cycle   7 NSaved=   7.
 NSaved= 7 IEnMin= 7 EnMin= -95.7820738009086     IErMin= 7 ErrMin= 2.77D-06
 ErrMax= 2.77D-06  0.00D+00 EMaxC= 1.00D-01 BMatC= 2.01D-09 BMatP= 1.24D-07
 IDIUse=1 WtCom= 1.00D+00 WtEn= 0.00D+00
 Coeff-Com: -0.934D-04 0.191D-03 0.197D-03 0.323D-03-0.388D-02-0.115D+00
 Coeff-Com:  0.112D+01
 Coeff:     -0.934D-04 0.191D-03 0.197D-03 0.323D-03-0.388D-02-0.115D+00
 Coeff:      0.112D+01
 Gap=     0.328 Goal=   None    Shift=    0.000
 Gap=     0.328 Goal=   None    Shift=    0.000
 RMSDP=1.19D-06 MaxDP=1.96D-05 DE=-5.52D-08 OVMax= 4.04D-05

 Cycle   8  Pass 1  IDiag  1:
 E= -95.7820738027444     Delta-E=       -0.000000001836 Rises=F Damp=F
 DIIS: error= 8.00D-07 at cycle   8 NSaved=   8.
 NSaved= 8 IEnMin= 8 EnMin= -95.7820738027444     IErMin= 8 ErrMin= 8.00D-07
 ErrMax= 8.00D-07  0.00D+00 EMaxC= 1.00D-01 BMatC= 1.87D-10 BMatP= 2.01D-09
 IDIUse=1 WtCom= 1.00D+00 WtEn= 0.00D+00
 Coeff-Com: -0.480D-04 0.105D-03 0.513D-03 0.856D-03 0.243D-02-0.514D-01
 Coeff-Com:  0.733D-01 0.974D+00
 Coeff:     -0.480D-04 0.105D-03 0.513D-03 0.856D-03 0.243D-02-0.514D-01
 Coeff:      0.733D-01 0.974D+00
 Gap=     0.328 Goal=   None    Shift=    0.000
 Gap=     0.328 Goal=   None    Shift=    0.000
 RMSDP=2.73D-07 MaxDP=4.23D-06 DE=-1.84D-09 OVMax= 9.47D-06

 Cycle   9  Pass 1  IDiag  1:
 E= -95.7820738028636     Delta-E=       -0.000000000119 Rises=F Damp=F
 DIIS: error= 2.68D-07 at cycle   9 NSaved=   9.
 NSaved= 9 IEnMin= 9 EnMin= -95.7820738028636     IErMin= 9 ErrMin= 2.68D-07
 ErrMax= 2.68D-07  0.00D+00 EMaxC= 1.00D-01 BMatC= 1.27D-11 BMatP= 1.87D-10
 IDIUse=1 WtCom= 1.00D+00 WtEn= 0.00D+00
 Coeff-Com:  0.113D-04-0.227D-04-0.746D-04-0.154D-03-0.415D-04 0.108D-01
 Coeff-Com: -0.648D-01-0.195D+00 0.125D+01
 Coeff:      0.113D-04-0.227D-04-0.746D-04-0.154D-03-0.415D-04 0.108D-01
 Coeff:     -0.648D-01-0.195D+00 0.125D+01
 Gap=     0.328 Goal=   None    Shift=    0.000
 Gap=     0.328 Goal=   None    Shift=    0.000
 RMSDP=8.95D-08 MaxDP=1.18D-06 DE=-1.19D-10 OVMax= 3.92D-06

 Cycle  10  Pass 1  IDiag  1:
 E= -95.7820738028757     Delta-E=       -0.000000000012 Rises=F Damp=F
 DIIS: error= 5.47D-08 at cycle  10 NSaved=  10.
 NSaved=10 IEnMin=10 EnMin= -95.7820738028757     IErMin=10 ErrMin= 5.47D-08
 ErrMax= 5.47D-08  0.00D+00 EMaxC= 1.00D-01 BMatC= 3.92D-13 BMatP= 1.27D-11
 IDIUse=1 WtCom= 1.00D+00 WtEn= 0.00D+00
 Coeff-Com:  0.115D-05-0.293D-05-0.118D-04-0.143D-04-0.573D-04 0.116D-02
 Coeff-Com:  0.697D-02-0.301D-01-0.105D+00 0.113D+01
 Coeff:      0.115D-05-0.293D-05-0.118D-04-0.143D-04-0.573D-04 0.116D-02
 Coeff:      0.697D-02-0.301D-01-0.105D+00 0.113D+01
 Gap=     0.328 Goal=   None    Shift=    0.000
 Gap=     0.328 Goal=   None    Shift=    0.000
 RMSDP=1.24D-08 MaxDP=1.09D-07 DE=-1.21D-11 OVMax= 6.02D-07

 Cycle  11  Pass 1  IDiag  1:
 E= -95.7820738028764     Delta-E=       -0.000000000001 Rises=F Damp=F
 DIIS: error= 1.14D-08 at cycle  11 NSaved=  11.
 NSaved=11 IEnMin=11 EnMin= -95.7820738028764     IErMin=11 ErrMin= 1.14D-08
 ErrMax= 1.14D-08  0.00D+00 EMaxC= 1.00D-01 BMatC= 2.82D-14 BMatP= 3.92D-13
 IDIUse=1 WtCom= 1.00D+00 WtEn= 0.00D+00
 Coeff-Com: -0.569D-06 0.100D-05 0.289D-05 0.801D-05 0.719D-06-0.579D-03
 Coeff-Com:  0.391D-02 0.595D-02-0.837D-01 0.711D-01 0.100D+01
 Coeff:     -0.569D-06 0.100D-05 0.289D-05 0.801D-05 0.719D-06-0.579D-03
 Coeff:      0.391D-02 0.595D-02-0.837D-01 0.711D-01 0.100D+01
 Gap=     0.328 Goal=   None    Shift=    0.000
 Gap=     0.328 Goal=   None    Shift=    0.000
 RMSDP=2.81D-09 MaxDP=2.53D-08 DE=-6.82D-13 OVMax= 1.44D-07

 SCF Done:  E(UM062X) =  -95.7820738029     A.U. after   11 cycles
            NFock= 11  Conv=0.28D-08     -V/T= 2.0078
 <Sx>= 0.0000 <Sy>= 0.0000 <Sz>= 0.0000 <S**2>=-0.0000 S=-0.0000
 <L.S>=  0.00000000000    
 KE= 9.503760889381D+01 PE=-2.973818886439D+02 EE= 6.916803548133D+01
 Annihilation of the first spin contaminant:
 S**2 before annihilation    -0.0000,   after     0.0000
 Leave Link  502 at Mon Apr 21 18:09:23 2025, MaxMem=   536870912 cpu:              76.6 elap:              10.0
 (Enter /home/szhao/Apps/g16/l601.exe)
 Copying SCF densities to generalized density rwf, IOpCl= 1 IROHF=0.

 **********************************************************************

            Population analysis using the SCF density.

 **********************************************************************

 Alpha  occ. eigenvalues --  -14.73888 -10.58159  -0.92088  -0.77222  -0.53170
 Alpha  occ. eigenvalues --   -0.47963  -0.46250  -0.42347  -0.31104
 Alpha virt. eigenvalues --    0.01670   0.01886   0.05495   0.06158   0.10229
 Alpha virt. eigenvalues --    0.11922   0.13535   0.16533   0.18281   0.19299
 Alpha virt. eigenvalues --    0.21556   0.21772   0.23004   0.28206   0.42609
 Alpha virt. eigenvalues --    0.44011   0.50815   0.57782   0.62678   0.63588
 Alpha virt. eigenvalues --    0.65055   0.69500   0.79904   0.82071   0.88501
 Alpha virt. eigenvalues --    0.90583   1.07979   1.12060   1.20449   1.30939
 Alpha virt. eigenvalues --    1.38480   1.42851   1.50143   1.58992   1.59977
 Alpha virt. eigenvalues --    1.66583   1.74052   1.74349   1.81690   1.96425
 Alpha virt. eigenvalues --    1.98904   2.08370   2.17284   2.18430   2.35192
 Alpha virt. eigenvalues --    2.45317   2.47226   2.49724   2.51118   2.51803
 Alpha virt. eigenvalues --    2.57359   2.60939   2.62880   2.72130   2.81599
 Alpha virt. eigenvalues --    2.95009   3.13189   3.24161   3.77019   3.77047
 Alpha virt. eigenvalues --    4.01240   4.38488   4.76995  23.95919  35.63010
  Beta  occ. eigenvalues --  -14.73888 -10.58159  -0.92088  -0.77222  -0.53170
  Beta  occ. eigenvalues --   -0.47963  -0.46250  -0.42347  -0.31104
  Beta virt. eigenvalues --    0.01670   0.01886   0.05495   0.06158   0.10229
  Beta virt. eigenvalues --    0.11922   0.13535   0.16533   0.18281   0.19299
  Beta virt. eigenvalues --    0.21556   0.21772   0.23004   0.28206   0.42609
  Beta virt. eigenvalues --    0.44011   0.50815   0.57782   0.62678   0.63588
  Beta virt. eigenvalues --    0.65055   0.69500   0.79904   0.82071   0.88501
  Beta virt. eigenvalues --    0.90583   1.07979   1.12060   1.20449   1.30939
  Beta virt. eigenvalues --    1.38480   1.42851   1.50143   1.58992   1.59977
  Beta virt. eigenvalues --    1.66583   1.74052   1.74349   1.81690   1.96425
  Beta virt. eigenvalues --    1.98904   2.08370   2.17284   2.18430   2.35192
  Beta virt. eigenvalues --    2.45317   2.47226   2.49724   2.51118   2.51803
  Beta virt. eigenvalues --    2.57359   2.60939   2.62880   2.72130   2.81599
  Beta virt. eigenvalues --    2.95009   3.13189   3.24161   3.77019   3.77047
  Beta virt. eigenvalues --    4.01240   4.38488   4.76995  23.95919  35.63010
          Condensed to atoms (all electrons):
               1          2          3          4          5          6
     1  C    5.009351   0.236412  -0.023016   0.400102  -0.023016   0.400102
     2  N    0.236412   6.660221   0.382924  -0.020943   0.382924  -0.020942
     3  H   -0.023016   0.382924   0.447448   0.002080  -0.046607  -0.001899
     4  H    0.400102  -0.020943   0.002080   0.510044  -0.001899  -0.026332
     5  H   -0.023016   0.382924  -0.046607  -0.001899   0.447447   0.002080
     6  H    0.400102  -0.020942  -0.001899  -0.026332   0.002080   0.510044
     7  H    0.396855  -0.044946   0.001001  -0.031721   0.001001  -0.031721
               7
     1  C    0.396855
     2  N   -0.044946
     3  H    0.001001
     4  H   -0.031721
     5  H    0.001001
     6  H   -0.031721
     7  H    0.550568
          Atomic-Atomic Spin Densities.
               1          2          3          4          5          6
     1  C    0.000000   0.000000   0.000000   0.000000  -0.000000  -0.000000
     2  N    0.000000   0.000000  -0.000000   0.000000   0.000000   0.000000
     3  H    0.000000  -0.000000   0.000000  -0.000000  -0.000000  -0.000000
     4  H    0.000000   0.000000  -0.000000  -0.000000   0.000000  -0.000000
     5  H   -0.000000   0.000000  -0.000000   0.000000  -0.000000  -0.000000
     6  H   -0.000000   0.000000  -0.000000  -0.000000  -0.000000   0.000000
     7  H   -0.000000   0.000000  -0.000000  -0.000000  -0.000000   0.000000
               7
     1  C   -0.000000
     2  N    0.000000
     3  H   -0.000000
     4  H   -0.000000
     5  H   -0.000000
     6  H    0.000000
     7  H   -0.000000
 Mulliken charges and spin densities:
               1          2
     1  C   -0.396790   0.000000
     2  N   -0.575651   0.000000
     3  H    0.238069   0.000000
     4  H    0.168669  -0.000000
     5  H    0.238070  -0.000000
     6  H    0.168669  -0.000000
     7  H    0.158964  -0.000000
 Sum of Mulliken charges =  -0.00000  -0.00000
 Mulliken charges and spin densities with hydrogens summed into heavy atoms:
               1          2
     1  C    0.099512  -0.000000
     2  N   -0.099512   0.000000
 Electronic spatial extent (au):  <R**2>=            119.2432
 Charge=             -0.0000 electrons
 Dipole moment (field-independent basis, Debye):
    X=             -1.0643    Y=             -0.7060    Z=              1.1964  Tot=              1.7500
 Quadrupole moment (field-independent basis, Debye-Ang):
   XX=            -13.0112   YY=            -13.5752   ZZ=            -14.8660
   XY=             -1.2599   XZ=              2.1352   YZ=              1.1685
 Traceless Quadrupole moment (field-independent basis, Debye-Ang):
   XX=              0.8063   YY=              0.2422   ZZ=             -1.0485
   XY=             -1.2599   XZ=              2.1352   YZ=              1.1685
 Octapole moment (field-independent basis, Debye-Ang**2):
  XXX=              2.0256  YYY=              0.3885  ZZZ=             -0.5740  XYY=              1.3361
  XXY=             -1.3871  XXZ=              2.3508  XZZ=             -0.1890  YZZ=              0.0620
  YYZ=             -0.1894  XYZ=              1.3806
 Hexadecapole moment (field-independent basis, Debye-Ang**3):
 XXXX=           -107.1375 YYYY=            -24.5146 ZZZZ=            -26.0556 XXXY=             -1.6315
 XXXZ=              2.7650 YYYX=             -2.0871 YYYZ=              0.4670 ZZZX=              0.2931
 ZZZY=              0.9281 XXYY=            -19.7401 XXZZ=            -21.4977 YYZZ=             -8.6218
 XXYZ=              1.5911 YYXZ=              0.0238 ZZXY=              1.9001
 N-N= 3.739417046586D+01 E-N=-2.973818885912D+02  KE= 9.503760889381D+01
                          Isotropic Fermi Contact Couplings
        Atom                 a.u.       MegaHertz       Gauss      10(-4) cm-1
     1  C(13)              0.00000       0.00000       0.00000       0.00000
     2  N(14)             -0.00000      -0.00000      -0.00000      -0.00000
     3  H(1)               0.00000       0.00000       0.00000       0.00000
     4  H(1)              -0.00000      -0.00000      -0.00000      -0.00000
     5  H(1)              -0.00000      -0.00000      -0.00000      -0.00000
     6  H(1)               0.00000       0.00000       0.00000       0.00000
     7  H(1)              -0.00000      -0.00000      -0.00000      -0.00000
 --------------------------------------------------------
       Center         ----  Spin Dipole Couplings  ----
                      3XX-RR        3YY-RR        3ZZ-RR
 --------------------------------------------------------
     1   Atom        0.000000      0.000000      0.000000
     2   Atom        0.000000      0.000000      0.000000
     3   Atom        0.000000      0.000000      0.000000
     4   Atom        0.000000      0.000000      0.000000
     5   Atom        0.000000      0.000000      0.000000
     6   Atom        0.000000      0.000000      0.000000
     7   Atom        0.000000      0.000000      0.000000
 --------------------------------------------------------
                        XY            XZ            YZ
 --------------------------------------------------------
     1   Atom        0.000000      0.000000      0.000000
     2   Atom        0.000000      0.000000      0.000000
     3   Atom        0.000000      0.000000      0.000000
     4   Atom        0.000000      0.000000      0.000000
     5   Atom        0.000000      0.000000      0.000000
     6   Atom        0.000000      0.000000      0.000000
     7   Atom        0.000000      0.000000      0.000000
 --------------------------------------------------------


 ---------------------------------------------------------------------------------
              Anisotropic Spin Dipole Couplings in Principal Axis System
 ---------------------------------------------------------------------------------

       Atom             a.u.   MegaHertz   Gauss  10(-4) cm-1        Axes

              Baa     0.0000     0.000     0.000     0.000  1.0000  0.0000  0.0000
     1 C(13)  Bbb     0.0000     0.000     0.000     0.000 -0.0000  1.0000  0.0000
              Bcc     0.0000     0.000     0.000     0.000  0.0000  0.0000  1.0000
 
              Baa     0.0000     0.000     0.000     0.000  1.0000  0.0000  0.0000
     2 N(14)  Bbb     0.0000     0.000     0.000     0.000 -0.0000  1.0000  0.0000
              Bcc     0.0000     0.000     0.000     0.000  0.0000  0.0000  1.0000
 
              Baa     0.0000     0.000     0.000     0.000  1.0000  0.0000  0.0000
     3 H(1)   Bbb     0.0000     0.000     0.000     0.000 -0.0000  1.0000  0.0000
              Bcc     0.0000     0.000     0.000     0.000  0.0000  0.0000  1.0000
 
              Baa     0.0000     0.000     0.000     0.000  1.0000  0.0000  0.0000
     4 H(1)   Bbb     0.0000     0.000     0.000     0.000 -0.0000  1.0000  0.0000
              Bcc     0.0000     0.000     0.000     0.000  0.0000  0.0000  1.0000
 
              Baa     0.0000     0.000     0.000     0.000  1.0000  0.0000  0.0000
     5 H(1)   Bbb     0.0000     0.000     0.000     0.000 -0.0000  1.0000  0.0000
              Bcc     0.0000     0.000     0.000     0.000  0.0000  0.0000  1.0000
 
              Baa     0.0000     0.000     0.000     0.000  1.0000  0.0000  0.0000
     6 H(1)   Bbb     0.0000     0.000     0.000     0.000 -0.0000  1.0000  0.0000
              Bcc     0.0000     0.000     0.000     0.000  0.0000  0.0000  1.0000
 
              Baa     0.0000     0.000     0.000     0.000  1.0000  0.0000  0.0000
     7 H(1)   Bbb     0.0000     0.000     0.000     0.000 -0.0000  1.0000  0.0000
              Bcc     0.0000     0.000     0.000     0.000  0.0000  0.0000  1.0000
 

 ---------------------------------------------------------------------------------

 No NMR shielding tensors so no spin-rotation constants.
 Leave Link  601 at Mon Apr 21 18:09:23 2025, MaxMem=   536870912 cpu:               1.1 elap:               0.2
 (Enter /home/szhao/Apps/g16/l701.exe)
 ... and contract with generalized density number  0.
 Compute integral first derivatives.
 Leave Link  701 at Mon Apr 21 18:09:24 2025, MaxMem=   536870912 cpu:               1.6 elap:               0.3
 (Enter /home/szhao/Apps/g16/l702.exe)
 L702 exits ... SP integral derivatives will be done elsewhere.
 Leave Link  702 at Mon Apr 21 18:09:24 2025, MaxMem=   536870912 cpu:               0.6 elap:               0.1
 (Enter /home/szhao/Apps/g16/l703.exe)
 Integral derivatives from FoFJK, PRISM(SPDF).
 Compute integral first derivatives, UseDBF=F ICtDFT=           0.
 Calling FoFJK, ICntrl=      2127 FMM=F ISym2X=0 I1Cent= 0 IOpClX= 1 NMat=1 NMatS=1 NMatT=0.
 FoFJK:  IHMeth= 1 ICntrl=    2127 DoSepK=F KAlg= 0 I1Cent=           0 FoldK=F
 IRaf=         0 NMat=       1 IRICut=       1 DoRegI=T DoRafI=F ISym2E= 0 IDoP0=0 IntGTp=1.
 FoFCou: FMM=F IPFlag=           0 FMFlag=      100000 FMFlg1=         800
         NFxFlg=           0 DoJE=F BraDBF=F KetDBF=F FulRan=T
         wScrn=  0.000000 ICntrl=      2127 IOpCl=  1 I1Cent=           0 NGrid=           0
         NMat0=    1 NMatS0=      1 NMatT0=    0 NMatD0=    1 NMtDS0=    0 NMtDT0=    0
 Symmetry not used in FoFCou.
 Leave Link  703 at Mon Apr 21 18:09:26 2025, MaxMem=   536870912 cpu:              13.3 elap:               1.7
 (Enter /home/szhao/Apps/g16/l716.exe)
 Dipole        =-4.18733491D-01-2.77757480D-01 4.70711257D-01
 -------------------------------------------------------------------
 Center     Atomic                   Forces (Hartrees/Bohr)
 Number     Number              X              Y              Z
 -------------------------------------------------------------------
      1        6          -0.000000000   -0.000000000   -0.000000000
      2        7          -0.000000000   -0.000000000   -0.000000000
      3        1          -0.009910219   -0.005609932    0.002069188
      4        1           0.013408872    0.001558612    0.000956832
      5        1          -0.009909652    0.000903629    0.005909782
      6        1           0.013406904   -0.001589410   -0.000903473
      7        1           0.012817483   -0.000015784    0.000024700
 -------------------------------------------------------------------
 Cartesian Forces:  Max     0.013408872 RMS     0.006166065
 Leave Link  716 at Mon Apr 21 18:09:26 2025, MaxMem=   536870912 cpu:               0.6 elap:               0.1
 (Enter /home/szhao/Apps/g16/l103.exe)

 GradGradGradGradGradGradGradGradGradGradGradGradGradGradGradGradGradGrad
 Berny optimization.
 FormGI is forming the generalized inverse of G from B-inverse, IUseBI=4.
 Internal  Forces:  Max     0.039633259 RMS     0.012514132
 Search for a local minimum.
 Step number   1 out of a maximum of   36
 All quantities printed in internal units (Hartrees-Bohrs-Radians)
 RMS Force = .93689D-02 SwitMx=.10000D-02 MixMth= 1
 Mixed Optimization -- RFO/linear search
 Second derivative matrix not updated -- first step.
 ITU=  0
     Eigenvalues ---    0.00230   0.03652   0.06492   0.07285   0.16000
     Eigenvalues ---    0.16000   0.16000   0.16000   0.16000   0.33969
     Eigenvalues ---    0.34689   0.34689   0.45510   0.455101000.00000
     Eigenvalues --- 1000.000001000.000001000.000001000.000001000.00000
     Eigenvalues --- 1000.000001000.000001000.000001000.000001000.00000
     Eigenvalues --- 1000.00000
 RFO step:  Lambda=-1.18765560D-02 EMin= 2.30000000D-03
 Linear search not attempted -- first point.
 Iteration  1 RMS(Cart)=  0.09352132 RMS(Int)=  0.00868040
 Iteration  2 RMS(Cart)=  0.00734794 RMS(Int)=  0.00550222
 Iteration  3 RMS(Cart)=  0.00010643 RMS(Int)=  0.00550191
 Iteration  4 RMS(Cart)=  0.00000259 RMS(Int)=  0.00550191
 Iteration  5 RMS(Cart)=  0.00000007 RMS(Int)=  0.00550191
 ITry= 1 IFail=0 DXMaxC= 2.41D-01 DCOld= 1.00D+10 DXMaxT= 3.00D-01 DXLimC= 3.00D+00 Rises=F
 Variable       Old X    -DE/DX   Delta X   Delta X   Delta X     New X
                                 (Linear)    (Quad)   (Total)
    X1       -1.75847   0.03963   0.00000   0.00000   0.00000  -1.75847
    Y1        0.00000   0.00394   0.00000   0.00000   0.00000   0.00000
    Z1        0.00000  -0.00667   0.00000   0.00000   0.00000   0.00000
    X2        1.75847  -0.01982   0.00000   0.00000   0.00000   1.75847
    Y2        0.00000  -0.00869   0.00000   0.00000   0.00000   0.00000
    Z2        0.00000   0.01473   0.00000   0.00000   0.00000   0.00000
    R1        2.06182  -0.00293   0.00000  -0.00817  -0.00817   2.05365
    R2        2.06182  -0.00293   0.00000  -0.00817  -0.00817   2.05365
    R3        2.07383  -0.00539   0.00000  -0.01533  -0.01533   2.05850
    R4        1.91387   0.00170   0.00000   0.00364   0.00364   1.91752
    R5        1.91387   0.00170   0.00000   0.00364   0.00364   1.91752
    A1        1.90417  -0.01338   0.00000  -0.07708  -0.07981   1.82436
    A2        1.90417  -0.01337   0.00000  -0.07706  -0.07979   1.82438
    A3        2.00713  -0.01030   0.00000  -0.06153  -0.06408   1.94306
    A4        1.87025   0.01324   0.00000   0.08046   0.07709   1.94734
    A5        1.88671   0.01298   0.00000   0.07400   0.07117   1.95788
    A6        1.88671   0.01297   0.00000   0.07400   0.07118   1.95788
    A7        1.93597  -0.01618   0.00000  -0.12608  -0.13250   1.80347
    A8        1.93597  -0.01618   0.00000  -0.12608  -0.13249   1.80348
    A9        1.86950   0.01037   0.00000  -0.00135  -0.02179   1.84770
    D1       -3.12283  -0.00441   0.00000  -0.08747  -0.08151   3.07884
    D2        1.08495   0.00358   0.00000   0.07760   0.07097   1.15592
    D3       -1.08494  -0.00358   0.00000  -0.07774  -0.07111  -1.15605
    D4        3.12284   0.00441   0.00000   0.08733   0.08137  -3.07897
    D5        1.03771  -0.00400   0.00000  -0.08260  -0.07631   0.96140
    D6       -1.03770   0.00399   0.00000   0.08247   0.07618  -0.96152
         Item               Value     Threshold  Converged?
 Maximum Force            0.016181     0.000450     NO 
 RMS     Force            0.009369     0.000300     NO 
 Maximum Displacement     0.241320     0.001800     NO 
 RMS     Displacement     0.095974     0.001200     NO 
 Predicted change in Energy=-6.113496D-03
 Lowest energy point so far.  Saving SCF results.
 GradGradGradGradGradGradGradGradGradGradGradGradGradGradGradGradGradGrad

 Leave Link  103 at Mon Apr 21 18:09:26 2025, MaxMem=   536870912 cpu:               0.5 elap:               0.1
 (Enter /home/szhao/Apps/g16/l202.exe)
                          Input orientation:                          
 ---------------------------------------------------------------------
 Center     Atomic      Atomic             Coordinates (Angstroms)
 Number     Number       Type             X           Y           Z
 ---------------------------------------------------------------------
      1          6           0       -0.930542    0.000000    0.000000
      2          7           0        0.930542    0.000000    0.000000
      3          1           0        1.164515   -0.984596    0.073873
      4          1           0       -1.203158    1.051918   -0.012764
      5          1           0        1.164523    0.408918    0.898704
      6          1           0       -1.203180   -0.494755   -0.928388
      7          1           0       -1.326748   -0.516906    0.873171
 ---------------------------------------------------------------------
                    Distance matrix (angstroms):
                    1          2          3          4          5
     1  C    0.000000
     2  N    1.861084   0.000000
     3  H    2.316064   1.014706   0.000000
     4  H    1.086745   2.378943   3.124223   0.000000
     5  H    2.316070   1.014707   1.619329   2.617277   0.000000
     6  H    1.086747   2.378962   2.617337   1.797377   3.124245
     7  H    1.089311   2.474869   2.657819   1.805925   2.657862
                    6          7
     6  H    0.000000
     7  H    1.805928   0.000000
 Symmetry turned off by external request.
 Stoichiometry    CH5N
 Framework group  C1[X(CH5N)]
 Deg. of freedom    15
 Full point group                 C1      NOp   1
 Rotational constants (GHZ):          98.3581341          15.7032384          15.3407596
 Leave Link  202 at Mon Apr 21 18:09:27 2025, MaxMem=   536870912 cpu:               0.1 elap:               0.1
 (Enter /home/szhao/Apps/g16/l301.exe)
 Standard basis: 6-311+G(d,p) (5D, 7F)
 Ernie: Thresh=  0.10000D-02 Tol=  0.10000D-05 Strict=F.
    74 basis functions,   112 primitive gaussians,    76 cartesian basis functions
     9 alpha electrons        9 beta electrons
       nuclear repulsion energy        37.7025656372 Hartrees.
 IExCor= 4336 DFT=T Ex+Corr=M062X ExCW=0 ScaHFX=  0.540000
 ScaDFX=  1.000000  1.000000  1.000000  1.000000 ScalE2=  1.000000  1.000000
 IRadAn=      7 IRanWt=     -1 IRanGd=            0 ICorTp=0 IEmpDi=  4
 NAtoms=    7 NActive=    7 NUniq=    7 SFac= 1.00D+00 NAtFMM=   60 NAOKFM=F Big=F
 Integral buffers will be    131072 words long.
 Raffenetti 2 integral format.
 Two-electron integral symmetry is turned off.
 Leave Link  301 at Mon Apr 21 18:09:27 2025, MaxMem=   536870912 cpu:               1.3 elap:               0.2
 (Enter /home/szhao/Apps/g16/l302.exe)
 NPDir=0 NMtPBC=     1 NCelOv=     1 NCel=       1 NClECP=     1 NCelD=      1
         NCelK=      1 NCelE2=     1 NClLst=     1 CellRange=     0.0.
 One-electron integrals computed using PRISM.
 NBasis=    74 RedAO= T EigKep=  1.88D-03  NBF=    74
 NBsUse=    74 1.00D-06 EigRej= -1.00D+00 NBFU=    74
 Precomputing XC quadrature grid using
 IXCGrd= 4 IRadAn=           7 IRanWt=          -1 IRanGd=           0 AccXCQ= 0.00D+00.
 Generated NRdTot=       0 NPtTot=           0 NUsed=           0 NTot=          32
 NSgBfM=    76    76    76    76    76 MxSgAt=     7 MxSgA2=     7.
 Leave Link  302 at Mon Apr 21 18:09:28 2025, MaxMem=   536870912 cpu:               1.6 elap:               0.2
 (Enter /home/szhao/Apps/g16/l303.exe)
 DipDrv:  MaxL=1.
 Leave Link  303 at Mon Apr 21 18:09:28 2025, MaxMem=   536870912 cpu:               0.6 elap:               0.1
 (Enter /home/szhao/Apps/g16/l401.exe)
 Initial guess from the checkpoint file:  "opt.chk"
 B after Tr=    -0.000462   -0.009825    0.016610
         Rot=    0.999965   -0.000699    0.007207    0.004259 Ang=  -0.96 deg.
 Guess basis will be translated and rotated to current coordinates.
 JPrj=2 DoOrth=T DoCkMO=T.
 Initial guess <Sx>= 0.0000 <Sy>= 0.0000 <Sz>= 0.0000 <S**2>= 0.0000 S= 0.0000
 Generating alternative initial guess.
 ExpMin= 4.38D-02 ExpMax= 6.29D+03 ExpMxC= 9.49D+02 IAcc=3 IRadAn=         5 AccDes= 0.00D+00
 Harris functional with IExCor= 1009 and IRadAn=       5 diagonalized for initial guess.
 HarFok:  IExCor= 1009 AccDes= 0.00D+00 IRadAn=         5 IDoV= 1 UseB2=F ITyADJ=14
 ICtDFT=  3500011 ScaDFX=  1.000000  1.000000  1.000000  1.000000
 FoFCou: FMM=F IPFlag=           0 FMFlag=      100000 FMFlg1=           0
         NFxFlg=           0 DoJE=T BraDBF=F KetDBF=T FulRan=T
         wScrn=  0.000000 ICntrl=       500 IOpCl=  0 I1Cent=   200000004 NGrid=           0
         NMat0=    1 NMatS0=      1 NMatT0=    0 NMatD0=    1 NMtDS0=    0 NMtDT0=    0
 Symmetry not used in FoFCou.
 Harris En= -95.7751181173513    
 Leave Link  401 at Mon Apr 21 18:09:29 2025, MaxMem=   536870912 cpu:               3.4 elap:               0.5
 (Enter /home/szhao/Apps/g16/l502.exe)
 Keep R1 and R2 ints in memory in canonical form, NReq=14944651.
 FoFCou: FMM=F IPFlag=           0 FMFlag=           0 FMFlg1=           0
         NFxFlg=           0 DoJE=F BraDBF=F KetDBF=F FulRan=T
         wScrn=  0.000000 ICntrl=       600 IOpCl=  0 I1Cent=           0 NGrid=           0
         NMat0=    1 NMatS0=   2775 NMatT0=    0 NMatD0=    1 NMtDS0=    0 NMtDT0=    0
 Symmetry not used in FoFCou.
 Two-electron integral symmetry not used.
 UHF open shell SCF:
 Using DIIS extrapolation, IDIIS=  1040.
 NGot=   536870912 LenX=   529154583 LenY=   529148366
 Requested convergence on RMS density matrix=1.00D-08 within 128 cycles.
 Requested convergence on MAX density matrix=1.00D-06.
 Requested convergence on             energy=1.00D-06.
 No special actions if energy rises.

 Cycle   1  Pass 1  IDiag  1:
 E= -95.7857732449454    
 DIIS: error= 8.49D-03 at cycle   1 NSaved=   1.
 NSaved= 1 IEnMin= 1 EnMin= -95.7857732449454     IErMin= 1 ErrMin= 8.49D-03
 ErrMax= 8.49D-03  0.00D+00 EMaxC= 1.00D-01 BMatC= 1.32D-02 BMatP= 1.32D-02
 IDIUse=3 WtCom= 9.15D-01 WtEn= 8.49D-02
 Coeff-Com:  0.100D+01
 Coeff-En:   0.100D+01
 Coeff:      0.100D+01
 Gap=     0.534 Goal=   None    Shift=    0.000
 Gap=     0.534 Goal=   None    Shift=    0.000
 GapD=    0.534 DampG=2.000 DampE=1.000 DampFc=2.0000 IDamp=-1.
 RMSDP=1.08D-03 MaxDP=1.66D-02              OVMax= 2.66D-02

 Cycle   2  Pass 1  IDiag  1:
 E= -95.7895616869998     Delta-E=       -0.003788442054 Rises=F Damp=F
 DIIS: error= 1.58D-03 at cycle   2 NSaved=   2.
 NSaved= 2 IEnMin= 2 EnMin= -95.7895616869998     IErMin= 2 ErrMin= 1.58D-03
 ErrMax= 1.58D-03  0.00D+00 EMaxC= 1.00D-01 BMatC= 7.38D-04 BMatP= 1.32D-02
 IDIUse=3 WtCom= 9.84D-01 WtEn= 1.58D-02
 Coeff-Com: -0.134D-01 0.101D+01
 Coeff-En:   0.000D+00 0.100D+01
 Coeff:     -0.132D-01 0.101D+01
 Gap=     0.342 Goal=   None    Shift=    0.000
 Gap=     0.342 Goal=   None    Shift=    0.000
 RMSDP=2.94D-04 MaxDP=5.52D-03 DE=-3.79D-03 OVMax= 1.13D-02

 Cycle   3  Pass 1  IDiag  1:
 E= -95.7895913332557     Delta-E=       -0.000029646256 Rises=F Damp=F
 DIIS: error= 2.69D-03 at cycle   3 NSaved=   3.
 NSaved= 3 IEnMin= 3 EnMin= -95.7895913332557     IErMin= 2 ErrMin= 1.58D-03
 ErrMax= 2.69D-03  0.00D+00 EMaxC= 1.00D-01 BMatC= 9.57D-04 BMatP= 7.38D-04
 IDIUse=3 WtCom= 1.62D-01 WtEn= 8.38D-01
 Coeff-Com: -0.638D-01 0.574D+00 0.490D+00
 Coeff-En:   0.000D+00 0.453D+00 0.547D+00
 Coeff:     -0.103D-01 0.473D+00 0.537D+00
 Gap=     0.337 Goal=   None    Shift=    0.000
 Gap=     0.337 Goal=   None    Shift=    0.000
 RMSDP=1.52D-04 MaxDP=2.90D-03 DE=-2.96D-05 OVMax= 7.22D-03

 Cycle   4  Pass 1  IDiag  1:
 E= -95.7897813505693     Delta-E=       -0.000190017314 Rises=F Damp=F
 DIIS: error= 9.04D-04 at cycle   4 NSaved=   4.
 NSaved= 4 IEnMin= 4 EnMin= -95.7897813505693     IErMin= 4 ErrMin= 9.04D-04
 ErrMax= 9.04D-04  0.00D+00 EMaxC= 1.00D-01 BMatC= 1.02D-04 BMatP= 7.38D-04
 IDIUse=3 WtCom= 9.91D-01 WtEn= 9.04D-03
 Coeff-Com: -0.165D-01 0.163D-01 0.256D+00 0.745D+00
 Coeff-En:   0.000D+00 0.000D+00 0.527D-01 0.947D+00
 Coeff:     -0.164D-01 0.162D-01 0.254D+00 0.746D+00
 Gap=     0.338 Goal=   None    Shift=    0.000
 Gap=     0.338 Goal=   None    Shift=    0.000
 RMSDP=5.16D-05 MaxDP=9.88D-04 DE=-1.90D-04 OVMax= 2.14D-03

 Cycle   5  Pass 1  IDiag  1:
 E= -95.7898058115442     Delta-E=       -0.000024460975 Rises=F Damp=F
 DIIS: error= 5.96D-05 at cycle   5 NSaved=   5.
 NSaved= 5 IEnMin= 5 EnMin= -95.7898058115442     IErMin= 5 ErrMin= 5.96D-05
 ErrMax= 5.96D-05  0.00D+00 EMaxC= 1.00D-01 BMatC= 4.08D-07 BMatP= 1.02D-04
 IDIUse=1 WtCom= 1.00D+00 WtEn= 0.00D+00
 Coeff-Com:  0.440D-02-0.412D-01-0.389D-01 0.753D-03 0.107D+01
 Coeff:      0.440D-02-0.412D-01-0.389D-01 0.753D-03 0.107D+01
 Gap=     0.338 Goal=   None    Shift=    0.000
 Gap=     0.338 Goal=   None    Shift=    0.000
 RMSDP=1.79D-05 MaxDP=1.93D-04 DE=-2.45D-05 OVMax= 5.07D-04

 Cycle   6  Pass 1  IDiag  1:
 E= -95.7898061474825     Delta-E=       -0.000000335938 Rises=F Damp=F
 DIIS: error= 1.19D-05 at cycle   6 NSaved=   6.
 NSaved= 6 IEnMin= 6 EnMin= -95.7898061474825     IErMin= 6 ErrMin= 1.19D-05
 ErrMax= 1.19D-05  0.00D+00 EMaxC= 1.00D-01 BMatC= 2.15D-08 BMatP= 4.08D-07
 IDIUse=1 WtCom= 1.00D+00 WtEn= 0.00D+00
 Coeff-Com:  0.428D-03-0.402D-03-0.874D-02-0.227D-01 0.978D-02 0.102D+01
 Coeff:      0.428D-03-0.402D-03-0.874D-02-0.227D-01 0.978D-02 0.102D+01
 Gap=     0.338 Goal=   None    Shift=    0.000
 Gap=     0.338 Goal=   None    Shift=    0.000
 RMSDP=2.69D-06 MaxDP=2.81D-05 DE=-3.36D-07 OVMax= 8.40D-05

 Cycle   7  Pass 1  IDiag  1:
 E= -95.7898061597157     Delta-E=       -0.000000012233 Rises=F Damp=F
 DIIS: error= 3.98D-06 at cycle   7 NSaved=   7.
 NSaved= 7 IEnMin= 7 EnMin= -95.7898061597157     IErMin= 7 ErrMin= 3.98D-06
 ErrMax= 3.98D-06  0.00D+00 EMaxC= 1.00D-01 BMatC= 5.16D-09 BMatP= 2.15D-08
 IDIUse=1 WtCom= 1.00D+00 WtEn= 0.00D+00
 Coeff-Com: -0.423D-03 0.520D-02 0.209D-02-0.759D-02-0.131D+00 0.372D+00
 Coeff-Com:  0.760D+00
 Coeff:     -0.423D-03 0.520D-02 0.209D-02-0.759D-02-0.131D+00 0.372D+00
 Coeff:      0.760D+00
 Gap=     0.338 Goal=   None    Shift=    0.000
 Gap=     0.338 Goal=   None    Shift=    0.000
 RMSDP=6.75D-07 MaxDP=9.81D-06 DE=-1.22D-08 OVMax= 3.30D-05

 Cycle   8  Pass 1  IDiag  1:
 E= -95.7898061617074     Delta-E=       -0.000000001992 Rises=F Damp=F
 DIIS: error= 8.91D-07 at cycle   8 NSaved=   8.
 NSaved= 8 IEnMin= 8 EnMin= -95.7898061617074     IErMin= 8 ErrMin= 8.91D-07
 ErrMax= 8.91D-07  0.00D+00 EMaxC= 1.00D-01 BMatC= 2.13D-10 BMatP= 5.16D-09
 IDIUse=1 WtCom= 1.00D+00 WtEn= 0.00D+00
 Coeff-Com: -0.760D-04 0.580D-03 0.989D-03 0.140D-02-0.168D-01-0.311D-01
 Coeff-Com:  0.128D+00 0.917D+00
 Coeff:     -0.760D-04 0.580D-03 0.989D-03 0.140D-02-0.168D-01-0.311D-01
 Coeff:      0.128D+00 0.917D+00
 Gap=     0.338 Goal=   None    Shift=    0.000
 Gap=     0.338 Goal=   None    Shift=    0.000
 RMSDP=2.03D-07 MaxDP=3.11D-06 DE=-1.99D-09 OVMax= 7.58D-06

 Cycle   9  Pass 1  IDiag  1:
 E= -95.7898061618133     Delta-E=       -0.000000000106 Rises=F Damp=F
 DIIS: error= 2.77D-07 at cycle   9 NSaved=   9.
 NSaved= 9 IEnMin= 9 EnMin= -95.7898061618133     IErMin= 9 ErrMin= 2.77D-07
 ErrMax= 2.77D-07  0.00D+00 EMaxC= 1.00D-01 BMatC= 1.21D-11 BMatP= 2.13D-10
 IDIUse=1 WtCom= 1.00D+00 WtEn= 0.00D+00
 Coeff-Com:  0.252D-04-0.335D-03-0.109D-03 0.734D-03 0.724D-02-0.281D-01
 Coeff-Com: -0.497D-01-0.599D-02 0.108D+01
 Coeff:      0.252D-04-0.335D-03-0.109D-03 0.734D-03 0.724D-02-0.281D-01
 Coeff:     -0.497D-01-0.599D-02 0.108D+01
 Gap=     0.338 Goal=   None    Shift=    0.000
 Gap=     0.338 Goal=   None    Shift=    0.000
 RMSDP=7.88D-08 MaxDP=1.08D-06 DE=-1.06D-10 OVMax= 2.72D-06

 Cycle  10  Pass 1  IDiag  1:
 E= -95.7898061618213     Delta-E=       -0.000000000008 Rises=F Damp=F
 DIIS: error= 3.08D-08 at cycle  10 NSaved=  10.
 NSaved=10 IEnMin=10 EnMin= -95.7898061618213     IErMin=10 ErrMin= 3.08D-08
 ErrMax= 3.08D-08  0.00D+00 EMaxC= 1.00D-01 BMatC= 2.54D-13 BMatP= 1.21D-11
 IDIUse=1 WtCom= 1.00D+00 WtEn= 0.00D+00
 Coeff-Com: -0.472D-06 0.190D-04-0.201D-04-0.106D-03-0.264D-03 0.515D-02
 Coeff-Com:  0.333D-02-0.250D-01-0.180D+00 0.120D+01
 Coeff:     -0.472D-06 0.190D-04-0.201D-04-0.106D-03-0.264D-03 0.515D-02
 Coeff:      0.333D-02-0.250D-01-0.180D+00 0.120D+01
 Gap=     0.338 Goal=   None    Shift=    0.000
 Gap=     0.338 Goal=   None    Shift=    0.000
 RMSDP=1.61D-08 MaxDP=2.26D-07 DE=-8.01D-12 OVMax= 5.81D-07

 Cycle  11  Pass 1  IDiag  1:
 E= -95.7898061618215     Delta-E=       -0.000000000000 Rises=F Damp=F
 DIIS: error= 5.23D-09 at cycle  11 NSaved=  11.
 NSaved=11 IEnMin=11 EnMin= -95.7898061618215     IErMin=11 ErrMin= 5.23D-09
 ErrMax= 5.23D-09  0.00D+00 EMaxC= 1.00D-01 BMatC= 6.78D-15 BMatP= 2.54D-13
 IDIUse=1 WtCom= 1.00D+00 WtEn= 0.00D+00
 Coeff-Com: -0.613D-06 0.773D-05 0.478D-05-0.142D-04-0.208D-03 0.502D-03
 Coeff-Com:  0.123D-02 0.443D-03-0.301D-01 0.116D-01 0.102D+01
 Coeff:     -0.613D-06 0.773D-05 0.478D-05-0.142D-04-0.208D-03 0.502D-03
 Coeff:      0.123D-02 0.443D-03-0.301D-01 0.116D-01 0.102D+01
 Gap=     0.338 Goal=   None    Shift=    0.000
 Gap=     0.338 Goal=   None    Shift=    0.000
 RMSDP=2.05D-09 MaxDP=2.25D-08 DE=-2.27D-13 OVMax= 7.22D-08

 SCF Done:  E(UM062X) =  -95.7898061618     A.U. after   11 cycles
            NFock= 11  Conv=0.20D-08     -V/T= 2.0072
 <Sx>= 0.0000 <Sy>= 0.0000 <Sz>= 0.0000 <S**2>=-0.0000 S=-0.0000
 <L.S>=  0.00000000000    
 KE= 9.510448199544D+01 PE=-2.980556084955D+02 EE= 6.945875470095D+01
 Annihilation of the first spin contaminant:
 S**2 before annihilation    -0.0000,   after     0.0000
 Leave Link  502 at Mon Apr 21 18:09:39 2025, MaxMem=   536870912 cpu:              75.8 elap:              10.0
 (Enter /home/szhao/Apps/g16/l701.exe)
 ... and contract with generalized density number  0.
 Compute integral first derivatives.
 Leave Link  701 at Mon Apr 21 18:09:40 2025, MaxMem=   536870912 cpu:               1.9 elap:               0.4
 (Enter /home/szhao/Apps/g16/l702.exe)
 L702 exits ... SP integral derivatives will be done elsewhere.
 Leave Link  702 at Mon Apr 21 18:09:40 2025, MaxMem=   536870912 cpu:               0.3 elap:               0.1
 (Enter /home/szhao/Apps/g16/l703.exe)
 Integral derivatives from FoFJK, PRISM(SPDF).
 Compute integral first derivatives, UseDBF=F ICtDFT=           0.
 Calling FoFJK, ICntrl=      2127 FMM=F ISym2X=0 I1Cent= 0 IOpClX= 1 NMat=1 NMatS=1 NMatT=0.
 FoFJK:  IHMeth= 1 ICntrl=    2127 DoSepK=F KAlg= 0 I1Cent=           0 FoldK=F
 IRaf=         0 NMat=       1 IRICut=       1 DoRegI=T DoRafI=F ISym2E= 0 IDoP0=0 IntGTp=1.
 FoFCou: FMM=F IPFlag=           0 FMFlag=      100000 FMFlg1=         800
         NFxFlg=           0 DoJE=F BraDBF=F KetDBF=F FulRan=T
         wScrn=  0.000000 ICntrl=      2127 IOpCl=  1 I1Cent=           0 NGrid=           0
         NMat0=    1 NMatS0=      1 NMatT0=    0 NMatD0=    1 NMtDS0=    0 NMtDT0=    0
 Symmetry not used in FoFCou.
 Leave Link  703 at Mon Apr 21 18:09:42 2025, MaxMem=   536870912 cpu:              11.1 elap:               1.6
 (Enter /home/szhao/Apps/g16/l716.exe)
 Dipole        =-4.96655187D-01-3.20428290D-01 5.41350167D-01
 -------------------------------------------------------------------
 Center     Atomic                   Forces (Hartrees/Bohr)
 Number     Number              X              Y              Z
 -------------------------------------------------------------------
      1        6          -0.000000000   -0.000000000   -0.000000000
      2        7          -0.000000000   -0.000000000   -0.000000000
      3        1          -0.001766287   -0.003357868    0.001071116
      4        1           0.003226743   -0.000852560   -0.000066493
      5        1          -0.001772481    0.000675692    0.003458891
      6        1           0.003229447    0.000468571    0.000716111
      7        1           0.004511850    0.000138239   -0.000233277
 -------------------------------------------------------------------
 Cartesian Forces:  Max     0.004511850 RMS     0.001875147
 Leave Link  716 at Mon Apr 21 18:09:42 2025, MaxMem=   536870912 cpu:               0.5 elap:               0.1
 (Enter /home/szhao/Apps/g16/l103.exe)

 GradGradGradGradGradGradGradGradGradGradGradGradGradGradGradGradGradGrad
 Berny optimization.
 Using GEDIIS/GDIIS optimizer.
 FormGI is forming the generalized inverse of G from B-inverse, IUseBI=4.
 Internal  Forces:  Max     0.010968041 RMS     0.003537667
 Search for a local minimum.
 Step number   2 out of a maximum of   36
 All quantities printed in internal units (Hartrees-Bohrs-Radians)
 RMS Force = .27513D-02 SwitMx=.10000D-02 MixMth= 1
 Mixed Optimization -- RFO/linear search
 Update second derivatives using D2CorX and points    1    2
 DE= -7.73D-03 DEPred=-6.11D-03 R= 1.26D+00
 TightC=F SS=  1.41D+00  RLast= 3.22D-01 DXNew= 5.0454D-01 9.6693D-01
 Trust test= 1.26D+00 RLast= 3.22D-01 DXMaxT set to 5.05D-01
 ITU=  1  0
 Use linear search instead of GDIIS.
     Eigenvalues ---    0.00230   0.04672   0.07348   0.08099   0.12512
     Eigenvalues ---    0.16000   0.16000   0.16000   0.16331   0.33875
     Eigenvalues ---    0.34623   0.34689   0.45510   0.455621000.00000
     Eigenvalues --- 1000.000001000.000001000.000001000.000001000.00000
     Eigenvalues --- 1000.000001000.000001000.000001000.000001000.00000
     Eigenvalues --- 1000.00000
 RFO step:  Lambda=-1.33012670D-04 EMin= 2.30000021D-03
 Quartic linear search produced a step of  0.29278.
 Iteration  1 RMS(Cart)=  0.03054881 RMS(Int)=  0.00218780
 Iteration  2 RMS(Cart)=  0.00067910 RMS(Int)=  0.00208528
 Iteration  3 RMS(Cart)=  0.00000084 RMS(Int)=  0.00208528
 ITry= 1 IFail=0 DXMaxC= 7.86D-02 DCOld= 1.00D+10 DXMaxT= 5.05D-01 DXLimC= 3.00D+00 Rises=F
 Variable       Old X    -DE/DX   Delta X   Delta X   Delta X     New X
                                 (Linear)    (Quad)   (Total)
    X1       -1.75847   0.01097   0.00000   0.00000   0.00000  -1.75847
    Y1        0.00000   0.00032   0.00000   0.00000   0.00000   0.00000
    Z1        0.00000  -0.00055   0.00000   0.00000   0.00000   0.00000
    X2        1.75847  -0.00354   0.00000   0.00000   0.00000   1.75847
    Y2        0.00000  -0.00325   0.00000   0.00000   0.00000   0.00000
    Z2        0.00000   0.00550   0.00000   0.00000   0.00000   0.00000
    R1        2.05365  -0.00163  -0.00239  -0.00358  -0.00597   2.04768
    R2        2.05365  -0.00164  -0.00239  -0.00358  -0.00598   2.04768
    R3        2.05850  -0.00189  -0.00449  -0.00246  -0.00695   2.05155
    R4        1.91752   0.00293   0.00107   0.00726   0.00833   1.92585
    R5        1.91752   0.00293   0.00107   0.00726   0.00832   1.92584
    A1        1.82436  -0.00305  -0.02337   0.00433  -0.02031   1.80405
    A2        1.82438  -0.00305  -0.02336   0.00428  -0.02035   1.80403
    A3        1.94306  -0.00514  -0.01876  -0.01943  -0.03950   1.90356
    A4        1.94734   0.00274   0.02257  -0.00102   0.02006   1.96739
    A5        1.95788   0.00368   0.02084   0.00549   0.02476   1.98264
    A6        1.95788   0.00368   0.02084   0.00549   0.02476   1.98265
    A7        1.80347  -0.00444  -0.03879   0.00100  -0.03974   1.76373
    A8        1.80348  -0.00445  -0.03879   0.00091  -0.03983   1.76365
    A9        1.84770   0.00118  -0.00638   0.00212  -0.01190   1.83580
    D1        3.07884  -0.00110  -0.02387   0.00059  -0.02087   3.05797
    D2        1.15592   0.00064   0.02078  -0.00235   0.01600   1.17192
    D3       -1.15605  -0.00064  -0.02082   0.00312  -0.01527  -1.17132
    D4       -3.07897   0.00110   0.02382   0.00018   0.02160  -3.05737
    D5        0.96140  -0.00087  -0.02234   0.00184  -0.01808   0.94332
    D6       -0.96152   0.00087   0.02230  -0.00110   0.01879  -0.94273
         Item               Value     Threshold  Converged?
 Maximum Force            0.005136     0.000450     NO 
 RMS     Force            0.002751     0.000300     NO 
 Maximum Displacement     0.078571     0.001800     NO 
 RMS     Displacement     0.030679     0.001200     NO 
 Predicted change in Energy=-6.549322D-04
 Lowest energy point so far.  Saving SCF results.
 GradGradGradGradGradGradGradGradGradGradGradGradGradGradGradGradGradGrad

 Leave Link  103 at Mon Apr 21 18:09:42 2025, MaxMem=   536870912 cpu:               0.5 elap:               0.1
 (Enter /home/szhao/Apps/g16/l202.exe)
                          Input orientation:                          
 ---------------------------------------------------------------------
 Center     Atomic      Atomic             Coordinates (Angstroms)
 Number     Number       Type             X           Y           Z
 ---------------------------------------------------------------------
      1          6           0       -0.930542    0.000000    0.000000
      2          7           0        0.930542    0.000000    0.000000
      3          1           0        1.125948   -0.995894    0.092764
      4          1           0       -1.181012    1.054195   -0.009758
      5          1           0        1.125862    0.396980    0.918065
      6          1           0       -1.180990   -0.498342   -0.929025
      7          1           0       -1.285170   -0.522783    0.882915
 ---------------------------------------------------------------------
                    Distance matrix (angstroms):
                    1          2          3          4          5
     1  C    0.000000
     2  N    1.861084   0.000000
     3  H    2.286823   1.019114   0.000000
     4  H    1.083586   2.360102   3.087950   0.000000
     5  H    2.286752   1.019111   1.619018   2.571858   0.000000
     6  H    1.083585   2.360085   2.571687   1.804280   3.087865
     7  H    1.085635   2.441766   2.581019   1.815096   2.580750
                    6          7
     6  H    0.000000
     7  H    1.815097   0.000000
 Symmetry turned off by external request.
 Stoichiometry    CH5N
 Framework group  C1[X(CH5N)]
 Deg. of freedom    15
 Full point group                 C1      NOp   1
 Rotational constants (GHZ):          96.8738241          15.8640616          15.5202291
 Leave Link  202 at Mon Apr 21 18:09:42 2025, MaxMem=   536870912 cpu:               0.1 elap:               0.1
 (Enter /home/szhao/Apps/g16/l301.exe)
 Standard basis: 6-311+G(d,p) (5D, 7F)
 Ernie: Thresh=  0.10000D-02 Tol=  0.10000D-05 Strict=F.
    74 basis functions,   112 primitive gaussians,    76 cartesian basis functions
     9 alpha electrons        9 beta electrons
       nuclear repulsion energy        37.7971911409 Hartrees.
 IExCor= 4336 DFT=T Ex+Corr=M062X ExCW=0 ScaHFX=  0.540000
 ScaDFX=  1.000000  1.000000  1.000000  1.000000 ScalE2=  1.000000  1.000000
 IRadAn=      7 IRanWt=     -1 IRanGd=            0 ICorTp=0 IEmpDi=  4
 NAtoms=    7 NActive=    7 NUniq=    7 SFac= 1.00D+00 NAtFMM=   60 NAOKFM=F Big=F
 Integral buffers will be    131072 words long.
 Raffenetti 2 integral format.
 Two-electron integral symmetry is turned off.
 Leave Link  301 at Mon Apr 21 18:09:43 2025, MaxMem=   536870912 cpu:               0.9 elap:               0.2
 (Enter /home/szhao/Apps/g16/l302.exe)
 NPDir=0 NMtPBC=     1 NCelOv=     1 NCel=       1 NClECP=     1 NCelD=      1
         NCelK=      1 NCelE2=     1 NClLst=     1 CellRange=     0.0.
 One-electron integrals computed using PRISM.
 NBasis=    74 RedAO= T EigKep=  1.75D-03  NBF=    74
 NBsUse=    74 1.00D-06 EigRej= -1.00D+00 NBFU=    74
 Precomputing XC quadrature grid using
 IXCGrd= 4 IRadAn=           7 IRanWt=          -1 IRanGd=           0 AccXCQ= 0.00D+00.
 Generated NRdTot=       0 NPtTot=           0 NUsed=           0 NTot=          32
 NSgBfM=    76    76    76    76    76 MxSgAt=     7 MxSgA2=     7.
 Leave Link  302 at Mon Apr 21 18:09:43 2025, MaxMem=   536870912 cpu:               1.5 elap:               0.3
 (Enter /home/szhao/Apps/g16/l303.exe)
 DipDrv:  MaxL=1.
 Leave Link  303 at Mon Apr 21 18:09:44 2025, MaxMem=   536870912 cpu:               0.6 elap:               0.4
 (Enter /home/szhao/Apps/g16/l401.exe)
 Initial guess from the checkpoint file:  "opt.chk"
 B after Tr=     0.001240   -0.003250    0.005427
         Rot=    0.999999   -0.000107    0.001280    0.000762 Ang=  -0.17 deg.
 Guess basis will be translated and rotated to current coordinates.
 JPrj=2 DoOrth=T DoCkMO=T.
 Initial guess <Sx>= 0.0000 <Sy>= 0.0000 <Sz>= 0.0000 <S**2>=-0.0000 S=-0.0000
 Generating alternative initial guess.
 ExpMin= 4.38D-02 ExpMax= 6.29D+03 ExpMxC= 9.49D+02 IAcc=3 IRadAn=         5 AccDes= 0.00D+00
 Harris functional with IExCor= 1009 and IRadAn=       5 diagonalized for initial guess.
 HarFok:  IExCor= 1009 AccDes= 0.00D+00 IRadAn=         5 IDoV= 1 UseB2=F ITyADJ=14
 ICtDFT=  3500011 ScaDFX=  1.000000  1.000000  1.000000  1.000000
 FoFCou: FMM=F IPFlag=           0 FMFlag=      100000 FMFlg1=           0
         NFxFlg=           0 DoJE=T BraDBF=F KetDBF=T FulRan=T
         wScrn=  0.000000 ICntrl=       500 IOpCl=  0 I1Cent=   200000004 NGrid=           0
         NMat0=    1 NMatS0=      1 NMatT0=    0 NMatD0=    1 NMtDS0=    0 NMtDT0=    0
 Symmetry not used in FoFCou.
 Harris En= -95.7757313942224    
 Leave Link  401 at Mon Apr 21 18:09:45 2025, MaxMem=   536870912 cpu:               3.3 elap:               0.5
 (Enter /home/szhao/Apps/g16/l502.exe)
 Keep R1 and R2 ints in memory in canonical form, NReq=14944651.
 FoFCou: FMM=F IPFlag=           0 FMFlag=           0 FMFlg1=           0
         NFxFlg=           0 DoJE=F BraDBF=F KetDBF=F FulRan=T
         wScrn=  0.000000 ICntrl=       600 IOpCl=  0 I1Cent=           0 NGrid=           0
         NMat0=    1 NMatS0=   2775 NMatT0=    0 NMatD0=    1 NMtDS0=    0 NMtDT0=    0
 Symmetry not used in FoFCou.
 Two-electron integral symmetry not used.
 UHF open shell SCF:
 Using DIIS extrapolation, IDIIS=  1040.
 NGot=   536870912 LenX=   529154583 LenY=   529148366
 Requested convergence on RMS density matrix=1.00D-08 within 128 cycles.
 Requested convergence on MAX density matrix=1.00D-06.
 Requested convergence on             energy=1.00D-06.
 No special actions if energy rises.

 Cycle   1  Pass 1  IDiag  1:
 E= -95.7899285185821    
 DIIS: error= 2.89D-03 at cycle   1 NSaved=   1.
 NSaved= 1 IEnMin= 1 EnMin= -95.7899285185821     IErMin= 1 ErrMin= 2.89D-03
 ErrMax= 2.89D-03  0.00D+00 EMaxC= 1.00D-01 BMatC= 1.39D-03 BMatP= 1.39D-03
 IDIUse=3 WtCom= 9.71D-01 WtEn= 2.89D-02
 Coeff-Com:  0.100D+01
 Coeff-En:   0.100D+01
 Coeff:      0.100D+01
 Gap=     0.539 Goal=   None    Shift=    0.000
 Gap=     0.539 Goal=   None    Shift=    0.000
 GapD=    0.539 DampG=2.000 DampE=1.000 DampFc=2.0000 IDamp=-1.
 RMSDP=3.14D-04 MaxDP=5.16D-03              OVMax= 8.56D-03

 Cycle   2  Pass 1  IDiag  1:
 E= -95.7903317656236     Delta-E=       -0.000403247042 Rises=F Damp=F
 DIIS: error= 8.52D-04 at cycle   2 NSaved=   2.
 NSaved= 2 IEnMin= 2 EnMin= -95.7903317656236     IErMin= 2 ErrMin= 8.52D-04
 ErrMax= 8.52D-04  0.00D+00 EMaxC= 1.00D-01 BMatC= 1.62D-04 BMatP= 1.39D-03
 IDIUse=3 WtCom= 9.91D-01 WtEn= 8.52D-03
 Coeff-Com:  0.823D-01 0.918D+00
 Coeff-En:   0.000D+00 0.100D+01
 Coeff:      0.816D-01 0.918D+00
 Gap=     0.342 Goal=   None    Shift=    0.000
 Gap=     0.342 Goal=   None    Shift=    0.000
 RMSDP=1.19D-04 MaxDP=2.44D-03 DE=-4.03D-04 OVMax= 5.04D-03

 Cycle   3  Pass 1  IDiag  1:
 E= -95.7903313891223     Delta-E=        0.000000376501 Rises=F Damp=F
 DIIS: error= 1.26D-03 at cycle   3 NSaved=   3.
 NSaved= 3 IEnMin= 2 EnMin= -95.7903317656236     IErMin= 2 ErrMin= 8.52D-04
 ErrMax= 1.26D-03  0.00D+00 EMaxC= 1.00D-01 BMatC= 2.09D-04 BMatP= 1.62D-04
 IDIUse=3 WtCom= 2.20D-01 WtEn= 7.80D-01
 Coeff-Com: -0.700D-01 0.560D+00 0.510D+00
 Coeff-En:   0.000D+00 0.502D+00 0.498D+00
 Coeff:     -0.154D-01 0.515D+00 0.500D+00
 Gap=     0.340 Goal=   None    Shift=    0.000
 Gap=     0.340 Goal=   None    Shift=    0.000
 RMSDP=6.10D-05 MaxDP=1.17D-03 DE= 3.77D-07 OVMax= 2.97D-03

 Cycle   4  Pass 1  IDiag  1:
 E= -95.7903770222828     Delta-E=       -0.000045633160 Rises=F Damp=F
 DIIS: error= 1.69D-04 at cycle   4 NSaved=   4.
 NSaved= 4 IEnMin= 4 EnMin= -95.7903770222828     IErMin= 4 ErrMin= 1.69D-04
 ErrMax= 1.69D-04  0.00D+00 EMaxC= 1.00D-01 BMatC= 4.51D-06 BMatP= 1.62D-04
 IDIUse=3 WtCom= 9.98D-01 WtEn= 1.69D-03
 Coeff-Com: -0.163D-01-0.840D-02 0.121D+00 0.904D+00
 Coeff-En:   0.000D+00 0.000D+00 0.000D+00 0.100D+01
 Coeff:     -0.163D-01-0.839D-02 0.121D+00 0.904D+00
 Gap=     0.340 Goal=   None    Shift=    0.000
 Gap=     0.340 Goal=   None    Shift=    0.000
 RMSDP=1.64D-05 MaxDP=2.03D-04 DE=-4.56D-05 OVMax= 7.21D-04

 Cycle   5  Pass 1  IDiag  1:
 E= -95.7903784376150     Delta-E=       -0.000001415332 Rises=F Damp=F
 DIIS: error= 2.50D-05 at cycle   5 NSaved=   5.
 NSaved= 5 IEnMin= 5 EnMin= -95.7903784376150     IErMin= 5 ErrMin= 2.50D-05
 ErrMax= 2.50D-05  0.00D+00 EMaxC= 1.00D-01 BMatC= 6.44D-08 BMatP= 4.51D-06
 IDIUse=1 WtCom= 1.00D+00 WtEn= 0.00D+00
 Coeff-Com:  0.528D-02-0.447D-01-0.429D-01 0.619D-02 0.108D+01
 Coeff:      0.528D-02-0.447D-01-0.429D-01 0.619D-02 0.108D+01
 Gap=     0.340 Goal=   None    Shift=    0.000
 Gap=     0.340 Goal=   None    Shift=    0.000
 RMSDP=6.10D-06 MaxDP=5.73D-05 DE=-1.42D-06 OVMax= 1.95D-04

 Cycle   6  Pass 1  IDiag  1:
 E= -95.7903784921173     Delta-E=       -0.000000054502 Rises=F Damp=F
 DIIS: error= 4.92D-06 at cycle   6 NSaved=   6.
 NSaved= 6 IEnMin= 6 EnMin= -95.7903784921173     IErMin= 6 ErrMin= 4.92D-06
 ErrMax= 4.92D-06  0.00D+00 EMaxC= 1.00D-01 BMatC= 4.17D-09 BMatP= 6.44D-08
 IDIUse=1 WtCom= 1.00D+00 WtEn= 0.00D+00
 Coeff-Com:  0.968D-03-0.377D-02-0.851D-02-0.290D-01 0.124D+00 0.916D+00
 Coeff:      0.968D-03-0.377D-02-0.851D-02-0.290D-01 0.124D+00 0.916D+00
 Gap=     0.340 Goal=   None    Shift=    0.000
 Gap=     0.340 Goal=   None    Shift=    0.000
 RMSDP=8.21D-07 MaxDP=9.87D-06 DE=-5.45D-08 OVMax= 3.92D-05

 Cycle   7  Pass 1  IDiag  1:
 E= -95.7903784943264     Delta-E=       -0.000000002209 Rises=F Damp=F
 DIIS: error= 2.06D-06 at cycle   7 NSaved=   7.
 NSaved= 7 IEnMin= 7 EnMin= -95.7903784943264     IErMin= 7 ErrMin= 2.06D-06
 ErrMax= 2.06D-06  0.00D+00 EMaxC= 1.00D-01 BMatC= 1.33D-09 BMatP= 4.17D-09
 IDIUse=1 WtCom= 1.00D+00 WtEn= 0.00D+00
 Coeff-Com: -0.595D-03 0.691D-02 0.424D-02-0.141D-01-0.154D+00 0.345D+00
 Coeff-Com:  0.813D+00
 Coeff:     -0.595D-03 0.691D-02 0.424D-02-0.141D-01-0.154D+00 0.345D+00
 Coeff:      0.813D+00
 Gap=     0.340 Goal=   None    Shift=    0.000
 Gap=     0.340 Goal=   None    Shift=    0.000
 RMSDP=3.70D-07 MaxDP=3.77D-06 DE=-2.21D-09 OVMax= 1.44D-05

 Cycle   8  Pass 1  IDiag  1:
 E= -95.7903784948292     Delta-E=       -0.000000000503 Rises=F Damp=F
 DIIS: error= 2.79D-07 at cycle   8 NSaved=   8.
 NSaved= 8 IEnMin= 8 EnMin= -95.7903784948292     IErMin= 8 ErrMin= 2.79D-07
 ErrMax= 2.79D-07  0.00D+00 EMaxC= 1.00D-01 BMatC= 1.50D-11 BMatP= 1.33D-09
 IDIUse=1 WtCom= 1.00D+00 WtEn= 0.00D+00
 Coeff-Com: -0.584D-04 0.355D-03 0.562D-03 0.179D-02-0.965D-02-0.239D-01
 Coeff-Com:  0.401D-01 0.991D+00
 Coeff:     -0.584D-04 0.355D-03 0.562D-03 0.179D-02-0.965D-02-0.239D-01
 Coeff:      0.401D-01 0.991D+00
 Gap=     0.340 Goal=   None    Shift=    0.000
 Gap=     0.340 Goal=   None    Shift=    0.000
 RMSDP=8.69D-08 MaxDP=1.15D-06 DE=-5.03D-10 OVMax= 2.70D-06

 Cycle   9  Pass 1  IDiag  1:
 E= -95.7903784948392     Delta-E=       -0.000000000010 Rises=F Damp=F
 DIIS: error= 9.68D-08 at cycle   9 NSaved=   9.
 NSaved= 9 IEnMin= 9 EnMin= -95.7903784948392     IErMin= 9 ErrMin= 9.68D-08
 ErrMax= 9.68D-08  0.00D+00 EMaxC= 1.00D-01 BMatC= 1.18D-12 BMatP= 1.50D-11
 IDIUse=1 WtCom= 1.00D+00 WtEn= 0.00D+00
 Coeff-Com:  0.267D-04-0.334D-03-0.222D-03 0.829D-03 0.653D-02-0.205D-01
 Coeff-Com: -0.421D-01-0.109D-01 0.107D+01
 Coeff:      0.267D-04-0.334D-03-0.222D-03 0.829D-03 0.653D-02-0.205D-01
 Coeff:     -0.421D-01-0.109D-01 0.107D+01
 Gap=     0.340 Goal=   None    Shift=    0.000
 Gap=     0.340 Goal=   None    Shift=    0.000
 RMSDP=2.50D-08 MaxDP=3.82D-07 DE=-1.00D-11 OVMax= 8.86D-07

 Cycle  10  Pass 1  IDiag  1:
 E= -95.7903784948401     Delta-E=       -0.000000000001 Rises=F Damp=F
 DIIS: error= 9.20D-09 at cycle  10 NSaved=  10.
 NSaved=10 IEnMin=10 EnMin= -95.7903784948401     IErMin=10 ErrMin= 9.20D-09
 ErrMax= 9.20D-09  0.00D+00 EMaxC= 1.00D-01 BMatC= 1.94D-14 BMatP= 1.18D-12
 IDIUse=1 WtCom= 1.00D+00 WtEn= 0.00D+00
 Coeff-Com: -0.107D-05 0.254D-04 0.546D-05-0.137D-03-0.363D-03 0.351D-02
 Coeff-Com:  0.425D-02-0.317D-01-0.132D+00 0.116D+01
 Coeff:     -0.107D-05 0.254D-04 0.546D-05-0.137D-03-0.363D-03 0.351D-02
 Coeff:      0.425D-02-0.317D-01-0.132D+00 0.116D+01
 Gap=     0.340 Goal=   None    Shift=    0.000
 Gap=     0.340 Goal=   None    Shift=    0.000
 RMSDP=4.45D-09 MaxDP=6.00D-08 DE=-9.09D-13 OVMax= 1.69D-07

 SCF Done:  E(UM062X) =  -95.7903784948     A.U. after   10 cycles
            NFock= 10  Conv=0.44D-08     -V/T= 2.0070
 <Sx>= 0.0000 <Sy>= 0.0000 <Sz>= 0.0000 <S**2>=-0.0000 S=-0.0000
 <L.S>=  0.00000000000    
 KE= 9.512003767976D+01 PE=-2.982566200590D+02 EE= 6.954901274352D+01
 Annihilation of the first spin contaminant:
 S**2 before annihilation    -0.0000,   after    -0.0000
 Leave Link  502 at Mon Apr 21 18:09:54 2025, MaxMem=   536870912 cpu:              69.2 elap:               9.1
 (Enter /home/szhao/Apps/g16/l701.exe)
 ... and contract with generalized density number  0.
 Compute integral first derivatives.
 Leave Link  701 at Mon Apr 21 18:09:54 2025, MaxMem=   536870912 cpu:               1.7 elap:               0.3
 (Enter /home/szhao/Apps/g16/l702.exe)
 L702 exits ... SP integral derivatives will be done elsewhere.
 Leave Link  702 at Mon Apr 21 18:09:55 2025, MaxMem=   536870912 cpu:               0.5 elap:               0.1
 (Enter /home/szhao/Apps/g16/l703.exe)
 Integral derivatives from FoFJK, PRISM(SPDF).
 Compute integral first derivatives, UseDBF=F ICtDFT=           0.
 Calling FoFJK, ICntrl=      2127 FMM=F ISym2X=0 I1Cent= 0 IOpClX= 1 NMat=1 NMatS=1 NMatT=0.
 FoFJK:  IHMeth= 1 ICntrl=    2127 DoSepK=F KAlg= 0 I1Cent=           0 FoldK=F
 IRaf=         0 NMat=       1 IRICut=       1 DoRegI=T DoRafI=F ISym2E= 0 IDoP0=0 IntGTp=1.
 FoFCou: FMM=F IPFlag=           0 FMFlag=      100000 FMFlg1=         800
         NFxFlg=           0 DoJE=F BraDBF=F KetDBF=F FulRan=T
         wScrn=  0.000000 ICntrl=      2127 IOpCl=  1 I1Cent=           0 NGrid=           0
         NMat0=    1 NMatS0=      1 NMatT0=    0 NMatD0=    1 NMtDS0=    0 NMtDT0=    0
 Symmetry not used in FoFCou.
 Leave Link  703 at Mon Apr 21 18:09:56 2025, MaxMem=   536870912 cpu:              13.1 elap:               1.7
 (Enter /home/szhao/Apps/g16/l716.exe)
 Dipole        =-5.25302967D-01-3.30564873D-01 5.57894814D-01
 -------------------------------------------------------------------
 Center     Atomic                   Forces (Hartrees/Bohr)
 Number     Number              X              Y              Z
 -------------------------------------------------------------------
      1        6          -0.000000000   -0.000000000   -0.000000000
      2        7          -0.000000000   -0.000000000   -0.000000000
      3        1           0.000138405    0.000060476    0.000348384
      4        1          -0.000002106    0.000049836   -0.000037272
      5        1           0.000151402   -0.000324566    0.000113288
      6        1          -0.000005993    0.000007692   -0.000062721
      7        1           0.000562262   -0.000046795    0.000073912
 -------------------------------------------------------------------
 Cartesian Forces:  Max     0.000562262 RMS     0.000171406
 Leave Link  716 at Mon Apr 21 18:09:57 2025, MaxMem=   536870912 cpu:               0.5 elap:               0.1
 (Enter /home/szhao/Apps/g16/l103.exe)

 GradGradGradGradGradGradGradGradGradGradGradGradGradGradGradGradGradGrad
 Berny optimization.
 Using GEDIIS/GDIIS optimizer.
 FormGI is forming the generalized inverse of G from B-inverse, IUseBI=4.
 Internal  Forces:  Max     0.000922158 RMS     0.000267208
 Search for a local minimum.
 Step number   3 out of a maximum of   36
 All quantities printed in internal units (Hartrees-Bohrs-Radians)
 RMS Force = .25775D-03 SwitMx=.10000D-02 MixMth= 2
 Mixed Optimization -- En-DIIS/RFO-DIIS
 Update second derivatives using D2CorX and points    1    2    3
 DE= -5.72D-04 DEPred=-6.55D-04 R= 8.74D-01
 TightC=F SS=  1.41D+00  RLast= 9.82D-02 DXNew= 8.4853D-01 2.9473D-01
 Trust test= 8.74D-01 RLast= 9.82D-02 DXMaxT set to 5.05D-01
 ITU=  1  1  0
 Use linear search instead of GDIIS.
     Eigenvalues ---    0.00230   0.05285   0.07725   0.08309   0.13540
     Eigenvalues ---    0.15893   0.16000   0.16000   0.17143   0.33838
     Eigenvalues ---    0.34617   0.34689   0.45331   0.455101000.00000
     Eigenvalues --- 1000.000001000.000001000.000001000.000001000.00000
     Eigenvalues --- 1000.000001000.000001000.000001000.000001000.00000
     Eigenvalues --- 1000.00000
 RFO step:  Lambda=-8.74427065D-06 EMin= 2.30001283D-03
 Quartic linear search produced a step of  0.04368.
 Iteration  1 RMS(Cart)=  0.00305990 RMS(Int)=  0.00002359
 Iteration  2 RMS(Cart)=  0.00000944 RMS(Int)=  0.00002165
 Iteration  3 RMS(Cart)=  0.00000000 RMS(Int)=  0.00002165
 ITry= 1 IFail=0 DXMaxC= 1.32D-02 DCOld= 1.00D+10 DXMaxT= 5.05D-01 DXLimC= 3.00D+00 Rises=F
 Variable       Old X    -DE/DX   Delta X   Delta X   Delta X     New X
                                 (Linear)    (Quad)   (Total)
    X1       -1.75847   0.00055   0.00000   0.00000   0.00000  -1.75847
    Y1        0.00000  -0.00016   0.00000   0.00000   0.00000   0.00000
    Z1        0.00000   0.00028   0.00000   0.00000   0.00000   0.00000
    X2        1.75847   0.00029   0.00000   0.00000   0.00000   1.75847
    Y2        0.00000  -0.00009   0.00000   0.00000   0.00000   0.00000
    Z2        0.00000   0.00016   0.00000   0.00000   0.00000   0.00000
    R1        2.04768   0.00005  -0.00026   0.00032   0.00006   2.04774
    R2        2.04768   0.00005  -0.00026   0.00033   0.00007   2.04775
    R3        2.05155  -0.00010  -0.00030  -0.00011  -0.00042   2.05113
    R4        1.92585  -0.00000   0.00036  -0.00026   0.00011   1.92595
    R5        1.92584   0.00000   0.00036  -0.00024   0.00012   1.92596
    A1        1.80405   0.00012  -0.00089   0.00149   0.00058   1.80463
    A2        1.80403   0.00013  -0.00089   0.00152   0.00061   1.80465
    A3        1.90356  -0.00092  -0.00173  -0.00498  -0.00673   1.89682
    A4        1.96739   0.00003   0.00088   0.00025   0.00111   1.96850
    A5        1.98264   0.00027   0.00108   0.00076   0.00182   1.98446
    A6        1.98265   0.00027   0.00108   0.00074   0.00179   1.98443
    A7        1.76373   0.00019  -0.00174   0.00180   0.00004   1.76378
    A8        1.76365   0.00021  -0.00174   0.00195   0.00020   1.76384
    A9        1.83580  -0.00032  -0.00052  -0.00393  -0.00452   1.83128
    D1        3.05797  -0.00018  -0.00091  -0.00329  -0.00418   3.05379
    D2        1.17192   0.00005   0.00070  -0.00016   0.00052   1.17244
    D3       -1.17132  -0.00005  -0.00067  -0.00184  -0.00249  -1.17381
    D4       -3.05737   0.00018   0.00094   0.00129   0.00221  -3.05516
    D5        0.94332  -0.00012  -0.00079  -0.00257  -0.00334   0.93998
    D6       -0.94273   0.00011   0.00082   0.00056   0.00136  -0.94137
         Item               Value     Threshold  Converged?
 Maximum Force            0.000922     0.000450     NO 
 RMS     Force            0.000258     0.000300     YES
 Maximum Displacement     0.013205     0.001800     NO 
 RMS     Displacement     0.003061     0.001200     NO 
 Predicted change in Energy=-5.446191D-06
 Lowest energy point so far.  Saving SCF results.
 GradGradGradGradGradGradGradGradGradGradGradGradGradGradGradGradGradGrad

 Leave Link  103 at Mon Apr 21 18:09:57 2025, MaxMem=   536870912 cpu:               0.5 elap:               0.1
 (Enter /home/szhao/Apps/g16/l202.exe)
[...]
     Eigenvalues ---    0.15308   0.16000   0.16004   0.16734   0.33818
     Eigenvalues ---    0.34633   0.34689   0.45276   0.455101000.00000
     Eigenvalues --- 1000.000001000.000001000.000001000.000001000.00000
     Eigenvalues --- 1000.000001000.000001000.000001000.000001000.00000
     Eigenvalues --- 1000.00000
 En-DIIS/RFO-DIIS/Sim-DIIS IScMMF=       -3 using points:     4    3
 RFO step:  Lambda=-1.91957034D-07.
 NNeg= 0 NGDIIS= 2 SimSw=  2.50D-01 Rises=F DC= -5.79D-06 SmlDif=  1.00D-05
 NRisDI= 0 DoIntr=F SqrtH=F CThrHd= 10.0 CDAdj=  3.0
 RMS Error=  0.3527161002D-03 NUsed= 2 OKEnD=F EnDIS=F
 InvSVX:  RCond= 2.90D-05 Info=           0 Equed=N FErr=  1.09D-15 BErr=  4.51D-17
 DidBck=F Rises=F RFO-DIIS coefs:    1.07930   -0.07930
 Iteration  1 RMS(Cart)=  0.00050456 RMS(Int)=  0.00000023
 Iteration  2 RMS(Cart)=  0.00000019 RMS(Int)=  0.00000012
 ITry= 1 IFail=0 DXMaxC= 1.69D-03 DCOld= 1.00D+10 DXMaxT= 5.05D-01 DXLimC= 3.00D+00 Rises=F
 Variable       Old X    -DE/DX   Delta X   Delta X   Delta X     New X
                                 (Linear)    (Quad)   (Total)
    X1       -1.75847  -0.00002   0.00000   0.00000   0.00000  -1.75847
    Y1        0.00000  -0.00005   0.00000   0.00000   0.00000   0.00000
    Z1        0.00000   0.00008   0.00000   0.00000   0.00000   0.00000
    X2        1.75847   0.00004   0.00000   0.00000   0.00000   1.75847
    Y2        0.00000   0.00000   0.00000   0.00000   0.00000   0.00000
    Z2        0.00000   0.00000   0.00000   0.00000   0.00000   0.00000
    R1        2.04774  -0.00001   0.00000  -0.00005  -0.00004   2.04770
    R2        2.04775  -0.00001   0.00001  -0.00005  -0.00005   2.04770
    R3        2.05113  -0.00001  -0.00003  -0.00001  -0.00004   2.05109
    R4        1.92595   0.00007   0.00001   0.00015   0.00016   1.92612
    R5        1.92596   0.00007   0.00001   0.00015   0.00016   1.92612
    A1        1.80463   0.00007   0.00005   0.00043   0.00048   1.80511
    A2        1.80465   0.00006   0.00005   0.00037   0.00042   1.80506
    A3        1.89682  -0.00010  -0.00053  -0.00033  -0.00086   1.89596
    A4        1.96850  -0.00003   0.00009  -0.00009  -0.00001   1.96849
    A5        1.98446  -0.00000   0.00014  -0.00015  -0.00000   1.98446
    A6        1.98443   0.00000   0.00014  -0.00013   0.00001   1.98444
    A7        1.76378   0.00002   0.00000   0.00014   0.00014   1.76392
    A8        1.76384   0.00002   0.00002   0.00010   0.00011   1.76396
    A9        1.83128  -0.00000  -0.00036   0.00041   0.00005   1.83133
    D1        3.05379  -0.00001  -0.00033  -0.00033  -0.00067   3.05313
    D2        1.17244  -0.00002   0.00004  -0.00083  -0.00079   1.17166
    D3       -1.17381   0.00002  -0.00020  -0.00012  -0.00032  -1.17413
    D4       -3.05516   0.00001   0.00018  -0.00062  -0.00044  -3.05560
    D5        0.93998   0.00000  -0.00026  -0.00024  -0.00050   0.93948
    D6       -0.94137  -0.00001   0.00011  -0.00073  -0.00062  -0.94199
         Item               Value     Threshold  Converged?
 Maximum Force            0.000104     0.000450     YES
 RMS     Force            0.000039     0.000300     YES
 Maximum Displacement     0.001686     0.001800     YES
 RMS     Displacement     0.000505     0.001200     YES
 Predicted change in Energy=-9.598069D-08
 Optimization completed.
    -- Stationary point found.
                           ----------------------------
                           !   Optimized Parameters   !
                           ! (Angstroms and Degrees)  !
 --------------------------                            --------------------------
 ! Name  Definition              Value          Derivative Info.                !
 --------------------------------------------------------------------------------
 ! X1    R(1,-1)                -0.9305         -DE/DX =    0.0                 !
 ! Y1    R(1,-2)                 0.0            -DE/DX =    0.0                 !
 ! Z1    R(1,-3)                 0.0            -DE/DX =    0.0001              !
 ! X2    R(2,-1)                 0.9305         -DE/DX =    0.0                 !
 ! Y2    R(2,-2)                 0.0            -DE/DX =    0.0                 !
 ! Z2    R(2,-3)                 0.0            -DE/DX =    0.0                 !
 ! R1    R(1,4)                  1.0836         -DE/DX =    0.0                 !
 ! R2    R(1,6)                  1.0836         -DE/DX =    0.0                 !
 ! R3    R(1,7)                  1.0854         -DE/DX =    0.0                 !
 ! R4    R(2,3)                  1.0192         -DE/DX =    0.0001              !
 ! R5    R(2,5)                  1.0192         -DE/DX =    0.0001              !
 ! A1    A(2,1,4)              103.3979         -DE/DX =    0.0001              !
 ! A2    A(2,1,6)              103.3986         -DE/DX =    0.0001              !
 ! A3    A(2,1,7)              108.6801         -DE/DX =   -0.0001              !
 ! A4    A(4,1,6)              112.7867         -DE/DX =    0.0                 !
 ! A5    A(4,1,7)              113.7011         -DE/DX =    0.0                 !
 ! A6    A(6,1,7)              113.6997         -DE/DX =    0.0                 !
 ! A7    A(1,2,3)              101.057          -DE/DX =    0.0                 !
 ! A8    A(1,2,5)              101.0607         -DE/DX =    0.0                 !
 ! A9    A(3,2,5)              104.9247         -DE/DX =    0.0                 !
 ! D1    D(4,1,2,3)            174.9696         -DE/DX =    0.0                 !
 ! D2    D(4,1,2,5)             67.1761         -DE/DX =    0.0                 !
 ! D3    D(6,1,2,3)            -67.2543         -DE/DX =    0.0                 !
 ! D4    D(6,1,2,5)           -175.0478         -DE/DX =    0.0                 !
 ! D5    D(7,1,2,3)             53.857          -DE/DX =    0.0                 !
 ! D6    D(7,1,2,5)            -53.9364         -DE/DX =    0.0                 !
 --------------------------------------------------------------------------------
 Lowest energy point so far.  Saving SCF results.
 Largest change from initial coordinates is atom    5       0.121 Angstoms.
 GradGradGradGradGradGradGradGradGradGradGradGradGradGradGradGradGradGrad

 Leave Link  103 at Mon Apr 21 18:10:09 2025, MaxMem=   536870912 cpu:               0.6 elap:               0.1
 (Enter /home/szhao/Apps/g16/l202.exe)
                          Input orientation:                          
 ---------------------------------------------------------------------
 Center     Atomic      Atomic             Coordinates (Angstroms)
 Number     Number       Type             X           Y           Z
 ---------------------------------------------------------------------
      1          6           0       -0.930542    0.000000    0.000000
      2          7           0        0.930542    0.000000    0.000000
      3          1           0        1.126004   -0.995667    0.095663
      4          1           0       -1.181630    1.054093   -0.008420
      5          1           0        1.126070    0.395346    0.918797
      6          1           0       -1.181644   -0.498675   -0.928711
      7          1           0       -1.278182   -0.524262    0.884544
 ---------------------------------------------------------------------
                    Distance matrix (angstroms):
                    1          2          3          4          5
     1  C    0.000000
     2  N    1.861084   0.000000
     3  H    2.286894   1.019171   0.000000
     4  H    1.083618   2.360605   3.088288   0.000000
     5  H    2.286950   1.019175   1.616313   2.572772   0.000000
     6  H    1.083621   2.360617   2.573243   1.805000   3.088382
     7  H    1.085413   2.436336   2.573842   1.816015   2.574350
                    6          7
     6  H    0.000000
     7  H    1.816003   0.000000
 Symmetry turned off by external request.
 Stoichiometry    CH5N
 Framework group  C1[X(CH5N)]
 Deg. of freedom    15
 Full point group                 C1      NOp   1
 Rotational constants (GHZ):          96.8216272          15.8680202          15.5283170
 Leave Link  202 at Mon Apr 21 18:10:09 2025, MaxMem=   536870912 cpu:               0.1 elap:               0.1
 (Enter /home/szhao/Apps/g16/l601.exe)
 Copying SCF densities to generalized density rwf, IOpCl= 1 IROHF=0.

 **********************************************************************

            Population analysis using the SCF density.

 **********************************************************************

 Alpha  occ. eigenvalues --  -14.74059 -10.57591  -0.92669  -0.76839  -0.53303
 Alpha  occ. eigenvalues --   -0.49362  -0.46775  -0.40241  -0.32553
 Alpha virt. eigenvalues --    0.01435   0.02278   0.05156   0.05929   0.10468
 Alpha virt. eigenvalues --    0.12399   0.13818   0.16090   0.17024   0.18831
 Alpha virt. eigenvalues --    0.21604   0.22483   0.22742   0.30829   0.42338
 Alpha virt. eigenvalues --    0.43546   0.50291   0.55407   0.63118   0.64762
 Alpha virt. eigenvalues --    0.65879   0.68430   0.79785   0.83647   0.88944
 Alpha virt. eigenvalues --    0.90177   1.09596   1.11367   1.22412   1.32143
 Alpha virt. eigenvalues --    1.37337   1.46131   1.47180   1.56558   1.58208
 Alpha virt. eigenvalues --    1.68604   1.71201   1.77790   1.78906   1.92407
 Alpha virt. eigenvalues --    1.95438   2.09883   2.13938   2.15033   2.41759
 Alpha virt. eigenvalues --    2.44932   2.49664   2.50312   2.50647   2.56883
 Alpha virt. eigenvalues --    2.57207   2.61717   2.66672   2.73432   2.84320
 Alpha virt. eigenvalues --    2.95809   3.14161   3.25496   3.77133   3.77218
 Alpha virt. eigenvalues --    4.05040   4.37454   4.73639  23.97435  35.61538
  Beta  occ. eigenvalues --  -14.74059 -10.57591  -0.92669  -0.76839  -0.53303
  Beta  occ. eigenvalues --   -0.49362  -0.46775  -0.40241  -0.32553
  Beta virt. eigenvalues --    0.01435   0.02278   0.05156   0.05929   0.10468
  Beta virt. eigenvalues --    0.12399   0.13818   0.16090   0.17024   0.18831
  Beta virt. eigenvalues --    0.21604   0.22483   0.22742   0.30829   0.42338
  Beta virt. eigenvalues --    0.43546   0.50291   0.55407   0.63118   0.64762
  Beta virt. eigenvalues --    0.65879   0.68430   0.79785   0.83647   0.88944
  Beta virt. eigenvalues --    0.90177   1.09596   1.11367   1.22412   1.32143
  Beta virt. eigenvalues --    1.37337   1.46131   1.47180   1.56558   1.58208
  Beta virt. eigenvalues --    1.68604   1.71201   1.77790   1.78906   1.92407
  Beta virt. eigenvalues --    1.95438   2.09883   2.13938   2.15033   2.41759
  Beta virt. eigenvalues --    2.44932   2.49664   2.50312   2.50647   2.56883
  Beta virt. eigenvalues --    2.57207   2.61717   2.66672   2.73432   2.84320
  Beta virt. eigenvalues --    2.95809   3.14161   3.25496   3.77133   3.77218
  Beta virt. eigenvalues --    4.05040   4.37454   4.73639  23.97435  35.61538
          Condensed to atoms (all electrons):
               1          2          3          4          5          6
     1  C    5.058833   0.211165  -0.028225   0.405124  -0.028222   0.405111
     2  N    0.211165   6.672796   0.388596  -0.026876   0.388592  -0.026852
     3  H   -0.028225   0.388596   0.455857   0.003490  -0.053960  -0.003045
     4  H    0.405124  -0.026876   0.003490   0.496152  -0.003046  -0.020691
     5  H   -0.028222   0.388592  -0.053960  -0.003046   0.455862   0.003488
     6  H    0.405111  -0.026852  -0.003045  -0.020691   0.003488   0.496127
     7  H    0.396026  -0.045445  -0.000605  -0.027176  -0.000601  -0.027186
               7
     1  C    0.396026
     2  N   -0.045445
     3  H   -0.000605
     4  H   -0.027176
     5  H   -0.000601
     6  H   -0.027186
     7  H    0.545053
          Atomic-Atomic Spin Densities.
               1          2          3          4          5          6
     1  C   -0.000000   0.000000  -0.000000  -0.000000  -0.000000   0.000000
     2  N    0.000000   0.000000  -0.000000   0.000000  -0.000000   0.000000
     3  H   -0.000000  -0.000000  -0.000000  -0.000000  -0.000000  -0.000000
     4  H   -0.000000   0.000000  -0.000000   0.000000  -0.000000   0.000000
     5  H   -0.000000  -0.000000  -0.000000  -0.000000  -0.000000  -0.000000
     6  H    0.000000   0.000000  -0.000000   0.000000  -0.000000   0.000000
     7  H    0.000000  -0.000000   0.000000   0.000000   0.000000  -0.000000
               7
     1  C    0.000000
     2  N   -0.000000
     3  H    0.000000
     4  H    0.000000
     5  H    0.000000
     6  H   -0.000000
     7  H    0.000000
 Mulliken charges and spin densities:
               1          2
     1  C   -0.419811  -0.000000
     2  N   -0.561975   0.000000
     3  H    0.237892  -0.000000
     4  H    0.173023   0.000000
     5  H    0.237887  -0.000000
     6  H    0.173048   0.000000
     7  H    0.159935   0.000000
 Sum of Mulliken charges =  -0.00000   0.00000
 Mulliken charges and spin densities with hydrogens summed into heavy atoms:
               1          2
     1  C    0.086195  -0.000000
     2  N   -0.086195   0.000000
 Electronic spatial extent (au):  <R**2>=            115.5265
 Charge=             -0.0000 electrons
 Dipole moment (field-independent basis, Debye):
    X=             -1.3393    Y=             -0.8420    Z=              1.4229  Tot=              2.1278
 Quadrupole moment (field-independent basis, Debye-Ang):
   XX=            -14.9824   YY=            -13.2825   ZZ=            -14.2485
   XY=             -1.2553   XZ=              2.1217   YZ=              0.8796
 Traceless Quadrupole moment (field-independent basis, Debye-Ang):
   XX=             -0.8113   YY=              0.8886   ZZ=             -0.0774
   XY=             -1.2553   XZ=              2.1217   YZ=              0.8796
 Octapole moment (field-independent basis, Debye-Ang**2):
  XXX=              0.5270  YYY=              0.5083  ZZZ=             -0.6254  XYY=              0.9871
  XXY=             -1.2769  XXZ=              2.1581  XZZ=             -0.0728  YZZ=             -0.0199
  YYZ=             -0.2000  XYZ=              0.9652
 Hexadecapole moment (field-independent basis, Debye-Ang**3):
 XXXX=           -108.8758 YYYY=            -23.9866 ZZZZ=            -25.3208 XXXY=             -1.1495
 XXXZ=              1.9437 YYYX=             -1.9979 YYYZ=              0.2353 ZZZX=              0.2613
 ZZZY=              0.9799 XXYY=            -19.8327 XXZZ=            -20.9186 YYZZ=             -8.5339
 XXYZ=              0.9889 YYXZ=              0.0034 ZZXY=              1.8412
 N-N= 3.780067373340D+01 E-N=-2.982641566052D+02  KE= 9.512079031178D+01
                          Isotropic Fermi Contact Couplings
        Atom                 a.u.       MegaHertz       Gauss      10(-4) cm-1
     1  C(13)              0.00000       0.00000       0.00000       0.00000
     2  N(14)              0.00000       0.00000       0.00000       0.00000
     3  H(1)               0.00000       0.00000       0.00000       0.00000
     4  H(1)               0.00000       0.00000       0.00000       0.00000
     5  H(1)              -0.00000      -0.00000      -0.00000      -0.00000
     6  H(1)              -0.00000      -0.00000      -0.00000      -0.00000
     7  H(1)              -0.00000      -0.00000      -0.00000      -0.00000
 --------------------------------------------------------
       Center         ----  Spin Dipole Couplings  ----
                      3XX-RR        3YY-RR        3ZZ-RR
 --------------------------------------------------------
     1   Atom        0.000000      0.000000      0.000000
     2   Atom        0.000000      0.000000      0.000000
     3   Atom        0.000000      0.000000      0.000000
     4   Atom        0.000000      0.000000      0.000000
     5   Atom        0.000000      0.000000      0.000000
     6   Atom        0.000000      0.000000      0.000000
     7   Atom        0.000000      0.000000      0.000000
 --------------------------------------------------------
                        XY            XZ            YZ
 --------------------------------------------------------
     1   Atom        0.000000      0.000000      0.000000
     2   Atom        0.000000      0.000000      0.000000
     3   Atom        0.000000      0.000000      0.000000
     4   Atom        0.000000      0.000000      0.000000
     5   Atom        0.000000      0.000000      0.000000
     6   Atom        0.000000      0.000000      0.000000
     7   Atom        0.000000      0.000000      0.000000
 --------------------------------------------------------


 ---------------------------------------------------------------------------------
              Anisotropic Spin Dipole Couplings in Principal Axis System
 ---------------------------------------------------------------------------------

       Atom             a.u.   MegaHertz   Gauss  10(-4) cm-1        Axes

              Baa     0.0000     0.000     0.000     0.000  1.0000  0.0000  0.0000
     1 C(13)  Bbb     0.0000     0.000     0.000     0.000 -0.0000  1.0000  0.0000
              Bcc     0.0000     0.000     0.000     0.000  0.0000  0.0000  1.0000
 
              Baa     0.0000     0.000     0.000     0.000  1.0000  0.0000  0.0000
     2 N(14)  Bbb     0.0000     0.000     0.000     0.000 -0.0000  1.0000  0.0000
              Bcc     0.0000     0.000     0.000     0.000  0.0000  0.0000  1.0000
 
              Baa     0.0000     0.000     0.000     0.000  1.0000  0.0000  0.0000
     3 H(1)   Bbb     0.0000     0.000     0.000     0.000 -0.0000  1.0000  0.0000
              Bcc     0.0000     0.000     0.000     0.000  0.0000  0.0000  1.0000
 
              Baa     0.0000     0.000     0.000     0.000  1.0000  0.0000  0.0000
     4 H(1)   Bbb     0.0000     0.000     0.000     0.000 -0.0000  1.0000  0.0000
              Bcc     0.0000     0.000     0.000     0.000  0.0000  0.0000  1.0000
 
              Baa     0.0000     0.000     0.000     0.000  1.0000  0.0000  0.0000
     5 H(1)   Bbb     0.0000     0.000     0.000     0.000 -0.0000  1.0000  0.0000
              Bcc     0.0000     0.000     0.000     0.000  0.0000  0.0000  1.0000
 
              Baa     0.0000     0.000     0.000     0.000  1.0000  0.0000  0.0000
     6 H(1)   Bbb     0.0000     0.000     0.000     0.000 -0.0000  1.0000  0.0000
              Bcc     0.0000     0.000     0.000     0.000  0.0000  0.0000  1.0000
 
              Baa     0.0000     0.000     0.000     0.000  1.0000  0.0000  0.0000
     7 H(1)   Bbb     0.0000     0.000     0.000     0.000 -0.0000  1.0000  0.0000
              Bcc     0.0000     0.000     0.000     0.000  0.0000  0.0000  1.0000
 

 ---------------------------------------------------------------------------------

 No NMR shielding tensors so no spin-rotation constants.
 Leave Link  601 at Mon Apr 21 18:10:10 2025, MaxMem=   536870912 cpu:               1.7 elap:               0.3
 (Enter /home/szhao/Apps/g16/l9999.exe)
 1\1\GINC-NODE06\FOpt\UM062X\6-311+G(d,p)\C1H5N1\SZHAO\21-Apr-2025\0\\#
 p opt UM062X/6-311+G** nosymm int=superfine\\Title Card Required\\0,1\
 C,-0.93054223,0.,0.\N,0.93054223,0.,0.\H,1.126003685,-0.9956672151,0.0
 956632335\H,-1.1816301674,1.0540927952,-0.0084200055\H,1.1260696107,0.
 3953461192,0.918797225\H,-1.181644065,-0.4986754874,-0.928711138\H,-1.
 2781819442,-0.5242620696,0.8845437578\\Version=ES64L-G16RevA.03\HF=-95
 .7903843\S2=0.\S2-1=0.\S2A=0.\RMSD=5.801e-09\RMSF=2.651e-05\Dipole=-0.
 5269322,-0.331267,0.5598131\Quadrupole=-0.6031478,0.6606692,-0.0575214
 ,-0.9333168,1.5774219,0.6539496\PG=C01 [X(C1H5N1)]\\@


 ... IT CAN BE VERY DIFFICULT, IN THESE COMPLEX TIMES,
 TO UNDERSTAND JUST HOW SCIENTISTS DO WHAT THEY DO.

                     DON MOSER IN THE FEBRUARY 1979 SMITHSONIAN
 Job cpu time:       0 days  0 hours  6 minutes 14.0 seconds.
 Elapsed time:       0 days  0 hours  0 minutes 51.7 seconds.
 File lengths (MBytes):  RWF=     22 Int=      0 D2E=      0 Chk=      2 Scr=      2
 Normal termination of Gaussian 16 at Mon Apr 21 18:10:10 2025.
