 vasp.6.3.1 04May22 (build Aug 04 2022 13:02:54) complex                        
  
 executed on             LinuxIFC date 2024.11.25  05:12:32
 running on   28 total cores
 distrk:  each k-point on   28 cores,    1 groups
 distr:  one band on NCORE=  14 cores,    2 groups


--------------------------------------------------------------------------------------------------------


 INCAR:
   ISTART = 1            (Read existing wavefunction
   ISPIN = 1            (Non-Spin polarised DFT)
   LREAL = .FALSE.       (Projection operators: automatic)
   ENCUT = 520        (Cut-off energy for plane wave basis set, in eV)
   PREC = A       (Precision level)
   LWAVE = .FALSE.        (Write WAVECAR or not)
   LCHARG = .FALSE.        (Write CHGCAR or not)
   ADDGRID = .TRUE.        (Increase grid
   KSPACING = 0.2000
   KGAMMA = .FALSE.
   IVDW = 12
   ISMEAR = 0            (Gaussian smearing
   SIGMA = 0.05         (Smearing value in eV
   NELM = 200           (Max electronic SCF steps)
   NELMIN = 6            (Min electronic SCF steps)
   EDIFF = 1E-08        (SCF energy convergence
   NSW = 0          (Max ionic steps)
   IBRION = -1            (Algorithm: 0-MD
   ISIF = 3           (Stress/relaxation: 2-Ions, 3-Shape/Ions/V, 4-Shape/Ions)
   EDIFFG = -1E-04        (Ionic convergence
   NCORE = 14

 POTCAR:    PAW_PBE C 08Apr2002                   
 -----------------------------------------------------------------------------
|                                                                             |
|           W    W    AA    RRRRR   N    N  II  N    N   GGGG   !!!           |
|           W    W   A  A   R    R  NN   N  II  NN   N  G    G  !!!           |
|           W    W  A    A  R    R  N N  N  II  N N  N  G       !!!           |
|           W WW W  AAAAAA  RRRRR   N  N N  II  N  N N  G  GGG   !            |
|           WW  WW  A    A  R   R   N   NN  II  N   NN  G    G                |
|           W    W  A    A  R    R  N    N  II  N    N   GGGG   !!!           |
|                                                                             |
|     For optimal performance we recommend to set                             |
|       NCORE = 2 up to number-of-cores-per-socket                            |
|     NCORE specifies how many cores store one orbital (NPAR=cpu/NCORE).      |
|     This setting can greatly improve the performance of VASP for DFT.       |
|     The default, NCORE=1 might be grossly inefficient on modern             |
|     multi-core architectures or massively parallel machines. Do your        |
|     own testing! More info at https://www.vasp.at/wiki/index.php/NCORE      |
|     Unfortunately you need to use the default for GW and RPA                |
|     calculations (for HF NCORE is supported but not extensively tested      |
|     yet).                                                                   |
|                                                                             |
 -----------------------------------------------------------------------------

 POTCAR:    PAW_PBE C 08Apr2002                   
   VRHFIN =C: s2p2                                                                                  
   LEXCH  = PE                                                                                      
   EATOM  =   147.1560 eV,   10.8157 Ry                                                             
                                                                                                    
   TITEL  = PAW_PBE C 08Apr2002                                                                     
   LULTRA =        F    use ultrasoft PP ?                                                          
   IUNSCR =        1    unscreen: 0-lin 1-nonlin 2-no                                               
   RPACOR =    1.200    partial core radius                                                         
   POMASS =   12.011; ZVAL   =    4.000    mass and valenz                                          
   RCORE  =    1.500    outmost cutoff radius                                                       
   RWIGS  =    1.630; RWIGS  =    0.863    wigner-seitz radius (au A)                               
   ENMAX  =  400.000; ENMIN  =  300.000 eV                                                          
   ICORE  =        2    local potential                                                             
   LCOR   =        T    correct aug charges                                                         
   LPAW   =        T    paw PP                                                                      
   EAUG   =  644.873                                                                                
   DEXC   =    0.000                                                                                
   RMAX   =    1.529    core radius for proj-oper                                                   
   RAUG   =    1.300    factor for augmentation sphere                                              
   RDEP   =    1.501    radius for radial grids                                                     
   RDEPT  =    1.300    core radius for aug-charge                                                  
                                                                                                    
   Atomic configuration                                                                             
    4 entries                                                                                       
     n  l   j            E        occ.                                                              
     1  0  0.50      -273.3789   2.0000                                                             
     2  0  0.50       -13.7508   2.0000                                                             
     2  1  0.50        -5.2854   2.0000                                                             
     3  2  1.50        -5.4423   0.0000                                                             
   Description                                                                                      
     l       E           TYP  RCUT    TYP  RCUT                                                     
     0    -13.7508458     23  1.200                                                                 
     0     -8.2022199     23  1.200                                                                 
     1     -5.2854383     23  1.500                                                                 
     1     34.0145650     23  1.500                                                                 
     2     -5.4423304      7  1.500                                                                 
  local pseudopotential read in
  partial core-charges read in
  partial kinetic energy density read in
  atomic valenz-charges read in
  non local Contribution for L=           0  read in
    real space projection operators read in
  non local Contribution for L=           0  read in
    real space projection operators read in
  non local Contribution for L=           1  read in
    real space projection operators read in
  non local Contribution for L=           1  read in
    real space projection operators read in
    PAW grid and wavefunctions read in
 
   number of l-projection  operators is LMAX  =           4
   number of lm-projection operators is LMMAX =           8
 
  PAW_PBE C 08Apr2002                   :
 energy of atom  1       EATOM= -147.1560
 kinetic energy error for atom=    0.0071 (will be added to EATOM!!)
 
 
 POSCAR: AB-stacked Graphene
  positions in direct lattice
  velocities in cartesian coordinates
 exchange correlation table for  LEXCH =        8
   RHO(1)=    0.500       N(1)  =     2000
   RHO(2)=  100.500       N(2)  =     4000
 


--------------------------------------------------------------------------------------------------------


 ion  position               nearest neighbor table
   1  0.118  0.998  1.000-   2 1.42   2 1.42   2 1.42
   2  0.784  0.332  0.000-   1 1.42   1 1.42   1 1.42
   3  0.465  0.668  0.500-   4 1.42   4 1.42   4 1.42
   4  0.132  0.002  0.500-   3 1.42   3 1.42   3 1.42
 
  Warning from LATTYP: Monoclinic adjustment (A1->A3, A2->A1, A3->A2)!
  LATTYP: Found a base centered orthorhombic cell.
 ALAT       =     2.4664926102
 B/A-ratio  =     1.7321284541
 C/A-ratio  =     2.0271700711
  
  Lattice vectors:
  
 A1 = (   1.2335791197,   2.1359430323,  -0.0000000552)
 A2 = (  -2.4665805555,   0.0002435830,   0.0000000494)
 A3 = (  -0.0000000441,  -0.0000001059,   5.0000000000)


Analysis of symmetry for initial positions (statically):
=====================================================================
 Subroutine PRICEL returns:
 Original cell was already a primitive cell.
 

 Routine SETGRP: Setting up the symmetry group for a 
 base centered orthorhombic supercell.


 Subroutine GETGRP returns: Found  4 space group operations
 (whereof  2 operations were pure point group operations)
 out of a pool of  8 trial point group operations.


The static configuration has the point symmetry C_1h.
 The point group associated with its full space group is C_2h.


Analysis of symmetry for dynamics (positions and initial velocities):
=====================================================================
 Subroutine PRICEL returns:
 Original cell was already a primitive cell.
 

 Routine SETGRP: Setting up the symmetry group for a 
 base centered orthorhombic supercell.


 Subroutine GETGRP returns: Found  4 space group operations
 (whereof  2 operations were pure point group operations)
 out of a pool of  8 trial point group operations.


The dynamic configuration has the point symmetry C_1h.
 The point group associated with its full space group is C_2h.


 Subroutine INISYM returns: Found  4 space group operations
 (whereof  2 operations are pure point group operations),
 and found     1 'primitive' translations


----------------------------------------------------------------------------------------

                                     Primitive cell                                     

  volume of cell :      26.3439

  direct lattice vectors                    reciprocal lattice vectors
     2.466580556 -0.000243583 -0.000000049     0.405442669  0.234020469  0.000000009
    -1.233001436  2.136186615 -0.000000006     0.000046231  0.468150580  0.000000010
    -0.000000044 -0.000000106  5.000000000     0.000000004  0.000000003  0.200000000

  length of vectors
     2.466580568  2.466492610  5.000000000     0.468133888  0.468150582  0.200000000

  position of ions in fractional coordinates (direct lattice)
     0.117794189  0.998254412  0.999999659
     0.784453271  0.331580559  0.000000223
     0.465038818  0.668419402  0.499999796
     0.131697875  0.001745627  0.500000322

  ion indices of the primitive-cell ions
   primitive index   ion index
                 1           1
                 2           2
                 3           3
                 4           4

----------------------------------------------------------------------------------------

 
 
 KPOINTS: K-Spacing Value to Generate K-Mesh: 0.03

Automatic generation of k-mesh.
 Grid dimensions read from file:
 generate k-points for:   18   18    7

 Generating k-lattice:

  Cartesian coordinates                     Fractional coordinates (reciprocal lattice)
     0.022524593  0.013001137  0.000000000     0.055555556 -0.000000000  0.000000000
     0.000002568  0.026008366  0.000000001    -0.000000000  0.055555556  0.000000000
     0.000000001  0.000000000  0.028571429    -0.000000000  0.000000000  0.142857143

  Length of vectors
     0.026007438  0.026008366  0.028571429

  Shift w.r.t. Gamma in fractional coordinates (k-lattice)
     0.000000000  0.000000000  0.000000000

 
 Subroutine IBZKPT returns following result:
 ===========================================
 
 Found    656 irreducible k-points:
 
 Following reciprocal coordinates:
            Coordinates               Weight
  0.000000  0.000000  0.000000      1.000000
  0.055556 -0.000000  0.000000      2.000000
  0.111111 -0.000000 -0.000000      2.000000
  0.166667 -0.000000 -0.000000      2.000000
  0.222222 -0.000000  0.000000      2.000000
  0.277778 -0.000000  0.000000      2.000000
  0.333333 -0.000000 -0.000000      2.000000
  0.388889 -0.000000 -0.000000      2.000000
  0.444444 -0.000000  0.000000      2.000000
  0.500000 -0.000000  0.000000      1.000000
 -0.000000  0.055556 -0.000000      2.000000
 -0.055556  0.055556 -0.000000      2.000000
  0.055556  0.055556  0.000000      2.000000
 -0.111111  0.055556 -0.000000      2.000000
  0.111111  0.055556  0.000000      2.000000
 -0.166667  0.055556 -0.000000      2.000000
  0.166667  0.055556 -0.000000      2.000000
 -0.222222  0.055556 -0.000000      2.000000
  0.222222  0.055556  0.000000      2.000000
 -0.277778  0.055556 -0.000000      2.000000
  0.277778  0.055556  0.000000      2.000000
 -0.333333  0.055556 -0.000000      2.000000
  0.333333  0.055556 -0.000000      2.000000
 -0.388889  0.055556  0.000000      2.000000
  0.388889  0.055556 -0.000000      2.000000
 -0.444444  0.055556 -0.000000      2.000000
  0.444444  0.055556  0.000000      2.000000
  0.500000  0.055556 -0.000000      2.000000
 -0.000000  0.111111 -0.000000      2.000000
 -0.111111  0.111111  0.000000      2.000000
  0.055556  0.111111  0.000000      2.000000
 -0.166667  0.111111  0.000000      2.000000
  0.111111  0.111111  0.000000      2.000000
 -0.222222  0.111111 -0.000000      2.000000
  0.166667  0.111111 -0.000000      2.000000
 -0.277778  0.111111  0.000000      2.000000
  0.222222  0.111111 -0.000000      2.000000
 -0.333333  0.111111  0.000000      2.000000
  0.277778  0.111111  0.000000      2.000000
 -0.388889  0.111111 -0.000000      2.000000
  0.333333  0.111111 -0.000000      2.000000
 -0.444444  0.111111  0.000000      2.000000
  0.388889  0.111111 -0.000000      2.000000
  0.500000  0.111111  0.000000      2.000000
  0.444444  0.111111  0.000000      2.000000
 -0.055556  0.111111 -0.000000      2.000000
 -0.000000  0.166667 -0.000000      2.000000
 -0.166667  0.166667 -0.000000      2.000000
  0.055556  0.166667  0.000000      2.000000
 -0.222222  0.166667 -0.000000      2.000000
  0.111111  0.166667  0.000000      2.000000
 -0.277778  0.166667 -0.000000      2.000000
  0.166667  0.166667 -0.000000      2.000000
 -0.333333  0.166667  0.000000      2.000000
  0.222222  0.166667 -0.000000      2.000000
 -0.388889  0.166667 -0.000000      2.000000
  0.277778  0.166667  0.000000      2.000000
 -0.444444  0.166667 -0.000000      2.000000
  0.333333  0.166667  0.000000      2.000000
  0.500000  0.166667 -0.000000      2.000000
  0.388889  0.166667 -0.000000      2.000000
  0.444444  0.166667  0.000000      2.000000
 -0.111111  0.166667  0.000000      2.000000
 -0.055556  0.166667 -0.000000      2.000000
  0.000000  0.222222 -0.000000      2.000000
 -0.222222  0.222222  0.000000      2.000000
  0.055556  0.222222  0.000000      2.000000
 -0.277778  0.222222  0.000000      2.000000
  0.111111  0.222222  0.000000      2.000000
 -0.333333  0.222222  0.000000      2.000000
  0.166667  0.222222 -0.000000      2.000000
 -0.388889  0.222222  0.000000      2.000000
  0.222222  0.222222 -0.000000      2.000000
 -0.444444  0.222222  0.000000      2.000000
  0.277778  0.222222  0.000000      2.000000
  0.500000  0.222222  0.000000      2.000000
  0.333333  0.222222  0.000000      2.000000
  0.444444  0.222222 -0.000000      2.000000
  0.388889  0.222222 -0.000000      2.000000
 -0.166667  0.222222 -0.000000      2.000000
 -0.055556  0.222222  0.000000      2.000000
 -0.111111  0.222222  0.000000      2.000000
 -0.000000  0.277778 -0.000000      2.000000
 -0.277778  0.277778  0.000000      2.000000
  0.055556  0.277778 -0.000000      2.000000
 -0.333333  0.277778  0.000000      2.000000
  0.111111  0.277778  0.000000      2.000000
 -0.388889  0.277778 -0.000000      2.000000
  0.166667  0.277778  0.000000      2.000000
 -0.444444  0.277778 -0.000000      2.000000
  0.222222  0.277778 -0.000000      2.000000
  0.500000  0.277778  0.000000      2.000000
  0.277778  0.277778  0.000000      2.000000
  0.444444  0.277778 -0.000000      2.000000
  0.333333  0.277778  0.000000      2.000000
  0.388889  0.277778 -0.000000      2.000000
 -0.222222  0.277778  0.000000      2.000000
 -0.055556  0.277778 -0.000000      2.000000
 -0.166667  0.277778 -0.000000      2.000000
 -0.111111  0.277778  0.000000      2.000000
  0.000000  0.333333 -0.000000      2.000000
 -0.333333  0.333333 -0.000000      2.000000
  0.055556  0.333333 -0.000000      2.000000
 -0.388889  0.333333 -0.000000      2.000000
  0.111111  0.333333  0.000000      2.000000
 -0.444444  0.333333 -0.000000      2.000000
  0.166667  0.333333  0.000000      2.000000
  0.500000  0.333333 -0.000000      2.000000
  0.222222  0.333333 -0.000000      2.000000
  0.444444  0.333333 -0.000000      2.000000
  0.277778  0.333333 -0.000000      2.000000
  0.388889  0.333333 -0.000000      2.000000
  0.333333  0.333333  0.000000      2.000000
 -0.277778  0.333333  0.000000      2.000000
 -0.055556  0.333333  0.000000      2.000000
 -0.222222  0.333333  0.000000      2.000000
 -0.111111  0.333333  0.000000      2.000000
 -0.166667  0.333333 -0.000000      2.000000
 -0.000000  0.388889 -0.000000      2.000000
 -0.388889  0.388889  0.000000      2.000000
  0.055556  0.388889 -0.000000      2.000000
 -0.444444  0.388889  0.000000      2.000000
  0.111111  0.388889  0.000000      2.000000
  0.500000  0.388889  0.000000      2.000000
  0.166667  0.388889  0.000000      2.000000
  0.444444  0.388889 -0.000000      2.000000
  0.222222  0.388889 -0.000000      2.000000
  0.388889  0.388889  0.000000      2.000000
  0.277778  0.388889 -0.000000      2.000000
  0.333333  0.388889  0.000000      2.000000
 -0.333333  0.388889 -0.000000      2.000000
 -0.055556  0.388889  0.000000      2.000000
 -0.277778  0.388889  0.000000      2.000000
 -0.111111  0.388889 -0.000000      2.000000
 -0.222222  0.388889  0.000000      2.000000
 -0.166667  0.388889 -0.000000      2.000000
  0.000000  0.444444  0.000000      2.000000
 -0.444444  0.444444 -0.000000      2.000000
  0.055556  0.444444 -0.000000      2.000000
  0.500000  0.444444 -0.000000      2.000000
  0.111111  0.444444  0.000000      2.000000
  0.444444  0.444444 -0.000000      2.000000
  0.166667  0.444444  0.000000      2.000000
  0.388889  0.444444 -0.000000      2.000000
  0.222222  0.444444 -0.000000      2.000000
  0.333333  0.444444  0.000000      2.000000
  0.277778  0.444444 -0.000000      2.000000
 -0.388889  0.444444  0.000000      2.000000
 -0.055556  0.444444 -0.000000      2.000000
 -0.333333  0.444444 -0.000000      2.000000
 -0.111111  0.444444 -0.000000      2.000000
 -0.277778  0.444444  0.000000      2.000000
 -0.166667  0.444444 -0.000000      2.000000
 -0.222222  0.444444  0.000000      2.000000
 -0.000000  0.500000  0.000000      1.000000
  0.500000  0.500000 -0.000000      1.000000
  0.055556  0.500000 -0.000000      2.000000
  0.444444  0.500000  0.000000      2.000000
  0.111111  0.500000 -0.000000      2.000000
  0.388889  0.500000  0.000000      2.000000
  0.166667  0.500000  0.000000      2.000000
  0.333333  0.500000  0.000000      2.000000
  0.222222  0.500000  0.000000      2.000000
  0.277778  0.500000 -0.000000      2.000000
 -0.000000 -0.000000  0.142857      2.000000
  0.055556 -0.000000  0.142857      4.000000
  0.111111 -0.000000  0.142857      4.000000
  0.166667  0.000000  0.142857      4.000000
  0.222222 -0.000000  0.142857      4.000000
  0.277778  0.000000  0.142857      4.000000
  0.333333  0.000000  0.142857      4.000000
  0.388889 -0.000000  0.142857      4.000000
  0.444444 -0.000000  0.142857      4.000000
  0.500000  0.000000  0.142857      2.000000
 -0.000000  0.055556  0.142857      4.000000
 -0.055556  0.055556 -0.142857      4.000000
  0.055556  0.055556  0.142857      4.000000
 -0.111111  0.055556 -0.142857      4.000000
  0.111111  0.055556  0.142857      4.000000
 -0.166667  0.055556 -0.142857      4.000000
  0.166667  0.055556  0.142857      4.000000
 -0.222222  0.055556 -0.142857      4.000000
  0.222222  0.055556  0.142857      4.000000
 -0.277778  0.055556 -0.142857      4.000000
  0.277778  0.055556  0.142857      4.000000
 -0.333333  0.055556 -0.142857      4.000000
  0.333333  0.055556  0.142857      4.000000
 -0.388889  0.055556 -0.142857      4.000000
  0.388889  0.055556  0.142857      4.000000
 -0.444444  0.055556 -0.142857      4.000000
  0.444444  0.055556  0.142857      4.000000
  0.500000  0.055556 -0.142857      4.000000
 -0.000000  0.111111  0.142857      4.000000
 -0.111111  0.111111 -0.142857      4.000000
  0.055556  0.111111  0.142857      4.000000
 -0.166667  0.111111 -0.142857      4.000000
  0.111111  0.111111  0.142857      4.000000
 -0.222222  0.111111 -0.142857      4.000000
  0.166667  0.111111  0.142857      4.000000
 -0.277778  0.111111 -0.142857      4.000000
  0.222222  0.111111  0.142857      4.000000
 -0.333333  0.111111 -0.142857      4.000000
  0.277778  0.111111  0.142857      4.000000
 -0.388889  0.111111 -0.142857      4.000000
  0.333333  0.111111  0.142857      4.000000
 -0.444444  0.111111 -0.142857      4.000000
  0.388889  0.111111  0.142857      4.000000
  0.500000  0.111111 -0.142857      4.000000
  0.444444  0.111111  0.142857      4.000000
 -0.055556  0.111111  0.142857      4.000000
 -0.000000  0.166667  0.142857      4.000000
 -0.166667  0.166667 -0.142857      4.000000
  0.055556  0.166667  0.142857      4.000000
 -0.222222  0.166667 -0.142857      4.000000
  0.111111  0.166667  0.142857      4.000000
 -0.277778  0.166667 -0.142857      4.000000
  0.166667  0.166667  0.142857      4.000000
 -0.333333  0.166667 -0.142857      4.000000
  0.222222  0.166667  0.142857      4.000000
 -0.388889  0.166667 -0.142857      4.000000
  0.277778  0.166667  0.142857      4.000000
 -0.444444  0.166667 -0.142857      4.000000
  0.333333  0.166667  0.142857      4.000000
  0.500000  0.166667 -0.142857      4.000000
  0.388889  0.166667  0.142857      4.000000
  0.444444  0.166667 -0.142857      4.000000
 -0.111111  0.166667  0.142857      4.000000
 -0.055556  0.166667 -0.142857      4.000000
 -0.000000  0.222222  0.142857      4.000000
 -0.222222  0.222222 -0.142857      4.000000
  0.055556  0.222222  0.142857      4.000000
 -0.277778  0.222222 -0.142857      4.000000
  0.111111  0.222222  0.142857      4.000000
 -0.333333  0.222222 -0.142857      4.000000
  0.166667  0.222222  0.142857      4.000000
 -0.388889  0.222222 -0.142857      4.000000
  0.222222  0.222222  0.142857      4.000000
 -0.444444  0.222222 -0.142857      4.000000
  0.277778  0.222222  0.142857      4.000000
  0.500000  0.222222 -0.142857      4.000000
  0.333333  0.222222  0.142857      4.000000
  0.444444  0.222222 -0.142857      4.000000
  0.388889  0.222222  0.142857      4.000000
 -0.166667  0.222222  0.142857      4.000000
 -0.055556  0.222222 -0.142857      4.000000
 -0.111111  0.222222  0.142857      4.000000
 -0.000000  0.277778  0.142857      4.000000
 -0.277778  0.277778 -0.142857      4.000000
  0.055556  0.277778  0.142857      4.000000
 -0.333333  0.277778 -0.142857      4.000000
  0.111111  0.277778  0.142857      4.000000
 -0.388889  0.277778 -0.142857      4.000000
  0.166667  0.277778  0.142857      4.000000
 -0.444444  0.277778 -0.142857      4.000000
  0.222222  0.277778  0.142857      4.000000
  0.500000  0.277778 -0.142857      4.000000
  0.277778  0.277778  0.142857      4.000000
  0.444444  0.277778 -0.142857      4.000000
  0.333333  0.277778  0.142857      4.000000
  0.388889  0.277778 -0.142857      4.000000
 -0.222222  0.277778  0.142857      4.000000
 -0.055556  0.277778 -0.142857      4.000000
 -0.166667  0.277778  0.142857      4.000000
 -0.111111  0.277778 -0.142857      4.000000
  0.000000  0.333333  0.142857      4.000000
 -0.333333  0.333333 -0.142857      4.000000
  0.055556  0.333333  0.142857      4.000000
 -0.388889  0.333333 -0.142857      4.000000
  0.111111  0.333333  0.142857      4.000000
 -0.444444  0.333333 -0.142857      4.000000
  0.166667  0.333333  0.142857      4.000000
  0.500000  0.333333 -0.142857      4.000000
  0.222222  0.333333  0.142857      4.000000
  0.444444  0.333333 -0.142857      4.000000
  0.277778  0.333333  0.142857      4.000000
  0.388889  0.333333 -0.142857      4.000000
  0.333333  0.333333  0.142857      4.000000
 -0.277778  0.333333  0.142857      4.000000
 -0.055556  0.333333 -0.142857      4.000000
 -0.222222  0.333333  0.142857      4.000000
 -0.111111  0.333333 -0.142857      4.000000
 -0.166667  0.333333  0.142857      4.000000
  0.000000  0.388889  0.142857      4.000000
 -0.388889  0.388889 -0.142857      4.000000
  0.055556  0.388889  0.142857      4.000000
 -0.444444  0.388889 -0.142857      4.000000
  0.111111  0.388889  0.142857      4.000000
  0.500000  0.388889 -0.142857      4.000000
  0.166667  0.388889  0.142857      4.000000
  0.444444  0.388889 -0.142857      4.000000
  0.222222  0.388889  0.142857      4.000000
  0.388889  0.388889 -0.142857      4.000000
  0.277778  0.388889  0.142857      4.000000
  0.333333  0.388889 -0.142857      4.000000
 -0.333333  0.388889  0.142857      4.000000
 -0.055556  0.388889 -0.142857      4.000000
 -0.277778  0.388889  0.142857      4.000000
 -0.111111  0.388889 -0.142857      4.000000
 -0.222222  0.388889  0.142857      4.000000
 -0.166667  0.388889 -0.142857      4.000000
  0.000000  0.444444  0.142857      4.000000
 -0.444444  0.444444 -0.142857      4.000000
  0.055556  0.444444  0.142857      4.000000
  0.500000  0.444444 -0.142857      4.000000
  0.111111  0.444444  0.142857      4.000000
  0.444444  0.444444 -0.142857      4.000000
  0.166667  0.444444  0.142857      4.000000
  0.388889  0.444444 -0.142857      4.000000
  0.222222  0.444444  0.142857      4.000000
  0.333333  0.444444 -0.142857      4.000000
  0.277778  0.444444  0.142857      4.000000
 -0.388889  0.444444  0.142857      4.000000
 -0.055556  0.444444 -0.142857      4.000000
 -0.333333  0.444444  0.142857      4.000000
 -0.111111  0.444444 -0.142857      4.000000
 -0.277778  0.444444  0.142857      4.000000
 -0.166667  0.444444 -0.142857      4.000000
 -0.222222  0.444444  0.142857      4.000000
  0.000000  0.500000  0.142857      2.000000
  0.500000  0.500000 -0.142857      2.000000
  0.055556  0.500000  0.142857      4.000000
  0.444444  0.500000 -0.142857      4.000000
  0.111111  0.500000  0.142857      4.000000
  0.388889  0.500000 -0.142857      4.000000
  0.166667  0.500000  0.142857      4.000000
  0.333333  0.500000 -0.142857      4.000000
  0.222222  0.500000  0.142857      4.000000
  0.277778  0.500000 -0.142857      4.000000
  0.000000 -0.000000  0.285714      2.000000
  0.055556 -0.000000  0.285714      4.000000
  0.111111 -0.000000  0.285714      4.000000
  0.166667 -0.000000  0.285714      4.000000
  0.222222 -0.000000  0.285714      4.000000
  0.277778 -0.000000  0.285714      4.000000
  0.333333  0.000000  0.285714      4.000000
  0.388889 -0.000000  0.285714      4.000000
  0.444444 -0.000000  0.285714      4.000000
  0.500000 -0.000000  0.285714      2.000000
  0.000000  0.055556  0.285714      4.000000
 -0.055556  0.055556 -0.285714      4.000000
  0.055556  0.055556  0.285714      4.000000
 -0.111111  0.055556 -0.285714      4.000000
  0.111111  0.055556  0.285714      4.000000
 -0.166667  0.055556 -0.285714      4.000000
  0.166667  0.055556  0.285714      4.000000
 -0.222222  0.055556 -0.285714      4.000000
  0.222222  0.055556  0.285714      4.000000
 -0.277778  0.055556 -0.285714      4.000000
  0.277778  0.055556  0.285714      4.000000
 -0.333333  0.055556 -0.285714      4.000000
  0.333333  0.055556  0.285714      4.000000
 -0.388889  0.055556 -0.285714      4.000000
  0.388889  0.055556  0.285714      4.000000
 -0.444444  0.055556 -0.285714      4.000000
  0.444444  0.055556  0.285714      4.000000
  0.500000  0.055556 -0.285714      4.000000
 -0.000000  0.111111  0.285714      4.000000
 -0.111111  0.111111 -0.285714      4.000000
  0.055556  0.111111  0.285714      4.000000
 -0.166667  0.111111 -0.285714      4.000000
  0.111111  0.111111  0.285714      4.000000
 -0.222222  0.111111 -0.285714      4.000000
  0.166667  0.111111  0.285714      4.000000
 -0.277778  0.111111 -0.285714      4.000000
  0.222222  0.111111  0.285714      4.000000
 -0.333333  0.111111 -0.285714      4.000000
  0.277778  0.111111  0.285714      4.000000
 -0.388889  0.111111 -0.285714      4.000000
  0.333333  0.111111  0.285714      4.000000
 -0.444444  0.111111 -0.285714      4.000000
  0.388889  0.111111  0.285714      4.000000
  0.500000  0.111111 -0.285714      4.000000
  0.444444  0.111111  0.285714      4.000000
 -0.055556  0.111111  0.285714      4.000000
 -0.000000  0.166667  0.285714      4.000000
 -0.166667  0.166667 -0.285714      4.000000
  0.055556  0.166667  0.285714      4.000000
 -0.222222  0.166667 -0.285714      4.000000
  0.111111  0.166667  0.285714      4.000000
 -0.277778  0.166667 -0.285714      4.000000
  0.166667  0.166667  0.285714      4.000000
 -0.333333  0.166667 -0.285714      4.000000
  0.222222  0.166667  0.285714      4.000000
 -0.388889  0.166667 -0.285714      4.000000
  0.277778  0.166667  0.285714      4.000000
 -0.444444  0.166667 -0.285714      4.000000
  0.333333  0.166667  0.285714      4.000000
  0.500000  0.166667 -0.285714      4.000000
  0.388889  0.166667  0.285714      4.000000
  0.444444  0.166667 -0.285714      4.000000
 -0.111111  0.166667  0.285714      4.000000
 -0.055556  0.166667 -0.285714      4.000000
 -0.000000  0.222222  0.285714      4.000000
 -0.222222  0.222222 -0.285714      4.000000
  0.055556  0.222222  0.285714      4.000000
 -0.277778  0.222222 -0.285714      4.000000
  0.111111  0.222222  0.285714      4.000000
 -0.333333  0.222222 -0.285714      4.000000
  0.166667  0.222222  0.285714      4.000000
 -0.388889  0.222222 -0.285714      4.000000
  0.222222  0.222222  0.285714      4.000000
 -0.444444  0.222222 -0.285714      4.000000
  0.277778  0.222222  0.285714      4.000000
  0.500000  0.222222 -0.285714      4.000000
  0.333333  0.222222  0.285714      4.000000
  0.444444  0.222222 -0.285714      4.000000
  0.388889  0.222222  0.285714      4.000000
 -0.166667  0.222222  0.285714      4.000000
 -0.055556  0.222222 -0.285714      4.000000
 -0.111111  0.222222  0.285714      4.000000
 -0.000000  0.277778  0.285714      4.000000
 -0.277778  0.277778 -0.285714      4.000000
  0.055556  0.277778  0.285714      4.000000
 -0.333333  0.277778 -0.285714      4.000000
  0.111111  0.277778  0.285714      4.000000
 -0.388889  0.277778 -0.285714      4.000000
  0.166667  0.277778  0.285714      4.000000
 -0.444444  0.277778 -0.285714      4.000000
  0.222222  0.277778  0.285714      4.000000
  0.500000  0.277778 -0.285714      4.000000
  0.277778  0.277778  0.285714      4.000000
  0.444444  0.277778 -0.285714      4.000000
  0.333333  0.277778  0.285714      4.000000
  0.388889  0.277778 -0.285714      4.000000
 -0.222222  0.277778  0.285714      4.000000
 -0.055556  0.277778 -0.285714      4.000000
 -0.166667  0.277778  0.285714      4.000000
 -0.111111  0.277778 -0.285714      4.000000
  0.000000  0.333333  0.285714      4.000000
 -0.333333  0.333333 -0.285714      4.000000
  0.055556  0.333333  0.285714      4.000000
 -0.388889  0.333333 -0.285714      4.000000
  0.111111  0.333333  0.285714      4.000000
 -0.444444  0.333333 -0.285714      4.000000
  0.166667  0.333333  0.285714      4.000000
  0.500000  0.333333 -0.285714      4.000000
  0.222222  0.333333  0.285714      4.000000
  0.444444  0.333333 -0.285714      4.000000
  0.277778  0.333333  0.285714      4.000000
  0.388889  0.333333 -0.285714      4.000000
  0.333333  0.333333  0.285714      4.000000
 -0.277778  0.333333  0.285714      4.000000
 -0.055556  0.333333 -0.285714      4.000000
 -0.222222  0.333333  0.285714      4.000000
 -0.111111  0.333333 -0.285714      4.000000
 -0.166667  0.333333  0.285714      4.000000
 -0.000000  0.388889  0.285714      4.000000
 -0.388889  0.388889 -0.285714      4.000000
  0.055556  0.388889  0.285714      4.000000
 -0.444444  0.388889 -0.285714      4.000000
  0.111111  0.388889  0.285714      4.000000
  0.500000  0.388889 -0.285714      4.000000
  0.166667  0.388889  0.285714      4.000000
  0.444444  0.388889 -0.285714      4.000000
  0.222222  0.388889  0.285714      4.000000
  0.388889  0.388889 -0.285714      4.000000
  0.277778  0.388889  0.285714      4.000000
  0.333333  0.388889 -0.285714      4.000000
 -0.333333  0.388889  0.285714      4.000000
 -0.055556  0.388889 -0.285714      4.000000
 -0.277778  0.388889  0.285714      4.000000
 -0.111111  0.388889 -0.285714      4.000000
 -0.222222  0.388889  0.285714      4.000000
 -0.166667  0.388889 -0.285714      4.000000
 -0.000000  0.444444  0.285714      4.000000
 -0.444444  0.444444 -0.285714      4.000000
  0.055556  0.444444  0.285714      4.000000
  0.500000  0.444444 -0.285714      4.000000
  0.111111  0.444444  0.285714      4.000000
  0.444444  0.444444 -0.285714      4.000000
  0.166667  0.444444  0.285714      4.000000
  0.388889  0.444444 -0.285714      4.000000
  0.222222  0.444444  0.285714      4.000000
  0.333333  0.444444 -0.285714      4.000000
  0.277778  0.444444  0.285714      4.000000
 -0.388889  0.444444  0.285714      4.000000
 -0.055556  0.444444 -0.285714      4.000000
 -0.333333  0.444444  0.285714      4.000000
 -0.111111  0.444444 -0.285714      4.000000
 -0.277778  0.444444  0.285714      4.000000
 -0.166667  0.444444 -0.285714      4.000000
 -0.222222  0.444444  0.285714      4.000000
 -0.000000  0.500000  0.285714      2.000000
  0.500000  0.500000 -0.285714      2.000000
  0.055556  0.500000  0.285714      4.000000
  0.444444  0.500000 -0.285714      4.000000
  0.111111  0.500000  0.285714      4.000000
  0.388889  0.500000 -0.285714      4.000000
  0.166667  0.500000  0.285714      4.000000
  0.333333  0.500000 -0.285714      4.000000
  0.222222  0.500000  0.285714      4.000000
  0.277778  0.500000 -0.285714      4.000000
  0.000000 -0.000000  0.428571      2.000000
  0.055556 -0.000000  0.428571      4.000000
  0.111111 -0.000000  0.428571      4.000000
  0.166667 -0.000000  0.428571      4.000000
  0.222222  0.000000  0.428571      4.000000
  0.277778  0.000000  0.428571      4.000000
  0.333333  0.000000  0.428571      4.000000
  0.388889  0.000000  0.428571      4.000000
  0.444444  0.000000  0.428571      4.000000
  0.500000  0.000000  0.428571      2.000000
 -0.000000  0.055556  0.428571      4.000000
 -0.055556  0.055556 -0.428571      4.000000
  0.055556  0.055556  0.428571      4.000000
 -0.111111  0.055556 -0.428571      4.000000
  0.111111  0.055556  0.428571      4.000000
 -0.166667  0.055556 -0.428571      4.000000
  0.166667  0.055556  0.428571      4.000000
 -0.222222  0.055556 -0.428571      4.000000
  0.222222  0.055556  0.428571      4.000000
 -0.277778  0.055556 -0.428571      4.000000
  0.277778  0.055556  0.428571      4.000000
 -0.333333  0.055556 -0.428571      4.000000
  0.333333  0.055556  0.428571      4.000000
 -0.388889  0.055556 -0.428571      4.000000
  0.388889  0.055556  0.428571      4.000000
 -0.444444  0.055556 -0.428571      4.000000
  0.444444  0.055556  0.428571      4.000000
  0.500000  0.055556 -0.428571      4.000000
 -0.000000  0.111111  0.428571      4.000000
 -0.111111  0.111111 -0.428571      4.000000
  0.055556  0.111111  0.428571      4.000000
 -0.166667  0.111111 -0.428571      4.000000
  0.111111  0.111111  0.428571      4.000000
 -0.222222  0.111111 -0.428571      4.000000
  0.166667  0.111111  0.428571      4.000000
 -0.277778  0.111111 -0.428571      4.000000
  0.222222  0.111111  0.428571      4.000000
 -0.333333  0.111111 -0.428571      4.000000
  0.277778  0.111111  0.428571      4.000000
 -0.388889  0.111111 -0.428571      4.000000
  0.333333  0.111111  0.428571      4.000000
 -0.444444  0.111111 -0.428571      4.000000
  0.388889  0.111111  0.428571      4.000000
  0.500000  0.111111 -0.428571      4.000000
  0.444444  0.111111  0.428571      4.000000
 -0.055556  0.111111  0.428571      4.000000
  0.000000  0.166667  0.428571      4.000000
 -0.166667  0.166667 -0.428571      4.000000
  0.055556  0.166667  0.428571      4.000000
 -0.222222  0.166667 -0.428571      4.000000
  0.111111  0.166667  0.428571      4.000000
 -0.277778  0.166667 -0.428571      4.000000
  0.166667  0.166667  0.428571      4.000000
 -0.333333  0.166667 -0.428571      4.000000
  0.222222  0.166667  0.428571      4.000000
 -0.388889  0.166667 -0.428571      4.000000
  0.277778  0.166667  0.428571      4.000000
 -0.444444  0.166667 -0.428571      4.000000
  0.333333  0.166667  0.428571      4.000000
  0.500000  0.166667 -0.428571      4.000000
  0.388889  0.166667  0.428571      4.000000
  0.444444  0.166667 -0.428571      4.000000
 -0.111111  0.166667  0.428571      4.000000
 -0.055556  0.166667 -0.428571      4.000000
  0.000000  0.222222  0.428571      4.000000
 -0.222222  0.222222 -0.428571      4.000000
  0.055556  0.222222  0.428571      4.000000
 -0.277778  0.222222 -0.428571      4.000000
  0.111111  0.222222  0.428571      4.000000
 -0.333333  0.222222 -0.428571      4.000000
  0.166667  0.222222  0.428571      4.000000
 -0.388889  0.222222 -0.428571      4.000000
  0.222222  0.222222  0.428571      4.000000
 -0.444444  0.222222 -0.428571      4.000000
  0.277778  0.222222  0.428571      4.000000
  0.500000  0.222222 -0.428571      4.000000
  0.333333  0.222222  0.428571      4.000000
  0.444444  0.222222 -0.428571      4.000000
  0.388889  0.222222  0.428571      4.000000
 -0.166667  0.222222  0.428571      4.000000
 -0.055556  0.222222 -0.428571      4.000000
 -0.111111  0.222222  0.428571      4.000000
  0.000000  0.277778  0.428571      4.000000
 -0.277778  0.277778 -0.428571      4.000000
  0.055556  0.277778  0.428571      4.000000
 -0.333333  0.277778 -0.428571      4.000000
  0.111111  0.277778  0.428571      4.000000
 -0.388889  0.277778 -0.428571      4.000000
  0.166667  0.277778  0.428571      4.000000
 -0.444444  0.277778 -0.428571      4.000000
  0.222222  0.277778  0.428571      4.000000
  0.500000  0.277778 -0.428571      4.000000
  0.277778  0.277778  0.428571      4.000000
  0.444444  0.277778 -0.428571      4.000000
  0.333333  0.277778  0.428571      4.000000
  0.388889  0.277778 -0.428571      4.000000
 -0.222222  0.277778  0.428571      4.000000
 -0.055556  0.277778 -0.428571      4.000000
 -0.166667  0.277778  0.428571      4.000000
 -0.111111  0.277778 -0.428571      4.000000
 -0.000000  0.333333  0.428571      4.000000
 -0.333333  0.333333 -0.428571      4.000000
  0.055556  0.333333  0.428571      4.000000
 -0.388889  0.333333 -0.428571      4.000000
  0.111111  0.333333  0.428571      4.000000
 -0.444444  0.333333 -0.428571      4.000000
  0.166667  0.333333  0.428571      4.000000
  0.500000  0.333333 -0.428571      4.000000
  0.222222  0.333333  0.428571      4.000000
  0.444444  0.333333 -0.428571      4.000000
  0.277778  0.333333  0.428571      4.000000
  0.388889  0.333333 -0.428571      4.000000
  0.333333  0.333333  0.428571      4.000000
 -0.277778  0.333333  0.428571      4.000000
 -0.055556  0.333333 -0.428571      4.000000
 -0.222222  0.333333  0.428571      4.000000
 -0.111111  0.333333 -0.428571      4.000000
 -0.166667  0.333333  0.428571      4.000000
  0.000000  0.388889  0.428571      4.000000
 -0.388889  0.388889 -0.428571      4.000000
  0.055556  0.388889  0.428571      4.000000
 -0.444444  0.388889 -0.428571      4.000000
  0.111111  0.388889  0.428571      4.000000
  0.500000  0.388889 -0.428571      4.000000
  0.166667  0.388889  0.428571      4.000000
  0.444444  0.388889 -0.428571      4.000000
  0.222222  0.388889  0.428571      4.000000
  0.388889  0.388889 -0.428571      4.000000
  0.277778  0.388889  0.428571      4.000000
  0.333333  0.388889 -0.428571      4.000000
 -0.333333  0.388889  0.428571      4.000000
 -0.055556  0.388889 -0.428571      4.000000
 -0.277778  0.388889  0.428571      4.000000
 -0.111111  0.388889 -0.428571      4.000000
 -0.222222  0.388889  0.428571      4.000000
 -0.166667  0.388889 -0.428571      4.000000
  0.000000  0.444444  0.428571      4.000000
 -0.444444  0.444444 -0.428571      4.000000
  0.055556  0.444444  0.428571      4.000000
  0.500000  0.444444 -0.428571      4.000000
  0.111111  0.444444  0.428571      4.000000
  0.444444  0.444444 -0.428571      4.000000
  0.166667  0.444444  0.428571      4.000000
  0.388889  0.444444 -0.428571      4.000000
  0.222222  0.444444  0.428571      4.000000
  0.333333  0.444444 -0.428571      4.000000
  0.277778  0.444444  0.428571      4.000000
 -0.388889  0.444444  0.428571      4.000000
 -0.055556  0.444444 -0.428571      4.000000
 -0.333333  0.444444  0.428571      4.000000
 -0.111111  0.444444 -0.428571      4.000000
 -0.277778  0.444444  0.428571      4.000000
 -0.166667  0.444444 -0.428571      4.000000
 -0.222222  0.444444  0.428571      4.000000
 -0.000000  0.500000  0.428571      2.000000
  0.500000  0.500000 -0.428571      2.000000
  0.055556  0.500000  0.428571      4.000000
  0.444444  0.500000 -0.428571      4.000000
  0.111111  0.500000  0.428571      4.000000
  0.388889  0.500000 -0.428571      4.000000
  0.166667  0.500000  0.428571      4.000000
  0.333333  0.500000 -0.428571      4.000000
  0.222222  0.500000  0.428571      4.000000
  0.277778  0.500000 -0.428571      4.000000
 
 Following cartesian coordinates:
            Coordinates               Weight
  0.000000  0.000000  0.000000      1.000000
  0.022525  0.013001  0.000000      2.000000
  0.045049  0.026002  0.000000      2.000000
  0.067574  0.039003  0.000000      2.000000
  0.090098  0.052005  0.000000      2.000000
  0.112623  0.065006  0.000000      2.000000
  0.135148  0.078007  0.000000      2.000000
  0.157672  0.091008  0.000000      2.000000
  0.180197  0.104009  0.000000      2.000000
  0.202721  0.117010  0.000000      1.000000
  0.000003  0.026008  0.000000      2.000000
 -0.022522  0.013007  0.000000      2.000000
  0.022527  0.039010  0.000000      2.000000
 -0.045047  0.000006 -0.000000      2.000000
  0.045052  0.052011  0.000000      2.000000
 -0.067571 -0.012995 -0.000000      2.000000
  0.067576  0.065012  0.000000      2.000000
 -0.090096 -0.025996 -0.000000      2.000000
  0.090101  0.078013  0.000000      2.000000
 -0.112620 -0.038997 -0.000000      2.000000
  0.112626  0.091014  0.000000      2.000000
 -0.135145 -0.051998 -0.000000      2.000000
  0.135150  0.104015  0.000000      2.000000
 -0.157670 -0.065000 -0.000000      2.000000
  0.157675  0.117016  0.000000      2.000000
 -0.180194 -0.078001 -0.000000      2.000000
  0.180199  0.130017  0.000000      2.000000
  0.202724  0.143019  0.000000      2.000000
  0.000005  0.052017  0.000000      2.000000
 -0.045044  0.026014  0.000000      2.000000
  0.022530  0.065018  0.000000      2.000000
 -0.067569  0.013013 -0.000000      2.000000
  0.045054  0.078019  0.000000      2.000000
 -0.090093  0.000012 -0.000000      2.000000
  0.067579  0.091020  0.000000      2.000000
 -0.112618 -0.012989 -0.000000      2.000000
  0.090104  0.104021  0.000000      2.000000
 -0.135142 -0.025990 -0.000000      2.000000
  0.112628  0.117022  0.000000      2.000000
 -0.157667 -0.038991 -0.000000      2.000000
  0.135153  0.130024  0.000000      2.000000
 -0.180192 -0.051992 -0.000000      2.000000
  0.157677  0.143025  0.000000      2.000000
  0.202726  0.169027  0.000000      2.000000
  0.180202  0.156026  0.000000      2.000000
 -0.022519  0.039016  0.000000      2.000000
  0.000008  0.078025  0.000000      2.000000
 -0.067566  0.039022  0.000000      2.000000
  0.022532  0.091026  0.000000      2.000000
 -0.090091  0.026021 -0.000000      2.000000
  0.045057  0.104027  0.000000      2.000000
 -0.112615  0.013019 -0.000000      2.000000
  0.067581  0.117029  0.000000      2.000000
 -0.135140  0.000018 -0.000000      2.000000
  0.090106  0.130030  0.000000      2.000000
 -0.157664 -0.012983 -0.000000      2.000000
  0.112631  0.143031  0.000000      2.000000
 -0.180189 -0.025984 -0.000000      2.000000
  0.135155  0.156032  0.000000      2.000000
  0.202729  0.195035  0.000000      2.000000
  0.157680  0.169033  0.000000      2.000000
  0.180204  0.182034  0.000000      2.000000
 -0.045041  0.052023  0.000000      2.000000
 -0.022517  0.065024  0.000000      2.000000
  0.000010  0.104033  0.000000      2.000000
 -0.090088  0.052029  0.000000      2.000000
  0.022535  0.117035  0.000000      2.000000
 -0.112613  0.039028 -0.000000      2.000000
  0.045059  0.130036  0.000000      2.000000
 -0.135137  0.026027 -0.000000      2.000000
  0.067584  0.143037  0.000000      2.000000
 -0.157662  0.013026 -0.000000      2.000000
  0.090109  0.156038  0.000000      2.000000
 -0.180186  0.000024 -0.000000      2.000000
  0.112633  0.169039  0.000000      2.000000
  0.202732  0.221044  0.000000      2.000000
  0.135158  0.182040  0.000000      2.000000
  0.180207  0.208043  0.000000      2.000000
  0.157682  0.195041  0.000000      2.000000
 -0.067564  0.065030  0.000000      2.000000
 -0.022514  0.091032  0.000000      2.000000
 -0.045039  0.078031  0.000000      2.000000
  0.000013  0.130042  0.000000      2.000000
 -0.112610  0.065036  0.000000      2.000000
  0.022537  0.143043  0.000000      2.000000
 -0.135135  0.052035 -0.000000      2.000000
  0.045062  0.156044  0.000000      2.000000
 -0.157659  0.039034 -0.000000      2.000000
  0.067587  0.169045  0.000000      2.000000
 -0.180184  0.026033 -0.000000      2.000000
  0.090111  0.182046  0.000000      2.000000
  0.202734  0.247052  0.000000      2.000000
  0.112636  0.195048  0.000000      2.000000
  0.180210  0.234051  0.000000      2.000000
  0.135160  0.208049  0.000000      2.000000
  0.157685  0.221050  0.000000      2.000000
 -0.090086  0.078037  0.000000      2.000000
 -0.022512  0.117041  0.000000      2.000000
 -0.067561  0.091038  0.000000      2.000000
 -0.045036  0.104040  0.000000      2.000000
  0.000015  0.156050  0.000000      2.000000
 -0.135132  0.078043  0.000000      2.000000
  0.022540  0.169051  0.000000      2.000000
 -0.157657  0.065042 -0.000000      2.000000
  0.045065  0.182052  0.000000      2.000000
 -0.180181  0.052041 -0.000000      2.000000
  0.067589  0.195054  0.000000      2.000000
  0.202737  0.273060  0.000000      2.000000
  0.090114  0.208055  0.000000      2.000000
  0.180212  0.260059  0.000000      2.000000
  0.112638  0.221056  0.000000      2.000000
  0.157688  0.247058  0.000000      2.000000
  0.135163  0.234057  0.000000      2.000000
 -0.112608  0.091045  0.000000      2.000000
 -0.022509  0.143049  0.000000      2.000000
 -0.090083  0.104046  0.000000      2.000000
 -0.045034  0.130048  0.000000      2.000000
 -0.067558  0.117047  0.000000      2.000000
  0.000018  0.182059  0.000000      2.000000
 -0.157654  0.091051  0.000000      2.000000
  0.022543  0.195060  0.000000      2.000000
 -0.180179  0.078049  0.000000      2.000000
  0.045067  0.208061  0.000000      2.000000
  0.202739  0.299069  0.000000      2.000000
  0.067592  0.221062  0.000000      2.000000
  0.180215  0.286068  0.000000      2.000000
  0.090116  0.234063  0.000000      2.000000
  0.157690  0.273067  0.000000      2.000000
  0.112641  0.247064  0.000000      2.000000
  0.135166  0.260065  0.000000      2.000000
 -0.135130  0.104052  0.000000      2.000000
 -0.022507  0.169057  0.000000      2.000000
 -0.112605  0.117053  0.000000      2.000000
 -0.045031  0.156056  0.000000      2.000000
 -0.090080  0.130054  0.000000      2.000000
 -0.067556  0.143055  0.000000      2.000000
  0.000021  0.208067  0.000000      2.000000
 -0.180176  0.104058  0.000000      2.000000
  0.022545  0.221068  0.000000      2.000000
  0.202742  0.325077  0.000000      2.000000
  0.045070  0.234069  0.000000      2.000000
  0.180217  0.312076  0.000000      2.000000
  0.067594  0.247070  0.000000      2.000000
  0.157693  0.299075  0.000000      2.000000
  0.090119  0.260071  0.000000      2.000000
  0.135168  0.286074  0.000000      2.000000
  0.112644  0.273073  0.000000      2.000000
 -0.157652  0.117059  0.000000      2.000000
 -0.022504  0.195066  0.000000      2.000000
 -0.135127  0.130060  0.000000      2.000000
 -0.045029  0.182065  0.000000      2.000000
 -0.112602  0.143061  0.000000      2.000000
 -0.067553  0.169064  0.000000      2.000000
 -0.090078  0.156062  0.000000      2.000000
  0.000023  0.234075  0.000000      1.000000
  0.202744  0.351086  0.000000      1.000000
  0.022548  0.247076  0.000000      2.000000
  0.180220  0.338084  0.000000      2.000000
  0.045072  0.260078  0.000000      2.000000
  0.157695  0.325083  0.000000      2.000000
  0.067597  0.273079  0.000000      2.000000
  0.135171  0.312082  0.000000      2.000000
  0.090121  0.286080  0.000000      2.000000
  0.112646  0.299081  0.000000      2.000000
  0.000000  0.000000  0.028571      2.000000
  0.022525  0.013001  0.028571      4.000000
  0.045049  0.026002  0.028571      4.000000
  0.067574  0.039003  0.028571      4.000000
  0.090098  0.052005  0.028571      4.000000
  0.112623  0.065006  0.028571      4.000000
  0.135148  0.078007  0.028571      4.000000
  0.157672  0.091008  0.028571      4.000000
  0.180197  0.104009  0.028571      4.000000
  0.202721  0.117010  0.028571      2.000000
  0.000003  0.026008  0.028571      4.000000
 -0.022522  0.013007 -0.028571      4.000000
  0.022527  0.039010  0.028571      4.000000
 -0.045047  0.000006 -0.028571      4.000000
  0.045052  0.052011  0.028571      4.000000
 -0.067571 -0.012995 -0.028571      4.000000
  0.067576  0.065012  0.028571      4.000000
 -0.090096 -0.025996 -0.028571      4.000000
  0.090101  0.078013  0.028571      4.000000
 -0.112620 -0.038997 -0.028571      4.000000
  0.112626  0.091014  0.028571      4.000000
 -0.135145 -0.051998 -0.028571      4.000000
  0.135150  0.104015  0.028571      4.000000
 -0.157670 -0.065000 -0.028571      4.000000
  0.157675  0.117016  0.028571      4.000000
 -0.180194 -0.078001 -0.028571      4.000000
  0.180199  0.130017  0.028571      4.000000
  0.202724  0.143019 -0.028571      4.000000
  0.000005  0.052017  0.028571      4.000000
 -0.045044  0.026014 -0.028571      4.000000
  0.022530  0.065018  0.028571      4.000000
 -0.067569  0.013013 -0.028571      4.000000
  0.045054  0.078019  0.028571      4.000000
 -0.090093  0.000012 -0.028571      4.000000
  0.067579  0.091020  0.028571      4.000000
 -0.112618 -0.012989 -0.028571      4.000000
  0.090104  0.104021  0.028571      4.000000
 -0.135142 -0.025990 -0.028571      4.000000
  0.112628  0.117022  0.028571      4.000000
 -0.157667 -0.038991 -0.028571      4.000000
  0.135153  0.130024  0.028571      4.000000
 -0.180192 -0.051992 -0.028571      4.000000
  0.157677  0.143025  0.028571      4.000000
  0.202726  0.169027 -0.028571      4.000000
  0.180202  0.156026  0.028571      4.000000
 -0.022519  0.039016  0.028571      4.000000
  0.000008  0.078025  0.028571      4.000000
 -0.067566  0.039022 -0.028571      4.000000
  0.022532  0.091026  0.028571      4.000000
 -0.090091  0.026021 -0.028571      4.000000
  0.045057  0.104027  0.028571      4.000000
 -0.112615  0.013019 -0.028571      4.000000
  0.067581  0.117029  0.028571      4.000000
 -0.135140  0.000018 -0.028571      4.000000
  0.090106  0.130030  0.028571      4.000000
 -0.157664 -0.012983 -0.028571      4.000000
  0.112631  0.143031  0.028571      4.000000
 -0.180189 -0.025984 -0.028571      4.000000
  0.135155  0.156032  0.028571      4.000000
  0.202729  0.195035 -0.028571      4.000000
  0.157680  0.169033  0.028571      4.000000
  0.180204  0.182034 -0.028571      4.000000
 -0.045041  0.052023  0.028571      4.000000
 -0.022517  0.065024 -0.028571      4.000000
  0.000010  0.104033  0.028571      4.000000
 -0.090088  0.052029 -0.028571      4.000000
  0.022535  0.117035  0.028571      4.000000
 -0.112613  0.039028 -0.028571      4.000000
  0.045059  0.130036  0.028571      4.000000
 -0.135137  0.026027 -0.028571      4.000000
  0.067584  0.143037  0.028571      4.000000
 -0.157662  0.013026 -0.028571      4.000000
  0.090109  0.156038  0.028571      4.000000
 -0.180186  0.000024 -0.028571      4.000000
  0.112633  0.169039  0.028571      4.000000
  0.202732  0.221044 -0.028571      4.000000
  0.135158  0.182040  0.028571      4.000000
  0.180207  0.208043 -0.028571      4.000000
  0.157682  0.195041  0.028571      4.000000
 -0.067564  0.065030  0.028571      4.000000
 -0.022514  0.091032 -0.028571      4.000000
 -0.045039  0.078031  0.028571      4.000000
  0.000013  0.130042  0.028571      4.000000
 -0.112610  0.065036 -0.028571      4.000000
  0.022537  0.143043  0.028571      4.000000
 -0.135135  0.052035 -0.028571      4.000000
  0.045062  0.156044  0.028571      4.000000
 -0.157659  0.039034 -0.028571      4.000000
  0.067587  0.169045  0.028571      4.000000
 -0.180184  0.026033 -0.028571      4.000000
  0.090111  0.182046  0.028571      4.000000
  0.202734  0.247052 -0.028571      4.000000
  0.112636  0.195048  0.028571      4.000000
  0.180210  0.234051 -0.028571      4.000000
  0.135160  0.208049  0.028571      4.000000
  0.157685  0.221050 -0.028571      4.000000
 -0.090086  0.078037  0.028571      4.000000
 -0.022512  0.117041 -0.028571      4.000000
 -0.067561  0.091038  0.028571      4.000000
 -0.045036  0.104040 -0.028571      4.000000
  0.000015  0.156050  0.028571      4.000000
 -0.135132  0.078043 -0.028571      4.000000
  0.022540  0.169051  0.028571      4.000000
 -0.157657  0.065042 -0.028571      4.000000
  0.045065  0.182052  0.028571      4.000000
 -0.180181  0.052041 -0.028571      4.000000
  0.067589  0.195054  0.028571      4.000000
  0.202737  0.273060 -0.028571      4.000000
  0.090114  0.208055  0.028571      4.000000
  0.180212  0.260059 -0.028571      4.000000
  0.112638  0.221056  0.028571      4.000000
  0.157688  0.247058 -0.028571      4.000000
  0.135163  0.234057  0.028571      4.000000
 -0.112608  0.091045  0.028571      4.000000
 -0.022509  0.143049 -0.028571      4.000000
 -0.090083  0.104046  0.028571      4.000000
 -0.045034  0.130048 -0.028571      4.000000
 -0.067558  0.117047  0.028571      4.000000
  0.000018  0.182059  0.028571      4.000000
 -0.157654  0.091051 -0.028571      4.000000
  0.022543  0.195060  0.028571      4.000000
 -0.180179  0.078049 -0.028571      4.000000
  0.045067  0.208061  0.028571      4.000000
  0.202739  0.299069 -0.028571      4.000000
  0.067592  0.221062  0.028571      4.000000
  0.180215  0.286068 -0.028571      4.000000
  0.090116  0.234063  0.028571      4.000000
  0.157690  0.273067 -0.028571      4.000000
  0.112641  0.247064  0.028571      4.000000
  0.135166  0.260065 -0.028571      4.000000
 -0.135130  0.104052  0.028571      4.000000
 -0.022507  0.169057 -0.028571      4.000000
 -0.112605  0.117053  0.028571      4.000000
 -0.045031  0.156056 -0.028571      4.000000
 -0.090080  0.130054  0.028571      4.000000
 -0.067556  0.143055 -0.028571      4.000000
  0.000021  0.208067  0.028571      4.000000
 -0.180176  0.104058 -0.028571      4.000000
  0.022545  0.221068  0.028571      4.000000
  0.202742  0.325077 -0.028571      4.000000
  0.045070  0.234069  0.028571      4.000000
  0.180217  0.312076 -0.028571      4.000000
  0.067594  0.247070  0.028571      4.000000
  0.157693  0.299075 -0.028571      4.000000
  0.090119  0.260071  0.028571      4.000000
  0.135168  0.286074 -0.028571      4.000000
  0.112644  0.273073  0.028571      4.000000
 -0.157652  0.117059  0.028571      4.000000
 -0.022504  0.195066 -0.028571      4.000000
 -0.135127  0.130060  0.028571      4.000000
 -0.045029  0.182065 -0.028571      4.000000
 -0.112602  0.143061  0.028571      4.000000
 -0.067553  0.169064 -0.028571      4.000000
 -0.090078  0.156062  0.028571      4.000000
  0.000023  0.234075  0.028571      2.000000
  0.202744  0.351086 -0.028571      2.000000
  0.022548  0.247076  0.028571      4.000000
  0.180220  0.338084 -0.028571      4.000000
  0.045072  0.260078  0.028571      4.000000
  0.157695  0.325083 -0.028571      4.000000
  0.067597  0.273079  0.028571      4.000000
  0.135171  0.312082 -0.028571      4.000000
  0.090121  0.286080  0.028571      4.000000
  0.112646  0.299081 -0.028571      4.000000
  0.000000  0.000000  0.057143      2.000000
  0.022525  0.013001  0.057143      4.000000
  0.045049  0.026002  0.057143      4.000000
  0.067574  0.039003  0.057143      4.000000
  0.090098  0.052005  0.057143      4.000000
  0.112623  0.065006  0.057143      4.000000
  0.135148  0.078007  0.057143      4.000000
  0.157672  0.091008  0.057143      4.000000
  0.180197  0.104009  0.057143      4.000000
  0.202721  0.117010  0.057143      2.000000
  0.000003  0.026008  0.057143      4.000000
 -0.022522  0.013007 -0.057143      4.000000
  0.022527  0.039010  0.057143      4.000000
 -0.045047  0.000006 -0.057143      4.000000
  0.045052  0.052011  0.057143      4.000000
 -0.067571 -0.012995 -0.057143      4.000000
  0.067576  0.065012  0.057143      4.000000
 -0.090096 -0.025996 -0.057143      4.000000
  0.090101  0.078013  0.057143      4.000000
 -0.112620 -0.038997 -0.057143      4.000000
  0.112626  0.091014  0.057143      4.000000
 -0.135145 -0.051998 -0.057143      4.000000
  0.135150  0.104015  0.057143      4.000000
 -0.157670 -0.065000 -0.057143      4.000000
  0.157675  0.117016  0.057143      4.000000
 -0.180194 -0.078001 -0.057143      4.000000
  0.180199  0.130017  0.057143      4.000000
  0.202724  0.143019 -0.057143      4.000000
  0.000005  0.052017  0.057143      4.000000
 -0.045044  0.026014 -0.057143      4.000000
  0.022530  0.065018  0.057143      4.000000
 -0.067569  0.013013 -0.057143      4.000000
  0.045054  0.078019  0.057143      4.000000
 -0.090093  0.000012 -0.057143      4.000000
  0.067579  0.091020  0.057143      4.000000
 -0.112618 -0.012989 -0.057143      4.000000
  0.090104  0.104021  0.057143      4.000000
 -0.135142 -0.025990 -0.057143      4.000000
  0.112628  0.117022  0.057143      4.000000
 -0.157667 -0.038991 -0.057143      4.000000
  0.135153  0.130024  0.057143      4.000000
 -0.180192 -0.051992 -0.057143      4.000000
  0.157677  0.143025  0.057143      4.000000
  0.202726  0.169027 -0.057143      4.000000
  0.180202  0.156026  0.057143      4.000000
 -0.022519  0.039016  0.057143      4.000000
  0.000008  0.078025  0.057143      4.000000
 -0.067566  0.039022 -0.057143      4.000000
  0.022532  0.091026  0.057143      4.000000
 -0.090091  0.026021 -0.057143      4.000000
  0.045057  0.104027  0.057143      4.000000
 -0.112615  0.013019 -0.057143      4.000000
  0.067581  0.117029  0.057143      4.000000
 -0.135140  0.000018 -0.057143      4.000000
  0.090106  0.130030  0.057143      4.000000
 -0.157664 -0.012983 -0.057143      4.000000
  0.112631  0.143031  0.057143      4.000000
 -0.180189 -0.025984 -0.057143      4.000000
  0.135155  0.156032  0.057143      4.000000
  0.202729  0.195035 -0.057143      4.000000
  0.157680  0.169033  0.057143      4.000000
  0.180204  0.182034 -0.057143      4.000000
 -0.045041  0.052023  0.057143      4.000000
 -0.022517  0.065024 -0.057143      4.000000
  0.000010  0.104033  0.057143      4.000000
 -0.090088  0.052029 -0.057143      4.000000
  0.022535  0.117035  0.057143      4.000000
 -0.112613  0.039028 -0.057143      4.000000
  0.045059  0.130036  0.057143      4.000000
 -0.135137  0.026027 -0.057143      4.000000
  0.067584  0.143037  0.057143      4.000000
 -0.157662  0.013026 -0.057143      4.000000
  0.090109  0.156038  0.057143      4.000000
 -0.180186  0.000024 -0.057143      4.000000
  0.112633  0.169039  0.057143      4.000000
  0.202732  0.221044 -0.057143      4.000000
  0.135158  0.182040  0.057143      4.000000
  0.180207  0.208043 -0.057143      4.000000
  0.157682  0.195041  0.057143      4.000000
 -0.067564  0.065030  0.057143      4.000000
 -0.022514  0.091032 -0.057143      4.000000
 -0.045039  0.078031  0.057143      4.000000
  0.000013  0.130042  0.057143      4.000000
 -0.112610  0.065036 -0.057143      4.000000
  0.022537  0.143043  0.057143      4.000000
 -0.135135  0.052035 -0.057143      4.000000
  0.045062  0.156044  0.057143      4.000000
 -0.157659  0.039034 -0.057143      4.000000
  0.067587  0.169045  0.057143      4.000000
 -0.180184  0.026033 -0.057143      4.000000
  0.090111  0.182046  0.057143      4.000000
  0.202734  0.247052 -0.057143      4.000000
  0.112636  0.195048  0.057143      4.000000
  0.180210  0.234051 -0.057143      4.000000
  0.135160  0.208049  0.057143      4.000000
  0.157685  0.221050 -0.057143      4.000000
 -0.090086  0.078037  0.057143      4.000000
 -0.022512  0.117041 -0.057143      4.000000
 -0.067561  0.091038  0.057143      4.000000
 -0.045036  0.104040 -0.057143      4.000000
  0.000015  0.156050  0.057143      4.000000
 -0.135132  0.078043 -0.057143      4.000000
  0.022540  0.169051  0.057143      4.000000
 -0.157657  0.065042 -0.057143      4.000000
  0.045065  0.182052  0.057143      4.000000
 -0.180181  0.052041 -0.057143      4.000000
  0.067589  0.195054  0.057143      4.000000
  0.202737  0.273060 -0.057143      4.000000
  0.090114  0.208055  0.057143      4.000000
  0.180212  0.260059 -0.057143      4.000000
  0.112638  0.221056  0.057143      4.000000
  0.157688  0.247058 -0.057143      4.000000
  0.135163  0.234057  0.057143      4.000000
 -0.112608  0.091045  0.057143      4.000000
 -0.022509  0.143049 -0.057143      4.000000
 -0.090083  0.104046  0.057143      4.000000
 -0.045034  0.130048 -0.057143      4.000000
 -0.067558  0.117047  0.057143      4.000000
  0.000018  0.182059  0.057143      4.000000
 -0.157654  0.091051 -0.057143      4.000000
  0.022543  0.195060  0.057143      4.000000
 -0.180179  0.078049 -0.057143      4.000000
  0.045067  0.208061  0.057143      4.000000
  0.202739  0.299069 -0.057143      4.000000
  0.067592  0.221062  0.057143      4.000000
  0.180215  0.286068 -0.057143      4.000000
  0.090116  0.234063  0.057143      4.000000
  0.157690  0.273067 -0.057143      4.000000
  0.112641  0.247064  0.057143      4.000000
  0.135166  0.260065 -0.057143      4.000000
 -0.135130  0.104052  0.057143      4.000000
 -0.022507  0.169057 -0.057143      4.000000
 -0.112605  0.117053  0.057143      4.000000
 -0.045031  0.156056 -0.057143      4.000000
 -0.090080  0.130054  0.057143      4.000000
 -0.067556  0.143055 -0.057143      4.000000
  0.000021  0.208067  0.057143      4.000000
 -0.180176  0.104058 -0.057143      4.000000
  0.022545  0.221068  0.057143      4.000000
  0.202742  0.325077 -0.057143      4.000000
  0.045070  0.234069  0.057143      4.000000
  0.180217  0.312076 -0.057143      4.000000
  0.067594  0.247070  0.057143      4.000000
  0.157693  0.299075 -0.057143      4.000000
  0.090119  0.260071  0.057143      4.000000
  0.135168  0.286074 -0.057143      4.000000
  0.112644  0.273073  0.057143      4.000000
 -0.157652  0.117059  0.057143      4.000000
 -0.022504  0.195066 -0.057143      4.000000
 -0.135127  0.130060  0.057143      4.000000
 -0.045029  0.182065 -0.057143      4.000000
 -0.112602  0.143061  0.057143      4.000000
 -0.067553  0.169064 -0.057143      4.000000
 -0.090078  0.156062  0.057143      4.000000
  0.000023  0.234075  0.057143      2.000000
  0.202744  0.351086 -0.057143      2.000000
  0.022548  0.247076  0.057143      4.000000
  0.180220  0.338084 -0.057143      4.000000
  0.045072  0.260078  0.057143      4.000000
  0.157695  0.325083 -0.057143      4.000000
  0.067597  0.273079  0.057143      4.000000
  0.135171  0.312082 -0.057143      4.000000
  0.090121  0.286080  0.057143      4.000000
  0.112646  0.299081 -0.057143      4.000000
  0.000000  0.000000  0.085714      2.000000
  0.022525  0.013001  0.085714      4.000000
  0.045049  0.026002  0.085714      4.000000
  0.067574  0.039003  0.085714      4.000000
  0.090098  0.052005  0.085714      4.000000
  0.112623  0.065006  0.085714      4.000000
  0.135148  0.078007  0.085714      4.000000
  0.157672  0.091008  0.085714      4.000000
  0.180197  0.104009  0.085714      4.000000
  0.202721  0.117010  0.085714      2.000000
  0.000003  0.026008  0.085714      4.000000
 -0.022522  0.013007 -0.085714      4.000000
  0.022527  0.039010  0.085714      4.000000
 -0.045047  0.000006 -0.085714      4.000000
  0.045052  0.052011  0.085714      4.000000
 -0.067571 -0.012995 -0.085714      4.000000
  0.067576  0.065012  0.085714      4.000000
 -0.090096 -0.025996 -0.085714      4.000000
  0.090101  0.078013  0.085714      4.000000
 -0.112620 -0.038997 -0.085714      4.000000
  0.112626  0.091014  0.085714      4.000000
 -0.135145 -0.051998 -0.085714      4.000000
  0.135150  0.104015  0.085714      4.000000
 -0.157670 -0.065000 -0.085714      4.000000
  0.157675  0.117016  0.085714      4.000000
 -0.180194 -0.078001 -0.085714      4.000000
  0.180199  0.130017  0.085714      4.000000
  0.202724  0.143019 -0.085714      4.000000
  0.000005  0.052017  0.085714      4.000000
 -0.045044  0.026014 -0.085714      4.000000
  0.022530  0.065018  0.085714      4.000000
 -0.067569  0.013013 -0.085714      4.000000
  0.045054  0.078019  0.085714      4.000000
 -0.090093  0.000012 -0.085714      4.000000
  0.067579  0.091020  0.085714      4.000000
 -0.112618 -0.012989 -0.085714      4.000000
  0.090104  0.104021  0.085714      4.000000
 -0.135142 -0.025990 -0.085714      4.000000
  0.112628  0.117022  0.085714      4.000000
 -0.157667 -0.038991 -0.085714      4.000000
  0.135153  0.130024  0.085714      4.000000
 -0.180192 -0.051992 -0.085714      4.000000
  0.157677  0.143025  0.085714      4.000000
  0.202726  0.169027 -0.085714      4.000000
  0.180202  0.156026  0.085714      4.000000
 -0.022519  0.039016  0.085714      4.000000
  0.000008  0.078025  0.085714      4.000000
 -0.067566  0.039022 -0.085714      4.000000
  0.022532  0.091026  0.085714      4.000000
 -0.090091  0.026021 -0.085714      4.000000
  0.045057  0.104027  0.085714      4.000000
 -0.112615  0.013019 -0.085714      4.000000
  0.067581  0.117029  0.085714      4.000000
 -0.135140  0.000018 -0.085714      4.000000
  0.090106  0.130030  0.085714      4.000000
 -0.157664 -0.012983 -0.085714      4.000000
  0.112631  0.143031  0.085714      4.000000
 -0.180189 -0.025984 -0.085714      4.000000
  0.135155  0.156032  0.085714      4.000000
  0.202729  0.195035 -0.085714      4.000000
  0.157680  0.169033  0.085714      4.000000
  0.180204  0.182034 -0.085714      4.000000
 -0.045041  0.052023  0.085714      4.000000
 -0.022517  0.065024 -0.085714      4.000000
  0.000010  0.104033  0.085714      4.000000
 -0.090088  0.052029 -0.085714      4.000000
  0.022535  0.117035  0.085714      4.000000
 -0.112613  0.039028 -0.085714      4.000000
  0.045059  0.130036  0.085714      4.000000
 -0.135137  0.026027 -0.085714      4.000000
  0.067584  0.143037  0.085714      4.000000
 -0.157662  0.013026 -0.085714      4.000000
  0.090109  0.156038  0.085714      4.000000
 -0.180186  0.000024 -0.085714      4.000000
  0.112633  0.169039  0.085714      4.000000
  0.202732  0.221044 -0.085714      4.000000
  0.135158  0.182040  0.085714      4.000000
  0.180207  0.208043 -0.085714      4.000000
  0.157682  0.195041  0.085714      4.000000
 -0.067564  0.065030  0.085714      4.000000
 -0.022514  0.091032 -0.085714      4.000000
 -0.045039  0.078031  0.085714      4.000000
  0.000013  0.130042  0.085714      4.000000
 -0.112610  0.065036 -0.085714      4.000000
  0.022537  0.143043  0.085714      4.000000
 -0.135135  0.052035 -0.085714      4.000000
  0.045062  0.156044  0.085714      4.000000
 -0.157659  0.039034 -0.085714      4.000000
  0.067587  0.169045  0.085714      4.000000
 -0.180184  0.026033 -0.085714      4.000000
  0.090111  0.182046  0.085714      4.000000
  0.202734  0.247052 -0.085714      4.000000
  0.112636  0.195048  0.085714      4.000000
  0.180210  0.234051 -0.085714      4.000000
  0.135160  0.208049  0.085714      4.000000
  0.157685  0.221050 -0.085714      4.000000
 -0.090086  0.078037  0.085714      4.000000
 -0.022512  0.117041 -0.085714      4.000000
 -0.067561  0.091038  0.085714      4.000000
 -0.045036  0.104040 -0.085714      4.000000
  0.000015  0.156050  0.085714      4.000000
 -0.135132  0.078043 -0.085714      4.000000
  0.022540  0.169051  0.085714      4.000000
 -0.157657  0.065042 -0.085714      4.000000
  0.045065  0.182052  0.085714      4.000000
 -0.180181  0.052041 -0.085714      4.000000
  0.067589  0.195054  0.085714      4.000000
  0.202737  0.273060 -0.085714      4.000000
  0.090114  0.208055  0.085714      4.000000
  0.180212  0.260059 -0.085714      4.000000
  0.112638  0.221056  0.085714      4.000000
  0.157688  0.247058 -0.085714      4.000000
  0.135163  0.234057  0.085714      4.000000
 -0.112608  0.091045  0.085714      4.000000
 -0.022509  0.143049 -0.085714      4.000000
 -0.090083  0.104046  0.085714      4.000000
 -0.045034  0.130048 -0.085714      4.000000
 -0.067558  0.117047  0.085714      4.000000
  0.000018  0.182059  0.085714      4.000000
 -0.157654  0.091051 -0.085714      4.000000
  0.022543  0.195060  0.085714      4.000000
 -0.180179  0.078049 -0.085714      4.000000
  0.045067  0.208061  0.085714      4.000000
  0.202739  0.299069 -0.085714      4.000000
  0.067592  0.221062  0.085714      4.000000
  0.180215  0.286068 -0.085714      4.000000
  0.090116  0.234063  0.085714      4.000000
  0.157690  0.273067 -0.085714      4.000000
  0.112641  0.247064  0.085714      4.000000
  0.135166  0.260065 -0.085714      4.000000
 -0.135130  0.104052  0.085714      4.000000
 -0.022507  0.169057 -0.085714      4.000000
 -0.112605  0.117053  0.085714      4.000000
 -0.045031  0.156056 -0.085714      4.000000
 -0.090080  0.130054  0.085714      4.000000
 -0.067556  0.143055 -0.085714      4.000000
  0.000021  0.208067  0.085714      4.000000
 -0.180176  0.104058 -0.085714      4.000000
  0.022545  0.221068  0.085714      4.000000
  0.202742  0.325077 -0.085714      4.000000
  0.045070  0.234069  0.085714      4.000000
  0.180217  0.312076 -0.085714      4.000000
  0.067594  0.247070  0.085714      4.000000
  0.157693  0.299075 -0.085714      4.000000
  0.090119  0.260071  0.085714      4.000000
  0.135168  0.286074 -0.085714      4.000000
  0.112644  0.273073  0.085714      4.000000
 -0.157652  0.117059  0.085714      4.000000
 -0.022504  0.195066 -0.085714      4.000000
 -0.135127  0.130060  0.085714      4.000000
 -0.045029  0.182065 -0.085714      4.000000
 -0.112602  0.143061  0.085714      4.000000
 -0.067553  0.169064 -0.085714      4.000000
 -0.090078  0.156062  0.085714      4.000000
  0.000023  0.234075  0.085714      2.000000
  0.202744  0.351086 -0.085714      2.000000
  0.022548  0.247076  0.085714      4.000000
  0.180220  0.338084 -0.085714      4.000000
  0.045072  0.260078  0.085714      4.000000
  0.157695  0.325083 -0.085714      4.000000
  0.067597  0.273079  0.085714      4.000000
  0.135171  0.312082 -0.085714      4.000000
  0.090121  0.286080  0.085714      4.000000
  0.112646  0.299081 -0.085714      4.000000
 


--------------------------------------------------------------------------------------------------------




 Dimension of arrays:
   k-points           NKPTS =    656   k-points in BZ     NKDIM =    656   number of bands    NBANDS=     12
   number of dos      NEDOS =    301   number of ions     NIONS =      4
   non local maximal  LDIM  =      4   non local SUM 2l+1 LMDIM =      8
   total plane-waves  NPLWV =  12960
   max r-space proj   IRMAX =      1   max aug-charges    IRDMAX=  46638
   dimension x,y,z NGX =    18 NGY =   18 NGZ =   40
   dimension x,y,z NGXF=    36 NGYF=   36 NGZF=   80
   support grid    NGXF=    72 NGYF=   72 NGZF=  160
   ions per type =               4
   NGX,Y,Z   is equivalent  to a cutoff of  12.13, 12.13, 13.30 a.u.
   NGXF,Y,Z  is equivalent  to a cutoff of  24.26, 24.26, 26.60 a.u.

 SYSTEM =  unknown system                          
 POSCAR =  AB-stacked Graphene                     

 Startparameter for this run:
   NWRITE =      2    write-flag & timer
   PREC   = a         normal or accurate (medium, high low for compatibility)
   ISTART =      0    job   : 0-new  1-cont  2-samecut
   ICHARG =      2    charge: 1-file 2-atom 10-const
   ISPIN  =      1    spin polarized calculation?
   LNONCOLLINEAR =      F non collinear calculations
   LSORBIT =      F    spin-orbit coupling
   INIWAV =      1    electr: 0-lowe 1-rand  2-diag
   LASPH  =      F    aspherical Exc in radial PAW
 Electronic Relaxation 1
   ENCUT  =  520.0 eV  38.22 Ry    6.18 a.u.   4.59  4.59  9.30*2*pi/ulx,y,z
   ENINI  =  520.0     initial cutoff
   ENAUG  =  644.9 eV  augmentation charge cutoff
   NELM   =    200;   NELMIN=  6; NELMDL=  0     # of ELM steps 
   EDIFF  = 0.1E-07   stopping-criterion for ELM
   LREAL  =      F    real-space projection
   NLSPLINE    = F    spline interpolate recip. space projectors
   LCOMPAT=      F    compatible to vasp.4.4
   GGA_COMPAT  = T    GGA compatible to vasp.4.4-vasp.4.6
   LMAXPAW     = -100 max onsite density
   LMAXMIX     =    2 max onsite mixed and CHGCAR
   VOSKOWN=      0    Vosko Wilk Nusair interpolation
   ROPT   =    0.00000
 Ionic relaxation
   EDIFFG = -.1E-03   stopping-criterion for IOM
   NSW    =      0    number of steps for IOM
   NBLOCK =      1;   KBLOCK =      1    inner block; outer block 
   IBRION =     -1    ionic relax: 0-MD 1-quasi-New 2-CG
   NFREE  =      0    steps in history (QN), initial steepest desc. (CG)
   ISIF   =      3    stress and relaxation
   IWAVPR =     10    prediction:  0-non 1-charg 2-wave 3-comb
   ISYM   =      2    0-nonsym 1-usesym 2-fastsym
   LCORR  =      T    Harris-Foulkes like correction to forces

   POTIM  = 0.5000    time-step for ionic-motion
   TEIN   =    0.0    initial temperature
   TEBEG  =    0.0;   TEEND  =   0.0 temperature during run
   SMASS  =  -3.00    Nose mass-parameter (am)
   estimated Nose-frequenzy (Omega)   =  0.10E-29 period in steps = 0.13E+47 mass=  -0.139E-27a.u.
   SCALEE = 1.0000    scale energy and forces
   NPACO  =    256;   APACO  = 10.0  distance and # of slots for P.C.
   PSTRESS=    0.0 pullay stress

  Mass of Ions in am
   POMASS =  12.01
  Ionic Valenz
   ZVAL   =   4.00
  Atomic Wigner-Seitz radii
   RWIGS  =  -1.00
  virtual crystal weights 
   VCA    =   1.00
   NELECT =      16.0000    total number of electrons
   NUPDOWN=      -1.0000    fix difference up-down

 DOS related values:
   EMIN   =  10.00;   EMAX   =-10.00  energy-range for DOS
   EFERMI =   0.00
   ISMEAR =     0;   SIGMA  =   0.05  broadening in eV -4-tet -1-fermi 0-gaus

 Electronic relaxation 2 (details)
   IALGO  =     38    algorithm
   LDIAG  =      T    sub-space diagonalisation (order eigenvalues)
   LSUBROT=      F    optimize rotation matrix (better conditioning)
   TURBO    =      0    0=normal 1=particle mesh
   IRESTART =      0    0=no restart 2=restart with 2 vectors
   NREBOOT  =      0    no. of reboots
   NMIN     =      0    reboot dimension
   EREF     =   0.00    reference energy to select bands
   IMIX   =      4    mixing-type and parameters
     AMIX     =   0.40;   BMIX     =  1.00
     AMIX_MAG =   1.60;   BMIX_MAG =  1.00
     AMIN     =   0.10
     WC   =   100.;   INIMIX=   1;  MIXPRE=   1;  MAXMIX= -45

 Intra band minimization:
   WEIMIN = 0.0000     energy-eigenvalue tresh-hold
   EBREAK =  0.21E-09  absolut break condition
   DEPER  =   0.30     relativ break condition  

   TIME   =   0.40     timestep for ELM

  volume/ion in A,a.u.               =       6.59        44.44
  Fermi-wavevector in a.u.,A,eV,Ry     =   1.386399  2.619914 26.151789  1.922102
  Thomas-Fermi vector in A             =   2.510718
 
 Write flags
   LWAVE        =      F    write WAVECAR
   LDOWNSAMPLE  =      F    k-point downsampling of WAVECAR
   LCHARG       =      F    write CHGCAR
   LVTOT        =      F    write LOCPOT, total local potential
   LVHAR        =      F    write LOCPOT, Hartree potential only
   LELF         =      F    write electronic localiz. function (ELF)
   LORBIT       =      0    0 simple, 1 ext, 2 COOP (PROOUT), +10 PAW based schemes


 Dipole corrections
   LMONO  =      F    monopole corrections only (constant potential shift)
   LDIPOL =      F    correct potential (dipole corrections)
   IDIPOL =      0    1-x, 2-y, 3-z, 4-all directions 
   EPSILON=  1.0000000 bulk dielectric constant

 Exchange correlation treatment:
   GGA     =    --    GGA type
   LEXCH   =     8    internal setting for exchange type
   LIBXC   =     F    Libxc                    
   VOSKOWN =     0    Vosko Wilk Nusair interpolation
   LHFCALC =     F    Hartree Fock is set to
   LHFONE  =     F    Hartree Fock one center treatment
   AEXX    =    0.0000 exact exchange contribution

 Linear response parameters
   LEPSILON=     F    determine dielectric tensor
   LRPA    =     F    only Hartree local field effects (RPA)
   LNABLA  =     F    use nabla operator in PAW spheres
   LVEL    =     F    velocity operator in full k-point grid
   CSHIFT  =0.1000    complex shift for real part using Kramers Kronig
   OMEGAMAX=  -1.0    maximum frequency
   DEG_THRESHOLD= 0.2000000E-02 threshold for treating states as degnerate
   RTIME   =   -0.100 relaxation time in fs
  (WPLASMAI=    0.000 imaginary part of plasma frequency in eV, 0.658/RTIME)
   DFIELD  = 0.0000000 0.0000000 0.0000000 field for delta impulse in time
 
  Optional k-point grid parameters
   LKPOINTS_OPT  =     F    use optional k-point grid
   KPOINTS_OPT_MODE=     1    mode for optional k-point grid
 
 Orbital magnetization related:
   ORBITALMAG=     F  switch on orbital magnetization
   LCHIMAG   =     F  perturbation theory with respect to B field
   DQ        =  0.001000  dq finite difference perturbation B field
   LLRAUG    =     F  two centre corrections for induced B field



--------------------------------------------------------------------------------------------------------


 Static calculation
 charge density and potential will be updated during run
 non-spin polarized calculation
 Variant of blocked Davidson
 Davidson routine will perform the subspace rotation
 perform sub-space diagonalisation
    after iterative eigenvector-optimisation
 modified Broyden-mixing scheme, WC =      100.0
 initial mixing is a Kerker type mixing with AMIX =  0.4000 and BMIX =      1.0000
 Hartree-type preconditioning will be used
 using additional bands            4
 reciprocal scheme for non local part
 use partial core corrections
 calculate Harris-corrections to forces 
   (improved forces if not selfconsistent)
 use gradient corrections 
 use of overlap-Matrix (Vanderbilt PP)
 Gauss-broadening in eV      SIGMA  =   0.05


--------------------------------------------------------------------------------------------------------


  energy-cutoff  :      520.00
  volume of cell :       26.34
      direct lattice vectors                 reciprocal lattice vectors
     2.466580556 -0.000243583 -0.000000049     0.405442669  0.234020469  0.000000009
    -1.233001436  2.136186615 -0.000000006     0.000046231  0.468150580  0.000000010
    -0.000000044 -0.000000106  5.000000000     0.000000004  0.000000003  0.200000000

  length of vectors
     2.466580568  2.466492610  5.000000000     0.468133888  0.468150582  0.200000000


 
 k-points in units of 2pi/SCALE and weight: K-Spacing Value to Generate K-Mesh: 0.03
   0.00000000  0.00000000  0.00000000       0.000
   0.02252459  0.01300114  0.00000000       0.001
   0.04504919  0.02600227  0.00000000       0.001
   0.06757378  0.03900341  0.00000000       0.001
   0.09009837  0.05200455  0.00000000       0.001
   0.11262296  0.06500569  0.00000000       0.001
   0.13514756  0.07800682  0.00000000       0.001
   0.15767215  0.09100796  0.00000000       0.001
   0.18019674  0.10400910  0.00000000       0.001
   0.20272133  0.11701023  0.00000000       0.000
[...]
     11      15.0659      0.00000
     12      15.6004      0.00000

 k-point   633 :       0.1111    0.4444    0.4286
  band No.  band energies     occupation 
      1      -6.5816      2.00000
      2      -6.3734      2.00000
      3      -5.4820      2.00000
      4      -5.3292      2.00000
      5       0.3220      2.00000
      6       0.4939      2.00000
      7       5.3241      2.00000
      8       5.9777      2.00000
      9       9.2175      0.00000
     10       9.4810      0.00000
     11      15.9333      0.00000
     12      16.4480      0.00000

 k-point   634 :       0.4444    0.4444   -0.4286
  band No.  band energies     occupation 
      1      -6.5857      2.00000
      2      -6.3707      2.00000
      3      -5.4839      2.00000
      4      -5.3258      2.00000
      5       0.3220      2.00000
      6       0.4940      2.00000
      7       5.3148      2.00000
      8       5.9909      2.00000
      9       9.2066      0.00000
     10       9.4873      0.00000
     11      15.9325      0.00000
     12      16.4496      0.00000

 k-point   635 :       0.1667    0.4444    0.4286
  band No.  band energies     occupation 
      1      -6.6414      2.00000
      2      -6.3475      2.00000
      3      -5.0290      2.00000
      4      -4.7862      2.00000
      5      -0.6074      2.00000
      6      -0.4132      2.00000
      7       5.4791      2.00000
      8       6.2396      2.00000
      9       9.1665      0.00000
     10       9.4824      0.00000
     11      17.1554      0.00000
     12      17.6189      0.00000

 k-point   636 :       0.3889    0.4444   -0.4286
  band No.  band energies     occupation 
      1      -6.6430      2.00000
      2      -6.3471      2.00000
      3      -5.0288      2.00000
      4      -4.7851      2.00000
      5      -0.6075      2.00000
      6      -0.4131      2.00000
      7       5.4725      2.00000
      8       6.2496      2.00000
      9       9.1605      0.00000
     10       9.4845      0.00000
     11      17.1537      0.00000
     12      17.6202      0.00000

 k-point   637 :       0.2222    0.4444    0.4286
  band No.  band energies     occupation 
      1      -6.7923      2.00000
      2      -6.4669      2.00000
      3      -4.2504      2.00000
      4      -4.0121      2.00000
      5      -1.5592      2.00000
      6      -1.3666      2.00000
      7       5.5069      2.00000
      8       6.4431      2.00000
      9       9.1480      0.00000
     10       9.6215      0.00000
     11      18.2703      0.00000
     12      18.4741      0.00000

 k-point   638 :       0.3333    0.4444   -0.4286
  band No.  band energies     occupation 
      1      -6.7928      2.00000
      2      -6.4669      2.00000
      3      -4.2501      2.00000
      4      -4.0117      2.00000
      5      -1.5593      2.00000
      6      -1.3667      2.00000
      7       5.5040      2.00000
      8       6.4479      2.00000
      9       9.1464      0.00000
     10       9.6209      0.00000
     11      18.2665      0.00000
     12      18.4758      0.00000

 k-point   639 :       0.2778    0.4444    0.4286
  band No.  band energies     occupation 
      1      -6.8501      2.00000
      2      -6.5187      2.00000
      3      -3.7138      2.00000
      4      -3.5708      2.00000
      5      -2.0597      2.00000
      6      -1.9578      2.00000
      7       5.5047      2.00000
      8       6.5160      2.00000
      9       9.1578      0.00000
     10       9.6873      0.00000
     11      18.5670      0.00000
     12      18.6499      0.00000

 k-point   640 :      -0.3889    0.4444    0.4286
  band No.  band energies     occupation 
      1      -8.0615      2.00000
      2      -7.7028      2.00000
      3      -4.1829      2.00000
      4      -3.9004      2.00000
      5       1.1712      2.00000
      6       1.3186      2.00000
      7       4.1635      2.00000
      8       5.2386      2.00000
      9      10.0357      0.00000
     10      10.7426      0.00000
     11      15.1803      0.00000
     12      15.7080      0.00000

 k-point   641 :      -0.0556    0.4444   -0.4286
  band No.  band energies     occupation 
      1      -8.0610      2.00000
      2      -7.7026      2.00000
      3      -4.1833      2.00000
      4      -3.9006      2.00000
      5       1.1712      2.00000
      6       1.3183      2.00000
      7       4.1660      2.00000
      8       5.2347      2.00000
      9      10.0379      0.00000
     10      10.7428      0.00000
     11      15.1807      0.00000
     12      15.7065      0.00000

 k-point   642 :      -0.3333    0.4444    0.4286
  band No.  band energies     occupation 
      1      -8.4076      2.00000
      2      -8.0407      2.00000
      3      -3.3876      2.00000
      4      -3.1228      2.00000
      5       0.6257      2.00000
      6       0.7913      2.00000
      7       3.8588      2.00000
      8       5.0182      2.00000
      9      10.5735      0.00000
     10      11.2437      0.00000
     11      16.1646      0.00000
     12      16.6695      0.00000

 k-point   643 :      -0.1111    0.4444   -0.4286
  band No.  band energies     occupation 
      1      -8.4074      2.00000
      2      -8.0406      2.00000
      3      -3.3879      2.00000
      4      -3.1229      2.00000
      5       0.6257      2.00000
      6       0.7911      2.00000
      7       3.8601      2.00000
      8       5.0161      2.00000
      9      10.5743      0.00000
     10      11.2445      0.00000
     11      16.1652      0.00000
     12      16.6685      0.00000

 k-point   644 :      -0.2778    0.4444    0.4286
  band No.  band energies     occupation 
      1      -8.6184      2.00000
      2      -8.2470      2.00000
      3      -2.5684      2.00000
      4      -2.3449      2.00000
      5      -0.0895      2.00000
      6       0.0782      2.00000
      7       3.6675      2.00000
      8       4.8721      2.00000
      9      11.0355      0.00000
     10      11.5996      0.00000
     11      17.5357      0.00000
     12      18.0060      0.00000

 k-point   645 :      -0.1667    0.4444   -0.4286
  band No.  band energies     occupation 
      1      -8.6183      2.00000
      2      -8.2470      2.00000
      3      -2.5686      2.00000
      4      -2.3449      2.00000
      5      -0.0894      2.00000
      6       0.0780      2.00000
      7       3.6681      2.00000
      8       4.8711      2.00000
      9      11.0355      0.00000
     10      11.6004      0.00000
     11      17.5368      0.00000
     12      18.0060      0.00000

 k-point   646 :      -0.2222    0.4444    0.4286
  band No.  band energies     occupation 
      1      -8.6890      2.00000
      2      -8.3162      2.00000
      3      -2.0604      2.00000
      4      -1.9334      2.00000
      5      -0.4981      2.00000
      6      -0.3998      2.00000
      7       3.6026      2.00000
      8       4.8209      2.00000
      9      11.2282      0.00000
     10      11.7228      0.00000
     11      18.7136      0.00000
     12      19.0298      0.00000

 k-point   647 :      -0.0000    0.5000    0.4286
  band No.  band energies     occupation 
      1      -6.7735      2.00000
      2      -6.5629      2.00000
      3      -5.6707      2.00000
      4      -5.5121      2.00000
      5       1.2598      2.00000
      6       1.3990      2.00000
      7       5.0688      2.00000
      8       5.7233      2.00000
      9       9.2406      0.00000
     10       9.6111      0.00000
     11      14.7298      0.00000
     12      15.2704      0.00000

 k-point   648 :       0.5000    0.5000   -0.4286
  band No.  band energies     occupation 
      1      -6.7776      2.00000
      2      -6.5601      2.00000
      3      -5.6727      2.00000
      4      -5.5087      2.00000
      5       1.2598      2.00000
      6       1.3993      2.00000
      7       5.0595      2.00000
      8       5.7366      2.00000
      9       9.2286      0.00000
     10       9.6183      0.00000
     11      14.7292      0.00000
     12      15.2720      0.00000

 k-point   649 :       0.0556    0.5000    0.4286
  band No.  band energies     occupation 
      1      -7.0327      2.00000
      2      -6.7308      2.00000
      3      -5.3853      2.00000
      4      -5.1268      2.00000
      5       1.0248      2.00000
      6       1.1735      2.00000
      7       4.9817      2.00000
      8       5.7375      2.00000
      9       9.3068      0.00000
     10       9.7656      0.00000
     11      15.0667      0.00000
     12      15.5996      0.00000

 k-point   650 :       0.4444    0.5000   -0.4286
  band No.  band energies     occupation 
      1      -7.0344      2.00000
      2      -6.7304      2.00000
      3      -5.3852      2.00000
      4      -5.1257      2.00000
      5       1.0248      2.00000
      6       1.1738      2.00000
      7       4.9746      2.00000
      8       5.7480      2.00000
      9       9.2984      0.00000
     10       9.7698      0.00000
     11      15.0661      0.00000
     12      15.6011      0.00000

 k-point   651 :       0.1111    0.5000    0.4286
  band No.  band energies     occupation 
      1      -7.3891      2.00000
      2      -7.0508      2.00000
      3      -4.7001      2.00000
      4      -4.4210      2.00000
      5       0.3982      2.00000
      6       0.5685      2.00000
      7       4.8033      2.00000
      8       5.7353      2.00000
      9       9.5366      0.00000
     10      10.1036      0.00000
     11      15.9928      0.00000
     12      16.5059      0.00000

 k-point   652 :       0.3889    0.5000   -0.4286
  band No.  band energies     occupation 
      1      -7.3898      2.00000
      2      -7.0508      2.00000
      3      -4.6997      2.00000
      4      -4.4206      2.00000
      5       0.3982      2.00000
      6       0.5687      2.00000
      7       4.7993      2.00000
      8       5.7416      2.00000
      9       9.5326      0.00000
     10      10.1047      0.00000
     11      15.9919      0.00000
     12      16.5070      0.00000

 k-point   653 :       0.1667    0.5000    0.4286
  band No.  band energies     occupation 
      1      -7.6507      2.00000
      2      -7.3007      2.00000
      3      -3.8771      2.00000
      4      -3.6164      2.00000
      5      -0.4383      2.00000
      6      -0.2515      2.00000
      7       4.6408      2.00000
      8       5.7014      2.00000
      9       9.8639      0.00000
     10      10.4417      0.00000
     11      17.2914      0.00000
     12      17.7629      0.00000

 k-point   654 :       0.3333    0.5000   -0.4286
  band No.  band energies     occupation 
      1      -7.6511      2.00000
      2      -7.3008      2.00000
      3      -3.8769      2.00000
      4      -3.6161      2.00000
      5      -0.4383      2.00000
      6      -0.2514      2.00000
      7       4.6388      2.00000
      8       5.7045      2.00000
      9       9.8627      0.00000
     10      10.4414      0.00000
     11      17.2897      0.00000
     12      17.7632      0.00000

 k-point   655 :       0.2222    0.5000    0.4286
  band No.  band energies     occupation 
      1      -7.7856      2.00000
      2      -7.4312      2.00000
      3      -3.1004      2.00000
      4      -2.9123      2.00000
      5      -1.1925      2.00000
      6      -1.0427      2.00000
      7       4.5485      2.00000
      8       5.6710      2.00000
      9      10.1137      0.00000
     10      10.6411      0.00000
     11      18.5529      0.00000
     12      18.7982      0.00000

 k-point   656 :       0.2778    0.5000   -0.4286
  band No.  band energies     occupation 
      1      -7.7857      2.00000
      2      -7.4312      2.00000
      3      -3.1003      2.00000
      4      -2.9122      2.00000
      5      -1.1926      2.00000
      6      -1.0426      2.00000
      7       4.5479      2.00000
      8       5.6720      2.00000
      9      10.1136      0.00000
     10      10.6407      0.00000
     11      18.5499      0.00000
     12      18.7983      0.00000


--------------------------------------------------------------------------------------------------------


 soft charge-density along one line, spin component           1
         0         1         2         3         4         5         6         7         8         9
 total charge-density along one line
 
 pseudopotential strength for first ion, spin component:           1
  9.582  12.727  -0.000  -0.000  -0.000   0.000   0.000   0.000
 12.727  16.904  -0.000  -0.000  -0.000   0.000   0.000   0.000
 -0.000  -0.000  -3.788  -0.000  -0.000   7.412   0.000   0.000
 -0.000  -0.000  -0.000  -3.782  -0.000   0.000   7.406   0.000
 -0.000  -0.000  -0.000  -0.000  -3.788   0.000   0.000   7.412
  0.000   0.000   7.412   0.000   0.000 -16.605  -0.000  -0.000
  0.000   0.000   0.000   7.406   0.000  -0.000 -16.602  -0.000
  0.000   0.000   0.000   0.000   7.412  -0.000  -0.000 -16.605
 total augmentation occupancy for first ion, spin component:           1
  8.039  -3.559  -0.000   0.000  -0.000  -0.000   0.000  -0.000
 -3.559   1.645   0.000  -0.000   0.000   0.000  -0.000  -0.000
 -0.000   0.000   1.813  -0.000   0.000   0.166  -0.000  -0.000
  0.000  -0.000  -0.000   1.175  -0.000  -0.000   0.070  -0.000
 -0.000   0.000   0.000  -0.000   1.813  -0.000  -0.000   0.166
 -0.000   0.000   0.166  -0.000  -0.000   0.017  -0.000   0.000
  0.000  -0.000  -0.000   0.070  -0.000  -0.000   0.005  -0.000
 -0.000  -0.000  -0.000  -0.000   0.166   0.000  -0.000   0.017


------------------------ aborting loop because EDIFF is reached ----------------------------------------


    CHARGE:  cpu time      0.0919: real time      0.0922
    FORLOC:  cpu time      0.0001: real time      0.0001
    FORNL :  cpu time      0.1850: real time      0.1854
    STRESS:  cpu time      0.5203: real time      0.5213
    FORCOR:  cpu time      0.0029: real time      0.0030
    FORHAR:  cpu time      0.0007: real time      0.0008
    MIXING:  cpu time      0.0004: real time      0.0004
    OFIELD:  cpu time      0.0000: real time      0.0000

 ---------------------------------------------------------------------------------------------

         DFTD3 V3.0 Rev 1        
 IVDW         = 12
 DF pbe       
 parameters
 VDW_S6       =    1.0000
 VDW_S8       =    0.7875
 VDW_A1       =    0.4289
 VDW_A2       =    4.4407
 k1-k3        =   16.0000    1.3333   -4.0000
 VDW_RADIUS   =   50.2022 A
 VDW_CNRADIUS =   21.1671 A
 Edisp (eV)   -0.81957

 E6    (eV) :    -0.5826
 E8    (eV) :    -0.2370
 % E8        : 28.91
    FORVDW:  cpu time      0.0776: real time      0.0779

  FORCE on cell =-STRESS in cart. coord.  units (eV):
  Direction    XX          YY          ZZ          XY          YZ          ZX
  --------------------------------------------------------------------------------------
  Alpha Z    49.89195    49.89195    49.89195
  Ewald     -78.57929   -78.64000  -460.45738     0.11312    -0.00001    -0.00001
  Hartree    64.98200    64.95625   -42.85083     0.05264    -0.00000    -0.00000
  E(xc)     -60.20564   -60.20577   -61.51121     0.00016    -0.00000    -0.00000
  Local    -202.12445  -202.04091   256.39223    -0.16219     0.00001     0.00001
  n-local   -14.03996   -14.04187   -13.79540     0.00267     0.02404     0.04298
  augment    -1.57548    -1.57542    -1.44713     0.00000    -0.00000    -0.00000
  Kinetic   241.40943   241.40457   282.56123     0.02036    -0.24570    -0.45368
  Fock        0.00000     0.00000     0.00000     0.00000     0.00000     0.00000
  vdW         0.25698     0.25682    -0.23908     0.00049    -0.00000    -0.00000
  -------------------------------------------------------------------------------------
  Total       0.01553     0.00561     8.54437     0.02725    -0.00000    -0.00000
  in kB       0.94463     0.34143   519.65001     1.65756    -0.00001    -0.00000
  external pressure =      173.65 kB  Pullay stress =        0.00 kB


 VOLUME and BASIS-vectors are now :
 -----------------------------------------------------------------------------
  energy-cutoff  :      520.00
  volume of cell :       26.34
      direct lattice vectors                 reciprocal lattice vectors
     2.466580556 -0.000243583 -0.000000049     0.405442669  0.234020469  0.000000009
    -1.233001436  2.136186615 -0.000000006     0.000046231  0.468150580  0.000000010
    -0.000000044 -0.000000106  5.000000000     0.000000004  0.000000003  0.200000000

  length of vectors
     2.466580568  2.466492610  5.000000000     0.468133888  0.468150582  0.200000000


 FORCES acting on ions
    electron-ion (+dipol)            ewald-force                    non-local-force                 convergence-correction
 -----------------------------------------------------------------------------------------------
   0.429E-01 0.765E-02 0.402E-03   -.410E-01 -.728E-02 -.234E-03   -.754E-02 -.191E-02 0.178E-09   -.138E-06 -.128E-06 -.531E-06
   -.769E-01 -.173E-01 -.948E-03   0.855E-01 0.198E-01 0.518E-03   0.141E-01 0.351E-02 -.333E-09   -.123E-06 0.130E-06 -.530E-06
   0.769E-01 0.178E-01 0.910E-04   -.855E-01 -.197E-01 -.491E-03   -.141E-01 -.351E-02 0.333E-09   0.123E-06 -.129E-06 0.530E-06
   -.429E-01 -.737E-02 -.115E-02   0.411E-01 0.725E-02 0.208E-03   0.754E-02 0.191E-02 -.178E-09   0.138E-06 0.128E-06 0.531E-06
 -----------------------------------------------------------------------------------------------
   -.973E-04 0.744E-03 -.160E-02   0.305E-15 -.426E-14 0.119E-17   0.260E-17 0.867E-18 -.867E-18   -.191E-11 0.348E-09 0.681E-09
 
 
 POSITION                                       TOTAL-FORCE (eV/Angst)
 -----------------------------------------------------------------------------------
     -0.94030      2.13243      5.00000        -0.006390     -0.001826      0.000000
      1.52608      0.70813      0.00000         0.023406      0.005915     -0.000000
      0.32289      1.42776      2.50000        -0.023406     -0.005915      0.000000
      0.32269      0.00370      2.50000         0.006390      0.001826     -0.000000
 -----------------------------------------------------------------------------------
    total drift:                               -0.000097      0.000744     -0.001603


--------------------------------------------------------------------------------------------------------



  FREE ENERGIE OF THE ION-ELECTRON SYSTEM (eV)
  ---------------------------------------------------
  free  energy   TOTEN  =       -36.58440294 eV

  energy  without entropy=      -36.58425787  energy(sigma->0) =      -36.58433041
 


--------------------------------------------------------------------------------------------------------


    POTLOK:  cpu time      0.0111: real time      0.0111


--------------------------------------------------------------------------------------------------------


     LOOP+:  cpu time     45.5103: real time     45.6432
    4ORBIT:  cpu time      0.0000: real time      0.0000

 total amount of memory used by VASP MPI-rank0    37192. kBytes
=======================================================================

   base      :      30000. kBytes
   nonl-proj :       2270. kBytes
   fftplans  :        676. kBytes
   grid      :        339. kBytes
   one-center:          3. kBytes
   wavefun   :       3904. kBytes
 
  
  
 General timing and accounting informations for this job:
 ========================================================
  
                  Total CPU time used (sec):       47.423
                            User time (sec):       46.739
                          System time (sec):        0.684
                         Elapsed time (sec):       49.438
  
                   Maximum memory used (kb):       67316.
                   Average memory used (kb):          N/A
  
                          Minor page faults:        33979
                          Major page faults:            0
                 Voluntary context switches:         1576
