 running on   28 total cores
 distrk:  each k-point on   28 cores,    1 groups
 distr:  one band on   14 cores,    2 groups
 vasp.6.3.1 04May22 (build Aug 04 2022 13:02:54) complex                        
  
 POSCAR found type information on POSCAR C 
 POSCAR found :  1 types and       2 ions
 scaLAPACK will be used
 -----------------------------------------------------------------------------
|                                                                             |
|           W    W    AA    RRRRR   N    N  II  N    N   GGGG   !!!           |
|           W    W   A  A   R    R  NN   N  II  NN   N  G    G  !!!           |
|           W    W  A    A  R    R  N N  N  II  N N  N  G       !!!           |
|           W WW W  AAAAAA  RRRRR   N  N N  II  N  N N  G  GGG   !            |
|           WW  WW  A    A  R   R   N   NN  II  N   NN  G    G                |
|           W    W  A    A  R    R  N    N  II  N    N   GGGG   !!!           |
|                                                                             |
|     For optimal performance we recommend to set                             |
|       NCORE = 2 up to number-of-cores-per-socket                            |
|     NCORE specifies how many cores store one orbital (NPAR=cpu/NCORE).      |
|     This setting can greatly improve the performance of VASP for DFT.       |
|     The default, NCORE=1 might be grossly inefficient on modern             |
|     multi-core architectures or massively parallel machines. Do your        |
|     own testing! More info at https://www.vasp.at/wiki/index.php/NCORE      |
|     Unfortunately you need to use the default for GW and RPA                |
|     calculations (for HF NCORE is supported but not extensively tested      |
|     yet).                                                                   |
|                                                                             |
 -----------------------------------------------------------------------------

 LDA part: xc-table for Pade appr. of Perdew
 POSCAR, INCAR and KPOINTS ok, starting setup
 FFT: planning ... GRIDC
 FFT: planning ... GRID_SOFT
 FFT: planning ... GRID
 WAVECAR not read
 WARNING: random wavefunctions but no delay for mixing, default for NELMDL
 entering main loop
       N       E                     dE             d eps       ncg     rms          rms(c)
DAV:   1     0.465322925260E+02    0.46532E+02   -0.33196E+03  1824   0.731E+02
DAV:   2    -0.140670602281E+02   -0.60599E+02   -0.51994E+02  2696   0.125E+02
DAV:   3    -0.178074681356E+02   -0.37404E+01   -0.37399E+01  2520   0.474E+01
DAV:   4    -0.178447510841E+02   -0.37283E-01   -0.37282E-01  2952   0.489E+00
DAV:   5    -0.178448866816E+02   -0.13560E-03   -0.13560E-03  2712   0.237E-01    0.427E+00
DAV:   6    -0.175244417089E+02    0.32044E+00   -0.30914E-01  2560   0.376E+00    0.253E+00
DAV:   7    -0.173958388529E+02    0.12860E+00   -0.44603E-01  2872   0.446E+00    0.493E-01
DAV:   8    -0.173929601766E+02    0.28787E-02   -0.62658E-03  2600   0.692E-01    0.624E-02
DAV:   9    -0.173922715245E+02    0.68865E-03   -0.47655E-04  2880   0.136E-01    0.441E-02
DAV:  10    -0.173919582310E+02    0.31329E-03   -0.72066E-04  2584   0.139E-01    0.249E-02
DAV:  11    -0.173922268019E+02   -0.26857E-03   -0.14131E-04  2120   0.656E-02    0.337E-02
DAV:  12    -0.173922121059E+02    0.14696E-04   -0.11796E-05  2560   0.248E-02    0.777E-03
DAV:  13    -0.173926300634E+02   -0.41796E-03   -0.75018E-05  2544   0.329E-02    0.559E-03
DAV:  14    -0.173926879391E+02   -0.57876E-04   -0.35456E-06  2600   0.759E-03    0.258E-03
DAV:  15    -0.173927571666E+02   -0.69227E-04   -0.56369E-06  2032   0.902E-03    0.230E-03
DAV:  16    -0.173927670288E+02   -0.98622E-05   -0.40667E-07  2616   0.294E-03    0.439E-04
DAV:  17    -0.173927711043E+02   -0.40756E-05   -0.12499E-07  1896   0.174E-03    0.135E-04
DAV:  18    -0.173927713272E+02   -0.22284E-06   -0.47682E-09  2480   0.360E-04    0.301E-05
DAV:  19    -0.173927714332E+02   -0.10605E-06   -0.15653E-09  2216   0.187E-04    0.142E-05
DAV:  20    -0.173927714442E+02   -0.11013E-07   -0.52008E-11  2600   0.461E-05    0.595E-06
DAV:  21    -0.173927714532E+02   -0.89240E-08   -0.80426E-11  2064   0.378E-05
   1 F= -.17546473E+02 E0= -.17546223E+02  d E =-.501500E-03
