 Entering Gaussian System, Link 0=g16
 Initial command:
 /home/szhao/Apps/g16/l1.exe "/home/szhao/tmp/Gau-103771.inp" -scrdir="/home/szhao/tmp/"
 Default is to use a total of  16 processors:
                               16 via shared-memory
                                1 via Linda
 Entering Link 1 = /home/szhao/Apps/g16/l1.exe PID=    103773.
  
 Copyright (c) 1988,1990,1992,1993,1995,1998,2003,2009,2016,
            Gaussian, Inc.  All Rights Reserved.
  
 This is part of the Gaussian(R) 16 program.  It is based on
 the Gaussian(R) 09 system (copyright 2009, Gaussian, Inc.),
 the Gaussian(R) 03 system (copyright 2003, Gaussian, Inc.),
 the Gaussian(R) 98 system (copyright 1998, Gaussian, Inc.),
 the Gaussian(R) 94 system (copyright 1995, Gaussian, Inc.),
 the Gaussian 92(TM) system (copyright 1992, Gaussian, Inc.),
 the Gaussian 90(TM) system (copyright 1990, Gaussian, Inc.),
 the Gaussian 88(TM) system (copyright 1988, Gaussian, Inc.),
 the Gaussian 86(TM) system (copyright 1986, Carnegie Mellon
 University), and the Gaussian 82(TM) system (copyright 1983,
 Carnegie Mellon University). Gaussian is a federally registered
 trademark of Gaussian, Inc.
  
 This software contains proprietary and confidential information,
 including trade secrets, belonging to Gaussian, Inc.
  
 This software is provided under written license and may be
 used, copied, transmitted, or stored only in accord with that
 written license.
  
 The following legend is applicable only to US Government
 contracts under FAR:
  
                    RESTRICTED RIGHTS LEGEND
  
 Use, reproduction and disclosure by the US Government is
 subject to restrictions as set forth in subparagraphs (a)
 and (c) of the Commercial Computer Software - Restricted
 Rights clause in FAR 52.227-19.
  
 Gaussian, Inc.
 340 Quinnipiac St., Bldg. 40, Wallingford CT 06492
  
  
 ---------------------------------------------------------------
 Warning -- This program may not be used in any manner that
 competes with the business of Gaussian, Inc. or will provide
 assistance to any competitor of Gaussian, Inc.  The licensee
 of this program is prohibited from giving any competitor of
 Gaussian, Inc. access to this program.  By using this program,
 the user acknowledges that Gaussian, Inc. is engaged in the
 business of creating and licensing software in the field of
 computational chemistry and represents and warrants to the
 licensee that it is not a competitor of Gaussian, Inc. and that
 it will not use this program in any manner prohibited above.
 ---------------------------------------------------------------
  

 Cite this work as:
 Gaussian 16, Revision A.03,
 M. J. Frisch, G. W. Trucks, H. B. Schlegel, G. E. Scuseria, 
 M. A. Robb, J. R. Cheeseman, G. Scalmani, V. Barone, 
 G. A. Petersson, H. Nakatsuji, X. Li, M. Caricato, A. V. Marenich, 
 J. Bloino, B. G. Janesko, R. Gomperts, B. Mennucci, H. P. Hratchian, 
 J. V. Ortiz, A. F. Izmaylov, J. L. Sonnenberg, D. Williams-Young, 
 F. Ding, F. Lipparini, F. Egidi, J. Goings, B. Peng, A. Petrone, 
 T. Henderson, D. Ranasinghe, V. G. Zakrzewski, J. Gao, N. Rega, 
 G. Zheng, W. Liang, M. Hada, M. Ehara, K. Toyota, R. Fukuda, 
 J. Hasegawa, M. Ishida, T. Nakajima, Y. Honda, O. Kitao, H. Nakai, 
 T. Vreven, K. Throssell, J. A. Montgomery, Jr., J. E. Peralta, 
 F. Ogliaro, M. J. Bearpark, J. J. Heyd, E. N. Brothers, K. N. Kudin, 
 V. N. Staroverov, T. A. Keith, R. Kobayashi, J. Normand, 
 K. Raghavachari, A. P. Rendell, J. C. Burant, S. S. Iyengar, 
 J. Tomasi, M. Cossi, J. M. Millam, M. Klene, C. Adamo, R. Cammi, 
 J. W. Ochterski, R. L. Martin, K. Morokuma, O. Farkas, 
 J. B. Foresman, and D. J. Fox, Gaussian, Inc., Wallingford CT, 2016.
 
 ******************************************
 Gaussian 16:  ES64L-G16RevA.03 25-Dec-2016
                19-Nov-2024 
 ******************************************
 %chk=opt.chk
 %mem=16GB
 %nprocshared=24
 Will use up to   24 processors via shared memory.
 ---------------------------------------
 #p UM062X/6-311+G** force int=superfine
 ---------------------------------------
 1/10=7,30=1,38=1/1,3;
 2/12=2,17=6,18=5,40=1/2;
 3/5=4,6=6,7=111,11=2,25=1,30=1,71=1,74=-55,75=-7,116=2/1,2,3;
 4//1;
 5/5=2,38=5/2;
 6/7=2,8=2,9=2,10=2,28=1/1;
 7/29=1/1,2,3,16;
 1/10=7,30=1/3;
 99//99;
 Leave Link    1 at Tue Nov 19 13:36:48 2024, MaxMem=  2147483648 cpu:               2.3 elap:               0.2
 (Enter /home/szhao/Apps/g16/l101.exe)
 -------------------
 Title Card Required
 -------------------
 Symbolic Z-matrix:
 Charge =  1 Multiplicity = 2
 C                    -0.8326    0.        0. 
 C                     0.8326    0.        0. 
 H                    -1.92764   0.       0. 
 H                     1.92763   0.        0. 
 
 ITRead=  0  0  0  0
 MicOpt= -1 -1 -1 -1
 NAtoms=      4 NQM=        4 NQMF=       0 NMMI=      0 NMMIF=      0
                NMic=       0 NMicF=      0.
                    Isotopes and Nuclear Properties:
 (Nuclear quadrupole moments (NQMom) in fm**2, nuclear magnetic moments (NMagM)
  in nuclear magnetons)

  Atom         1           2           3           4
 IAtWgt=          12          12           1           1
 AtmWgt=  12.0000000  12.0000000   1.0078250   1.0078250
 NucSpn=           0           0           1           1
 AtZEff=  -0.0000000  -0.0000000  -0.0000000  -0.0000000
 NQMom=    0.0000000   0.0000000   0.0000000   0.0000000
 NMagM=    0.0000000   0.0000000   2.7928460   2.7928460
 AtZNuc=   6.0000000   6.0000000   1.0000000   1.0000000
 Leave Link  101 at Tue Nov 19 13:36:49 2024, MaxMem=  2147483648 cpu:               3.3 elap:               0.2
 (Enter /home/szhao/Apps/g16/l103.exe)

 GradGradGradGradGradGradGradGradGradGradGradGradGradGradGradGradGradGrad
 Berny optimization.
 Initialization pass.
 Trust Radius=3.00D-01 FncErr=1.00D-07 GrdErr=1.00D-07 EigMax=2.50D+02 EigMin=1.00D-04
 Number of steps in this run=      2 maximum allowed number of steps=      2.
 GradGradGradGradGradGradGradGradGradGradGradGradGradGradGradGradGradGrad

 Leave Link  103 at Tue Nov 19 13:36:49 2024, MaxMem=  2147483648 cpu:               1.3 elap:               0.1
 (Enter /home/szhao/Apps/g16/l202.exe)
                          Input orientation:                          
 ---------------------------------------------------------------------
 Center     Atomic      Atomic             Coordinates (Angstroms)
 Number     Number       Type             X           Y           Z
 ---------------------------------------------------------------------
      1          6           0       -0.832599    0.000000    0.000000
      2          6           0        0.832599    0.000000    0.000000
      3          1           0       -1.927644    0.000001   -0.000001
      4          1           0        1.927629    0.000001    0.000000
 ---------------------------------------------------------------------
                    Distance matrix (angstroms):
                    1          2          3          4
     1  C    0.000000
     2  C    1.665198   0.000000
     3  H    1.095045   2.760243   0.000000
     4  H    2.760228   1.095030   3.855273   0.000000
 Stoichiometry    C2H2(1+,2)
 Framework group  C*V[C*(HCCH)]
 Deg. of freedom     3
 Full point group                 C*V     NOp   4
 Largest Abelian subgroup         C2V     NOp   4
 Largest concise Abelian subgroup C1      NOp   1
                         Standard orientation:                         
 ---------------------------------------------------------------------
 Center     Atomic      Atomic             Coordinates (Angstroms)
 Number     Number       Type             X           Y           Z
 ---------------------------------------------------------------------
      1          6           0        0.000000    0.000000   -0.832598
      2          6           0        0.000000    0.000000    0.832600
      3          1           0       -0.000000    0.000000   -1.927643
      4          1           0       -0.000000    0.000000    1.927630
 ---------------------------------------------------------------------
 Rotational constants (GHZ):           0.0000000          20.9465958          20.9465958
 Leave Link  202 at Tue Nov 19 13:36:49 2024, MaxMem=  2147483648 cpu:               3.5 elap:               0.2
 (Enter /home/szhao/Apps/g16/l301.exe)
 Standard basis: 6-311+G(d,p) (5D, 7F)
 Ernie: Thresh=  0.10000D-02 Tol=  0.10000D-05 Strict=F.
 There are    32 symmetry adapted cartesian basis functions of A1  symmetry.
 There are     2 symmetry adapted cartesian basis functions of A2  symmetry.
 There are    12 symmetry adapted cartesian basis functions of B1  symmetry.
 There are    12 symmetry adapted cartesian basis functions of B2  symmetry.
 There are    30 symmetry adapted basis functions of A1  symmetry.
 There are     2 symmetry adapted basis functions of A2  symmetry.
 There are    12 symmetry adapted basis functions of B1  symmetry.
 There are    12 symmetry adapted basis functions of B2  symmetry.
    56 basis functions,    88 primitive gaussians,    58 cartesian basis functions
     7 alpha electrons        6 beta electrons
       nuclear repulsion energy        19.6771474877 Hartrees.
 IExCor= 4336 DFT=T Ex+Corr=M062X ExCW=0 ScaHFX=  0.540000
 ScaDFX=  1.000000  1.000000  1.000000  1.000000 ScalE2=  1.000000  1.000000
 IRadAn=      7 IRanWt=     -1 IRanGd=            0 ICorTp=0 IEmpDi=  4
 NAtoms=    4 NActive=    4 NUniq=    4 SFac= 1.00D+00 NAtFMM=   60 NAOKFM=F Big=F
 Integral buffers will be    131072 words long.
 Raffenetti 2 integral format.
 Two-electron integral symmetry is turned on.
 Leave Link  301 at Tue Nov 19 13:36:50 2024, MaxMem=  2147483648 cpu:               2.4 elap:               0.2
 (Enter /home/szhao/Apps/g16/l302.exe)
 NPDir=0 NMtPBC=     1 NCelOv=     1 NCel=       1 NClECP=     1 NCelD=      1
         NCelK=      1 NCelE2=     1 NClLst=     1 CellRange=     0.0.
 One-electron integrals computed using PRISM.
 One-electron integral symmetry used in STVInt
 NBasis=    56 RedAO= T EigKep=  6.44D-04  NBF=    30     2    12    12
 NBsUse=    56 1.00D-06 EigRej= -1.00D+00 NBFU=    30     2    12    12
 Precomputing XC quadrature grid using
 IXCGrd= 4 IRadAn=           7 IRanWt=          -1 IRanGd=           0 AccXCQ= 0.00D+00.
 Generated NRdTot=       0 NPtTot=           0 NUsed=           0 NTot=          32
 NSgBfM=    58    58    58    58    58 MxSgAt=     4 MxSgA2=     4.
 Leave Link  302 at Tue Nov 19 13:36:51 2024, MaxMem=  2147483648 cpu:              14.9 elap:               0.8
 (Enter /home/szhao/Apps/g16/l303.exe)
 DipDrv:  MaxL=1.
 Leave Link  303 at Tue Nov 19 13:36:51 2024, MaxMem=  2147483648 cpu:               2.2 elap:               0.1
 (Enter /home/szhao/Apps/g16/l401.exe)
 ExpMin= 4.38D-02 ExpMax= 4.56D+03 ExpMxC= 6.82D+02 IAcc=3 IRadAn=         7 AccDes= 0.00D+00
 Harris functional with IExCor= 1009 and IRadAn=       7 diagonalized for initial guess.
 HarFok:  IExCor= 1009 AccDes= 0.00D+00 IRadAn=         7 IDoV= 1 UseB2=F ITyADJ=14
 ICtDFT=  3500011 ScaDFX=  1.000000  1.000000  1.000000  1.000000
 FoFCou: FMM=F IPFlag=           0 FMFlag=      100000 FMFlg1=           0
         NFxFlg=           0 DoJE=T BraDBF=F KetDBF=T FulRan=T
         wScrn=  0.000000 ICntrl=       500 IOpCl=  0 I1Cent=   200000004 NGrid=           0
         NMat0=    1 NMatS0=      1 NMatT0=    0 NMatD0=    1 NMtDS0=    0 NMtDT0=    0
 Petite list used in FoFCou.
 Harris En= -76.7918918323642    
 JPrj=0 DoOrth=F DoCkMO=F.
 Initial guess orbital symmetries:
 Alpha Orbitals:
       Occupied  (SG) (SG) (SG) (SG) (SG) (PI) (PI)
       Virtual   (PI) (PI) (SG) (SG) (SG) (SG) (PI) (PI) (PI) (PI)
                 (SG) (SG) (SG) (SG) (PI) (PI) (SG) (PI) (PI) (SG)
                 (SG) (SG) (PI) (PI) (SG) (DLTA) (DLTA) (PI) (PI)
                 (DLTA) (DLTA) (SG) (PI) (PI) (SG) (PI) (PI) (SG)
                 (SG) (PI) (PI) (SG) (PI) (PI) (SG) (SG) (SG) (SG)
                 (SG)
 Beta  Orbitals:
       Occupied  (SG) (SG) (SG) (SG) (SG) (PI)
       Virtual   (PI) (PI) (PI) (SG) (SG) (SG) (SG) (PI) (PI) (PI)
                 (PI) (SG) (SG) (SG) (SG) (PI) (PI) (SG) (PI) (PI)
                 (SG) (SG) (SG) (PI) (PI) (SG) (DLTA) (DLTA) (PI)
                 (PI) (DLTA) (DLTA) (SG) (PI) (PI) (SG) (PI) (PI)
                 (SG) (SG) (PI) (PI) (SG) (PI) (PI) (SG) (SG) (SG)
                 (SG) (SG)
 Initial guess <Sx>= 0.0000 <Sy>= 0.0000 <Sz>= 0.5000 <S**2>= 0.7500 S= 0.5000
 Leave Link  401 at Tue Nov 19 13:36:52 2024, MaxMem=  2147483648 cpu:              13.3 elap:               0.8
 (Enter /home/szhao/Apps/g16/l502.exe)
 Keep R1 and R2 ints in memory in symmetry-blocked form, NReq=22505576.
 FoFCou: FMM=F IPFlag=           0 FMFlag=           0 FMFlg1=           0
         NFxFlg=           0 DoJE=F BraDBF=F KetDBF=F FulRan=T
         wScrn=  0.000000 ICntrl=       600 IOpCl=  0 I1Cent=           0 NGrid=           0
         NMat0=    1 NMatS0=   1596 NMatT0=    0 NMatD0=    1 NMtDS0=    0 NMtDT0=    0
 Petite list used in FoFCou.
 UHF open shell SCF:
 Using DIIS extrapolation, IDIIS=  1040.
 NGot=  2147483648 LenX=  2146741758 LenY=  2146737953
 Requested convergence on RMS density matrix=1.00D-08 within 128 cycles.
 Requested convergence on MAX density matrix=1.00D-06.
 Requested convergence on             energy=1.00D-06.
 No special actions if energy rises.

 Cycle   1  Pass 1  IDiag  1:
 E= -76.7334694669558    
 DIIS: error= 2.37D-02 at cycle   1 NSaved=   1.
 NSaved= 1 IEnMin= 1 EnMin= -76.7334694669558     IErMin= 1 ErrMin= 2.37D-02
 ErrMax= 2.37D-02  0.00D+00 EMaxC= 1.00D-01 BMatC= 6.26D-02 BMatP= 6.26D-02
 IDIUse=3 WtCom= 7.63D-01 WtEn= 2.37D-01
 Coeff-Com:  0.100D+01
 Coeff-En:   0.100D+01
 Coeff:      0.100D+01
 Gap=     0.259 Goal=   None    Shift=    0.000
 Gap=     0.187 Goal=   None    Shift=    0.000
 GapD=    0.187 DampG=1.000 DampE=0.500 DampFc=0.5000 IDamp=-1.
 Damping current iteration by 5.00D-01
 RMSDP=2.22D-03 MaxDP=4.43D-02              OVMax= 6.67D-02

 Cycle   2  Pass 1  IDiag  1:
 E= -76.7405695483462     Delta-E=       -0.007100081390 Rises=F Damp=T
 DIIS: error= 1.06D-02 at cycle   2 NSaved=   2.
 NSaved= 2 IEnMin= 2 EnMin= -76.7405695483462     IErMin= 2 ErrMin= 1.06D-02
 ErrMax= 1.06D-02  0.00D+00 EMaxC= 1.00D-01 BMatC= 1.19D-02 BMatP= 6.26D-02
 IDIUse=3 WtCom= 8.94D-01 WtEn= 1.06D-01
 Coeff-Com: -0.592D+00 0.159D+01
 Coeff-En:   0.000D+00 0.100D+01
 Coeff:     -0.529D+00 0.153D+01
 Gap=     0.259 Goal=   None    Shift=    0.000
 Gap=     0.188 Goal=   None    Shift=    0.000
 RMSDP=8.83D-04 MaxDP=8.64D-03 DE=-7.10D-03 OVMax= 1.85D-02

 Cycle   3  Pass 1  IDiag  1:
 E= -76.7469158516594     Delta-E=       -0.006346303313 Rises=F Damp=F
 DIIS: error= 1.58D-03 at cycle   3 NSaved=   3.
 NSaved= 3 IEnMin= 3 EnMin= -76.7469158516594     IErMin= 3 ErrMin= 1.58D-03
 ErrMax= 1.58D-03  0.00D+00 EMaxC= 1.00D-01 BMatC= 1.90D-04 BMatP= 1.19D-02
 IDIUse=3 WtCom= 9.84D-01 WtEn= 1.58D-02
 Coeff-Com: -0.117D+00 0.215D+00 0.901D+00
 Coeff-En:   0.000D+00 0.000D+00 0.100D+01
 Coeff:     -0.115D+00 0.212D+00 0.903D+00
 Gap=     0.259 Goal=   None    Shift=    0.000
 Gap=     0.188 Goal=   None    Shift=    0.000
 RMSDP=1.17D-04 MaxDP=2.79D-03 DE=-6.35D-03 OVMax= 3.63D-03

 Cycle   4  Pass 1  IDiag  1:
 E= -76.7469820378120     Delta-E=       -0.000066186153 Rises=F Damp=F
 DIIS: error= 3.57D-04 at cycle   4 NSaved=   4.
 NSaved= 4 IEnMin= 4 EnMin= -76.7469820378120     IErMin= 4 ErrMin= 3.57D-04
 ErrMax= 3.57D-04  0.00D+00 EMaxC= 1.00D-01 BMatC= 6.53D-06 BMatP= 1.90D-04
 IDIUse=3 WtCom= 9.96D-01 WtEn= 3.57D-03
 Coeff-Com:  0.517D-01-0.102D+00-0.351D+00 0.140D+01
 Coeff-En:   0.000D+00 0.000D+00 0.000D+00 0.100D+01
 Coeff:      0.515D-01-0.102D+00-0.349D+00 0.140D+01
 Gap=     0.259 Goal=   None    Shift=    0.000
 Gap=     0.188 Goal=   None    Shift=    0.000
 RMSDP=4.64D-05 MaxDP=1.17D-03 DE=-6.62D-05 OVMax= 1.76D-03

 Cycle   5  Pass 1  IDiag  1:
 E= -76.7469869207094     Delta-E=       -0.000004882897 Rises=F Damp=F
 DIIS: error= 8.79D-05 at cycle   5 NSaved=   5.
 NSaved= 5 IEnMin= 5 EnMin= -76.7469869207094     IErMin= 5 ErrMin= 8.79D-05
 ErrMax= 8.79D-05  0.00D+00 EMaxC= 1.00D-01 BMatC= 8.96D-07 BMatP= 6.53D-06
 IDIUse=1 WtCom= 1.00D+00 WtEn= 0.00D+00
 Coeff-Com:  0.152D-01-0.293D-01-0.110D+00 0.310D+00 0.814D+00
 Coeff:      0.152D-01-0.293D-01-0.110D+00 0.310D+00 0.814D+00
 Gap=     0.259 Goal=   None    Shift=    0.000
 Gap=     0.188 Goal=   None    Shift=    0.000
 RMSDP=1.23D-05 MaxDP=2.36D-04 DE=-4.88D-06 OVMax= 6.05D-04

 Cycle   6  Pass 1  IDiag  1:
 E= -76.7469865641504     Delta-E=        0.000000356559 Rises=F Damp=F
 DIIS: error= 1.75D-04 at cycle   6 NSaved=   6.
 NSaved= 6 IEnMin= 5 EnMin= -76.7469869207094     IErMin= 5 ErrMin= 8.79D-05
 ErrMax= 1.75D-04  0.00D+00 EMaxC= 1.00D-01 BMatC= 2.48D-06 BMatP= 8.96D-07
 IDIUse=1 WtCom= 1.00D+00 WtEn= 0.00D+00
 Coeff-Com: -0.391D-02 0.858D-02 0.208D-01-0.201D+00 0.754D+00 0.422D+00
 Coeff:     -0.391D-02 0.858D-02 0.208D-01-0.201D+00 0.754D+00 0.422D+00
 Gap=     0.259 Goal=   None    Shift=    0.000
 Gap=     0.188 Goal=   None    Shift=    0.000
 RMSDP=8.06D-06 MaxDP=1.43D-04 DE= 3.57D-07 OVMax= 4.24D-04

 Cycle   7  Pass 1  IDiag  1:
 E= -76.7469872798917     Delta-E=       -0.000000715741 Rises=F Damp=F
 DIIS: error= 9.30D-06 at cycle   7 NSaved=   7.
 NSaved= 7 IEnMin= 7 EnMin= -76.7469872798917     IErMin= 7 ErrMin= 9.30D-06
 ErrMax= 9.30D-06  0.00D+00 EMaxC= 1.00D-01 BMatC= 1.23D-08 BMatP= 8.96D-07
 IDIUse=1 WtCom= 1.00D+00 WtEn= 0.00D+00
 Coeff-Com: -0.172D-02 0.339D-02 0.124D-01-0.519D-01-0.114D-01 0.536D-01
 Coeff-Com:  0.996D+00
 Coeff:     -0.172D-02 0.339D-02 0.124D-01-0.519D-01-0.114D-01 0.536D-01
 Coeff:      0.996D+00
 Gap=     0.259 Goal=   None    Shift=    0.000
 Gap=     0.188 Goal=   None    Shift=    0.000
 RMSDP=1.13D-06 MaxDP=1.73D-05 DE=-7.16D-07 OVMax= 3.49D-05

 Cycle   8  Pass 1  IDiag  1:
 E= -76.7469872847047     Delta-E=       -0.000000004813 Rises=F Damp=F
 DIIS: error= 1.44D-06 at cycle   8 NSaved=   8.
 NSaved= 8 IEnMin= 8 EnMin= -76.7469872847047     IErMin= 8 ErrMin= 1.44D-06
 ErrMax= 1.44D-06  0.00D+00 EMaxC= 1.00D-01 BMatC= 1.39D-10 BMatP= 1.23D-08
 IDIUse=1 WtCom= 1.00D+00 WtEn= 0.00D+00
 Coeff-Com:  0.328D-03-0.661D-03-0.187D-02 0.113D-01-0.199D-01-0.172D-01
 Coeff-Com: -0.101D+00 0.113D+01
 Coeff:      0.328D-03-0.661D-03-0.187D-02 0.113D-01-0.199D-01-0.172D-01
 Coeff:     -0.101D+00 0.113D+01
 Gap=     0.259 Goal=   None    Shift=    0.000
 Gap=     0.188 Goal=   None    Shift=    0.000
 RMSDP=1.34D-07 MaxDP=1.77D-06 DE=-4.81D-09 OVMax= 4.83D-06

 Cycle   9  Pass 1  IDiag  1:
 E= -76.7469872847760     Delta-E=       -0.000000000071 Rises=F Damp=F
 DIIS: error= 1.74D-07 at cycle   9 NSaved=   9.
 NSaved= 9 IEnMin= 9 EnMin= -76.7469872847760     IErMin= 9 ErrMin= 1.74D-07
 ErrMax= 1.74D-07  0.00D+00 EMaxC= 1.00D-01 BMatC= 2.01D-12 BMatP= 1.39D-10
 IDIUse=1 WtCom= 1.00D+00 WtEn= 0.00D+00
 Coeff-Com: -0.158D-04 0.328D-04 0.355D-04-0.445D-03 0.199D-02 0.929D-03
 Coeff-Com: -0.369D-02-0.145D+00 0.115D+01
 Coeff:     -0.158D-04 0.328D-04 0.355D-04-0.445D-03 0.199D-02 0.929D-03
 Coeff:     -0.369D-02-0.145D+00 0.115D+01
 Gap=     0.259 Goal=   None    Shift=    0.000
 Gap=     0.188 Goal=   None    Shift=    0.000
 RMSDP=1.74D-08 MaxDP=3.21D-07 DE=-7.13D-11 OVMax= 7.05D-07

 Cycle  10  Pass 1  IDiag  1:
 E= -76.7469872847772     Delta-E=       -0.000000000001 Rises=F Damp=F
 DIIS: error= 2.00D-08 at cycle  10 NSaved=  10.
 NSaved=10 IEnMin=10 EnMin= -76.7469872847772     IErMin=10 ErrMin= 2.00D-08
 ErrMax= 2.00D-08  0.00D+00 EMaxC= 1.00D-01 BMatC= 3.09D-14 BMatP= 2.01D-12
 IDIUse=1 WtCom= 1.00D+00 WtEn= 0.00D+00
 Coeff-Com: -0.238D-05 0.451D-05 0.206D-04-0.944D-04 0.686D-04 0.106D-03
 Coeff-Com:  0.119D-02 0.109D-01-0.191D+00 0.118D+01
 Coeff:     -0.238D-05 0.451D-05 0.206D-04-0.944D-04 0.686D-04 0.106D-03
 Coeff:      0.119D-02 0.109D-01-0.191D+00 0.118D+01
 Gap=     0.259 Goal=   None    Shift=    0.000
 Gap=     0.188 Goal=   None    Shift=    0.000
 RMSDP=2.71D-09 MaxDP=3.54D-08 DE=-1.22D-12 OVMax= 1.11D-07

 SCF Done:  E(UM062X) =  -76.7469872848     A.U. after   10 cycles
            NFock= 10  Conv=0.27D-08     -V/T= 2.0142
 <Sx>= 0.0000 <Sy>= 0.0000 <Sz>= 0.5000 <S**2>= 0.7524 S= 0.5012
 <L.S>=  0.00000000000    
 KE= 7.567276919987D+01 PE=-2.125433562546D+02 EE= 4.044645228225D+01
 Annihilation of the first spin contaminant:
 S**2 before annihilation     0.7524,   after     0.7500
 Leave Link  502 at Tue Nov 19 13:36:56 2024, MaxMem=  2147483648 cpu:              75.2 elap:               4.5
 (Enter /home/szhao/Apps/g16/l601.exe)
 Copying SCF densities to generalized density rwf, IOpCl= 1 IROHF=0.

 **********************************************************************

            Population analysis using the SCF density.

 **********************************************************************

 Orbital symmetries:
 Alpha Orbitals:
       Occupied  (SG) (SG) (SG) (SG) (SG) (PI) (PI)
       Virtual   (PI) (PI) (SG) (SG) (SG) (SG) (PI) (PI) (PI) (PI)
                 (SG) (SG) (SG) (SG) (PI) (PI) (PI) (SG) (PI) (SG)
                 (SG) (SG) (PI) (PI) (SG) (DLTA) (DLTA) (PI) (PI)
                 (DLTA) (DLTA) (SG) (PI) (PI) (SG) (PI) (PI) (SG)
                 (SG) (PI) (PI) (SG) (PI) (PI) (SG) (SG) (SG) (SG)
                 (SG)
 Beta  Orbitals:
       Occupied  (SG) (SG) (SG) (SG) (SG) (?A)
       Virtual   (?A) (?A) (?A) (SG) (SG) (SG) (SG) (?A) (?A) (?A)
                 (?A) (SG) (SG) (SG) (SG) (PI) (PI) (PI) (PI) (SG)
                 (SG) (SG) (SG) (PI) (SG) (PI) (?B) (?B) (PI) (PI)
                 (DLTA) (DLTA) (?B) (PI) (PI) (SG) (PI) (PI) (SG)
                 (SG) (PI) (PI) (SG) (PI) (PI) (SG) (SG) (SG) (SG)
                 (SG)
 Unable to determine electronic state:  an orbital has unidentified symmetry.
 Alpha  occ. eigenvalues --  -10.99742 -10.99704  -1.10702  -0.99133  -0.84663
 Alpha  occ. eigenvalues --   -0.63966  -0.61830
 Alpha virt. eigenvalues --   -0.35917  -0.33921  -0.26910  -0.14210  -0.11149
 Alpha virt. eigenvalues --   -0.10630  -0.09136  -0.08899  -0.05302  -0.04984
 Alpha virt. eigenvalues --    0.01473   0.03834   0.07858   0.22423   0.31436
 Alpha virt. eigenvalues --    0.32863   0.35750   0.36342   0.36405   0.43818
 Alpha virt. eigenvalues --    0.51181   0.54999   0.69729   0.70941   0.75698
 Alpha virt. eigenvalues --    0.94818   0.94964   1.06114   1.06828   1.10798
 Alpha virt. eigenvalues --    1.10917   1.26376   1.43900   1.44746   1.56298
 Alpha virt. eigenvalues --    1.84448   1.86051   2.09792   2.29738   2.37159
 Alpha virt. eigenvalues --    2.39803   2.44842   2.45423   2.48262   2.81487
 Alpha virt. eigenvalues --    2.95121   3.19340  23.20640  23.45476
  Beta  occ. eigenvalues --  -10.99494 -10.99467  -1.06803  -0.97375  -0.83819
  Beta  occ. eigenvalues --   -0.59830
  Beta virt. eigenvalues --   -0.41028  -0.32205  -0.27830  -0.24781  -0.15262
  Beta virt. eigenvalues --   -0.11456  -0.11062  -0.09509  -0.09331  -0.05226
  Beta virt. eigenvalues --   -0.04919   0.00611   0.03939   0.08196   0.23171
  Beta virt. eigenvalues --    0.31223   0.32830   0.34236   0.36109   0.37088
  Beta virt. eigenvalues --    0.42381   0.51576   0.56131   0.72486   0.73096
  Beta virt. eigenvalues --    0.73154   0.98025   1.00318   1.07468   1.08464
  Beta virt. eigenvalues --    1.13493   1.15759   1.28404   1.45097   1.46062
  Beta virt. eigenvalues --    1.57780   1.86482   1.87265   2.12787   2.31296
  Beta virt. eigenvalues --    2.40557   2.41383   2.46633   2.49112   2.50178
  Beta virt. eigenvalues --    2.88364   2.98134   3.21010  23.21701  23.46706
          Condensed to atoms (all electrons):
               1          2          3          4
     1  C    4.863811   0.660451   0.330926   0.004579
     2  C    0.660451   4.863808   0.004580   0.330930
     3  H    0.330926   0.004580   0.304620   0.000104
     4  H    0.004579   0.330930   0.000104   0.304622
          Atomic-Atomic Spin Densities.
               1          2          3          4
     1  C    0.444979   0.083135  -0.006779   0.000295
     2  C    0.083135   0.444983   0.000295  -0.006779
     3  H   -0.006779   0.000295  -0.015156   0.000008
     4  H    0.000295  -0.006779   0.000008  -0.015156
 Mulliken charges and spin densities:
               1          2
     1  C    0.140233   0.521630
     2  C    0.140231   0.521634
     3  H    0.359771  -0.021632
     4  H    0.359765  -0.021631
 Sum of Mulliken charges =   1.00000   1.00000
 Mulliken charges and spin densities with hydrogens summed into heavy atoms:
               1          2
     1  C    0.500004   0.499998
     2  C    0.499996   0.500002
 Electronic spatial extent (au):  <R**2>=             71.4311
 Charge=              1.0000 electrons
 Dipole moment (field-independent basis, Debye):
    X=             -0.0000    Y=              0.0000    Z=             -0.0000  Tot=              0.0000
 Quadrupole moment (field-independent basis, Debye-Ang):
   XX=            -12.6987   YY=            -10.6273   ZZ=              2.9002
   XY=             -0.0000   XZ=              0.0000   YZ=             -0.0000
 Traceless Quadrupole moment (field-independent basis, Debye-Ang):
   XX=             -5.8901   YY=             -3.8187   ZZ=              9.7088
   XY=             -0.0000   XZ=              0.0000   YZ=             -0.0000
 Octapole moment (field-independent basis, Debye-Ang**2):
  XXX=             -0.0000  YYY=              0.0000  ZZZ=             -0.0004  XYY=             -0.0000
  XXY=              0.0000  XXZ=              0.0000  XZZ=             -0.0000  YZZ=              0.0000
  YYZ=              0.0000  XYZ=             -0.0000
 Hexadecapole moment (field-independent basis, Debye-Ang**3):
 XXXX=            -14.6021 YYYY=            -10.4630 ZZZZ=            -16.9371 XXXY=             -0.0000
 XXXZ=              0.0000 YYYX=             -0.0000 YYYZ=             -0.0000 ZZZX=              0.0000
 ZZZY=             -0.0000 XXYY=             -4.1775 XXZZ=            -14.9896 YYZZ=            -13.2073
 XXYZ=             -0.0000 YYXZ=              0.0000 ZZXY=             -0.0000
 N-N= 1.967714748774D+01 E-N=-2.125433563105D+02  KE= 7.567276919987D+01
 Symmetry A1   KE= 7.222951409093D+01
 Symmetry A2   KE= 6.972139891418D-36
 Symmetry B1   KE= 2.278389303714D+00
 Symmetry B2   KE= 1.164865805226D+00
 Symmetry A1   SP= 2.282326650151D-15
 Symmetry A2   SP= 9.776446585661D-37
 Symmetry B1   SP=-6.027903392805D-16
 Symmetry B2   SP= 1.000000000000D+00
                          Isotropic Fermi Contact Couplings
        Atom                 a.u.       MegaHertz       Gauss      10(-4) cm-1
     1  C(13)              0.09608     108.01688      38.54311      36.03055
     2  C(13)              0.09608     108.01715      38.54321      36.03064
     3  H(1)              -0.01127     -50.38737     -17.97947     -16.80742
     4  H(1)              -0.01127     -50.38690     -17.97930     -16.80726
 --------------------------------------------------------
       Center         ----  Spin Dipole Couplings  ----
                      3XX-RR        3YY-RR        3ZZ-RR
 --------------------------------------------------------
     1   Atom       -0.317736      0.619178     -0.301443
     2   Atom       -0.317733      0.619179     -0.301445
     3   Atom       -0.037638     -0.008010      0.045648
     4   Atom       -0.037639     -0.008010      0.045649
 --------------------------------------------------------
                        XY            XZ            YZ
 --------------------------------------------------------
     1   Atom        0.000000     -0.000000      0.000000
     2   Atom        0.000000     -0.000000      0.000000
     3   Atom        0.000000      0.000000      0.000000
     4   Atom        0.000000     -0.000000      0.000000
 --------------------------------------------------------


 ---------------------------------------------------------------------------------
              Anisotropic Spin Dipole Couplings in Principal Axis System
 ---------------------------------------------------------------------------------

       Atom             a.u.   MegaHertz   Gauss  10(-4) cm-1        Axes

              Baa    -0.3177   -42.637   -15.214   -14.222  1.0000  0.0000  0.0000
     1 C(13)  Bbb    -0.3014   -40.451   -14.434   -13.493  0.0000  0.0000  1.0000
              Bcc     0.6192    83.088    29.648    27.715  0.0000  1.0000  0.0000
 
              Baa    -0.3177   -42.637   -15.214   -14.222  1.0000  0.0000  0.0000
     2 C(13)  Bbb    -0.3014   -40.451   -14.434   -13.493  0.0000  0.0000  1.0000
              Bcc     0.6192    83.088    29.648    27.715  0.0000  1.0000  0.0000
 
              Baa    -0.0376   -20.082    -7.166    -6.699  1.0000 -0.0000 -0.0000
     3 H(1)   Bbb    -0.0080    -4.274    -1.525    -1.426 -0.0000  1.0000 -0.0000
              Bcc     0.0456    24.356     8.691     8.124  0.0000  0.0000  1.0000
 
              Baa    -0.0376   -20.083    -7.166    -6.699  1.0000  0.0000  0.0000
     4 H(1)   Bbb    -0.0080    -4.273    -1.525    -1.425 -0.0000  1.0000 -0.0000
              Bcc     0.0456    24.356     8.691     8.124  0.0000  0.0000  1.0000
 

 ---------------------------------------------------------------------------------

 No NMR shielding tensors so no spin-rotation constants.
 Leave Link  601 at Tue Nov 19 13:36:57 2024, MaxMem=  2147483648 cpu:              12.4 elap:               0.7
 (Enter /home/szhao/Apps/g16/l701.exe)
 ... and contract with generalized density number  0.
 Compute integral first derivatives.
 Leave Link  701 at Tue Nov 19 13:36:58 2024, MaxMem=  2147483648 cpu:              10.3 elap:               0.7
 (Enter /home/szhao/Apps/g16/l702.exe)
 L702 exits ... SP integral derivatives will be done elsewhere.
 Leave Link  702 at Tue Nov 19 13:36:58 2024, MaxMem=  2147483648 cpu:               1.8 elap:               0.1
 (Enter /home/szhao/Apps/g16/l703.exe)
 Integral derivatives from FoFJK, PRISM(SPDF).
 Compute integral first derivatives, UseDBF=F ICtDFT=           0.
 Calling FoFJK, ICntrl=      2127 FMM=F ISym2X=1 I1Cent= 0 IOpClX= 1 NMat=1 NMatS=1 NMatT=0.
 FoFJK:  IHMeth= 1 ICntrl=    2127 DoSepK=F KAlg= 0 I1Cent=           0 FoldK=F
 IRaf=         0 NMat=       1 IRICut=       1 DoRegI=T DoRafI=F ISym2E= 1 IDoP0=0 IntGTp=1.
 FoFCou: FMM=F IPFlag=           0 FMFlag=      100000 FMFlg1=         800
         NFxFlg=           0 DoJE=F BraDBF=F KetDBF=F FulRan=T
         wScrn=  0.000000 ICntrl=      2127 IOpCl=  1 I1Cent=           0 NGrid=           0
         NMat0=    1 NMatS0=      1 NMatT0=    0 NMatD0=    1 NMtDS0=    0 NMtDT0=    0
 Petite list used in FoFCou.
 Leave Link  703 at Tue Nov 19 13:36:59 2024, MaxMem=  2147483648 cpu:              11.7 elap:               0.7
 (Enter /home/szhao/Apps/g16/l716.exe)
 Dipole        =-8.79376378D-23 6.96098359D-34-1.70090692D-05
 ***** Axes restored to original set *****
 -------------------------------------------------------------------
 Center     Atomic                   Forces (Hartrees/Bohr)
 Number     Number              X              Y              Z
 -------------------------------------------------------------------
      1        6           0.264730703   -0.000000000    0.000000032
      2        6          -0.264740579    0.000000000   -0.000000032
      3        1           0.000006017   -0.000000000    0.000000000
      4        1           0.000003859   -0.000000000    0.000000000
 -------------------------------------------------------------------
 Cartesian Forces:  Max     0.264740579 RMS     0.108077873
 Z-matrix is all fixed cartesians, so copy forces.
 Force constants in Cartesian coordinates: 
                1             2             3             4             5 
      1  0.540208D+00
      2  0.000000D+00  0.118823D+00
      3  0.000000D+00  0.000000D+00  0.118823D+00
      4 -0.197847D+00  0.000000D+00  0.000000D+00  0.540225D+00
      5  0.000000D+00 -0.814587D-01  0.000000D+00  0.000000D+00  0.118825D+00
      6  0.000000D+00  0.000000D+00 -0.814587D-01  0.000000D+00  0.000000D+00
      7 -0.342361D+00  0.000000D+00  0.000000D+00  0.000000D+00  0.000000D+00
      8  0.000000D+00 -0.619355D-01  0.000000D+00  0.000000D+00  0.245711D-01
      9  0.000000D+00  0.000000D+00 -0.619355D-01  0.000000D+00  0.000000D+00
     10  0.000000D+00  0.000000D+00  0.000000D+00 -0.342378D+00  0.000000D+00
     11  0.000000D+00  0.245714D-01  0.000000D+00  0.000000D+00 -0.619369D-01
     12  0.000000D+00  0.000000D+00  0.245714D-01  0.000000D+00  0.000000D+00
                6             7             8             9            10 
      6  0.118825D+00
      7  0.000000D+00  0.342361D+00
      8  0.000000D+00  0.000000D+00  0.373644D-01
      9  0.245711D-01  0.000000D+00  0.000000D+00  0.373644D-01
     10  0.000000D+00  0.000000D+00  0.000000D+00  0.000000D+00  0.342378D+00
     11  0.000000D+00  0.000000D+00  0.000000D+00  0.000000D+00  0.000000D+00
     12 -0.619369D-01  0.000000D+00  0.000000D+00  0.000000D+00  0.000000D+00
               11            12 
     11  0.373654D-01
     12  0.000000D+00  0.373654D-01
 Leave Link  716 at Tue Nov 19 13:36:59 2024, MaxMem=  2147483648 cpu:               1.9 elap:               0.1
 (Enter /home/szhao/Apps/g16/l103.exe)

 GradGradGradGradGradGradGradGradGradGradGradGradGradGradGradGradGradGrad
 Berny optimization.
 Search for a local minimum.
 Step number   1 out of a maximum of    2
 All quantities printed in internal units (Hartrees-Bohrs-Radians)
 Second derivative matrix not updated -- first step.
 The second derivative matrix:
                          X1        Y1        Z1        X2        Y2
           X1           0.54021
           Y1          -0.00000   0.11882
           Z1           0.00000  -0.00000   0.11882
           X2          -0.19785   0.00000  -0.00000   0.54022
           Y2           0.00000  -0.08146   0.00000  -0.00000   0.11882
           Z2          -0.00000   0.00000  -0.08146   0.00000  -0.00000
           X3          -0.34236   0.00000  -0.00000   0.00000   0.00000
           Y3           0.00000  -0.06194   0.00000   0.00000   0.02457
           Z3          -0.00000   0.00000  -0.06194  -0.00000   0.00000
           X4           0.00000   0.00000  -0.00000  -0.34238   0.00000
           Y4           0.00000   0.02457   0.00000   0.00000  -0.06194
           Z4          -0.00000   0.00000   0.02457  -0.00000   0.00000
                          Z2        X3        Y3        Z3        X4
           Z2           0.11882
           X3          -0.00000   0.34236
           Y3           0.00000  -0.00000   0.03736
           Z3           0.02457   0.00000  -0.00000   0.03736
           X4          -0.00000   0.00000   0.00000   0.00000   0.34238
           Y4           0.00000   0.00000   0.00000   0.00000  -0.00000
           Z4          -0.06194   0.00000   0.00000   0.00000   0.00000
                          Y4        Z4
           Y4           0.03737
           Z4          -0.00000   0.03737
 ITU=  0
     Eigenvalues ---    0.06351   0.06351   0.14479   0.20061   0.20061
     Eigenvalues ---    0.58198   0.93564
 Quadratic step=1.338D+00 exceeds max=3.000D-01 adjusted using Lamda=-6.881D-01.
 Angle between NR and scaled steps=  26.62 degrees.
 Angle between quadratic step and forces=  18.38 degrees.
 ClnCor:  largest displacement from symmetrization is 5.66D-17 for atom     1.
 Linear search not attempted -- first point.
 ClnCor:  largest displacement from symmetrization is 8.88D-16 for atom     3.
 B after Tr=    -0.000001    0.000000   -0.000000
         Rot=    1.000000   -0.000000   -0.000000    0.000000 Ang=   0.00 deg.
 Variable       Old X    -DE/DX   Delta X   Delta X   Delta X     New X
                                 (Linear)    (Quad)   (Total)
    X1       -1.57338   0.26473   0.00000   0.20171   0.20171  -1.37168
    Y1        0.00000  -0.00000   0.00000  -0.00000  -0.00000   0.00000
    Z1       -0.00000   0.00000   0.00000   0.00000   0.00000  -0.00000
    X2        1.57338  -0.26474   0.00000  -0.20171  -0.20171   1.37167
    Y2        0.00000   0.00000   0.00000   0.00000   0.00000   0.00000
    Z2        0.00000  -0.00000   0.00000  -0.00000  -0.00000   0.00000
    X3       -3.64272   0.00001   0.00000   0.06702   0.06702  -3.57570
    Y3        0.00000  -0.00000   0.00000  -0.00000  -0.00000   0.00000
    Z3       -0.00000   0.00000   0.00000   0.00000   0.00000  -0.00000
    X4        3.64269   0.00000   0.00000  -0.06701  -0.06701   3.57568
    Y4        0.00000  -0.00000   0.00000   0.00000   0.00000   0.00000
    Z4        0.00000   0.00000   0.00000  -0.00000  -0.00000   0.00000
         Item               Value     Threshold  Converged?
 Maximum Force            0.264741     0.000450     NO 
 RMS     Force            0.108078     0.000300     NO 
 Maximum Displacement     0.201714     0.001800     NO 
 RMS     Displacement     0.086774     0.001200     NO 
 Predicted change in Energy=-8.448915D-02
 GradGradGradGradGradGradGradGradGradGradGradGradGradGradGradGradGradGrad

 Leave Link  103 at Tue Nov 19 13:36:59 2024, MaxMem=  2147483648 cpu:               2.8 elap:               0.2
 (Enter /home/szhao/Apps/g16/l9999.exe)
 1\1\GINC-NODE02\Force\UM062X\6-311+G(d,p)\C2H2(1+,2)\SZHAO\19-Nov-2024
 \0\\#p UM062X/6-311+G** force int=superfine\\Title Card Required\\1,2\
 C,-0.832599,0.0000001429,-0.0000001733\C,0.832599,0.0000001429,0.00000
 00305\H,-1.927644,0.0000001429,-0.0000003073\H,1.927629,0.0000001429,0
 .0000001645\\Version=ES64L-G16RevA.03\HF=-76.7469873\S2=0.752403\S2-1=
 0.\S2A=0.750004\RMSD=2.712e-09\RMSF=1.081e-01\Dipole=-0.000017,0.,0.\Q
 uadrupole=7.2182404,-2.8391192,-4.3791213,0.,0.0000014,0.\PG=C*V [C*(H
 1C1C1H1)]\\@


 Everything starts as somebody's daydream.
                           -- Larry Niven
 Job cpu time:       0 days  0 hours  2 minutes 41.8 seconds.
 Elapsed time:       0 days  0 hours  0 minutes  9.8 seconds.
 File lengths (MBytes):  RWF=     17 Int=      0 D2E=      0 Chk=      2 Scr=      2
 Normal termination of Gaussian 16 at Tue Nov 19 13:37:00 2024.
