Title Card Required                                                     
FOpt      UM062X                                                      6-311+G(d,p)        
Number of atoms                            I                4
Info1-9                                    I   N=           9
          13          13           0           0           0         110
           2          18        -502
Full Title                                 C   N=           2
Title Card Required     
Route                                      C   N=           4
#p opt UM062X/6-311+G** nosymm int=superfine    
Charge                                     I                1
Multiplicity                               I                2
Number of electrons                        I               13
Number of alpha electrons                  I                7
Number of beta electrons                   I                6
Number of basis functions                  I               56
Number of independent functions            I               56
Number of point charges in /Mol/           I                0
Number of translation vectors              I                0
Atomic numbers                             I   N=           4
           6           6           1           1
Nuclear charges                            R   N=           4
  6.00000000E+00  6.00000000E+00  1.00000000E+00  1.00000000E+00
Current cartesian coordinates              R   N=          12
 -1.65557570E+00  0.00000000E+00  0.00000000E+00  1.65557570E+00  0.00000000E+00
  0.00000000E+00 -3.73120565E+00 -2.76815096E-08 -3.62770448E-08  3.73115514E+00
 -8.30853748E-08 -2.68067863E-08
Number of symbols in /Mol/                 I                0
Force Field                                I                0
Atom Types                                 C   N=           4
                                                
Int Atom Types                             I   N=           4
           0           0           0           0
MM charges                                 R   N=           4
  0.00000000E+00  0.00000000E+00  0.00000000E+00  0.00000000E+00
Integer atomic weights                     I   N=           4
          12          12           1           1
Real atomic weights                        R   N=           4
  1.20000000E+01  1.20000000E+01  1.00782504E+00  1.00782504E+00
Atom fragment info                         I   N=           4
           0           0           0           0
Atom residue num                           I   N=           4
           0           0           0           0
Nuclear spins                              I   N=           4
           0           0           1           1
Nuclear ZEff                               R   N=           4
 -3.60000000E+00 -3.60000000E+00 -1.00000000E+00 -1.00000000E+00
Nuclear ZNuc                               R   N=           4
  6.00000000E+00  6.00000000E+00  1.00000000E+00  1.00000000E+00
Nuclear QMom                               R   N=           4
  0.00000000E+00  0.00000000E+00  0.00000000E+00  0.00000000E+00
Nuclear GFac                               R   N=           4
  0.00000000E+00  0.00000000E+00  2.79284600E+00  2.79284600E+00
MicOpt                                     I   N=           4
          -2          -2          -1          -1
Number of residues                         I                0
Number of secondary structures             I                0
Redundant internal dimensions              I   N=           4
          12           8           4           0
Redundant internal coordinate indices      I   N=          48
           1          -1           0           0           1          -2
           0           0           1          -3           0           0
           2          -1           0           0           2          -2
           0           0           2          -3           0           0
           1           3           0           0           2           4
           0           0           2           1           3          -4
           1           2           4          -4           2           1
           3          -8           1           2           4          -8
Redundant internal coordinates             R   N=          12
 -1.65557570E+00  0.00000000E+00  0.00000000E+00  1.65557570E+00  0.00000000E+00
  0.00000000E+00  2.07562995E+00  2.07557944E+00  3.14159267E+00  3.14159263E+00
  3.14159263E+00  3.14159270E+00
ZRed-IntVec                                I   N=          12
          -1          -1          -1          -1          -1          -1
           0           0           0           0           0           0
ZRed-FPVec                                 R   N=          12
  0.00000000E+00  0.00000000E+00  0.00000000E+00  0.00000000E+00  0.00000000E+00
  0.00000000E+00  0.00000000E+00  0.00000000E+00  0.00000000E+00  0.00000000E+00
  0.00000000E+00  0.00000000E+00
ZRed-Constraint1                           R   N=          12
 -1.65557570E+00  0.00000000E+00  0.00000000E+00  1.65557570E+00  0.00000000E+00
  0.00000000E+00  2.88052329E+00  2.88049400E+00  3.14159265E+00  3.14159265E+00
  3.14159265E+00  3.14159265E+00
ZRed-Constraint2                           R   N=          12
 -1.65557570E+00  0.00000000E+00  0.00000000E+00  1.65557570E+00  0.00000000E+00
  0.00000000E+00  0.00000000E+00  0.00000000E+00  0.00000000E+00  0.00000000E+00
  0.00000000E+00  0.00000000E+00
Number of contracted shells                I               20
Number of primitive shells                 I               38
Pure/Cartesian d shells                    I                0
Pure/Cartesian f shells                    I                0
Highest angular momentum                   I                2
Largest degree of contraction              I                6
Shell types                                I   N=          20
           0          -1          -1          -1          -1          -2
           0          -1          -1          -1          -1          -2
           0           0           0           1           0           0
           0           1
Number of primitives per shell             I   N=          20
           6           3           1           1           1           1
           6           3           1           1           1           1
           3           1           1           1           3           1
           1           1
Shell to atom map                          I   N=          20
           1           1           1           1           1           1
           2           2           2           2           2           2
           3           3           3           3           4           4
           4           4
Primitive exponents                        R   N=          38
  4.56324000E+03  6.82024000E+02  1.54973000E+02  4.44553000E+01  1.30290000E+01
  1.82773000E+00  2.09642000E+01  4.80331000E+00  1.45933000E+00  4.83456000E-01
  1.45585000E-01  4.38000000E-02  6.26000000E-01  4.56324000E+03  6.82024000E+02
  1.54973000E+02  4.44553000E+01  1.30290000E+01  1.82773000E+00  2.09642000E+01
  4.80331000E+00  1.45933000E+00  4.83456000E-01  1.45585000E-01  4.38000000E-02
  6.26000000E-01  3.38650000E+01  5.09479000E+00  1.15879000E+00  3.25840000E-01
  1.02741000E-01  7.50000000E-01  3.38650000E+01  5.09479000E+00  1.15879000E+00
  3.25840000E-01  1.02741000E-01  7.50000000E-01
Contraction coefficients                   R   N=          38
  1.96665025E-03  1.52306019E-02  7.61269097E-02  2.60801033E-01  6.16462078E-01
  2.21006028E-01  1.14660081E-01  9.19999648E-01 -3.03068213E-03  1.00000000E+00
  1.00000000E+00  1.00000000E+00  1.00000000E+00  1.96665025E-03  1.52306019E-02
  7.61269097E-02  2.60801033E-01  6.16462078E-01  2.21006028E-01  1.14660081E-01
  9.19999648E-01 -3.03068213E-03  1.00000000E+00  1.00000000E+00  1.00000000E+00
  1.00000000E+00  2.54938145E-02  1.90373109E-01  8.52161486E-01  1.00000000E+00
  1.00000000E+00  1.00000000E+00  2.54938145E-02  1.90373109E-01  8.52161486E-01
  1.00000000E+00  1.00000000E+00  1.00000000E+00
P(S=P) Contraction coefficients            R   N=          38
  0.00000000E+00  0.00000000E+00  0.00000000E+00  0.00000000E+00  0.00000000E+00
  0.00000000E+00  4.02486927E-02  2.37593957E-01  8.15853851E-01  1.00000000E+00
  1.00000000E+00  1.00000000E+00  0.00000000E+00  0.00000000E+00  0.00000000E+00
  0.00000000E+00  0.00000000E+00  0.00000000E+00  0.00000000E+00  4.02486927E-02
  2.37593957E-01  8.15853851E-01  1.00000000E+00  1.00000000E+00  1.00000000E+00
  0.00000000E+00  0.00000000E+00  0.00000000E+00  0.00000000E+00  0.00000000E+00
  0.00000000E+00  0.00000000E+00  0.00000000E+00  0.00000000E+00  0.00000000E+00
  0.00000000E+00  0.00000000E+00  0.00000000E+00
Coordinates of each shell                  R   N=          60
 -1.65557570E+00  0.00000000E+00  0.00000000E+00 -1.65557570E+00  0.00000000E+00
  0.00000000E+00 -1.65557570E+00  0.00000000E+00  0.00000000E+00 -1.65557570E+00
  0.00000000E+00  0.00000000E+00 -1.65557570E+00  0.00000000E+00  0.00000000E+00
 -1.65557570E+00  0.00000000E+00  0.00000000E+00  1.65557570E+00  0.00000000E+00
  0.00000000E+00  1.65557570E+00  0.00000000E+00  0.00000000E+00  1.65557570E+00
  0.00000000E+00  0.00000000E+00  1.65557570E+00  0.00000000E+00  0.00000000E+00
  1.65557570E+00  0.00000000E+00  0.00000000E+00  1.65557570E+00  0.00000000E+00
  0.00000000E+00 -3.73120565E+00 -2.76815096E-08 -3.62770448E-08 -3.73120565E+00
 -2.76815096E-08 -3.62770448E-08 -3.73120565E+00 -2.76815096E-08 -3.62770448E-08
 -3.73120565E+00 -2.76815096E-08 -3.62770448E-08  3.73115514E+00 -8.30853748E-08
 -2.68067863E-08  3.73115514E+00 -8.30853748E-08 -2.68067863E-08  3.73115514E+00
 -8.30853748E-08 -2.68067863E-08  3.73115514E+00 -8.30853748E-08 -2.68067863E-08
Num ILSW                                   I              100
ILSW                                       I   N=         100
           1           0           0           1           2           0
           0           0           0           0        4336          -1
           7           0           0           0           2           0
           0           0           0           0           1           0
           1           1           0           0           0           0
           0           0      100000           0          -1           0
           0           0           0           0           0           0
           0           0           0           1           0           0
           0 -2000000000           1           0           0           0
           0           0           4          52           0           0
           0           0          55           0           0           0
           0           0           0           4           0           1
           0           0           0           0           0           0
           0           0           0           0           0           0
           0           0           0           0           0           0
           0           0           0           0           0           0
           0           0           0           0
Num RLSW                                   I               52
RLSW                                       R   N=          52
  1.00000000E+00  1.00000000E+00  1.00000000E+00  1.00000000E+00  5.40000000E-01
  0.00000000E+00  0.00000000E+00  1.00000000E+00  0.00000000E+00  0.00000000E+00
  0.00000000E+00  0.00000000E+00  1.00000000E+00  0.00000000E+00  0.00000000E+00
  0.00000000E+00  0.00000000E+00  1.00000000E+00  0.00000000E+00  0.00000000E+00
  0.00000000E+00  0.00000000E+00  1.00000000E+00  0.00000000E+00  0.00000000E+00
  0.00000000E+00  0.00000000E+00  1.00000000E+00  0.00000000E+00  0.00000000E+00
  0.00000000E+00  0.00000000E+00  1.00000000E+00  0.00000000E+00  0.00000000E+00
  0.00000000E+00  0.00000000E+00  0.00000000E+00  1.00000000E+00  1.00000000E+00
  0.00000000E+00  1.00000000E+00  0.00000000E+00  0.00000000E+00  0.00000000E+00
  0.00000000E+00  0.00000000E+00  0.00000000E+00  0.00000000E+00  0.00000000E+00
  0.00000000E+00  0.00000000E+00
MxBond                                     I                2
NBond                                      I   N=           4
           2           2           1           1
IBond                                      I   N=           8
           2           3           1           4           1           0
           2           0
RBond                                      R   N=           8
  1.00000000E+00  1.00000000E-01  1.00000000E+00  1.00000000E-01  1.00000000E-01
  0.00000000E+00  1.00000000E-01  0.00000000E+00
Virial Ratio                               R      2.014565565376157E+00
SCF Energy                                 R     -7.670372194322729E+01
Total Energy                               R     -7.670372194322729E+01
S**2                                       R      7.524712545060792E-01
S**2 after annihilation                    R      7.500039249166154E-01
RMS Force                                  R      1.015093511801052E-05
RMS Density                                R      2.350914902902064E-09
Job Status                                 I                1
Nuclear derivative order                   I                1
External E-field                           R   N=          35
  0.00000000E+00  0.00000000E+00  0.00000000E+00  0.00000000E+00  0.00000000E+00
  0.00000000E+00  0.00000000E+00  0.00000000E+00  0.00000000E+00  0.00000000E+00
  0.00000000E+00  0.00000000E+00  0.00000000E+00  0.00000000E+00  0.00000000E+00
  0.00000000E+00  0.00000000E+00  0.00000000E+00  0.00000000E+00  0.00000000E+00
  0.00000000E+00  0.00000000E+00  0.00000000E+00  0.00000000E+00  0.00000000E+00
  0.00000000E+00  0.00000000E+00  0.00000000E+00  0.00000000E+00  0.00000000E+00
  0.00000000E+00  0.00000000E+00  0.00000000E+00  0.00000000E+00  0.00000000E+00
IOpCl                                      I                1
IROHF                                      I                0
Alpha Orbital Energies                     R   N=          56
 -1.10036853E+01 -1.10033695E+01 -1.09125318E+00 -9.93764261E-01 -8.32900976E-01
 -6.26950729E-01 -6.06156422E-01 -3.70691402E-01 -3.50837757E-01 -3.01474981E-01
 -1.41612320E-01 -1.14889923E-01 -1.04181096E-01 -8.96471978E-02 -8.73221467E-02
 -5.33788966E-02 -5.03462740E-02  1.13011318E-02  3.58396060E-02  6.98772610E-02
  2.30562943E-01  3.13172731E-01  3.27710269E-01  3.41792514E-01  3.56803483E-01
  3.63637032E-01  4.33964780E-01  5.17670412E-01  5.48995188E-01  7.03278827E-01
  7.14670589E-01  7.39513225E-01  9.65010773E-01  9.66454349E-01  1.03697518E+00
  1.04438745E+00  1.09238174E+00  1.09353117E+00  1.20998362E+00  1.44491474E+00
  1.45291791E+00  1.54383256E+00  1.79283434E+00  1.80784291E+00  2.04298828E+00
  2.27124622E+00  2.36894535E+00  2.39508553E+00  2.43578613E+00  2.43784836E+00
  2.46314734E+00  2.76323986E+00  2.96905310E+00  3.12557489E+00  2.32065982E+01
  2.33666548E+01
Beta Orbital Energies                      R   N=          56
 -1.10011313E+01 -1.10009158E+01 -1.05428810E+00 -9.75759599E-01 -8.23396709E-01
 -5.86918654E-01 -4.02458165E-01 -3.33554402E-01 -2.87349420E-01 -2.80631321E-01
 -1.51642154E-01 -1.18131577E-01 -1.09133551E-01 -9.33843610E-02 -9.17587738E-02
 -5.31282492E-02 -5.04363470E-02  1.99186652E-03  3.67952705E-02  7.23162246E-02
  2.36485207E-01  3.14386064E-01  3.27801895E-01  3.41519561E-01  3.47861506E-01
  3.60559286E-01  4.22666087E-01  5.21252354E-01  5.59774224E-01  7.14963488E-01
  7.28535660E-01  7.34664465E-01  9.95959838E-01  1.01890732E+00  1.05029848E+00
  1.05990523E+00  1.11864026E+00  1.14155580E+00  1.23154416E+00  1.45452504E+00
  1.46446872E+00  1.55649500E+00  1.81167175E+00  1.81929183E+00  2.06958407E+00
  2.28680616E+00  2.40335508E+00  2.41219522E+00  2.45473374E+00  2.47195031E+00
  2.48309250E+00  2.82197453E+00  2.99643215E+00  3.14177211E+00  2.32172560E+01
  2.33780574E+01
Alpha MO coefficients                      R   N=        3136
  4.00383633E-01  3.29259978E-01  8.91611438E-04  5.59362842E-11  1.75534596E-11
  7.09569730E-03 -2.10420549E-03 -5.30709831E-11 -4.27055050E-11 -3.38842858E-03
  6.45424396E-04  1.50614383E-11  1.05999232E-11 -3.98024079E-04  1.37853528E-03
 -1.35419720E-11  1.39799723E-11 -3.95104427E-04  2.70756369E-11  2.59196233E-05
  7.35048046E-04  1.96612682E-11  3.97813199E-01  3.27146547E-01 -8.87664840E-04
  6.68396956E-12  3.63959614E-11  7.04809334E-03  2.09157767E-03 -8.12964254E-11
 -4.37614264E-11 -3.35384342E-03 -6.74256811E-04  1.94083503E-11  1.32318402E-11
 -4.30669578E-04 -1.36514266E-03  4.42550057E-11  2.24531972E-12 -3.90873050E-04
 -1.93519550E-11  2.57464929E-05  7.27380314E-04 -6.37273861E-11  1.17703523E-04
 -2.54850572E-03  3.01428721E-03 -1.56249690E-03 -1.65715090E-11 -2.42724737E-11
  1.16442964E-04 -2.52201711E-03  3.01071810E-03  1.55020899E-03 -5.69254148E-11
 -1.67981229E-11 -3.97849177E-01 -3.27110498E-01 -6.11101929E-04 -5.04842493E-11
 -1.56017073E-11 -7.40409994E-03  1.99414697E-03  3.79174084E-11  3.94982588E-11
  5.35033867E-03  4.47993806E-03  2.53176615E-11  2.32287390E-11 -4.97307525E-03
 -2.04983480E-03  2.63700704E-12  1.50932626E-13  6.65817319E-04 -4.22245895E-11
 -2.67684761E-05 -1.20559715E-03 -3.99096807E-11  4.00419372E-01  3.29224101E-01
 -6.16839484E-04  4.38068618E-12  3.43441704E-11  7.44988844E-03  2.00796009E-03
 -8.20926628E-11 -3.86636405E-11 -5.37186563E-03  4.47573445E-03 -5.07352392E-11
 -1.58686554E-11  4.97034774E-03 -2.05866362E-03  2.63267694E-12 -1.96080808E-12
 -6.68417395E-04 -3.31178832E-11  2.69346432E-05  1.21042563E-03 -9.69947836E-11
 -1.86107443E-04  4.16207396E-03 -5.76825128E-04  1.93125859E-03  2.56684990E-11
  4.07893384E-11  1.86784415E-04 -4.17881705E-03  5.96292769E-04  1.94147195E-03
 -9.68040379E-11 -2.83092741E-11 -8.54340601E-02 -1.39749922E-01  7.78187752E-03
 -3.06782496E-10 -5.25418862E-10  4.00225380E-01  2.21671787E-02 -1.69596924E-10
 -7.03664184E-10  2.57865278E-01  4.54985055E-03 -1.71225313E-10 -3.36773383E-10
 -2.01646843E-03 -1.93637659E-02  1.05878317E-10 -1.27612572E-10 -6.56913247E-03
  1.13687602E-10  3.15948191E-03  1.75590260E-02  2.35154112E-10 -8.54377629E-02
 -1.39755954E-01 -7.77669015E-03 -1.30669567E-09 -1.75764587E-10  4.00241916E-01
 -2.21609834E-02 -1.92641725E-09 -1.14443212E-10  2.57875918E-01 -4.54948530E-03
 -8.33935901E-10 -1.07635161E-10 -2.01797749E-03  1.93643929E-02 -4.24344117E-10
 -5.50785010E-11 -6.56940851E-03 -8.29174791E-11  3.15960015E-03  1.75597334E-02
 -4.55712232E-10  6.87020679E-02  8.32728871E-02 -2.26169092E-02  1.18438894E-02
  1.14098129E-10  1.54905678E-10  6.87100004E-02  8.32810527E-02 -2.26175688E-02
 -1.18450132E-02  3.39435641E-10  1.18569070E-10 -7.27683055E-02 -1.19199441E-01
 -8.23759636E-02 -3.98344378E-10 -9.67461863E-10  3.45666202E-01 -1.15123046E-01
 -2.55863148E-10 -1.30740459E-09  2.46782879E-01 -4.11569123E-02 -3.14601411E-10
 -5.38948612E-10 -1.40631615E-01 -5.39243458E-02 -3.77315245E-10 -2.70667071E-10
 -2.58794653E-03  2.63121005E-10  2.62139979E-03  9.61075385E-03  2.97413387E-10
  7.27637735E-02  1.19191924E-01 -8.23843827E-02  2.56008920E-09  4.34045060E-10
 -3.45643502E-01 -1.15134778E-01  3.61860415E-09  4.54893350E-10 -2.46764234E-01
 -4.11599349E-02  1.55608837E-09  2.20309132E-10  1.40631481E-01 -5.39224777E-02
  4.88937886E-10  2.59096780E-10  2.58762145E-03  1.35808576E-10 -2.62120110E-03
 -9.60980030E-03  8.45141260E-10  1.16604056E-01  1.46152236E-01 -1.06430396E-02
  1.95755071E-02  3.11281838E-10  3.66720977E-10 -1.16607826E-01 -1.46153692E-01
  1.06412686E-02  1.95756241E-02 -8.28488758E-10 -2.72942918E-10 -6.90531466E-03
 -1.19778605E-02  1.80634466E-01  1.43890663E-09  1.69102221E-09  3.88149460E-02
  2.74435263E-01  2.26802696E-09  2.40538894E-09  2.29915159E-02  1.31592509E-01
  8.75497260E-10  1.31522664E-09 -6.94437112E-03 -1.65748641E-03 -1.13313217E-10
  5.02325795E-11 -2.52983778E-03 -2.46681732E-10  4.92664876E-04  5.34560964E-03
  1.70830672E-10 -6.90822872E-03 -1.19827738E-02 -1.80632799E-01  4.04777525E-09
  1.37587699E-09  3.88300420E-02 -2.74431411E-01  5.72444613E-09  2.00905242E-09
  2.30067150E-02 -1.31589208E-01  3.19406146E-09  1.02527435E-09 -6.95502657E-03
  1.66194372E-03  1.81986224E-10 -1.66769498E-11 -2.52969788E-03 -1.41835213E-11
  4.92793426E-04  5.34561847E-03  7.84411925E-10 -1.18896134E-01 -1.60516143E-01
 -8.96986188E-03 -1.79748079E-02 -2.67245727E-10 -4.00748690E-10 -1.18893766E-01
 -1.60509321E-01 -8.97042467E-03  1.79739253E-02 -9.24820955E-10 -2.62750648E-10
 -2.28729988E-10 -3.97690711E-10 -3.52938734E-09  7.66529910E-02  1.82205193E-01
  1.38040476E-09 -5.97145740E-09  1.24123605E-01  2.95043523E-01  1.40874180E-10
 -3.20273558E-09  9.98063701E-02  2.37241055E-01 -8.76664269E-10  5.29940938E-10
 -7.24926398E-04 -1.72314801E-03 -9.29111353E-12  1.88616597E-02  2.12455743E-10
 -2.36888329E-10  7.93502679E-03 -7.18331239E-10 -1.23848190E-09  3.18234264E-09
  7.66532897E-02  1.82205930E-01  4.07640294E-09  5.73282237E-09  1.24124198E-01
  2.95044967E-01  3.64976847E-09  1.74627549E-09  9.98066281E-02  2.37241706E-01
 -2.47105495E-10 -9.76742678E-10 -7.25030650E-04 -1.72339645E-03  4.57400884E-10
 -1.88615574E-02 -2.27565435E-10 -9.93172590E-11 -7.93498475E-03 -2.11168227E-10
  3.19664318E-10  1.39826244E-09 -4.24423173E-10  5.68110015E-03  1.35040503E-02
 -1.02892496E-09 -7.65684287E-10  1.79333939E-09  6.41596621E-10  5.68132464E-03
  1.35045865E-02  5.33989339E-10  9.02295587E-10 -2.65633322E-09  1.80563245E-01
 -7.59622135E-02 -2.77056847E-09 -4.09508918E-09  2.94049381E-01 -1.23705380E-01
 -4.16158093E-09 -3.19877135E-09  2.36647898E-01 -9.95567815E-02  2.44402397E-10
  2.87840114E-10  2.11528285E-03 -8.89896139E-04 -1.30914601E-10 -8.03874032E-03
 -1.71066836E-10 -2.41982958E-10  1.91082032E-02 -1.31427859E-09 -2.22362243E-09
  2.44032104E-09  1.80564102E-01 -7.59625922E-02  6.98431525E-09  4.89164071E-09
  2.94050897E-01 -1.23706043E-01  7.81740814E-09  7.89557385E-10  2.36648735E-01
 -9.95571588E-02 -9.98817320E-10 -4.94729330E-10  2.11500714E-03 -8.89779920E-04
  3.11587010E-10  8.03871032E-03  3.61175979E-10  1.22332019E-10 -1.91081352E-02
  8.21206810E-10  1.59276649E-09  5.96036717E-10  2.27297016E-11  1.47397476E-02
 -6.20095059E-03 -1.65479448E-09 -1.91740915E-09  1.64912264E-09  9.55570596E-10
  1.47403373E-02 -6.20120025E-03 -4.06259802E-09 -6.88796210E-09  5.06292155E-09
  8.57138999E-02  2.03743243E-01  2.16715460E-08  7.22716502E-09  1.34364002E-01
  3.19385313E-01  3.49946087E-08  7.61042961E-10  1.41295174E-01  3.35860753E-01
  5.59720579E-09  7.42025409E-10  2.26180815E-02  5.37635529E-02  1.13911686E-09
 -1.92001790E-02  3.85678279E-10 -1.84307943E-09 -8.07742888E-03  4.20423454E-09
  7.14179763E-09  4.02290662E-09 -8.57136182E-02 -2.03742544E-01 -2.24934904E-08
  5.41432636E-09 -1.34363686E-01 -3.19384507E-01 -3.68081304E-08 -9.47502782E-10
 -1.41294614E-01 -3.35859378E-01 -5.89574993E-09  6.04975396E-10 -2.26179146E-02
 -5.37631502E-02 -1.63188537E-09 -1.92003522E-02  1.25985478E-10  1.65933682E-09
 -8.07750027E-03 -7.47776433E-09 -1.68754948E-08 -1.38408682E-08 -5.40814595E-10
  8.76476047E-03  2.08339661E-02  7.93179026E-09  1.79748894E-08  1.45310653E-08
 -6.84712770E-10 -8.76483977E-03 -2.08341522E-02 -3.80964293E-09 -6.46662603E-09
  7.34916944E-09  2.01095567E-01 -8.46000376E-02  2.05228598E-08  1.10529234E-08
  3.14214319E-01 -1.32188624E-01  3.37267188E-08  5.57859830E-09  3.40762364E-01
 -1.43357248E-01  1.16983326E-08  3.67452970E-09  7.10715099E-02 -2.98994912E-02
  1.15269082E-09  8.36765508E-03  4.10242115E-11 -1.93133942E-09 -1.98900341E-02
  4.56330051E-09  7.72627008E-09  3.29788482E-09 -2.01094860E-01  8.45997337E-02
 -2.39797379E-08  4.11494763E-09 -3.14213358E-01  1.32188205E-01 -4.24477876E-08
 -1.14385663E-09 -3.40760929E-01  1.43356632E-01 -1.33389688E-08  2.74091670E-09
 -7.10709797E-02  2.98992664E-02 -1.62856394E-09  8.36771969E-03 -5.93190488E-10
  1.58212532E-09 -1.98901843E-02 -6.50953895E-09 -1.50461577E-08 -1.34310180E-08
 -1.51373230E-10  2.22110233E-02 -9.34408047E-03  8.41117973E-09  1.93659345E-08
  1.62503227E-08 -8.02859328E-10 -2.22112204E-02  9.34416302E-03  6.90632000E-02
  1.17206807E-01 -1.29539458E-01  1.45233228E-08  6.63516476E-09 -3.63922009E-01
 -1.86271428E-01  2.25025375E-08  1.06831370E-08 -7.53091406E-01 -2.29311307E-01
  2.82217704E-08  1.37789709E-08 -7.70540691E-01 -2.81847524E-01  7.24807805E-09
  2.54189060E-09 -2.54734207E-02 -1.55036213E-10 -3.90275867E-03  3.64862185E-02
 -1.88452204E-09 -6.90619878E-02 -1.17204881E-01 -1.29544517E-01 -1.75617888E-08
 -6.30680168E-09  3.63916122E-01 -1.86278148E-01 -2.82758561E-08 -1.00021190E-08
  7.53084109E-01 -2.29317480E-01 -3.61496547E-08 -1.29540204E-08  7.70543027E-01
 -2.81842845E-01 -8.01722784E-09 -2.52798115E-09  2.54729549E-02 -4.47581767E-10
  3.90271092E-03 -3.64855083E-02 -3.67247455E-10  1.15002934E-01  2.62758261E-01
  2.54090873E-01 -2.26333694E-03  1.99910968E-09  1.01779844E-09 -1.14998901E-01
 -2.62747042E-01 -2.54076651E-01 -2.26279341E-03 -2.66896675E-09 -9.26460325E-10
  2.63628862E-02  4.60403218E-02  4.22754175E-02  5.56724195E-10  5.50132351E-10
 -1.65056369E-01  7.51635002E-02  1.01676461E-09  1.27983023E-09 -3.76079412E-01
  9.04232329E-02  1.67835367E-09  9.37303507E-10  9.13219543E-01 -5.33244354E-01
  1.70746694E-09 -6.14904809E-09  7.65838498E-03 -1.78208457E-10  1.99322706E-04
 -1.28747902E-02 -9.76952998E-11  2.63642131E-02  4.60426733E-02 -4.22674738E-02
  1.41211347E-09  3.93247831E-10 -1.65064033E-01 -7.51531485E-02  3.17966695E-09
  9.19274404E-10 -3.76100858E-01 -9.03944954E-02  2.25598969E-09  9.50546106E-10
  9.13322112E-01  5.33191244E-01 -1.86288939E-08 -2.23268979E-09  7.65784698E-03
  1.01065547E-10  1.99215233E-04 -1.28740661E-02  4.68337910E-10 -9.43383359E-03
  8.47981102E-02 -1.73671454E-01 -1.13143838E-02 -1.49519838E-10 -2.44856078E-10
 -9.43251841E-03  8.48024934E-02 -1.73677992E-01  1.13127975E-02 -5.89615027E-10
 -1.67241617E-10 -1.43184123E-03 -3.15359954E-03 -8.90423627E-02  6.56539687E-10
 -5.67815999E-11  3.04510169E-02 -1.43744306E-01  6.99552255E-10 -3.01085476E-10
 -7.14236817E-02 -1.84052631E-01  2.55743022E-09  8.33410226E-10  2.90955887E+00
  1.90897643E+00  1.80780389E-08  1.42186376E-08 -1.05481235E-02  2.00951033E-10
 -9.66924333E-04  1.63782838E-02 -4.74796871E-11  1.43201880E-03  3.15411750E-03
 -8.90276247E-02  5.87197842E-10 -1.64605665E-10 -3.04580215E-02 -1.43721684E-01
  1.14728490E-09 -4.07056356E-11  7.14547225E-02 -1.83996394E-01 -7.40065951E-10
 -1.15797189E-09 -2.90946899E+00  1.90890056E+00 -3.22979063E-08 -1.19254716E-08
  1.05523417E-02  6.28915881E-11  9.67281305E-04 -1.63848908E-02  5.26890394E-10
  3.66599203E-02  1.63393864E-02  2.41922143E-01  1.72056079E-02  5.08813716E-10
  5.02815634E-10 -3.66708518E-02 -1.63718671E-02 -2.42038250E-01  1.72019148E-02
 -1.14177515E-09 -4.07120615E-10  1.30918416E-03  1.21027982E-03  9.32526754E-02
  6.01588926E-10  1.81338972E-09  2.15770112E-02  1.44979258E-01  6.08200695E-10
  2.19740898E-09 -1.68433000E-01  3.33337582E-01  3.93911318E-09  8.75349758E-09
 -4.43082871E-01 -5.91473666E-01 -4.41883859E-09 -6.40758894E-09 -2.48290863E-02
  8.55583467E-10 -2.14361246E-03  3.88116579E-02  1.20563219E-09  1.31123006E-03
  1.21389759E-03 -9.32557531E-02  4.00695819E-09  1.30834613E-09  2.15628563E-02
 -1.44985829E-01  5.18512163E-09  1.49214830E-09 -1.68461897E-01 -3.33336160E-01
  1.90570558E-08  6.14767800E-09 -4.43571366E-01  5.91805181E-01 -9.95473710E-09
 -5.90853421E-09 -2.48282569E-02 -8.77036050E-10 -2.14357354E-03  3.88102964E-02
 -1.42497935E-09  5.71966497E-02  2.00909642E-01  6.95604746E-01 -2.15054427E-02
 -3.73503983E-10 -2.04866061E-10  5.71891485E-02  2.00906453E-01  6.95546068E-01
  2.15077660E-02 -3.11686934E-10 -2.09772907E-10  1.86766121E-10  3.23129320E-10
  1.87406086E-09 -3.01492159E-02 -7.16654492E-02 -1.09752189E-09  2.81477539E-09
 -3.48882670E-02 -8.29303622E-02 -7.37712521E-10  6.14336677E-09 -9.54107980E-02
 -2.26793877E-01  1.65678327E-08 -1.57554685E-08  2.50120042E-01  5.94541738E-01
 -4.38287370E-10 -8.49281996E-03 -8.40739321E-11  7.81131902E-10 -3.57287763E-03
  1.95354713E-10  3.45158723E-10 -2.11632193E-09 -3.01486025E-02 -7.16639897E-02
 -1.29038605E-09 -3.30717705E-09 -3.48874677E-02 -8.29284560E-02 -2.84302438E-10
 -3.65559374E-09 -9.54091717E-02 -2.26790006E-01 -1.05506660E-08  3.07656681E-08
  2.50109983E-01  5.94517809E-01 -5.07806452E-10  8.49264594E-03  6.06169715E-11
  6.56994905E-10  3.57280429E-03  1.13289962E-09  2.77141014E-09  7.11979656E-09
 -2.69128671E-10  2.02226988E-03  4.80698469E-03  1.03849352E-09  1.55970272E-09
  3.06032318E-09  2.81987009E-10  2.02201056E-03  4.80636844E-03  1.08203391E-10
  1.92930136E-10  7.85792787E-10 -7.10707623E-02  2.98990273E-02 -7.53819339E-10
  9.50234729E-10 -8.88668982E-02  3.73857802E-02  3.43698090E-10  8.72560652E-09
 -2.25314836E-01  9.47885459E-02  7.47434628E-08  1.87680847E-08  5.93358993E-01
 -2.49622462E-01 -2.67993412E-10  3.70786615E-03  3.08697704E-11  5.26696425E-10
 -8.81369469E-03  2.18677353E-10  3.82206096E-10 -1.67729655E-09 -7.10692034E-02
  2.98983708E-02 -1.50343407E-09 -2.98249267E-09 -8.88647531E-02  3.73848750E-02
  4.29233265E-10  3.86018697E-09 -2.25310539E-01  9.47867355E-02 -6.43479481E-08
  5.29715979E-08  5.93333645E-01 -2.49611791E-01 -2.80614870E-10 -3.70780633E-03
 -9.64214997E-11  2.46717920E-10  8.81355212E-03  6.66874142E-10  3.28073942E-09
  9.01590641E-09 -1.08483161E-10  4.24571846E-03 -1.78614641E-03  5.17267433E-10
 -1.45860307E-09 -8.12980038E-09  2.05691198E-10  4.24511927E-03 -1.78589443E-03
 -1.39724080E-10 -2.40903641E-10  7.33940686E-10  3.00980942E-02  7.15438170E-02
  1.08435312E-09  1.22131891E-09  3.58285482E-02  8.51652867E-02 -9.53783146E-10
  1.23062689E-08  1.04253544E-01  2.47812857E-01  1.23522908E-07  5.43004266E-08
 -6.62284011E-01 -1.57426326E+00  4.16682521E-11  5.14431434E-03  4.13824712E-11