 Entering Gaussian System, Link 0=g16
 Initial command:
 /home/szhao/Apps/g16/l1.exe "/home/szhao/tmp/Gau-90579.inp" -scrdir="/home/szhao/tmp/"
 Default is to use a total of  16 processors:
                               16 via shared-memory
                                1 via Linda
 Entering Link 1 = /home/szhao/Apps/g16/l1.exe PID=     90581.
  
 Copyright (c) 1988,1990,1992,1993,1995,1998,2003,2009,2016,
            Gaussian, Inc.  All Rights Reserved.
  
 This is part of the Gaussian(R) 16 program.  It is based on
 the Gaussian(R) 09 system (copyright 2009, Gaussian, Inc.),
 the Gaussian(R) 03 system (copyright 2003, Gaussian, Inc.),
 the Gaussian(R) 98 system (copyright 1998, Gaussian, Inc.),
 the Gaussian(R) 94 system (copyright 1995, Gaussian, Inc.),
 the Gaussian 92(TM) system (copyright 1992, Gaussian, Inc.),
 the Gaussian 90(TM) system (copyright 1990, Gaussian, Inc.),
 the Gaussian 88(TM) system (copyright 1988, Gaussian, Inc.),
 the Gaussian 86(TM) system (copyright 1986, Carnegie Mellon
 University), and the Gaussian 82(TM) system (copyright 1983,
 Carnegie Mellon University). Gaussian is a federally registered
 trademark of Gaussian, Inc.
  
 This software contains proprietary and confidential information,
 including trade secrets, belonging to Gaussian, Inc.
  
 This software is provided under written license and may be
 used, copied, transmitted, or stored only in accord with that
 written license.
  
 The following legend is applicable only to US Government
 contracts under FAR:
  
                    RESTRICTED RIGHTS LEGEND
  
 Use, reproduction and disclosure by the US Government is
 subject to restrictions as set forth in subparagraphs (a)
 and (c) of the Commercial Computer Software - Restricted
 Rights clause in FAR 52.227-19.
  
 Gaussian, Inc.
 340 Quinnipiac St., Bldg. 40, Wallingford CT 06492
  
  
 ---------------------------------------------------------------
 Warning -- This program may not be used in any manner that
 competes with the business of Gaussian, Inc. or will provide
 assistance to any competitor of Gaussian, Inc.  The licensee
 of this program is prohibited from giving any competitor of
 Gaussian, Inc. access to this program.  By using this program,
 the user acknowledges that Gaussian, Inc. is engaged in the
 business of creating and licensing software in the field of
 computational chemistry and represents and warrants to the
 licensee that it is not a competitor of Gaussian, Inc. and that
 it will not use this program in any manner prohibited above.
 ---------------------------------------------------------------
  

 Cite this work as:
 Gaussian 16, Revision A.03,
 M. J. Frisch, G. W. Trucks, H. B. Schlegel, G. E. Scuseria, 
 M. A. Robb, J. R. Cheeseman, G. Scalmani, V. Barone, 
 G. A. Petersson, H. Nakatsuji, X. Li, M. Caricato, A. V. Marenich, 
 J. Bloino, B. G. Janesko, R. Gomperts, B. Mennucci, H. P. Hratchian, 
 J. V. Ortiz, A. F. Izmaylov, J. L. Sonnenberg, D. Williams-Young, 
 F. Ding, F. Lipparini, F. Egidi, J. Goings, B. Peng, A. Petrone, 
 T. Henderson, D. Ranasinghe, V. G. Zakrzewski, J. Gao, N. Rega, 
 G. Zheng, W. Liang, M. Hada, M. Ehara, K. Toyota, R. Fukuda, 
 J. Hasegawa, M. Ishida, T. Nakajima, Y. Honda, O. Kitao, H. Nakai, 
 T. Vreven, K. Throssell, J. A. Montgomery, Jr., J. E. Peralta, 
 F. Ogliaro, M. J. Bearpark, J. J. Heyd, E. N. Brothers, K. N. Kudin, 
 V. N. Staroverov, T. A. Keith, R. Kobayashi, J. Normand, 
 K. Raghavachari, A. P. Rendell, J. C. Burant, S. S. Iyengar, 
 J. Tomasi, M. Cossi, J. M. Millam, M. Klene, C. Adamo, R. Cammi, 
 J. W. Ochterski, R. L. Martin, K. Morokuma, O. Farkas, 
 J. B. Foresman, and D. J. Fox, Gaussian, Inc., Wallingford CT, 2016.
 
 ******************************************
 Gaussian 16:  ES64L-G16RevA.03 25-Dec-2016
                19-Nov-2024 
 ******************************************
 %chk=opt.chk
 %mem=4GB
 %nprocshared=8
 Will use up to    8 processors via shared memory.
 --------------------------------------------
 #p opt UM062X/6-311+G** nosymm int=superfine
 --------------------------------------------
 1/18=20,19=15,26=5,38=1/1,3;
 2/9=110,12=2,15=1,17=6,18=5,40=1/2;
 3/5=4,6=6,7=111,11=2,25=1,30=1,71=1,74=-55,75=-7,116=2/1,2,3;
 4//1;
 5/5=2,38=5/2;
 6/7=2,8=2,9=2,10=2,28=1/1;
 7/30=1/1,2,3,16;
 1/18=20,19=15,26=5/3(2);
 2/9=110,15=1/2;
 99//99;
 2/9=110,15=1/2;
 3/5=4,6=6,7=111,11=2,25=1,30=1,71=1,74=-55,75=-7,116=2/1,2,3;
 4/5=5,16=3,69=1/1;
 5/5=2,38=5/2;
 7/30=1/1,2,3,16;
 1/18=20,19=15,26=5/3(-5);
 2/9=110,15=1/2;
 6/7=2,8=2,9=2,10=2,19=2,28=1/1;
 99/9=1/99;
 Leave Link    1 at Tue Nov 19 10:33:48 2024, MaxMem=   536870912 cpu:               0.8 elap:               0.1
 (Enter /home/szhao/Apps/g16/l101.exe)
 -------------------
 Title Card Required
 -------------------
 Symbolic Z-matrix:
 Charge =  0 Multiplicity = 1
 C                    -1   -0.61647   0.        0. 
 C                    -1    0.61647   0.        0. 
 H                    0    -1.14617  -0.92138   0. 
 H                    0    -1.14317   0.9257    0. 
 H                    0     1.14617   0.92138   0. 
 H                    0     1.14317  -0.9257    0. 
 
 ITRead=  2  2  0  0  0  0
 MicOpt= -2 -2 -1 -1 -1 -1
 NAtoms=      6 NQM=        4 NQMF=       2 NMMI=      0 NMMIF=      0
                NMic=       0 NMicF=      0.
                    Isotopes and Nuclear Properties:
 (Nuclear quadrupole moments (NQMom) in fm**2, nuclear magnetic moments (NMagM)
  in nuclear magnetons)

  Atom         1           2           3           4           5           6
 IAtWgt=          12          12           1           1           1           1
 AtmWgt=  12.0000000  12.0000000   1.0078250   1.0078250   1.0078250   1.0078250
 NucSpn=           0           0           1           1           1           1
 AtZEff=  -0.0000000  -0.0000000  -0.0000000  -0.0000000  -0.0000000  -0.0000000
 NQMom=    0.0000000   0.0000000   0.0000000   0.0000000   0.0000000   0.0000000
 NMagM=    0.0000000   0.0000000   2.7928460   2.7928460   2.7928460   2.7928460
 AtZNuc=   6.0000000   6.0000000   1.0000000   1.0000000   1.0000000   1.0000000
 Leave Link  101 at Tue Nov 19 10:33:49 2024, MaxMem=   536870912 cpu:               2.6 elap:               0.3
 (Enter /home/szhao/Apps/g16/l103.exe)

 GradGradGradGradGradGradGradGradGradGradGradGradGradGradGradGradGradGrad
 Berny optimization.
 Initialization pass.
                           ----------------------------
                           !    Initial Parameters    !
                           ! (Angstroms and Degrees)  !
 --------------------------                            --------------------------
 ! Name  Definition              Value          Derivative Info.                !
 --------------------------------------------------------------------------------
 ! X1    R(1,-1)                -0.6165         Frozen                          !
 ! Y1    R(1,-2)                 0.0            Frozen                          !
 ! Z1    R(1,-3)                 0.0            Frozen                          !
 ! X2    R(2,-1)                 0.6165         Frozen                          !
 ! Y2    R(2,-2)                 0.0            Frozen                          !
 ! Z2    R(2,-3)                 0.0            Frozen                          !
 ! R1    R(1,3)                  1.0628         estimate D2E/DX2                !
 ! R2    R(1,4)                  1.0651         estimate D2E/DX2                !
 ! R3    R(2,5)                  1.0628         estimate D2E/DX2                !
 ! R4    R(2,6)                  1.0651         estimate D2E/DX2                !
 ! A1    A(2,1,3)              119.8946         estimate D2E/DX2                !
 ! A2    A(2,1,4)              119.6386         estimate D2E/DX2                !
 ! A3    A(3,1,4)              120.4668         estimate D2E/DX2                !
 ! A4    A(1,2,5)              119.8946         estimate D2E/DX2                !
 ! A5    A(1,2,6)              119.6386         estimate D2E/DX2                !
 ! A6    A(5,2,6)              120.4668         estimate D2E/DX2                !
 ! D1    D(3,1,2,5)            180.0            estimate D2E/DX2                !
 ! D2    D(3,1,2,6)              0.0            estimate D2E/DX2                !
 ! D3    D(4,1,2,5)              0.0            estimate D2E/DX2                !
 ! D4    D(4,1,2,6)            180.0            estimate D2E/DX2                !
 --------------------------------------------------------------------------------
 Trust Radius=3.00D-01 FncErr=1.00D-07 GrdErr=1.00D-07 EigMax=2.50D+02 EigMin=1.00D-04
 Number of steps in this run=     30 maximum allowed number of steps=    100.
 GradGradGradGradGradGradGradGradGradGradGradGradGradGradGradGradGradGrad

 Leave Link  103 at Tue Nov 19 10:33:49 2024, MaxMem=   536870912 cpu:               0.1 elap:               0.0
 (Enter /home/szhao/Apps/g16/l202.exe)
                          Input orientation:                          
 ---------------------------------------------------------------------
 Center     Atomic      Atomic             Coordinates (Angstroms)
 Number     Number       Type             X           Y           Z
 ---------------------------------------------------------------------
      1          6           0       -0.616471    0.000000    0.000000
      2          6           0        0.616471    0.000000    0.000000
      3          1           0       -1.146174   -0.921382    0.000000
      4          1           0       -1.143170    0.925704    0.000000
      5          1           0        1.146174    0.921382    0.000000
      6          1           0        1.143170   -0.925704    0.000000
 ---------------------------------------------------------------------
                    Distance matrix (angstroms):
                    1          2          3          4          5
     1  C    0.000000
     2  C    1.232942   0.000000
     3  H    1.062793   1.988935   0.000000
     4  H    1.065054   1.988282   1.847088   0.000000
     5  H    1.988935   1.062793   2.941197   2.289348   0.000000
     6  H    1.988282   1.065054   2.289348   2.941949   1.847088
                    6
     6  H    0.000000
 Symmetry turned off by external request.
 Stoichiometry    C2H4
 Framework group  C2H[SGH(C2H4)]
 Deg. of freedom     5
 Full point group                 C2H     NOp   4
 Rotational constants (GHZ):         146.9791280          35.0884732          28.3261446
 Leave Link  202 at Tue Nov 19 10:33:49 2024, MaxMem=   536870912 cpu:               0.0 elap:               0.0
 (Enter /home/szhao/Apps/g16/l301.exe)
 Standard basis: 6-311+G(d,p) (5D, 7F)
 Ernie: Thresh=  0.10000D-02 Tol=  0.10000D-05 Strict=F.
    68 basis functions,   104 primitive gaussians,    70 cartesian basis functions
     8 alpha electrons        8 beta electrons
       nuclear repulsion energy        35.1699313044 Hartrees.
 IExCor= 4336 DFT=T Ex+Corr=M062X ExCW=0 ScaHFX=  0.540000
 ScaDFX=  1.000000  1.000000  1.000000  1.000000 ScalE2=  1.000000  1.000000
 IRadAn=      7 IRanWt=     -1 IRanGd=            0 ICorTp=0 IEmpDi=  4
 NAtoms=    6 NActive=    6 NUniq=    6 SFac= 1.00D+00 NAtFMM=   60 NAOKFM=F Big=F
 Integral buffers will be    131072 words long.
 Raffenetti 2 integral format.
 Two-electron integral symmetry is turned off.
 Leave Link  301 at Tue Nov 19 10:33:49 2024, MaxMem=   536870912 cpu:               0.3 elap:               0.0
 (Enter /home/szhao/Apps/g16/l302.exe)
 NPDir=0 NMtPBC=     1 NCelOv=     1 NCel=       1 NClECP=     1 NCelD=      1
         NCelK=      1 NCelE2=     1 NClLst=     1 CellRange=     0.0.
 One-electron integrals computed using PRISM.
 NBasis=    68 RedAO= T EigKep=  9.08D-05  NBF=    68
 NBsUse=    68 1.00D-06 EigRej= -1.00D+00 NBFU=    68
 Precomputing XC quadrature grid using
 IXCGrd= 4 IRadAn=           7 IRanWt=          -1 IRanGd=           0 AccXCQ= 0.00D+00.
 Generated NRdTot=       0 NPtTot=           0 NUsed=           0 NTot=          32
 NSgBfM=    70    70    70    70    70 MxSgAt=     6 MxSgA2=     6.
 Leave Link  302 at Tue Nov 19 10:33:49 2024, MaxMem=   536870912 cpu:               1.1 elap:               0.1
 (Enter /home/szhao/Apps/g16/l303.exe)
 DipDrv:  MaxL=1.
 Leave Link  303 at Tue Nov 19 10:33:49 2024, MaxMem=   536870912 cpu:               0.3 elap:               0.0
 (Enter /home/szhao/Apps/g16/l401.exe)
 ExpMin= 4.38D-02 ExpMax= 4.56D+03 ExpMxC= 6.82D+02 IAcc=3 IRadAn=         7 AccDes= 0.00D+00
 Harris functional with IExCor= 1009 and IRadAn=       7 diagonalized for initial guess.
 HarFok:  IExCor= 1009 AccDes= 0.00D+00 IRadAn=         7 IDoV= 1 UseB2=F ITyADJ=14
 ICtDFT=  3500011 ScaDFX=  1.000000  1.000000  1.000000  1.000000
 FoFCou: FMM=F IPFlag=           0 FMFlag=      100000 FMFlg1=           0
         NFxFlg=           0 DoJE=T BraDBF=F KetDBF=T FulRan=T
         wScrn=  0.000000 ICntrl=       500 IOpCl=  0 I1Cent=   200000004 NGrid=           0
         NMat0=    1 NMatS0=      1 NMatT0=    0 NMatD0=    1 NMtDS0=    0 NMtDT0=    0
 Symmetry not used in FoFCou.
 Harris En= -78.5825539857681    
 JPrj=0 DoOrth=F DoCkMO=F.
 Initial guess <Sx>= 0.0000 <Sy>= 0.0000 <Sz>= 0.0000 <S**2>= 0.0000 S= 0.0000
 Leave Link  401 at Tue Nov 19 10:33:49 2024, MaxMem=   536870912 cpu:               2.6 elap:               0.3
 (Enter /home/szhao/Apps/g16/l502.exe)
 Keep R1 and R2 ints in memory in canonical form, NReq=12681614.
 FoFCou: FMM=F IPFlag=           0 FMFlag=           0 FMFlg1=           0
         NFxFlg=           0 DoJE=F BraDBF=F KetDBF=F FulRan=T
         wScrn=  0.000000 ICntrl=       600 IOpCl=  0 I1Cent=           0 NGrid=           0
         NMat0=    1 NMatS0=   2346 NMatT0=    0 NMatD0=    1 NMtDS0=    0 NMtDT0=    0
 Symmetry not used in FoFCou.
 Two-electron integral symmetry not used.
 UHF open shell SCF:
 Using DIIS extrapolation, IDIIS=  1040.
 NGot=   536870912 LenX=   531353794 LenY=   531348453
 Requested convergence on RMS density matrix=1.00D-08 within 128 cycles.
 Requested convergence on MAX density matrix=1.00D-06.
 Requested convergence on             energy=1.00D-06.
 No special actions if energy rises.

 Cycle   1  Pass 1  IDiag  1:
 E= -78.4177013236848    
 DIIS: error= 6.37D-02 at cycle   1 NSaved=   1.
 NSaved= 1 IEnMin= 1 EnMin= -78.4177013236848     IErMin= 1 ErrMin= 6.37D-02
 ErrMax= 6.37D-02  0.00D+00 EMaxC= 1.00D-01 BMatC= 5.54D-01 BMatP= 5.54D-01
 IDIUse=3 WtCom= 3.63D-01 WtEn= 6.37D-01
 Coeff-Com:  0.100D+01
 Coeff-En:   0.100D+01
 Coeff:      0.100D+01
 Gap=     0.411 Goal=   None    Shift=    0.000
 Gap=     0.411 Goal=   None    Shift=    0.000
 GapD=    0.411 DampG=2.000 DampE=0.500 DampFc=1.0000 IDamp=-1.
 RMSDP=5.60D-03 MaxDP=1.07D-01              OVMax= 2.05D-01

 Cycle   2  Pass 1  IDiag  1:
 E= -78.4605515085509     Delta-E=       -0.042850184866 Rises=F Damp=F
 DIIS: error= 5.24D-02 at cycle   2 NSaved=   2.
 NSaved= 2 IEnMin= 2 EnMin= -78.4605515085509     IErMin= 2 ErrMin= 5.24D-02
 ErrMax= 5.24D-02  0.00D+00 EMaxC= 1.00D-01 BMatC= 3.39D-01 BMatP= 5.54D-01
 IDIUse=3 WtCom= 4.76D-01 WtEn= 5.24D-01
 Coeff-Com:  0.437D+00 0.563D+00
 Coeff-En:   0.387D+00 0.613D+00
 Coeff:      0.410D+00 0.590D+00
 Gap=     0.397 Goal=   None    Shift=    0.000
 Gap=     0.397 Goal=   None    Shift=    0.000
 RMSDP=2.92D-03 MaxDP=5.16D-02 DE=-4.29D-02 OVMax= 1.05D-01

 Cycle   3  Pass 1  IDiag  1:
 E= -78.5479863283586     Delta-E=       -0.087434819808 Rises=F Damp=F
 DIIS: error= 5.77D-03 at cycle   3 NSaved=   3.
 NSaved= 3 IEnMin= 3 EnMin= -78.5479863283586     IErMin= 3 ErrMin= 5.77D-03
 ErrMax= 5.77D-03  0.00D+00 EMaxC= 1.00D-01 BMatC= 3.46D-03 BMatP= 3.39D-01
 IDIUse=3 WtCom= 9.42D-01 WtEn= 5.77D-02
 Coeff-Com: -0.997D-02 0.799D-01 0.930D+00
 Coeff-En:   0.000D+00 0.000D+00 0.100D+01
 Coeff:     -0.940D-02 0.753D-01 0.934D+00
 Gap=     0.389 Goal=   None    Shift=    0.000
 Gap=     0.389 Goal=   None    Shift=    0.000
 RMSDP=2.55D-04 MaxDP=4.09D-03 DE=-8.74D-02 OVMax= 9.22D-03

 Cycle   4  Pass 1  IDiag  1:
 E= -78.5488405824444     Delta-E=       -0.000854254086 Rises=F Damp=F
 DIIS: error= 3.05D-04 at cycle   4 NSaved=   4.
 NSaved= 4 IEnMin= 4 EnMin= -78.5488405824444     IErMin= 4 ErrMin= 3.05D-04
 ErrMax= 3.05D-04  0.00D+00 EMaxC= 1.00D-01 BMatC= 7.12D-06 BMatP= 3.46D-03
 IDIUse=3 WtCom= 9.97D-01 WtEn= 3.05D-03
 Coeff-Com: -0.268D-02-0.139D-02 0.485D-01 0.956D+00
 Coeff-En:   0.000D+00 0.000D+00 0.000D+00 0.100D+01
 Coeff:     -0.267D-02-0.138D-02 0.483D-01 0.956D+00
 Gap=     0.389 Goal=   None    Shift=    0.000
 Gap=     0.389 Goal=   None    Shift=    0.000
 RMSDP=2.35D-05 MaxDP=3.60D-04 DE=-8.54D-04 OVMax= 7.17D-04

 Cycle   5  Pass 1  IDiag  1:
 E= -78.5488428728234     Delta-E=       -0.000002290379 Rises=F Damp=F
 DIIS: error= 3.96D-05 at cycle   5 NSaved=   5.
 NSaved= 5 IEnMin= 5 EnMin= -78.5488428728234     IErMin= 5 ErrMin= 3.96D-05
 ErrMax= 3.96D-05  0.00D+00 EMaxC= 1.00D-01 BMatC= 1.93D-07 BMatP= 7.12D-06
 IDIUse=1 WtCom= 1.00D+00 WtEn= 0.00D+00
 Coeff-Com:  0.561D-04-0.217D-02-0.200D-01 0.849D-01 0.937D+00
 Coeff:      0.561D-04-0.217D-02-0.200D-01 0.849D-01 0.937D+00
 Gap=     0.389 Goal=   None    Shift=    0.000
 Gap=     0.389 Goal=   None    Shift=    0.000
 RMSDP=4.55D-06 MaxDP=4.89D-05 DE=-2.29D-06 OVMax= 1.27D-04

 Cycle   6  Pass 1  IDiag  1:
 E= -78.5488429359903     Delta-E=       -0.000000063167 Rises=F Damp=F
 DIIS: error= 4.34D-06 at cycle   6 NSaved=   6.
 NSaved= 6 IEnMin= 6 EnMin= -78.5488429359903     IErMin= 6 ErrMin= 4.34D-06
 ErrMax= 4.34D-06  0.00D+00 EMaxC= 1.00D-01 BMatC= 1.88D-09 BMatP= 1.93D-07
 IDIUse=1 WtCom= 1.00D+00 WtEn= 0.00D+00
 Coeff-Com:  0.126D-04 0.176D-03 0.117D-02-0.191D-01-0.127D+00 0.114D+01
 Coeff:      0.126D-04 0.176D-03 0.117D-02-0.191D-01-0.127D+00 0.114D+01
 Gap=     0.389 Goal=   None    Shift=    0.000
 Gap=     0.389 Goal=   None    Shift=    0.000
 RMSDP=1.07D-06 MaxDP=1.33D-05 DE=-6.32D-08 OVMax= 2.82D-05

 Cycle   7  Pass 1  IDiag  1:
 E= -78.5488429374944     Delta-E=       -0.000000001504 Rises=F Damp=F
 DIIS: error= 4.33D-07 at cycle   7 NSaved=   7.
 NSaved= 7 IEnMin= 7 EnMin= -78.5488429374944     IErMin= 7 ErrMin= 4.33D-07
 ErrMax= 4.33D-07  0.00D+00 EMaxC= 1.00D-01 BMatC= 1.42D-11 BMatP= 1.88D-09
 IDIUse=1 WtCom= 1.00D+00 WtEn= 0.00D+00
 Coeff-Com: -0.180D-05 0.109D-05-0.988D-05 0.544D-03 0.530D-02-0.720D-01
 Coeff-Com:  0.107D+01
 Coeff:     -0.180D-05 0.109D-05-0.988D-05 0.544D-03 0.530D-02-0.720D-01
 Coeff:      0.107D+01
 Gap=     0.389 Goal=   None    Shift=    0.000
 Gap=     0.389 Goal=   None    Shift=    0.000
 RMSDP=5.16D-08 MaxDP=6.70D-07 DE=-1.50D-09 OVMax= 1.15D-06

 Cycle   8  Pass 1  IDiag  1:
 E= -78.5488429375016     Delta-E=       -0.000000000007 Rises=F Damp=F
 DIIS: error= 5.69D-08 at cycle   8 NSaved=   8.
 NSaved= 8 IEnMin= 8 EnMin= -78.5488429375016     IErMin= 8 ErrMin= 5.69D-08
 ErrMax= 5.69D-08  0.00D+00 EMaxC= 1.00D-01 BMatC= 1.06D-13 BMatP= 1.42D-11
 IDIUse=1 WtCom= 1.00D+00 WtEn= 0.00D+00
 Coeff-Com:  0.335D-06-0.628D-06-0.232D-05 0.688D-05 0.766D-04 0.712D-03
 Coeff-Com: -0.118D+00 0.112D+01
 Coeff:      0.335D-06-0.628D-06-0.232D-05 0.688D-05 0.766D-04 0.712D-03
 Coeff:     -0.118D+00 0.112D+01
 Gap=     0.389 Goal=   None    Shift=    0.000
 Gap=     0.389 Goal=   None    Shift=    0.000
 RMSDP=5.25D-09 MaxDP=5.37D-08 DE=-7.13D-12 OVMax= 2.43D-07

 SCF Done:  E(UM062X) =  -78.5488429375     A.U. after    8 cycles
            NFock=  8  Conv=0.53D-08     -V/T= 1.9985
 <Sx>= 0.0000 <Sy>= 0.0000 <Sz>= 0.0000 <S**2>=-0.0000 S=-0.0000
 <L.S>=  0.00000000000    
 KE= 7.866550107835D+01 PE=-2.524196057274D+02 EE= 6.003533040715D+01
 Annihilation of the first spin contaminant:
 S**2 before annihilation    -0.0000,   after    -0.0000
 Leave Link  502 at Tue Nov 19 10:33:55 2024, MaxMem=   536870912 cpu:              41.5 elap:               5.3
 (Enter /home/szhao/Apps/g16/l601.exe)
 Copying SCF densities to generalized density rwf, IOpCl= 1 IROHF=0.

 **********************************************************************

            Population analysis using the SCF density.

 **********************************************************************

 Alpha  occ. eigenvalues --  -10.51668 -10.51455  -0.88933  -0.65370  -0.56647
 Alpha  occ. eigenvalues --   -0.49046  -0.41098  -0.35375
 Alpha virt. eigenvalues --    0.03525   0.04363   0.04368   0.04763   0.07455
 Alpha virt. eigenvalues --    0.08347   0.09710   0.14558   0.16120   0.17183
 Alpha virt. eigenvalues --    0.21100   0.24379   0.32323   0.37955   0.43631
 Alpha virt. eigenvalues --    0.45894   0.54378   0.56719   0.59273   0.65770
 Alpha virt. eigenvalues --    0.66296   0.74787   0.78165   0.79491   0.83542
 Alpha virt. eigenvalues --    0.97836   1.03492   1.18536   1.20546   1.41347
 Alpha virt. eigenvalues --    1.44677   1.47378   1.67791   1.69592   1.69848
 Alpha virt. eigenvalues --    1.71021   1.81984   1.85001   2.00194   2.14955
 Alpha virt. eigenvalues --    2.16054   2.17527   2.27686   2.29840   2.43649
 Alpha virt. eigenvalues --    2.49140   2.61772   2.63361   2.67127   2.74544
 Alpha virt. eigenvalues --    2.80881   2.94581   2.98647   3.29286   3.71013
 Alpha virt. eigenvalues --    3.71450   3.95009   4.11592  23.81679  24.77205
  Beta  occ. eigenvalues --  -10.51668 -10.51455  -0.88933  -0.65370  -0.56647
  Beta  occ. eigenvalues --   -0.49046  -0.41098  -0.35375
  Beta virt. eigenvalues --    0.03525   0.04363   0.04368   0.04763   0.07455
  Beta virt. eigenvalues --    0.08347   0.09710   0.14558   0.16120   0.17183
  Beta virt. eigenvalues --    0.21100   0.24379   0.32323   0.37955   0.43631
  Beta virt. eigenvalues --    0.45894   0.54378   0.56719   0.59273   0.65770
  Beta virt. eigenvalues --    0.66296   0.74787   0.78165   0.79491   0.83542
  Beta virt. eigenvalues --    0.97836   1.03492   1.18536   1.20546   1.41347
  Beta virt. eigenvalues --    1.44677   1.47378   1.67791   1.69592   1.69848
  Beta virt. eigenvalues --    1.71021   1.81984   1.85001   2.00194   2.14955
  Beta virt. eigenvalues --    2.16054   2.17527   2.27686   2.29840   2.43649
  Beta virt. eigenvalues --    2.49140   2.61772   2.63361   2.67127   2.74544
  Beta virt. eigenvalues --    2.80881   2.94581   2.98647   3.29286   3.71013
  Beta virt. eigenvalues --    3.71450   3.95009   4.11592  23.81679  24.77205
          Condensed to atoms (all electrons):
               1          2          3          4          5          6
     1  C    4.821248   0.697030   0.413677   0.413534  -0.034217  -0.034702
     2  C    0.697030   4.821248  -0.034217  -0.034702   0.413677   0.413534
     3  H    0.413677  -0.034217   0.517014  -0.028769   0.008075  -0.014264
     4  H    0.413534  -0.034702  -0.028769   0.517946  -0.014264   0.008167
     5  H   -0.034217   0.413677   0.008075  -0.014264   0.517014  -0.028769
     6  H   -0.034702   0.413534  -0.014264   0.008167  -0.028769   0.517946
          Atomic-Atomic Spin Densities.
               1          2          3          4          5          6
     1  C   -0.000000  -0.000000   0.000000  -0.000000   0.000000  -0.000000
     2  C   -0.000000   0.000000  -0.000000   0.000000  -0.000000   0.000000
     3  H    0.000000  -0.000000  -0.000000  -0.000000   0.000000   0.000000
     4  H   -0.000000   0.000000  -0.000000   0.000000  -0.000000   0.000000
     5  H    0.000000  -0.000000   0.000000  -0.000000   0.000000  -0.000000
     6  H   -0.000000   0.000000   0.000000   0.000000  -0.000000   0.000000
 Mulliken charges and spin densities:
               1          2
     1  C   -0.276571  -0.000000
     2  C   -0.276571   0.000000
     3  H    0.138483  -0.000000
     4  H    0.138088   0.000000
     5  H    0.138483  -0.000000
     6  H    0.138088   0.000000
 Sum of Mulliken charges =  -0.00000  -0.00000
 Mulliken charges and spin densities with hydrogens summed into heavy atoms:
               1          2
     1  C   -0.000000  -0.000000
     2  C    0.000000   0.000000
 Electronic spatial extent (au):  <R**2>=             77.0143
 Charge=             -0.0000 electrons
 Dipole moment (field-independent basis, Debye):
    X=              0.0000    Y=             -0.0000    Z=              0.0000  Tot=              0.0000
 Quadrupole moment (field-independent basis, Debye-Ang):
   XX=            -12.7275   YY=            -12.0100   ZZ=            -15.3833
   XY=              0.0103   XZ=             -0.0000   YZ=              0.0000
 Traceless Quadrupole moment (field-independent basis, Debye-Ang):
   XX=              0.6461   YY=              1.3636   ZZ=             -2.0097
   XY=              0.0103   XZ=             -0.0000   YZ=              0.0000
 Octapole moment (field-independent basis, Debye-Ang**2):
  XXX=             -0.0000  YYY=             -0.0000  ZZZ=              0.0000  XYY=             -0.0000
  XXY=             -0.0000  XXZ=              0.0000  XZZ=              0.0000  YZZ=              0.0000
  YYZ=              0.0000  XYZ=             -0.0000
 Hexadecapole moment (field-independent basis, Debye-Ang**3):
 XXXX=            -62.6539 YYYY=            -26.3392 ZZZZ=            -18.5747 XXXY=              0.0646
 XXXZ=             -0.0000 YYYX=              0.0221 YYYZ=              0.0000 ZZZX=             -0.0000
 ZZZY=              0.0000 XXYY=            -12.5874 XXZZ=            -14.1532 YYZZ=             -8.2297
 XXYZ=              0.0000 YYXZ=             -0.0000 ZZXY=              0.0124
 N-N= 3.516993130437D+01 E-N=-2.524196063796D+02  KE= 7.866550107835D+01
                          Isotropic Fermi Contact Couplings
        Atom                 a.u.       MegaHertz       Gauss      10(-4) cm-1
     1  C(13)              0.00000       0.00000       0.00000       0.00000
     2  C(13)              0.00000       0.00000       0.00000       0.00000
     3  H(1)              -0.00000      -0.00000      -0.00000      -0.00000
     4  H(1)               0.00000       0.00000       0.00000       0.00000
     5  H(1)              -0.00000      -0.00000      -0.00000      -0.00000
     6  H(1)              -0.00000      -0.00000      -0.00000      -0.00000
 --------------------------------------------------------
       Center         ----  Spin Dipole Couplings  ----
                      3XX-RR        3YY-RR        3ZZ-RR
 --------------------------------------------------------
     1   Atom        0.000000      0.000000      0.000000
     2   Atom        0.000000      0.000000      0.000000
     3   Atom        0.000000      0.000000      0.000000
     4   Atom        0.000000      0.000000      0.000000
     5   Atom        0.000000      0.000000      0.000000
     6   Atom        0.000000      0.000000      0.000000
 --------------------------------------------------------
                        XY            XZ            YZ
 --------------------------------------------------------
     1   Atom        0.000000      0.000000      0.000000
     2   Atom        0.000000      0.000000      0.000000
     3   Atom        0.000000      0.000000      0.000000
     4   Atom        0.000000      0.000000      0.000000
     5   Atom        0.000000      0.000000      0.000000
     6   Atom        0.000000      0.000000      0.000000
 --------------------------------------------------------


 ---------------------------------------------------------------------------------
              Anisotropic Spin Dipole Couplings in Principal Axis System
 ---------------------------------------------------------------------------------

       Atom             a.u.   MegaHertz   Gauss  10(-4) cm-1        Axes

              Baa     0.0000     0.000     0.000     0.000  1.0000  0.0000  0.0000
     1 C(13)  Bbb     0.0000     0.000     0.000     0.000 -0.0000  1.0000  0.0000
              Bcc     0.0000     0.000     0.000     0.000  0.0000  0.0000  1.0000
 
              Baa     0.0000     0.000     0.000     0.000  1.0000  0.0000  0.0000
     2 C(13)  Bbb     0.0000     0.000     0.000     0.000 -0.0000  1.0000  0.0000
              Bcc     0.0000     0.000     0.000     0.000  0.0000  0.0000  1.0000
 
              Baa     0.0000     0.000     0.000     0.000  1.0000  0.0000  0.0000
     3 H(1)   Bbb     0.0000     0.000     0.000     0.000 -0.0000  1.0000  0.0000
              Bcc     0.0000     0.000     0.000     0.000  0.0000  0.0000  1.0000
 
              Baa     0.0000     0.000     0.000     0.000  1.0000  0.0000  0.0000
     4 H(1)   Bbb     0.0000     0.000     0.000     0.000 -0.0000  1.0000  0.0000
              Bcc     0.0000     0.000     0.000     0.000  0.0000  0.0000  1.0000
 
              Baa     0.0000     0.000     0.000     0.000  1.0000  0.0000  0.0000
     5 H(1)   Bbb     0.0000     0.000     0.000     0.000 -0.0000  1.0000  0.0000
              Bcc     0.0000     0.000     0.000     0.000  0.0000  0.0000  1.0000
 
              Baa     0.0000     0.000     0.000     0.000  1.0000  0.0000  0.0000
     6 H(1)   Bbb     0.0000     0.000     0.000     0.000 -0.0000  1.0000  0.0000
              Bcc     0.0000     0.000     0.000     0.000  0.0000  0.0000  1.0000
 

 ---------------------------------------------------------------------------------

 No NMR shielding tensors so no spin-rotation constants.
 Leave Link  601 at Tue Nov 19 10:33:55 2024, MaxMem=   536870912 cpu:               0.9 elap:               0.1
 (Enter /home/szhao/Apps/g16/l701.exe)
 ... and contract with generalized density number  0.
 Compute integral first derivatives.
 Leave Link  701 at Tue Nov 19 10:33:55 2024, MaxMem=   536870912 cpu:               0.7 elap:               0.1
 (Enter /home/szhao/Apps/g16/l702.exe)
 L702 exits ... SP integral derivatives will be done elsewhere.
 Leave Link  702 at Tue Nov 19 10:33:55 2024, MaxMem=   536870912 cpu:               0.3 elap:               0.0
 (Enter /home/szhao/Apps/g16/l703.exe)
 Integral derivatives from FoFJK, PRISM(SPDF).
 Compute integral first derivatives, UseDBF=F ICtDFT=           0.
 Calling FoFJK, ICntrl=      2127 FMM=F ISym2X=0 I1Cent= 0 IOpClX= 1 NMat=1 NMatS=1 NMatT=0.
 FoFJK:  IHMeth= 1 ICntrl=    2127 DoSepK=F KAlg= 0 I1Cent=           0 FoldK=F
 IRaf=         0 NMat=       1 IRICut=       1 DoRegI=T DoRafI=F ISym2E= 0 IDoP0=0 IntGTp=1.
 FoFCou: FMM=F IPFlag=           0 FMFlag=      100000 FMFlg1=         800
         NFxFlg=           0 DoJE=F BraDBF=F KetDBF=F FulRan=T
         wScrn=  0.000000 ICntrl=      2127 IOpCl=  1 I1Cent=           0 NGrid=           0
         NMat0=    1 NMatS0=      1 NMatT0=    0 NMatD0=    1 NMtDS0=    0 NMtDT0=    0
 Symmetry not used in FoFCou.
 Leave Link  703 at Tue Nov 19 10:33:56 2024, MaxMem=   536870912 cpu:               9.5 elap:               1.2
 (Enter /home/szhao/Apps/g16/l716.exe)
 Dipole        = 1.57651669D-13-3.86357613D-14 5.59339685D-15
 -------------------------------------------------------------------
 Center     Atomic                   Forces (Hartrees/Bohr)
 Number     Number              X              Y              Z
 -------------------------------------------------------------------
      1        6          -0.000000000   -0.000000000   -0.000000000
      2        6          -0.000000000   -0.000000000   -0.000000000
      3        1          -0.015274015   -0.010046441   -0.000000000
      4        1          -0.014687231    0.008595957   -0.000000000
      5        1           0.015274015    0.010046441    0.000000000
      6        1           0.014687231   -0.008595957    0.000000000
 -------------------------------------------------------------------
 Cartesian Forces:  Max     0.015274015 RMS     0.008325541
 Leave Link  716 at Tue Nov 19 10:33:56 2024, MaxMem=   536870912 cpu:               0.3 elap:               0.0
 (Enter /home/szhao/Apps/g16/l103.exe)

 GradGradGradGradGradGradGradGradGradGradGradGradGradGradGradGradGradGrad
 Berny optimization.
 FormGI is forming the generalized inverse of G from B-inverse, IUseBI=4.
 Internal  Forces:  Max     0.029961245 RMS     0.012546887
 Search for a local minimum.
 Step number   1 out of a maximum of   30
 All quantities printed in internal units (Hartrees-Bohrs-Radians)
 RMS Force = .98031D-02 SwitMx=.10000D-02 MixMth= 1
 Mixed Optimization -- RFO/linear search
 Second derivative matrix not updated -- first step.
 The second derivative matrix:
                          X1        Y1        Z1        X2        Y2
           X1           0.50000
           Y1           0.00000   0.50000
           Z1           0.00000   0.00000   0.50000
           X2           0.00000   0.00000   0.00000   0.50000
           Y2           0.00000   0.00000   0.00000   0.00000   0.50000
           Z2           0.00000   0.00000   0.00000   0.00000   0.00000
           R1           0.00000   0.00000   0.00000   0.00000   0.00000
           R2           0.00000   0.00000   0.00000   0.00000   0.00000
           R3           0.00000   0.00000   0.00000   0.00000   0.00000
           R4           0.00000   0.00000   0.00000   0.00000   0.00000
           A1           0.00000   0.00000   0.00000   0.00000   0.00000
           A2           0.00000   0.00000   0.00000   0.00000   0.00000
           A3           0.00000   0.00000   0.00000   0.00000   0.00000
           A4           0.00000   0.00000   0.00000   0.00000   0.00000
           A5           0.00000   0.00000   0.00000   0.00000   0.00000
           A6           0.00000   0.00000   0.00000   0.00000   0.00000
           D1           0.00000   0.00000   0.00000   0.00000   0.00000
           D2           0.00000   0.00000   0.00000   0.00000   0.00000
           D3           0.00000   0.00000   0.00000   0.00000   0.00000
           D4           0.00000   0.00000   0.00000   0.00000   0.00000
                          Z2        R1        R2        R3        R4
           Z2           0.50000
           R1           0.00000   0.38156
           R2           0.00000   0.00000   0.37862
           R3           0.00000   0.00000   0.00000   0.38156
           R4           0.00000   0.00000   0.00000   0.00000   0.37862
           A1           0.00000   0.00000   0.00000   0.00000   0.00000
           A2           0.00000   0.00000   0.00000   0.00000   0.00000
           A3           0.00000   0.00000   0.00000   0.00000   0.00000
           A4           0.00000   0.00000   0.00000   0.00000   0.00000
           A5           0.00000   0.00000   0.00000   0.00000   0.00000
           A6           0.00000   0.00000   0.00000   0.00000   0.00000
           D1           0.00000   0.00000   0.00000   0.00000   0.00000
           D2           0.00000   0.00000   0.00000   0.00000   0.00000
           D3           0.00000   0.00000   0.00000   0.00000   0.00000
           D4           0.00000   0.00000   0.00000   0.00000   0.00000
                          A1        A2        A3        A4        A5
           A1           0.16000
           A2           0.00000   0.16000
           A3           0.00000   0.00000   0.16000
           A4           0.00000   0.00000   0.00000   0.16000
           A5           0.00000   0.00000   0.00000   0.00000   0.16000
           A6           0.00000   0.00000   0.00000   0.00000   0.00000
           D1           0.00000   0.00000   0.00000   0.00000   0.00000
           D2           0.00000   0.00000   0.00000   0.00000   0.00000
           D3           0.00000   0.00000   0.00000   0.00000   0.00000
           D4           0.00000   0.00000   0.00000   0.00000   0.00000
                          A6        D1        D2        D3        D4
           A6           0.16000
           D1           0.00000   0.04299
           D2           0.00000   0.00000   0.04299
           D3           0.00000   0.00000   0.00000   0.04299
           D4           0.00000   0.00000   0.00000   0.00000   0.04299
 ITU=  0
     Eigenvalues ---    0.04299   0.04299   0.04299   0.16000   0.16000
     Eigenvalues ---    0.16000   0.16000   0.37862   0.37862   0.38156
     Eigenvalues ---    0.381561000.000001000.000001000.000001000.00000
     Eigenvalues --- 1000.000001000.000001000.000001000.000001000.00000
 RFO step:  Lambda=-4.80733718D-03 EMin= 4.29861394D-02
 Linear search not attempted -- first point.
 Iteration  1 RMS(Cart)=  0.03558952 RMS(Int)=  0.00073739
 Iteration  2 RMS(Cart)=  0.00080984 RMS(Int)=  0.00000036
 Iteration  3 RMS(Cart)=  0.00000039 RMS(Int)=  0.00000000
 ITry= 1 IFail=0 DXMaxC= 8.23D-02 DCOld= 1.00D+10 DXMaxT= 3.00D-01 DXLimC= 3.00D+00 Rises=F
 Variable       Old X    -DE/DX   Delta X   Delta X   Delta X     New X
                                 (Linear)    (Quad)   (Total)
    X1       -1.16496  -0.02996   0.00000   0.00000   0.00000  -1.16496
    Y1        0.00000  -0.00196   0.00000   0.00000   0.00000   0.00000
    Z1        0.00000  -0.00000   0.00000   0.00000   0.00000   0.00000
    X2        1.16496   0.02996   0.00000   0.00000   0.00000   1.16496
    Y2        0.00000   0.00196   0.00000   0.00000   0.00000   0.00000
    Z2        0.00000   0.00000   0.00000   0.00000   0.00000   0.00000
    R1        2.00839   0.01632   0.00000   0.04225   0.04225   2.05063
    R2        2.01266   0.01473   0.00000   0.03843   0.03843   2.05109
    R3        2.00839   0.01632   0.00000   0.04225   0.04225   2.05063
    R4        2.01266   0.01473   0.00000   0.03843   0.03843   2.05109
    A1        2.09256   0.00531   0.00000   0.03224   0.03224   2.12479
    A2        2.08809   0.00591   0.00000   0.03587   0.03587   2.12396
    A3        2.10254  -0.01123   0.00000  -0.06811  -0.06811   2.03443
    A4        2.09256   0.00531   0.00000   0.03224   0.03224   2.12479
    A5        2.08809   0.00591   0.00000   0.03587   0.03587   2.12396
    A6        2.10254  -0.01123   0.00000  -0.06811  -0.06811   2.03443
    D1        3.14159   0.00000   0.00000  -0.00000   0.00000   3.14159
    D2        0.00000  -0.00000   0.00000  -0.00000  -0.00000   0.00000
    D3        0.00000   0.00000   0.00000   0.00000   0.00000   0.00000
    D4        3.14159  -0.00000   0.00000  -0.00000   0.00000   3.14159
         Item               Value     Threshold  Converged?
 Maximum Force            0.016322     0.000450     NO 
 RMS     Force            0.009803     0.000300     NO 
 Maximum Displacement     0.082288     0.001800     NO 
 RMS     Displacement     0.035851     0.001200     NO 
 Predicted change in Energy=-2.452831D-03
 Lowest energy point so far.  Saving SCF results.
 GradGradGradGradGradGradGradGradGradGradGradGradGradGradGradGradGradGrad

 Leave Link  103 at Tue Nov 19 10:33:56 2024, MaxMem=   536870912 cpu:               0.1 elap:               0.0
 (Enter /home/szhao/Apps/g16/l202.exe)
                          Input orientation:                          
 ---------------------------------------------------------------------
 Center     Atomic      Atomic             Coordinates (Angstroms)
 Number     Number       Type             X           Y           Z
 ---------------------------------------------------------------------
      1          6           0       -0.616471    0.000000    0.000000
      2          6           0        0.616471    0.000000    0.000000
      3          1           0       -1.187358   -0.922841   -0.000000
      4          1           0       -1.186715    0.923521   -0.000000
      5          1           0        1.187358    0.922841    0.000000
      6          1           0        1.186715   -0.923521    0.000000
 ---------------------------------------------------------------------
                    Distance matrix (angstroms):
                    1          2          3          4          5
     1  C    0.000000
     2  C    1.232942   0.000000
     3  H    1.085149   2.026187   0.000000
     4  H    1.085389   2.025925   1.846363   0.000000
     5  H    2.026187   1.085149   3.007627   2.374073   0.000000
     6  H    2.025925   1.085389   2.374073   3.007447   1.846363
                    6
     6  H    0.000000
 Symmetry turned off by external request.
 Stoichiometry    C2H4
 Framework group  C2H[SGH(C2H4)]
 Deg. of freedom     5
 Full point group                 C2H     NOp   4
 Rotational constants (GHZ):         147.0950137          34.1444613          27.7118437
 Leave Link  202 at Tue Nov 19 10:33:56 2024, MaxMem=   536870912 cpu:               0.0 elap:               0.0
 (Enter /home/szhao/Apps/g16/l301.exe)
 Standard basis: 6-311+G(d,p) (5D, 7F)
 Ernie: Thresh=  0.10000D-02 Tol=  0.10000D-05 Strict=F.
    68 basis functions,   104 primitive gaussians,    70 cartesian basis functions
     8 alpha electrons        8 beta electrons
       nuclear repulsion energy        34.7929271042 Hartrees.
 IExCor= 4336 DFT=T Ex+Corr=M062X ExCW=0 ScaHFX=  0.540000
 ScaDFX=  1.000000  1.000000  1.000000  1.000000 ScalE2=  1.000000  1.000000
 IRadAn=      7 IRanWt=     -1 IRanGd=            0 ICorTp=0 IEmpDi=  4
 NAtoms=    6 NActive=    6 NUniq=    6 SFac= 1.00D+00 NAtFMM=   60 NAOKFM=F Big=F
 Integral buffers will be    131072 words long.
 Raffenetti 2 integral format.
 Two-electron integral symmetry is turned off.
 Leave Link  301 at Tue Nov 19 10:33:56 2024, MaxMem=   536870912 cpu:               0.4 elap:               0.0
 (Enter /home/szhao/Apps/g16/l302.exe)
 NPDir=0 NMtPBC=     1 NCelOv=     1 NCel=       1 NClECP=     1 NCelD=      1
         NCelK=      1 NCelE2=     1 NClLst=     1 CellRange=     0.0.
 One-electron integrals computed using PRISM.
 NBasis=    68 RedAO= T EigKep=  9.36D-05  NBF=    68
 NBsUse=    68 1.00D-06 EigRej= -1.00D+00 NBFU=    68
 Precomputing XC quadrature grid using
 IXCGrd= 4 IRadAn=           7 IRanWt=          -1 IRanGd=           0 AccXCQ= 0.00D+00.
 Generated NRdTot=       0 NPtTot=           0 NUsed=           0 NTot=          32
 NSgBfM=    70    70    70    70    70 MxSgAt=     6 MxSgA2=     6.
 Leave Link  302 at Tue Nov 19 10:33:56 2024, MaxMem=   536870912 cpu:               1.1 elap:               0.1
 (Enter /home/szhao/Apps/g16/l303.exe)
 DipDrv:  MaxL=1.
 Leave Link  303 at Tue Nov 19 10:33:57 2024, MaxMem=   536870912 cpu:               0.4 elap:               0.1
 (Enter /home/szhao/Apps/g16/l401.exe)
 Initial guess from the checkpoint file:  "opt.chk"
 B after Tr=    -0.000000    0.000000   -0.000000
         Rot=    1.000000    0.000000    0.000000   -0.000487 Ang=  -0.06 deg.
 Guess basis will be translated and rotated to current coordinates.
 JPrj=2 DoOrth=T DoCkMO=T.
 Initial guess <Sx>= 0.0000 <Sy>= 0.0000 <Sz>= 0.0000 <S**2>=-0.0000 S=-0.0000
 Generating alternative initial guess.
 ExpMin= 4.38D-02 ExpMax= 4.56D+03 ExpMxC= 6.82D+02 IAcc=3 IRadAn=         5 AccDes= 0.00D+00
 Harris functional with IExCor= 1009 and IRadAn=       5 diagonalized for initial guess.
 HarFok:  IExCor= 1009 AccDes= 0.00D+00 IRadAn=         5 IDoV= 1 UseB2=F ITyADJ=14
 ICtDFT=  3500011 ScaDFX=  1.000000  1.000000  1.000000  1.000000
 FoFCou: FMM=F IPFlag=           0 FMFlag=      100000 FMFlg1=           0
         NFxFlg=           0 DoJE=T BraDBF=F KetDBF=T FulRan=T
         wScrn=  0.000000 ICntrl=       500 IOpCl=  0 I1Cent=   200000004 NGrid=           0
         NMat0=    1 NMatS0=      1 NMatT0=    0 NMatD0=    1 NMtDS0=    0 NMtDT0=    0
 Symmetry not used in FoFCou.
 Harris En= -78.5791628319212    
 Leave Link  401 at Tue Nov 19 10:33:57 2024, MaxMem=   536870912 cpu:               2.0 elap:               0.3
 (Enter /home/szhao/Apps/g16/l502.exe)
 Keep R1 and R2 ints in memory in canonical form, NReq=12681614.
 FoFCou: FMM=F IPFlag=           0 FMFlag=           0 FMFlg1=           0
         NFxFlg=           0 DoJE=F BraDBF=F KetDBF=F FulRan=T
         wScrn=  0.000000 ICntrl=       600 IOpCl=  0 I1Cent=           0 NGrid=           0
         NMat0=    1 NMatS0=   2346 NMatT0=    0 NMatD0=    1 NMtDS0=    0 NMtDT0=    0
 Symmetry not used in FoFCou.
 Two-electron integral symmetry not used.
 UHF open shell SCF:
 Using DIIS extrapolation, IDIIS=  1040.
 NGot=   536870912 LenX=   531353794 LenY=   531348453
 Requested convergence on RMS density matrix=1.00D-08 within 128 cycles.
 Requested convergence on MAX density matrix=1.00D-06.
 Requested convergence on             energy=1.00D-06.
 No special actions if energy rises.

 Cycle   1  Pass 1  IDiag  1:
 E= -78.5512143967116    
 DIIS: error= 3.60D-03 at cycle   1 NSaved=   1.
 NSaved= 1 IEnMin= 1 EnMin= -78.5512143967116     IErMin= 1 ErrMin= 3.60D-03
 ErrMax= 3.60D-03  0.00D+00 EMaxC= 1.00D-01 BMatC= 1.77D-03 BMatP= 1.77D-03
 IDIUse=3 WtCom= 9.64D-01 WtEn= 3.60D-02
 Coeff-Com:  0.100D+01
 Coeff-En:   0.100D+01
 Coeff:      0.100D+01
 Gap=     0.595 Goal=   None    Shift=    0.000
 Gap=     0.595 Goal=   None    Shift=    0.000
 GapD=    0.595 DampG=2.000 DampE=1.000 DampFc=2.0000 IDamp=-1.
 RMSDP=2.45D-04 MaxDP=1.88D-03              OVMax= 8.83D-03

 Cycle   2  Pass 1  IDiag  1:
 E= -78.5516065863211     Delta-E=       -0.000392189609 Rises=F Damp=F
 DIIS: error= 8.45D-04 at cycle   2 NSaved=   2.
 NSaved= 2 IEnMin= 2 EnMin= -78.5516065863211     IErMin= 2 ErrMin= 8.45D-04
 ErrMax= 8.45D-04  0.00D+00 EMaxC= 1.00D-01 BMatC= 1.05D-04 BMatP= 1.77D-03
 IDIUse=3 WtCom= 9.92D-01 WtEn= 8.45D-03
 Coeff-Com:  0.628D-01 0.937D+00
 Coeff-En:   0.000D+00 0.100D+01
 Coeff:      0.623D-01 0.938D+00
 Gap=     0.390 Goal=   None    Shift=    0.000
 Gap=     0.390 Goal=   None    Shift=    0.000
 RMSDP=7.79D-05 MaxDP=1.70D-03 DE=-3.92D-04 OVMax= 3.09D-03

 Cycle   3  Pass 1  IDiag  1:
 E= -78.5516234205105     Delta-E=       -0.000016834189 Rises=F Damp=F
 DIIS: error= 7.21D-04 at cycle   3 NSaved=   3.
 NSaved= 3 IEnMin= 3 EnMin= -78.5516234205105     IErMin= 3 ErrMin= 7.21D-04
 ErrMax= 7.21D-04  0.00D+00 EMaxC= 1.00D-01 BMatC= 4.86D-05 BMatP= 1.05D-04
 IDIUse=3 WtCom= 9.93D-01 WtEn= 7.21D-03
 Coeff-Com: -0.232D-01 0.401D+00 0.622D+00
 Coeff-En:   0.000D+00 0.222D+00 0.778D+00
 Coeff:     -0.230D-01 0.400D+00 0.623D+00
 Gap=     0.389 Goal=   None    Shift=    0.000
 Gap=     0.389 Goal=   None    Shift=    0.000
 RMSDP=3.13D-05 MaxDP=5.61D-04 DE=-1.68D-05 OVMax= 1.05D-03

 Cycle   4  Pass 1  IDiag  1:
 E= -78.5516356408265     Delta-E=       -0.000012220316 Rises=F Damp=F
 DIIS: error= 4.30D-05 at cycle   4 NSaved=   4.
 NSaved= 4 IEnMin= 4 EnMin= -78.5516356408265     IErMin= 4 ErrMin= 4.30D-05
 ErrMax= 4.30D-05  0.00D+00 EMaxC= 1.00D-01 BMatC= 1.22D-07 BMatP= 4.86D-05
 IDIUse=1 WtCom= 1.00D+00 WtEn= 0.00D+00
 Coeff-Com: -0.244D-02-0.152D-01 0.106D-01 0.101D+01
 Coeff:     -0.244D-02-0.152D-01 0.106D-01 0.101D+01
 Gap=     0.389 Goal=   None    Shift=    0.000
 Gap=     0.389 Goal=   None    Shift=    0.000
 RMSDP=3.27D-06 MaxDP=3.19D-05 DE=-1.22D-05 OVMax= 1.25D-04

 Cycle   5  Pass 1  IDiag  1:
 E= -78.5516356949519     Delta-E=       -0.000000054125 Rises=F Damp=F
 DIIS: error= 5.63D-06 at cycle   5 NSaved=   5.
 NSaved= 5 IEnMin= 5 EnMin= -78.5516356949519     IErMin= 5 ErrMin= 5.63D-06
 ErrMax= 5.63D-06  0.00D+00 EMaxC= 1.00D-01 BMatC= 4.13D-09 BMatP= 1.22D-07
 IDIUse=1 WtCom= 1.00D+00 WtEn= 0.00D+00
 Coeff-Com:  0.196D-03-0.117D-01-0.150D-01 0.104D+00 0.922D+00
 Coeff:      0.196D-03-0.117D-01-0.150D-01 0.104D+00 0.922D+00
 Gap=     0.389 Goal=   None    Shift=    0.000
 Gap=     0.389 Goal=   None    Shift=    0.000
 RMSDP=5.09D-07 MaxDP=3.65D-06 DE=-5.41D-08 OVMax= 1.90D-05

 Cycle   6  Pass 1  IDiag  1:
 E= -78.5516356964447     Delta-E=       -0.000000001493 Rises=F Damp=F
 DIIS: error= 7.87D-07 at cycle   6 NSaved=   6.
 NSaved= 6 IEnMin= 6 EnMin= -78.5516356964447     IErMin= 6 ErrMin= 7.87D-07
 ErrMax= 7.87D-07  0.00D+00 EMaxC= 1.00D-01 BMatC= 3.42D-11 BMatP= 4.13D-09
 IDIUse=1 WtCom= 1.00D+00 WtEn= 0.00D+00
 Coeff-Com:  0.395D-04 0.789D-03 0.392D-03-0.228D-01-0.619D-01 0.108D+01
 Coeff:      0.395D-04 0.789D-03 0.392D-03-0.228D-01-0.619D-01 0.108D+01
 Gap=     0.389 Goal=   None    Shift=    0.000
 Gap=     0.389 Goal=   None    Shift=    0.000
 RMSDP=1.17D-07 MaxDP=1.30D-06 DE=-1.49D-09 OVMax= 4.32D-06

 Cycle   7  Pass 1  IDiag  1:
 E= -78.5516356964737     Delta-E=       -0.000000000029 Rises=F Damp=F
 DIIS: error= 6.18D-08 at cycle   7 NSaved=   7.
 NSaved= 7 IEnMin= 7 EnMin= -78.5516356964737     IErMin= 7 ErrMin= 6.18D-08
 ErrMax= 6.18D-08  0.00D+00 EMaxC= 1.00D-01 BMatC= 2.84D-13 BMatP= 3.42D-11
 IDIUse=1 WtCom= 1.00D+00 WtEn= 0.00D+00
 Coeff-Com: -0.734D-05 0.805D-05 0.582D-04 0.191D-02 0.149D-02-0.136D+00
 Coeff-Com:  0.113D+01
 Coeff:     -0.734D-05 0.805D-05 0.582D-04 0.191D-02 0.149D-02-0.136D+00
 Coeff:      0.113D+01
 Gap=     0.389 Goal=   None    Shift=    0.000
 Gap=     0.389 Goal=   None    Shift=    0.000
 RMSDP=9.09D-09 MaxDP=7.27D-08 DE=-2.90D-11 OVMax= 4.11D-07

 SCF Done:  E(UM062X) =  -78.5516356965     A.U. after    7 cycles
            NFock=  7  Conv=0.91D-08     -V/T= 2.0002
 <Sx>= 0.0000 <Sy>= 0.0000 <Sz>= 0.0000 <S**2>=-0.0000 S=-0.0000
 <L.S>=  0.00000000000    
 KE= 7.853583684312D+01 PE=-2.515705273533D+02 EE= 5.969012770950D+01
 Annihilation of the first spin contaminant:
 S**2 before annihilation    -0.0000,   after    -0.0000
 Leave Link  502 at Tue Nov 19 10:34:01 2024, MaxMem=   536870912 cpu:              36.1 elap:               4.6
 (Enter /home/szhao/Apps/g16/l701.exe)
 ... and contract with generalized density number  0.
 Compute integral first derivatives.
 Leave Link  701 at Tue Nov 19 10:34:02 2024, MaxMem=   536870912 cpu:               0.8 elap:               0.1
 (Enter /home/szhao/Apps/g16/l702.exe)
 L702 exits ... SP integral derivatives will be done elsewhere.
 Leave Link  702 at Tue Nov 19 10:34:02 2024, MaxMem=   536870912 cpu:               0.3 elap:               0.0
 (Enter /home/szhao/Apps/g16/l703.exe)
 Integral derivatives from FoFJK, PRISM(SPDF).
 Compute integral first derivatives, UseDBF=F ICtDFT=           0.
 Calling FoFJK, ICntrl=      2127 FMM=F ISym2X=0 I1Cent= 0 IOpClX= 1 NMat=1 NMatS=1 NMatT=0.
 FoFJK:  IHMeth= 1 ICntrl=    2127 DoSepK=F KAlg= 0 I1Cent=           0 FoldK=F
 IRaf=         0 NMat=       1 IRICut=       1 DoRegI=T DoRafI=F ISym2E= 0 IDoP0=0 IntGTp=1.
 FoFCou: FMM=F IPFlag=           0 FMFlag=      100000 FMFlg1=         800
         NFxFlg=           0 DoJE=F BraDBF=F KetDBF=F FulRan=T
         wScrn=  0.000000 ICntrl=      2127 IOpCl=  1 I1Cent=           0 NGrid=           0
         NMat0=    1 NMatS0=      1 NMatT0=    0 NMatD0=    1 NMtDS0=    0 NMtDT0=    0
 Symmetry not used in FoFCou.
 Leave Link  703 at Tue Nov 19 10:34:03 2024, MaxMem=   536870912 cpu:               9.8 elap:               1.2
 (Enter /home/szhao/Apps/g16/l716.exe)
 Dipole        = 6.70574707D-14-5.32907052D-15 4.35644862D-13
 -------------------------------------------------------------------
 Center     Atomic                   Forces (Hartrees/Bohr)
 Number     Number              X              Y              Z
 -------------------------------------------------------------------
      1        6          -0.000000000   -0.000000000   -0.000000000
      2        6          -0.000000000   -0.000000000   -0.000000000
      3        1          -0.002557778    0.000893554   -0.000000000
      4        1          -0.002532911   -0.001036979   -0.000000000
      5        1           0.002557778   -0.000893554    0.000000000
      6        1           0.002532911    0.001036979    0.000000000
 -------------------------------------------------------------------
 Cartesian Forces:  Max     0.002557778 RMS     0.001283728
 Leave Link  716 at Tue Nov 19 10:34:03 2024, MaxMem=   536870912 cpu:               0.3 elap:               0.0
 (Enter /home/szhao/Apps/g16/l103.exe)

 GradGradGradGradGradGradGradGradGradGradGradGradGradGradGradGradGradGrad
 Berny optimization.
 Using GEDIIS/GDIIS optimizer.
 FormGI is forming the generalized inverse of G from B-inverse, IUseBI=4.
 Internal  Forces:  Max     0.005090689 RMS     0.002157609
 Search for a local minimum.
 Step number   2 out of a maximum of   30
 All quantities printed in internal units (Hartrees-Bohrs-Radians)
 RMS Force = .17146D-02 SwitMx=.10000D-02 MixMth= 1
 Mixed Optimization -- RFO/linear search
 Update second derivatives using D2CorX and points    1    2
 DE= -2.79D-03 DEPred=-2.45D-03 R= 1.14D+00
 TightC=F SS=  1.41D+00  RLast= 1.43D-01 DXNew= 5.0454D-01 4.2904D-01
 Trust test= 1.14D+00 RLast= 1.43D-01 DXMaxT set to 4.29D-01
 The second derivative matrix:
                          X1        Y1        Z1        X2        Y2
           X1           0.65556
           Y1           0.01078   0.50075
           Z1          -0.00000  -0.00000   0.50000
           X2          -0.15556  -0.01078   0.00000   0.65556
           Y2          -0.01078  -0.00075   0.00000   0.01078   0.50075
           Z2           0.00000   0.00000  -0.00000  -0.00000  -0.00000
           R1          -0.09843  -0.00682   0.00000   0.09843   0.00682
           R2          -0.08935  -0.00619   0.00000   0.08935   0.00619
           R3          -0.09843  -0.00682   0.00000   0.09843   0.00682
           R4          -0.08935  -0.00619   0.00000   0.08935   0.00619
           A1          -0.02216  -0.00154   0.00000   0.02216   0.00154
           A2          -0.02520  -0.00175   0.00000   0.02520   0.00175
           A3           0.04735   0.00328  -0.00000  -0.04735  -0.00328
           A4          -0.02216  -0.00154   0.00000   0.02216   0.00154
           A5          -0.02520  -0.00175   0.00000   0.02520   0.00175
           A6           0.04735   0.00328  -0.00000  -0.04735  -0.00328
           D1          -0.00000  -0.00000   0.00000   0.00000   0.00000
           D2          -0.00000  -0.00000   0.00000   0.00000   0.00000
           D3           0.00000   0.00000  -0.00000  -0.00000  -0.00000
           D4           0.00000   0.00000  -0.00000  -0.00000  -0.00000
                          Z2        R1        R2        R3        R4
           Z2           0.50000
           R1          -0.00000   0.38866
           R2          -0.00000   0.00673   0.38499
           R3          -0.00000   0.00710   0.00673   0.38866
           R4          -0.00000   0.00673   0.00637   0.00673   0.38499
           A1          -0.00000  -0.00364  -0.00321  -0.00364  -0.00321
           A2          -0.00000  -0.00370  -0.00326  -0.00370  -0.00326
           A3           0.00000   0.00734   0.00647   0.00734   0.00647
           A4          -0.00000  -0.00364  -0.00321  -0.00364  -0.00321
           A5          -0.00000  -0.00370  -0.00326  -0.00370  -0.00326
           A6           0.00000   0.00734   0.00647   0.00734   0.00647
           D1          -0.00000   0.00000   0.00000   0.00000   0.00000
           D2          -0.00000   0.00000   0.00000   0.00000   0.00000
           D3           0.00000  -0.00000  -0.00000  -0.00000  -0.00000
           D4           0.00000  -0.00000  -0.00000  -0.00000  -0.00000
                          A1        A2        A3        A4        A5
           A1           0.15751
           A2          -0.00270   0.15709
           A3           0.00519   0.00561   0.14920
           A4          -0.00249  -0.00270   0.00519   0.15751
           A5          -0.00270  -0.00291   0.00561  -0.00270   0.15709
           A6           0.00519   0.00561  -0.01080   0.00519   0.00561
           D1           0.00000   0.00000  -0.00000   0.00000   0.00000
           D2           0.00000   0.00000  -0.00000   0.00000   0.00000
           D3          -0.00000  -0.00000   0.00000  -0.00000  -0.00000
           D4          -0.00000  -0.00000   0.00000  -0.00000  -0.00000
                          A6        D1        D2        D3        D4
           A6           0.14920
           D1          -0.00000   0.04299
           D2          -0.00000   0.00000   0.04299
           D3           0.00000  -0.00000  -0.00000   0.04299
           D4           0.00000  -0.00000  -0.00000   0.00000   0.04299
 ITU=  1  0
 Use linear search instead of GDIIS.
     Eigenvalues ---    0.04299   0.04299   0.04299   0.12553   0.16000
     Eigenvalues ---    0.16000   0.16000   0.37862   0.37992   0.38156
     Eigenvalues ---    0.409251000.000001000.000001000.000001000.00000
     Eigenvalues --- 1000.000001000.000001000.000001000.000001000.00000
 RFO step:  Lambda=-1.61688587D-04 EMin= 4.29861394D-02
 Quartic linear search produced a step of  0.21956.
 Iteration  1 RMS(Cart)=  0.01400505 RMS(Int)=  0.00010754
 Iteration  2 RMS(Cart)=  0.00010816 RMS(Int)=  0.00000000
 Iteration  3 RMS(Cart)=  0.00000000 RMS(Int)=  0.00000000
 ITry= 1 IFail=0 DXMaxC= 2.87D-02 DCOld= 1.00D+10 DXMaxT= 4.29D-01 DXLimC= 3.00D+00 Rises=F
 Variable       Old X    -DE/DX   Delta X   Delta X   Delta X     New X
                                 (Linear)    (Quad)   (Total)
    X1       -1.16496  -0.00509   0.00000   0.00000   0.00000  -1.16496
    Y1        0.00000  -0.00024   0.00000   0.00000   0.00000   0.00000
    Z1        0.00000  -0.00000   0.00000   0.00000   0.00000   0.00000
    X2        1.16496   0.00509   0.00000   0.00000   0.00000   1.16496
    Y2        0.00000   0.00024   0.00000   0.00000   0.00000   0.00000
    Z2        0.00000   0.00000   0.00000   0.00000   0.00000   0.00000
    R1        2.05063   0.00059   0.00928  -0.00598   0.00330   2.05393
    R2        2.05109   0.00045   0.00844  -0.00569   0.00274   2.05383
    R3        2.05063   0.00059   0.00928  -0.00598   0.00330   2.05393
    R4        2.05109   0.00045   0.00844  -0.00569   0.00274   2.05383
    A1        2.12479   0.00177   0.00708   0.00761   0.01469   2.13948
    A2        2.12396   0.00188   0.00788   0.00781   0.01569   2.13965
    A3        2.03443  -0.00365  -0.01495  -0.01542  -0.03038   2.00405
    A4        2.12479   0.00177   0.00708   0.00761   0.01469   2.13948
    A5        2.12396   0.00188   0.00788   0.00781   0.01569   2.13965
    A6        2.03443  -0.00365  -0.01495  -0.01542  -0.03038   2.00405
    D1        3.14159  -0.00000   0.00000  -0.00000   0.00000   3.14159
    D2       -0.00000  -0.00000   0.00000  -0.00000   0.00000   0.00000
    D3        0.00000   0.00000   0.00000   0.00000   0.00000   0.00000
    D4        3.14159   0.00000   0.00000   0.00000   0.00000   3.14159
         Item               Value     Threshold  Converged?
 Maximum Force            0.003654     0.000450     NO 
 RMS     Force            0.001715     0.000300     NO 
 Maximum Displacement     0.028725     0.001800     NO 
 RMS     Displacement     0.014015     0.001200     NO 
 Predicted change in Energy=-1.629564D-04
 Lowest energy point so far.  Saving SCF results.
 GradGradGradGradGradGradGradGradGradGradGradGradGradGradGradGradGradGrad

 Leave Link  103 at Tue Nov 19 10:34:03 2024, MaxMem=   536870912 cpu:               0.0 elap:               0.0
 (Enter /home/szhao/Apps/g16/l202.exe)
                          Input orientation:                          
 ---------------------------------------------------------------------
 Center     Atomic      Atomic             Coordinates (Angstroms)
 Number     Number       Type             X           Y           Z
 ---------------------------------------------------------------------
      1          6           0       -0.616471    0.000000    0.000000
      2          6           0        0.616471    0.000000    0.000000
      3          1           0       -1.201792   -0.915827   -0.000000
      4          1           0       -1.201916    0.915684   -0.000000
      5          1           0        1.201792    0.915827    0.000000
      6          1           0        1.201916   -0.915684    0.000000
 ---------------------------------------------------------------------
                    Distance matrix (angstroms):
                    1          2          3          4          5
     1  C    0.000000
     2  C    1.232942   0.000000
     3  H    1.086895   2.035883   0.000000
     4  H    1.086841   2.035929   1.831511   0.000000
     5  H    2.035883   1.086895   3.021949   2.403708   0.000000
     6  H    2.035929   1.086841   2.403708   3.021972   1.831511
                    6
     6  H    0.000000
 Symmetry turned off by external request.
 Stoichiometry    C2H4
 Framework group  C2H[SGH(C2H4)]
 Deg. of freedom     5
 Full point group                 C2H     NOp   4
 Rotational constants (GHZ):         149.4902524          33.8184186          27.5792951
 Leave Link  202 at Tue Nov 19 10:34:03 2024, MaxMem=   536870912 cpu:               0.0 elap:               0.0
 (Enter /home/szhao/Apps/g16/l301.exe)
 Standard basis: 6-311+G(d,p) (5D, 7F)
 Ernie: Thresh=  0.10000D-02 Tol=  0.10000D-05 Strict=F.
    68 basis functions,   104 primitive gaussians,    70 cartesian basis functions
     8 alpha electrons        8 beta electrons
       nuclear repulsion energy        34.7428569001 Hartrees.
 IExCor= 4336 DFT=T Ex+Corr=M062X ExCW=0 ScaHFX=  0.540000
 ScaDFX=  1.000000  1.000000  1.000000  1.000000 ScalE2=  1.000000  1.000000
 IRadAn=      7 IRanWt=     -1 IRanGd=            0 ICorTp=0 IEmpDi=  4
 NAtoms=    6 NActive=    6 NUniq=    6 SFac= 1.00D+00 NAtFMM=   60 NAOKFM=F Big=F
 Integral buffers will be    131072 words long.
 Raffenetti 2 integral format.
 Two-electron integral symmetry is turned off.
 Leave Link  301 at Tue Nov 19 10:34:03 2024, MaxMem=   536870912 cpu:               0.3 elap:               0.0
 (Enter /home/szhao/Apps/g16/l302.exe)
 NPDir=0 NMtPBC=     1 NCelOv=     1 NCel=       1 NClECP=     1 NCelD=      1
         NCelK=      1 NCelE2=     1 NClLst=     1 CellRange=     0.0.
 One-electron integrals computed using PRISM.
 NBasis=    68 RedAO= T EigKep=  9.48D-05  NBF=    68
 NBsUse=    68 1.00D-06 EigRej= -1.00D+00 NBFU=    68
 Precomputing XC quadrature grid using
 IXCGrd= 4 IRadAn=           7 IRanWt=          -1 IRanGd=           0 AccXCQ= 0.00D+00.
 Generated NRdTot=       0 NPtTot=           0 NUsed=           0 NTot=          32
 NSgBfM=    70    70    70    70    70 MxSgAt=     6 MxSgA2=     6.
 Leave Link  302 at Tue Nov 19 10:34:03 2024, MaxMem=   536870912 cpu:               1.1 elap:               0.1
 (Enter /home/szhao/Apps/g16/l303.exe)
 DipDrv:  MaxL=1.
 Leave Link  303 at Tue Nov 19 10:34:03 2024, MaxMem=   536870912 cpu:               0.3 elap:               0.0
 (Enter /home/szhao/Apps/g16/l401.exe)
 Initial guess from the checkpoint file:  "opt.chk"
 B after Tr=    -0.000000    0.000000   -0.000000
         Rot=    1.000000    0.000000    0.000000   -0.000124 Ang=  -0.01 deg.
 Guess basis will be translated and rotated to current coordinates.
 JPrj=2 DoOrth=T DoCkMO=T.
 Initial guess <Sx>= 0.0000 <Sy>= 0.0000 <Sz>= 0.0000 <S**2>=-0.0000 S=-0.0000
 Generating alternative initial guess.
 ExpMin= 4.38D-02 ExpMax= 4.56D+03 ExpMxC= 6.82D+02 IAcc=3 IRadAn=         5 AccDes= 0.00D+00
 Harris functional with IExCor= 1009 and IRadAn=       5 diagonalized for initial guess.
 HarFok:  IExCor= 1009 AccDes= 0.00D+00 IRadAn=         5 IDoV= 1 UseB2=F ITyADJ=14
 ICtDFT=  3500011 ScaDFX=  1.000000  1.000000  1.000000  1.000000
 FoFCou: FMM=F IPFlag=           0 FMFlag=      100000 FMFlg1=           0
         NFxFlg=           0 DoJE=T BraDBF=F KetDBF=T FulRan=T
         wScrn=  0.000000 ICntrl=       500 IOpCl=  0 I1Cent=   200000004 NGrid=           0
         NMat0=    1 NMatS0=      1 NMatT0=    0 NMatD0=    1 NMtDS0=    0 NMtDT0=    0
 Symmetry not used in FoFCou.
 Harris En= -78.5785312652718    
 Leave Link  401 at Tue Nov 19 10:34:03 2024, MaxMem=   536870912 cpu:               2.0 elap:               0.3
 (Enter /home/szhao/Apps/g16/l502.exe)
 Keep R1 and R2 ints in memory in canonical form, NReq=12681614.
 FoFCou: FMM=F IPFlag=           0 FMFlag=           0 FMFlg1=           0
         NFxFlg=           0 DoJE=F BraDBF=F KetDBF=F FulRan=T
         wScrn=  0.000000 ICntrl=       600 IOpCl=  0 I1Cent=           0 NGrid=           0
         NMat0=    1 NMatS0=   2346 NMatT0=    0 NMatD0=    1 NMtDS0=    0 NMtDT0=    0
 Symmetry not used in FoFCou.
 Two-electron integral symmetry not used.
 UHF open shell SCF:
 Using DIIS extrapolation, IDIIS=  1040.
 NGot=   536870912 LenX=   531353794 LenY=   531348453
 Requested convergence on RMS density matrix=1.00D-08 within 128 cycles.
 Requested convergence on MAX density matrix=1.00D-06.
 Requested convergence on             energy=1.00D-06.
 No special actions if energy rises.

 Cycle   1  Pass 1  IDiag  1:
 E= -78.5517804374102    
 DIIS: error= 7.25D-04 at cycle   1 NSaved=   1.
 NSaved= 1 IEnMin= 1 EnMin= -78.5517804374102     IErMin= 1 ErrMin= 7.25D-04
 ErrMax= 7.25D-04  0.00D+00 EMaxC= 1.00D-01 BMatC= 1.17D-04 BMatP= 1.17D-04
 IDIUse=3 WtCom= 9.93D-01 WtEn= 7.25D-03
 Coeff-Com:  0.100D+01
 Coeff-En:   0.100D+01
 Coeff:      0.100D+01
 Gap=     0.593 Goal=   None    Shift=    0.000
 Gap=     0.593 Goal=   None    Shift=    0.000
 RMSDP=8.40D-05 MaxDP=1.17D-03              OVMax= 1.62D-03

 Cycle   2  Pass 1  IDiag  1:
 E= -78.5518090002301     Delta-E=       -0.000028562820 Rises=F Damp=F
 DIIS: error= 1.54D-04 at cycle   2 NSaved=   2.
 NSaved= 2 IEnMin= 2 EnMin= -78.5518090002301     IErMin= 2 ErrMin= 1.54D-04
 ErrMax= 1.54D-04  0.00D+00 EMaxC= 1.00D-01 BMatC= 2.18D-06 BMatP= 1.17D-04
 IDIUse=3 WtCom= 9.98D-01 WtEn= 1.54D-03
 Coeff-Com: -0.563D-01 0.106D+01
 Coeff-En:   0.000D+00 0.100D+01
 Coeff:     -0.562D-01 0.106D+01
 Gap=     0.388 Goal=   None    Shift=    0.000
 Gap=     0.388 Goal=   None    Shift=    0.000
 RMSDP=1.25D-05 MaxDP=1.74D-04 DE=-2.86D-05 OVMax= 4.36D-04

 Cycle   3  Pass 1  IDiag  1:
 E= -78.5518095645265     Delta-E=       -0.000000564296 Rises=F Damp=F
 DIIS: error= 9.22D-05 at cycle   3 NSaved=   3.
 NSaved= 3 IEnMin= 3 EnMin= -78.5518095645265     IErMin= 3 ErrMin= 9.22D-05
 ErrMax= 9.22D-05  0.00D+00 EMaxC= 1.00D-01 BMatC= 8.05D-07 BMatP= 2.18D-06
 IDIUse=1 WtCom= 1.00D+00 WtEn= 0.00D+00
 Coeff-Com: -0.355D-01 0.410D+00 0.625D+00
 Coeff:     -0.355D-01 0.410D+00 0.625D+00
 Gap=     0.388 Goal=   None    Shift=    0.000
 Gap=     0.388 Goal=   None    Shift=    0.000
 RMSDP=4.58D-06 MaxDP=7.67D-05 DE=-5.64D-07 OVMax= 1.47D-04

 Cycle   4  Pass 1  IDiag  1:
 E= -78.5518097651198     Delta-E=       -0.000000200593 Rises=F Damp=F
 DIIS: error= 1.06D-05 at cycle   4 NSaved=   4.
 NSaved= 4 IEnMin= 4 EnMin= -78.5518097651198     IErMin= 4 ErrMin= 1.06D-05
 ErrMax= 1.06D-05  0.00D+00 EMaxC= 1.00D-01 BMatC= 1.50D-08 BMatP= 8.05D-07
 IDIUse=1 WtCom= 1.00D+00 WtEn= 0.00D+00
 Coeff-Com: -0.972D-03-0.205D-01 0.883D-01 0.933D+00
 Coeff:     -0.972D-03-0.205D-01 0.883D-01 0.933D+00
 Gap=     0.388 Goal=   None    Shift=    0.000
 Gap=     0.388 Goal=   None    Shift=    0.000
 RMSDP=7.64D-07 MaxDP=1.28D-05 DE=-2.01D-07 OVMax= 2.92D-05

 Cycle   5  Pass 1  IDiag  1:
 E= -78.5518097699459     Delta-E=       -0.000000004826 Rises=F Damp=F
 DIIS: error= 1.61D-06 at cycle   5 NSaved=   5.
 NSaved= 5 IEnMin= 5 EnMin= -78.5518097699459     IErMin= 5 ErrMin= 1.61D-06
 ErrMax= 1.61D-06  0.00D+00 EMaxC= 1.00D-01 BMatC= 2.00D-10 BMatP= 1.50D-08
 IDIUse=1 WtCom= 1.00D+00 WtEn= 0.00D+00
 Coeff-Com:  0.103D-02-0.148D-01-0.119D-01 0.868D-01 0.939D+00
 Coeff:      0.103D-02-0.148D-01-0.119D-01 0.868D-01 0.939D+00
 Gap=     0.388 Goal=   None    Shift=    0.000
 Gap=     0.388 Goal=   None    Shift=    0.000
 RMSDP=1.64D-07 MaxDP=1.11D-06 DE=-4.83D-09 OVMax= 4.80D-06

 Cycle   6  Pass 1  IDiag  1:
 E= -78.5518097700175     Delta-E=       -0.000000000072 Rises=F Damp=F
 DIIS: error= 9.44D-08 at cycle   6 NSaved=   6.
 NSaved= 6 IEnMin= 6 EnMin= -78.5518097700175     IErMin= 6 ErrMin= 9.44D-08
 ErrMax= 9.44D-08  0.00D+00 EMaxC= 1.00D-01 BMatC= 1.10D-12 BMatP= 2.00D-10
 IDIUse=1 WtCom= 1.00D+00 WtEn= 0.00D+00
 Coeff-Com: -0.707D-04 0.141D-02-0.106D-03-0.183D-01-0.686D-01 0.109D+01
 Coeff:     -0.707D-04 0.141D-02-0.106D-03-0.183D-01-0.686D-01 0.109D+01
 Gap=     0.388 Goal=   None    Shift=    0.000
 Gap=     0.388 Goal=   None    Shift=    0.000
 RMSDP=2.09D-08 MaxDP=1.66D-07 DE=-7.16D-11 OVMax= 5.58D-07

 Cycle   7  Pass 1  IDiag  1:
 E= -78.5518097700182     Delta-E=       -0.000000000001 Rises=F Damp=F
 DIIS: error= 1.25D-08 at cycle   7 NSaved=   7.
 NSaved= 7 IEnMin= 7 EnMin= -78.5518097700182     IErMin= 7 ErrMin= 1.25D-08
 ErrMax= 1.25D-08  0.00D+00 EMaxC= 1.00D-01 BMatC= 1.22D-14 BMatP= 1.10D-12
 IDIUse=1 WtCom= 1.00D+00 WtEn= 0.00D+00
 Coeff-Com: -0.407D-05 0.253D-04 0.157D-03 0.102D-02-0.665D-02-0.784D-01
 Coeff-Com:  0.108D+01
 Coeff:     -0.407D-05 0.253D-04 0.157D-03 0.102D-02-0.665D-02-0.784D-01
 Coeff:      0.108D+01
 Gap=     0.388 Goal=   None    Shift=    0.000
 Gap=     0.388 Goal=   None    Shift=    0.000
 RMSDP=1.88D-09 MaxDP=2.07D-08 DE=-7.11D-13 OVMax= 6.09D-08

 SCF Done:  E(UM062X) =  -78.5518097700     A.U. after    7 cycles
            NFock=  7  Conv=0.19D-08     -V/T= 2.0004
 <Sx>= 0.0000 <Sy>= 0.0000 <Sz>= 0.0000 <S**2>=-0.0000 S=-0.0000
 <L.S>=  0.00000000000    
 KE= 7.852387465165D+01 PE=-2.514584877384D+02 EE= 5.963994641656D+01
 Annihilation of the first spin contaminant:
 S**2 before annihilation    -0.0000,   after    -0.0000
 Leave Link  502 at Tue Nov 19 10:34:08 2024, MaxMem=   536870912 cpu:              34.5 elap:               4.4
 (Enter /home/szhao/Apps/g16/l701.exe)
 ... and contract with generalized density number  0.
 Compute integral first derivatives.
 Leave Link  701 at Tue Nov 19 10:34:08 2024, MaxMem=   536870912 cpu:               0.9 elap:               0.1
 (Enter /home/szhao/Apps/g16/l702.exe)
 L702 exits ... SP integral derivatives will be done elsewhere.
 Leave Link  702 at Tue Nov 19 10:34:08 2024, MaxMem=   536870912 cpu:               0.3 elap:               0.0
 (Enter /home/szhao/Apps/g16/l703.exe)
 Integral derivatives from FoFJK, PRISM(SPDF).
 Compute integral first derivatives, UseDBF=F ICtDFT=           0.
 Calling FoFJK, ICntrl=      2127 FMM=F ISym2X=0 I1Cent= 0 IOpClX= 1 NMat=1 NMatS=1 NMatT=0.
 FoFJK:  IHMeth= 1 ICntrl=    2127 DoSepK=F KAlg= 0 I1Cent=           0 FoldK=F
 IRaf=         0 NMat=       1 IRICut=       1 DoRegI=T DoRafI=F ISym2E= 0 IDoP0=0 IntGTp=1.
 FoFCou: FMM=F IPFlag=           0 FMFlag=      100000 FMFlg1=         800
         NFxFlg=           0 DoJE=F BraDBF=F KetDBF=F FulRan=T
         wScrn=  0.000000 ICntrl=      2127 IOpCl=  1 I1Cent=           0 NGrid=           0
         NMat0=    1 NMatS0=      1 NMatT0=    0 NMatD0=    1 NMtDS0=    0 NMtDT0=    0
 Symmetry not used in FoFCou.
 Leave Link  703 at Tue Nov 19 10:34:09 2024, MaxMem=   536870912 cpu:               8.6 elap:               1.1
 (Enter /home/szhao/Apps/g16/l716.exe)
 Dipole        =-1.14130927D-13 2.86437540D-14-5.04641373D-12
 -------------------------------------------------------------------
 Center     Atomic                   Forces (Hartrees/Bohr)
 Number     Number              X              Y              Z
 -------------------------------------------------------------------
      1        6          -0.000000000   -0.000000000   -0.000000000
      2        6          -0.000000000   -0.000000000   -0.000000000
      3        1           0.000101790    0.000356832    0.000000000
      4        1           0.000094061   -0.000324954    0.000000000
      5        1          -0.000101790   -0.000356832   -0.000000000
      6        1          -0.000094061    0.000324954   -0.000000000
 -------------------------------------------------------------------
 Cartesian Forces:  Max     0.000356832 RMS     0.000167376
 Leave Link  716 at Tue Nov 19 10:34:09 2024, MaxMem=   536870912 cpu:               0.3 elap:               0.0
 (Enter /home/szhao/Apps/g16/l103.exe)

 GradGradGradGradGradGradGradGradGradGradGradGradGradGradGradGradGradGrad
 Berny optimization.
 Using GEDIIS/GDIIS optimizer.
 FormGI is forming the generalized inverse of G from B-inverse, IUseBI=4.
 Internal  Forces:  Max     0.000355486 RMS     0.000173647
 Search for a local minimum.
 Step number   3 out of a maximum of   30
 All quantities printed in internal units (Hartrees-Bohrs-Radians)
 RMS Force = .19295D-03 SwitMx=.10000D-02 MixMth= 2
 Mixed Optimization -- En-DIIS/RFO-DIIS
 Update second derivatives using D2CorX and points    1    2    3
 DE= -1.74D-04 DEPred=-1.63D-04 R= 1.07D+00
 TightC=F SS=  1.41D+00  RLast= 5.30D-02 DXNew= 7.2156D-01 1.5893D-01
 Trust test= 1.07D+00 RLast= 5.30D-02 DXMaxT set to 4.29D-01
 The second derivative matrix:
                          X1        Y1        Z1        X2        Y2
           X1           0.65636
           Y1           0.00950   0.50058
           Z1           0.00000   0.00000   0.50000
           X2          -0.15636  -0.00950  -0.00000   0.65636
           Y2          -0.00950  -0.00058  -0.00000   0.00950   0.50058
           Z2          -0.00000  -0.00000  -0.00000   0.00000   0.00000
           R1          -0.10419  -0.00683  -0.00000   0.10419   0.00683
           R2          -0.09457  -0.00622  -0.00000   0.09457   0.00622
           R3          -0.10419  -0.00683  -0.00000   0.10419   0.00683
           R4          -0.09457  -0.00622  -0.00000   0.09457   0.00622
           A1          -0.02068  -0.00106  -0.00000   0.02068   0.00106
           A2          -0.02405  -0.00126  -0.00000   0.02405   0.00126
           A3           0.04473   0.00233   0.00000  -0.04473  -0.00233
           A4          -0.02068  -0.00106  -0.00000   0.02068   0.00106
           A5          -0.02405  -0.00126  -0.00000   0.02405   0.00126
           A6           0.04473   0.00233   0.00000  -0.04473  -0.00233
           D1           0.00000   0.00000   0.00000  -0.00000  -0.00000
           D2           0.00000   0.00000   0.00000  -0.00000  -0.00000
           D3          -0.00000  -0.00000  -0.00000   0.00000   0.00000
           D4          -0.00000  -0.00000  -0.00000   0.00000   0.00000
                          Z2        R1        R2        R3        R4
           Z2           0.50000
           R1           0.00000   0.39171
           R2           0.00000   0.00943   0.38738
           R3           0.00000   0.01015   0.00943   0.39171
           R4           0.00000   0.00943   0.00876   0.00943   0.38738
           A1           0.00000  -0.00247  -0.00214  -0.00247  -0.00214
           A2           0.00000  -0.00232  -0.00199  -0.00232  -0.00199
           A3          -0.00000   0.00479   0.00413   0.00479   0.00413
           A4           0.00000  -0.00247  -0.00214  -0.00247  -0.00214
           A5           0.00000  -0.00232  -0.00199  -0.00232  -0.00199
           A6          -0.00000   0.00479   0.00413   0.00479   0.00413
           D1          -0.00000  -0.00000  -0.00000  -0.00000  -0.00000
           D2          -0.00000  -0.00000  -0.00000  -0.00000  -0.00000
           D3           0.00000   0.00000   0.00000   0.00000   0.00000
           D4           0.00000   0.00000   0.00000   0.00000   0.00000
                          A1        A2        A3        A4        A5
           A1           0.15661
           A2          -0.00354   0.15632
           A3           0.00693   0.00723   0.14584
           A4          -0.00339  -0.00354   0.00693   0.15661
           A5          -0.00354  -0.00368   0.00723  -0.00354   0.15632
           A6           0.00693   0.00723  -0.01416   0.00693   0.00723
           D1          -0.00000  -0.00000   0.00000  -0.00000  -0.00000
           D2          -0.00000  -0.00000   0.00000  -0.00000  -0.00000
           D3           0.00000   0.00000  -0.00000   0.00000   0.00000
           D4           0.00000   0.00000  -0.00000   0.00000   0.00000
                          A6        D1        D2        D3        D4
           A6           0.14584
           D1           0.00000   0.04299
           D2           0.00000   0.00000   0.04299
           D3          -0.00000  -0.00000  -0.00000   0.04299
           D4          -0.00000  -0.00000  -0.00000   0.00000   0.04299
 ITU=  1  1  0
 Use linear search instead of GDIIS.
     Eigenvalues ---    0.04299   0.04299   0.04299   0.11672   0.16000
     Eigenvalues ---    0.16000   0.16001   0.37862   0.37992   0.38156
     Eigenvalues ---    0.418881000.000001000.000001000.000001000.00000
     Eigenvalues --- 1000.000001000.000001000.000001000.000001000.00000
 RFO step:  Lambda=-1.28762195D-06 EMin= 4.29861394D-02
 Quartic linear search produced a step of  0.02553.
 Iteration  1 RMS(Cart)=  0.00060077 RMS(Int)=  0.00000020
 Iteration  2 RMS(Cart)=  0.00000022 RMS(Int)=  0.00000000
 ITry= 1 IFail=0 DXMaxC= 1.34D-03 DCOld= 1.00D+10 DXMaxT= 4.29D-01 DXLimC= 3.00D+00 Rises=F
 Variable       Old X    -DE/DX   Delta X   Delta X   Delta X     New X
                                 (Linear)    (Quad)   (Total)
    X1       -1.16496   0.00020   0.00000   0.00000   0.00000  -1.16496
    Y1        0.00000   0.00005   0.00000   0.00000   0.00000   0.00000
    Z1        0.00000   0.00000   0.00000   0.00000   0.00000   0.00000
    X2        1.16496  -0.00020   0.00000   0.00000   0.00000   1.16496
    Y2        0.00000  -0.00005   0.00000   0.00000   0.00000   0.00000
    Z2        0.00000  -0.00000   0.00000   0.00000   0.00000   0.00000
    R1        2.05393  -0.00036   0.00008  -0.00090  -0.00081   2.05312
    R2        2.05383  -0.00032   0.00007  -0.00082  -0.00075   2.05308
    R3        2.05393  -0.00036   0.00008  -0.00090  -0.00081   2.05312
    R4        2.05383  -0.00032   0.00007  -0.00082  -0.00075   2.05308
    A1        2.13948   0.00008   0.00038   0.00022   0.00059   2.14008
    A2        2.13965   0.00006   0.00040   0.00006   0.00046   2.14011
    A3        2.00405  -0.00014  -0.00078  -0.00028  -0.00106   2.00299
    A4        2.13948   0.00008   0.00038   0.00022   0.00059   2.14008
    A5        2.13965   0.00006   0.00040   0.00006   0.00046   2.14011
    A6        2.00405  -0.00014  -0.00078  -0.00028  -0.00106   2.00299
    D1        3.14159   0.00000   0.00000   0.00000   0.00000   3.14159
    D2       -0.00000   0.00000   0.00000   0.00000   0.00000   0.00000
    D3        0.00000  -0.00000   0.00000  -0.00000  -0.00000   0.00000
    D4        3.14159  -0.00000   0.00000  -0.00000   0.00000   3.14159
         Item               Value     Threshold  Converged?
 Maximum Force            0.000355     0.000450     YES
 RMS     Force            0.000193     0.000300     YES
 Maximum Displacement     0.001339     0.001800     YES
 RMS     Displacement     0.000601     0.001200     YES
 Predicted change in Energy=-7.522025D-07
 Optimization completed.
    -- Stationary point found.
                           ----------------------------
                           !   Optimized Parameters   !
                           ! (Angstroms and Degrees)  !
 --------------------------                            --------------------------
 ! Name  Definition              Value          Derivative Info.                !
 --------------------------------------------------------------------------------
 ! X1    R(1,-1)                -0.6165         -DE/DX =    0.0002              !
 ! Y1    R(1,-2)                 0.0            -DE/DX =    0.0001              !
 ! Z1    R(1,-3)                 0.0            -DE/DX =    0.0                 !
 ! X2    R(2,-1)                 0.6165         -DE/DX =   -0.0002              !
 ! Y2    R(2,-2)                 0.0            -DE/DX =   -0.0001              !
 ! Z2    R(2,-3)                 0.0            -DE/DX =    0.0                 !
 ! R1    R(1,3)                  1.0869         -DE/DX =   -0.0004              !
 ! R2    R(1,4)                  1.0868         -DE/DX =   -0.0003              !
 ! R3    R(2,5)                  1.0869         -DE/DX =   -0.0004              !
 ! R4    R(2,6)                  1.0868         -DE/DX =   -0.0003              !
 ! A1    A(2,1,3)              122.5834         -DE/DX =    0.0001              !
 ! A2    A(2,1,4)              122.5929         -DE/DX =    0.0001              !
 ! A3    A(3,1,4)              114.8237         -DE/DX =   -0.0001              !
 ! A4    A(1,2,5)              122.5834         -DE/DX =    0.0001              !
 ! A5    A(1,2,6)              122.5929         -DE/DX =    0.0001              !
 ! A6    A(5,2,6)              114.8237         -DE/DX =   -0.0001              !
 ! D1    D(3,1,2,5)            180.0            -DE/DX =    0.0                 !
 ! D2    D(3,1,2,6)              0.0            -DE/DX =    0.0                 !
 ! D3    D(4,1,2,5)              0.0            -DE/DX =    0.0                 !
 ! D4    D(4,1,2,6)            180.0            -DE/DX =    0.0                 !
 --------------------------------------------------------------------------------
 Lowest energy point so far.  Saving SCF results.
 Largest change from initial coordinates is atom    6       0.060 Angstoms.
 GradGradGradGradGradGradGradGradGradGradGradGradGradGradGradGradGradGrad

 Leave Link  103 at Tue Nov 19 10:34:09 2024, MaxMem=   536870912 cpu:               0.0 elap:               0.0
 (Enter /home/szhao/Apps/g16/l202.exe)
                          Input orientation:                          
 ---------------------------------------------------------------------
 Center     Atomic      Atomic             Coordinates (Angstroms)
 Number     Number       Type             X           Y           Z
 ---------------------------------------------------------------------
      1          6           0       -0.616471    0.000000    0.000000
      2          6           0        0.616471    0.000000    0.000000
      3          1           0       -1.201792   -0.915827   -0.000000
      4          1           0       -1.201916    0.915684   -0.000000
      5          1           0        1.201792    0.915827    0.000000
      6          1           0        1.201916   -0.915684    0.000000
 ---------------------------------------------------------------------
                    Distance matrix (angstroms):
                    1          2          3          4          5
     1  C    0.000000
     2  C    1.232942   0.000000
     3  H    1.086895   2.035883   0.000000
     4  H    1.086841   2.035929   1.831511   0.000000
     5  H    2.035883   1.086895   3.021949   2.403708   0.000000
     6  H    2.035929   1.086841   2.403708   3.021972   1.831511
                    6
     6  H    0.000000
 Symmetry turned off by external request.
 Stoichiometry    C2H4
 Framework group  C2H[SGH(C2H4)]
 Deg. of freedom     5
 Full point group                 C2H     NOp   4
 Rotational constants (GHZ):         149.4902524          33.8184186          27.5792951
 Leave Link  202 at Tue Nov 19 10:34:09 2024, MaxMem=   536870912 cpu:               0.0 elap:               0.0
 (Enter /home/szhao/Apps/g16/l601.exe)
 Copying SCF densities to generalized density rwf, IOpCl= 1 IROHF=0.

 **********************************************************************

            Population analysis using the SCF density.

 **********************************************************************

 Alpha  occ. eigenvalues --  -10.52349 -10.52137  -0.88434  -0.65352  -0.55080
 Alpha  occ. eigenvalues --   -0.50019  -0.40055  -0.35419
 Alpha virt. eigenvalues --    0.03400   0.04159   0.04231   0.04967   0.07450
 Alpha virt. eigenvalues --    0.08366   0.09746   0.14491   0.16088   0.17557
 Alpha virt. eigenvalues --    0.19599   0.23693   0.32133   0.38211   0.44242
 Alpha virt. eigenvalues --    0.44913   0.53838   0.56654   0.58381   0.64361
 Alpha virt. eigenvalues --    0.65581   0.74669   0.77856   0.78140   0.80547
 Alpha virt. eigenvalues --    0.98378   1.04180   1.18552   1.18822   1.40088
 Alpha virt. eigenvalues --    1.49186   1.49258   1.65440   1.67351   1.67852
 Alpha virt. eigenvalues --    1.67995   1.80597   1.83145   2.02826   2.09745
 Alpha virt. eigenvalues --    2.19856   2.20119   2.22471   2.31020   2.36358
 Alpha virt. eigenvalues --    2.50748   2.58644   2.60486   2.67391   2.75625
 Alpha virt. eigenvalues --    2.80602   2.86959   2.97723   3.27771   3.65962
 Alpha virt. eigenvalues --    3.68720   3.91110   4.04970  23.77298  24.75904
  Beta  occ. eigenvalues --  -10.52349 -10.52137  -0.88434  -0.65352  -0.55080
  Beta  occ. eigenvalues --   -0.50019  -0.40055  -0.35419
  Beta virt. eigenvalues --    0.03400   0.04159   0.04231   0.04967   0.07450
  Beta virt. eigenvalues --    0.08366   0.09746   0.14491   0.16088   0.17557
  Beta virt. eigenvalues --    0.19599   0.23693   0.32133   0.38211   0.44242
  Beta virt. eigenvalues --    0.44913   0.53838   0.56654   0.58381   0.64361
  Beta virt. eigenvalues --    0.65581   0.74669   0.77856   0.78140   0.80547
  Beta virt. eigenvalues --    0.98378   1.04180   1.18552   1.18822   1.40088
  Beta virt. eigenvalues --    1.49186   1.49258   1.65440   1.67351   1.67852
  Beta virt. eigenvalues --    1.67995   1.80597   1.83145   2.02826   2.09745
  Beta virt. eigenvalues --    2.19856   2.20119   2.22471   2.31020   2.36358
  Beta virt. eigenvalues --    2.50748   2.58644   2.60486   2.67391   2.75625
  Beta virt. eigenvalues --    2.80602   2.86959   2.97723   3.27771   3.65962
  Beta virt. eigenvalues --    3.68720   3.91110   4.04970  23.77298  24.75904
          Condensed to atoms (all electrons):
               1          2          3          4          5          6
     1  C    4.830592   0.699488   0.408625   0.408625  -0.031277  -0.031258
     2  C    0.699488   4.830592  -0.031277  -0.031258   0.408625   0.408625
     3  H    0.408625  -0.031277   0.517883  -0.032382   0.007227  -0.012464
     4  H    0.408625  -0.031258  -0.032382   0.517849  -0.012464   0.007224
     5  H   -0.031277   0.408625   0.007227  -0.012464   0.517883  -0.032382
     6  H   -0.031258   0.408625  -0.012464   0.007224  -0.032382   0.517849
          Atomic-Atomic Spin Densities.
               1          2          3          4          5          6
     1  C   -0.000000   0.000000  -0.000000  -0.000000  -0.000000   0.000000
     2  C    0.000000   0.000000   0.000000   0.000000   0.000000  -0.000000
     3  H   -0.000000   0.000000   0.000000   0.000000   0.000000  -0.000000
     4  H   -0.000000   0.000000   0.000000   0.000000  -0.000000  -0.000000
     5  H   -0.000000   0.000000   0.000000  -0.000000  -0.000000  -0.000000
     6  H    0.000000  -0.000000  -0.000000  -0.000000  -0.000000   0.000000
 Mulliken charges and spin densities:
               1          2
     1  C   -0.284795  -0.000000
     2  C   -0.284795   0.000000
     3  H    0.142389   0.000000
     4  H    0.142406   0.000000
     5  H    0.142389  -0.000000
     6  H    0.142406  -0.000000
 Sum of Mulliken charges =  -0.00000  -0.00000
 Mulliken charges and spin densities with hydrogens summed into heavy atoms:
               1          2
     1  C    0.000000  -0.000000
     2  C   -0.000000   0.000000
 Electronic spatial extent (au):  <R**2>=             78.7529
 Charge=              0.0000 electrons
 Dipole moment (field-independent basis, Debye):
    X=             -0.0000    Y=              0.0000    Z=             -0.0000  Tot=              0.0000
 Quadrupole moment (field-independent basis, Debye-Ang):
   XX=            -12.3548   YY=            -12.3225   ZZ=            -15.4793
   XY=             -0.0003   XZ=              0.0000   YZ=             -0.0000
 Traceless Quadrupole moment (field-independent basis, Debye-Ang):
   XX=              1.0307   YY=              1.0630   ZZ=             -2.0937
   XY=             -0.0003   XZ=              0.0000   YZ=             -0.0000
 Octapole moment (field-independent basis, Debye-Ang**2):
  XXX=              0.0000  YYY=              0.0000  ZZZ=              0.0000  XYY=              0.0000
  XXY=             -0.0000  XXZ=             -0.0000  XZZ=              0.0000  YZZ=              0.0000
  YYZ=             -0.0000  XYZ=             -0.0000
 Hexadecapole moment (field-independent basis, Debye-Ang**3):
 XXXX=            -63.9148 YYYY=            -27.2388 ZZZZ=            -18.7057 XXXY=             -0.0022
 XXXZ=             -0.0000 YYYX=             -0.0006 YYYZ=              0.0000 ZZZX=             -0.0000
 ZZZY=              0.0000 XXYY=            -12.8003 XXZZ=            -14.6756 YYZZ=             -8.3549
 XXYZ=              0.0000 YYXZ=              0.0000 ZZXY=             -0.0003
 N-N= 3.474285690014D+01 E-N=-2.514584876647D+02  KE= 7.852387465165D+01
                          Isotropic Fermi Contact Couplings
        Atom                 a.u.       MegaHertz       Gauss      10(-4) cm-1
     1  C(13)             -0.00000      -0.00000      -0.00000      -0.00000
     2  C(13)             -0.00000      -0.00000      -0.00000      -0.00000
     3  H(1)               0.00000       0.00000       0.00000       0.00000
     4  H(1)               0.00000       0.00000       0.00000       0.00000
     5  H(1)              -0.00000      -0.00000      -0.00000      -0.00000
     6  H(1)              -0.00000      -0.00000      -0.00000      -0.00000
 --------------------------------------------------------
       Center         ----  Spin Dipole Couplings  ----
                      3XX-RR        3YY-RR        3ZZ-RR
 --------------------------------------------------------
     1   Atom        0.000000      0.000000      0.000000
     2   Atom        0.000000      0.000000      0.000000
     3   Atom        0.000000      0.000000      0.000000
     4   Atom        0.000000      0.000000      0.000000
     5   Atom        0.000000      0.000000      0.000000
     6   Atom        0.000000      0.000000      0.000000
 --------------------------------------------------------
                        XY            XZ            YZ
 --------------------------------------------------------
     1   Atom        0.000000      0.000000      0.000000
     2   Atom        0.000000      0.000000      0.000000
     3   Atom        0.000000      0.000000      0.000000
     4   Atom        0.000000      0.000000      0.000000
     5   Atom        0.000000      0.000000      0.000000
     6   Atom        0.000000      0.000000      0.000000
 --------------------------------------------------------


 ---------------------------------------------------------------------------------
              Anisotropic Spin Dipole Couplings in Principal Axis System
 ---------------------------------------------------------------------------------

       Atom             a.u.   MegaHertz   Gauss  10(-4) cm-1        Axes

              Baa     0.0000     0.000     0.000     0.000  1.0000  0.0000  0.0000
     1 C(13)  Bbb     0.0000     0.000     0.000     0.000 -0.0000  1.0000  0.0000
              Bcc     0.0000     0.000     0.000     0.000  0.0000  0.0000  1.0000
 
              Baa     0.0000     0.000     0.000     0.000  1.0000  0.0000  0.0000
     2 C(13)  Bbb     0.0000     0.000     0.000     0.000 -0.0000  1.0000  0.0000
              Bcc     0.0000     0.000     0.000     0.000  0.0000  0.0000  1.0000
 
              Baa     0.0000     0.000     0.000     0.000  1.0000  0.0000  0.0000
     3 H(1)   Bbb     0.0000     0.000     0.000     0.000 -0.0000  1.0000  0.0000
              Bcc     0.0000     0.000     0.000     0.000  0.0000  0.0000  1.0000
 
              Baa     0.0000     0.000     0.000     0.000  1.0000  0.0000  0.0000
     4 H(1)   Bbb     0.0000     0.000     0.000     0.000 -0.0000  1.0000  0.0000
              Bcc     0.0000     0.000     0.000     0.000  0.0000  0.0000  1.0000
 
              Baa     0.0000     0.000     0.000     0.000  1.0000  0.0000  0.0000
     5 H(1)   Bbb     0.0000     0.000     0.000     0.000 -0.0000  1.0000  0.0000
              Bcc     0.0000     0.000     0.000     0.000  0.0000  0.0000  1.0000
 
              Baa     0.0000     0.000     0.000     0.000  1.0000  0.0000  0.0000
     6 H(1)   Bbb     0.0000     0.000     0.000     0.000 -0.0000  1.0000  0.0000
              Bcc     0.0000     0.000     0.000     0.000  0.0000  0.0000  1.0000
 

 ---------------------------------------------------------------------------------

 No NMR shielding tensors so no spin-rotation constants.
 Leave Link  601 at Tue Nov 19 10:34:09 2024, MaxMem=   536870912 cpu:               0.9 elap:               0.1
 (Enter /home/szhao/Apps/g16/l9999.exe)
 1\1\GINC-NODE01\FOpt\UM062X\6-311+G(d,p)\C2H4\SZHAO\19-Nov-2024\0\\#p 
 opt UM062X/6-311+G** nosymm int=superfine\\Title Card Required\\0,1\C,
 -0.61647096,0.,0.\C,0.61647096,0.,0.\H,-1.2017923408,-0.9158270007,-0.
 0000000002\H,-1.2019156398,0.9156842442,-0.0000000002\H,1.2017923408,0
 .9158270007,0.0000000001\H,1.2019156398,-0.9156842442,0.0000000001\\Ve
 rsion=ES64L-G16RevA.03\HF=-78.5518098\S2=0.\S2-1=0.\S2A=0.\RMSD=1.882e
 -09\RMSF=1.674e-04\Dipole=0.,0.,0.\Quadrupole=0.7663086,0.7903188,-1.5
 566274,-0.0002597,0.,0.\PG=C02H [SGH(C2H4)]\\@


 IF OTHER PEOPLE ARE GOING TO TALK, CONVERSATION IS SIMPLY IMPOSSIBLE.

                                               -- WHISTLER'S PRINCIPLE
 Job cpu time:       0 days  0 hours  2 minutes 42.2 seconds.
 Elapsed time:       0 days  0 hours  0 minutes 20.5 seconds.
 File lengths (MBytes):  RWF=     10 Int=      0 D2E=      0 Chk=      2 Scr=      1
 Normal termination of Gaussian 16 at Tue Nov 19 10:34:09 2024.
