Title Card Required                                                     
FOpt      UM062X                                                      6-311+G(d,p)        
Number of atoms                            I                6
Info1-9                                    I   N=           9
          15          15           0           0           0         110
           2          18        -502
Full Title                                 C   N=           2
Title Card Required     
Route                                      C   N=           5
#p opt UM062X/6-311+G** nosymm int=superfine SCF=NoVarAcc   
Charge                                     I                1
Multiplicity                               I                2
Number of electrons                        I               15
Number of alpha electrons                  I                8
Number of beta electrons                   I                7
Number of basis functions                  I               68
Number of independent functions            I               68
Number of point charges in /Mol/           I                0
Number of translation vectors              I                0
Atomic numbers                             I   N=           6
           6           6           1           1           1           1
Nuclear charges                            R   N=           6
  6.00000000E+00  6.00000000E+00  1.00000000E+00  1.00000000E+00  1.00000000E+00
  1.00000000E+00
Current cartesian coordinates              R   N=          18
 -4.02705739E+00  0.00000000E+00  0.00000000E+00  4.02705739E+00  0.00000000E+00
  0.00000000E+00 -5.08393442E+00 -1.78108500E+00 -2.00822856E-09 -5.08382409E+00
  1.78114946E+00 -1.88968654E-09  5.08393438E+00  1.78108502E+00 -6.99884859E-09
  5.08382406E+00 -1.78114948E+00 -6.88032479E-09
Number of symbols in /Mol/                 I                0
Force Field                                I                0
Atom Types                                 C   N=           6
                                                            
            
Int Atom Types                             I   N=           6
           0           0           0           0           0           0
MM charges                                 R   N=           6
  0.00000000E+00  0.00000000E+00  0.00000000E+00  0.00000000E+00  0.00000000E+00
  0.00000000E+00
Integer atomic weights                     I   N=           6
          12          12           1           1           1           1
Real atomic weights                        R   N=           6
  1.20000000E+01  1.20000000E+01  1.00782504E+00  1.00782504E+00  1.00782504E+00
  1.00782504E+00
Atom fragment info                         I   N=           6
           0           0           0           0           0           0
Atom residue num                           I   N=           6
           0           0           0           0           0           0
Nuclear spins                              I   N=           6
           0           0           1           1           1           1
Nuclear ZEff                               R   N=           6
 -3.60000000E+00 -3.60000000E+00 -1.00000000E+00 -1.00000000E+00 -1.00000000E+00
 -1.00000000E+00
Nuclear ZNuc                               R   N=           6
  6.00000000E+00  6.00000000E+00  1.00000000E+00  1.00000000E+00  1.00000000E+00
  1.00000000E+00
Nuclear QMom                               R   N=           6
  0.00000000E+00  0.00000000E+00  0.00000000E+00  0.00000000E+00  0.00000000E+00
  0.00000000E+00
Nuclear GFac                               R   N=           6
  0.00000000E+00  0.00000000E+00  2.79284600E+00  2.79284600E+00  2.79284600E+00
  2.79284600E+00
MicOpt                                     I   N=           6
          -2          -2          -1          -1          -1          -1
Number of residues                         I                0
Number of secondary structures             I                0
Redundant internal dimensions              I   N=           4
          20          10           6           4
Redundant internal coordinate indices      I   N=          80
           1          -1           0           0           1          -2
           0           0           1          -3           0           0
           2          -1           0           0           2          -2
           0           0           2          -3           0           0
           1           3           0           0           1           4
           0           0           2           5           0           0
           2           6           0           0           2           1
           3           0           2           1           4           0
           3           1           4           0           1           2
           5           0           1           2           6           0
           5           2           6           0           3           1
           2           5           3           1           2           6
           4           1           2           5           4           1
           2           6
Redundant internal coordinates             R   N=          20
 -4.02705739E+00  0.00000000E+00  0.00000000E+00  4.02705739E+00  0.00000000E+00
  0.00000000E+00  2.07105114E+00  2.07105028E+00  2.07105113E+00  2.07105027E+00
  2.10634094E+00  2.10627925E+00  2.07056512E+00  2.10634092E+00  2.10627923E+00
  2.07056516E+00  3.14159265E+00  0.00000000E+00 -0.00000000E+00  3.14159265E+00
ZRed-IntVec                                I   N=          20
          -1          -1          -1          -1          -1          -1
           0           0           0           0           0           0
           0           0           0           0           0           0
           0           0
ZRed-FPVec                                 R   N=          20
  0.00000000E+00  0.00000000E+00  0.00000000E+00  0.00000000E+00  0.00000000E+00
  0.00000000E+00  0.00000000E+00  0.00000000E+00  0.00000000E+00  0.00000000E+00
  0.00000000E+00  0.00000000E+00  0.00000000E+00  0.00000000E+00  0.00000000E+00
  0.00000000E+00  0.00000000E+00  0.00000000E+00  0.00000000E+00  0.00000000E+00
ZRed-Constraint1                           R   N=          20
 -4.02705739E+00  0.00000000E+00  0.00000000E+00  4.02705739E+00  0.00000000E+00
  0.00000000E+00  2.05067934E+00  2.05048469E+00  2.05067934E+00  2.05048469E+00
  1.98162443E+00  1.98155420E+00  2.32000667E+00  1.98162443E+00  1.98155420E+00
  2.32000667E+00  3.14159265E+00  0.00000000E+00  0.00000000E+00  3.14159265E+00
ZRed-Constraint2                           R   N=          20
 -4.02705739E+00  0.00000000E+00  0.00000000E+00  4.02705739E+00  0.00000000E+00
  0.00000000E+00  0.00000000E+00  0.00000000E+00  0.00000000E+00  0.00000000E+00
  0.00000000E+00  0.00000000E+00  0.00000000E+00  0.00000000E+00  0.00000000E+00
  0.00000000E+00  0.00000000E+00  0.00000000E+00  0.00000000E+00  0.00000000E+00
Number of contracted shells                I               28
Number of primitive shells                 I               50
Pure/Cartesian d shells                    I                0
Pure/Cartesian f shells                    I                0
Highest angular momentum                   I                2
Largest degree of contraction              I                6
Shell types                                I   N=          28
           0          -1          -1          -1          -1          -2
           0          -1          -1          -1          -1          -2
           0           0           0           1           0           0
           0           1           0           0           0           1
           0           0           0           1
Number of primitives per shell             I   N=          28
           6           3           1           1           1           1
           6           3           1           1           1           1
           3           1           1           1           3           1
           1           1           3           1           1           1
           3           1           1           1
Shell to atom map                          I   N=          28
           1           1           1           1           1           1
           2           2           2           2           2           2
           3           3           3           3           4           4
           4           4           5           5           5           5
           6           6           6           6
Primitive exponents                        R   N=          50
  4.56324000E+03  6.82024000E+02  1.54973000E+02  4.44553000E+01  1.30290000E+01
  1.82773000E+00  2.09642000E+01  4.80331000E+00  1.45933000E+00  4.83456000E-01
  1.45585000E-01  4.38000000E-02  6.26000000E-01  4.56324000E+03  6.82024000E+02
  1.54973000E+02  4.44553000E+01  1.30290000E+01  1.82773000E+00  2.09642000E+01
  4.80331000E+00  1.45933000E+00  4.83456000E-01  1.45585000E-01  4.38000000E-02
  6.26000000E-01  3.38650000E+01  5.09479000E+00  1.15879000E+00  3.25840000E-01
  1.02741000E-01  7.50000000E-01  3.38650000E+01  5.09479000E+00  1.15879000E+00
  3.25840000E-01  1.02741000E-01  7.50000000E-01  3.38650000E+01  5.09479000E+00
  1.15879000E+00  3.25840000E-01  1.02741000E-01  7.50000000E-01  3.38650000E+01
  5.09479000E+00  1.15879000E+00  3.25840000E-01  1.02741000E-01  7.50000000E-01
Contraction coefficients                   R   N=          50
  1.96665025E-03  1.52306019E-02  7.61269097E-02  2.60801033E-01  6.16462078E-01
  2.21006028E-01  1.14660081E-01  9.19999648E-01 -3.03068213E-03  1.00000000E+00
  1.00000000E+00  1.00000000E+00  1.00000000E+00  1.96665025E-03  1.52306019E-02
  7.61269097E-02  2.60801033E-01  6.16462078E-01  2.21006028E-01  1.14660081E-01
  9.19999648E-01 -3.03068213E-03  1.00000000E+00  1.00000000E+00  1.00000000E+00
  1.00000000E+00  2.54938145E-02  1.90373109E-01  8.52161486E-01  1.00000000E+00
  1.00000000E+00  1.00000000E+00  2.54938145E-02  1.90373109E-01  8.52161486E-01
  1.00000000E+00  1.00000000E+00  1.00000000E+00  2.54938145E-02  1.90373109E-01
  8.52161486E-01  1.00000000E+00  1.00000000E+00  1.00000000E+00  2.54938145E-02
  1.90373109E-01  8.52161486E-01  1.00000000E+00  1.00000000E+00  1.00000000E+00
P(S=P) Contraction coefficients            R   N=          50
  0.00000000E+00  0.00000000E+00  0.00000000E+00  0.00000000E+00  0.00000000E+00
  0.00000000E+00  4.02486927E-02  2.37593957E-01  8.15853851E-01  1.00000000E+00
  1.00000000E+00  1.00000000E+00  0.00000000E+00  0.00000000E+00  0.00000000E+00
  0.00000000E+00  0.00000000E+00  0.00000000E+00  0.00000000E+00  4.02486927E-02
  2.37593957E-01  8.15853851E-01  1.00000000E+00  1.00000000E+00  1.00000000E+00
  0.00000000E+00  0.00000000E+00  0.00000000E+00  0.00000000E+00  0.00000000E+00
  0.00000000E+00  0.00000000E+00  0.00000000E+00  0.00000000E+00  0.00000000E+00
  0.00000000E+00  0.00000000E+00  0.00000000E+00  0.00000000E+00  0.00000000E+00
  0.00000000E+00  0.00000000E+00  0.00000000E+00  0.00000000E+00  0.00000000E+00
  0.00000000E+00  0.00000000E+00  0.00000000E+00  0.00000000E+00  0.00000000E+00
Coordinates of each shell                  R   N=          84
 -4.02705739E+00  0.00000000E+00  0.00000000E+00 -4.02705739E+00  0.00000000E+00
  0.00000000E+00 -4.02705739E+00  0.00000000E+00  0.00000000E+00 -4.02705739E+00
  0.00000000E+00  0.00000000E+00 -4.02705739E+00  0.00000000E+00  0.00000000E+00
 -4.02705739E+00  0.00000000E+00  0.00000000E+00  4.02705739E+00  0.00000000E+00
  0.00000000E+00  4.02705739E+00  0.00000000E+00  0.00000000E+00  4.02705739E+00
  0.00000000E+00  0.00000000E+00  4.02705739E+00  0.00000000E+00  0.00000000E+00
  4.02705739E+00  0.00000000E+00  0.00000000E+00  4.02705739E+00  0.00000000E+00
  0.00000000E+00 -5.08393442E+00 -1.78108500E+00 -2.00822856E-09 -5.08393442E+00
 -1.78108500E+00 -2.00822856E-09 -5.08393442E+00 -1.78108500E+00 -2.00822856E-09
 -5.08393442E+00 -1.78108500E+00 -2.00822856E-09 -5.08382409E+00  1.78114946E+00
 -1.88968654E-09 -5.08382409E+00  1.78114946E+00 -1.88968654E-09 -5.08382409E+00
  1.78114946E+00 -1.88968654E-09 -5.08382409E+00  1.78114946E+00 -1.88968654E-09
  5.08393438E+00  1.78108502E+00 -6.99884859E-09  5.08393438E+00  1.78108502E+00
 -6.99884859E-09  5.08393438E+00  1.78108502E+00 -6.99884859E-09  5.08393438E+00
  1.78108502E+00 -6.99884859E-09  5.08382406E+00 -1.78114948E+00 -6.88032479E-09
  5.08382406E+00 -1.78114948E+00 -6.88032479E-09  5.08382406E+00 -1.78114948E+00
 -6.88032479E-09  5.08382406E+00 -1.78114948E+00 -6.88032479E-09
Num ILSW                                   I              100
ILSW                                       I   N=         100
           1           0           0           1           2           0
           0           0           0           0        4336          -1
           7           0           0           0           2           0
           0           0           0           0           1           0
           1           1           0           0           0           0
           0           0      100000           0          -1           0
           0           0           0           0           0           0
           0           0           0           1           0           0
           0 -2000000000           1           0           0           0
           0           0           4          52           0           0
           0           0          55           0           0           0
           0           0           0           6           0           1
           0           0           0           0           0           0
           0           0           0           0           0           0
           0           0           0           0           0           0
           0           0           0           0           0           0
           0           0           0           0
Num RLSW                                   I               52
RLSW                                       R   N=          52
  1.00000000E+00  1.00000000E+00  1.00000000E+00  1.00000000E+00  5.40000000E-01
  0.00000000E+00  0.00000000E+00  1.00000000E+00  0.00000000E+00  0.00000000E+00
  0.00000000E+00  0.00000000E+00  1.00000000E+00  0.00000000E+00  0.00000000E+00
  0.00000000E+00  0.00000000E+00  1.00000000E+00  0.00000000E+00  0.00000000E+00
  0.00000000E+00  0.00000000E+00  1.00000000E+00  0.00000000E+00  0.00000000E+00
  0.00000000E+00  0.00000000E+00  1.00000000E+00  0.00000000E+00  0.00000000E+00
  0.00000000E+00  0.00000000E+00  1.00000000E+00  0.00000000E+00  0.00000000E+00
  0.00000000E+00  0.00000000E+00  0.00000000E+00  1.00000000E+00  1.00000000E+00
  0.00000000E+00  1.00000000E+00  0.00000000E+00  0.00000000E+00  0.00000000E+00
  0.00000000E+00  0.00000000E+00  0.00000000E+00  0.00000000E+00  0.00000000E+00
  0.00000000E+00  0.00000000E+00
MxBond                                     I                3
NBond                                      I   N=           6
           3           3           1           1           1           1
IBond                                      I   N=          18
           2           3           4           1           5           6
           1           0           0           1           0           0
           2           0           0           2           0           0
RBond                                      R   N=          18
  1.00000000E-01  1.00000000E+00  1.00000000E+00  1.00000000E-01  1.00000000E+00
  1.00000000E+00  1.00000000E+00  0.00000000E+00  0.00000000E+00  1.00000000E+00
  0.00000000E+00  0.00000000E+00  1.00000000E+00  0.00000000E+00  0.00000000E+00
  1.00000000E+00  0.00000000E+00  0.00000000E+00
Virial Ratio                               R      2.004106591075681E+00
SCF Energy                                 R     -7.790434591568206E+01
Total Energy                               R     -7.790434591568206E+01
S**2                                       R      7.628983037095569E-01
S**2 after annihilation                    R      7.500151987414542E-01
RMS Force                                  R      8.768004396494168E-06
RMS Density                                R      5.650218675560260E-09
Job Status                                 I                1
Nuclear derivative order                   I                1
External E-field                           R   N=          35
  0.00000000E+00  0.00000000E+00  0.00000000E+00  0.00000000E+00  0.00000000E+00
  0.00000000E+00  0.00000000E+00  0.00000000E+00  0.00000000E+00  0.00000000E+00
  0.00000000E+00  0.00000000E+00  0.00000000E+00  0.00000000E+00  0.00000000E+00
  0.00000000E+00  0.00000000E+00  0.00000000E+00  0.00000000E+00  0.00000000E+00
  0.00000000E+00  0.00000000E+00  0.00000000E+00  0.00000000E+00  0.00000000E+00
  0.00000000E+00  0.00000000E+00  0.00000000E+00  0.00000000E+00  0.00000000E+00
  0.00000000E+00  0.00000000E+00  0.00000000E+00  0.00000000E+00  0.00000000E+00
IOpCl                                      I                1
IROHF                                      I                0
Alpha Orbital Energies                     R   N=          68
 -1.08815219E+01 -1.08815216E+01 -9.95070131E-01 -9.94764016E-01 -7.41871758E-01
 -7.41689970E-01 -5.75394228E-01 -5.67026090E-01 -3.13733619E-01 -3.11511908E-01
 -1.24886798E-01 -1.07499509E-01 -8.78410198E-02 -6.88808553E-02 -6.23337438E-02
 -5.90439259E-02 -4.08122634E-02 -1.27600546E-02 -1.06079536E-03  5.63112336E-03
  2.38903602E-02  5.01426864E-02  2.75944371E-01  2.81369503E-01  2.81508355E-01
  2.85724307E-01  3.86706850E-01  3.96039862E-01  4.04285450E-01  4.19907194E-01
  4.32349059E-01  4.70019241E-01  5.19453046E-01  5.20732498E-01  8.52203078E-01
  8.52203144E-01  9.45353154E-01  9.66275509E-01  9.93080477E-01  9.95027973E-01
  1.23177208E+00  1.23226559E+00  1.30660278E+00  1.31077863E+00  1.48244951E+00
  1.49942871E+00  1.57995301E+00  1.58065469E+00  1.72291077E+00  1.72291090E+00
  1.83234080E+00  1.83677877E+00  2.18513275E+00  2.19963033E+00  2.25615820E+00
  2.27520286E+00  2.28341778E+00  2.29089966E+00  2.41257501E+00  2.42143069E+00
  2.49703250E+00  2.50656076E+00  2.69768605E+00  2.73630065E+00  3.46298837E+00
  3.46739952E+00  2.35125563E+01  2.35128749E+01
Beta Orbital Energies                      R   N=          68
 -1.08737555E+01 -1.08737471E+01 -9.73404925E-01 -9.72040406E-01 -7.31633392E-01
 -7.31378746E-01 -4.58575915E-01 -3.65889967E-01 -2.95973665E-01 -2.93046359E-01
 -1.22492786E-01 -1.08916351E-01 -8.62121524E-02 -6.71111947E-02 -6.38717508E-02
 -4.39266879E-02 -4.08664777E-02 -1.09594066E-02  6.49003044E-03  8.98544650E-03
  2.50740150E-02  5.71670879E-02  2.74594615E-01  2.78831426E-01  2.79594164E-01
  2.83857727E-01  3.88705293E-01  3.99021430E-01  4.27254516E-01  4.33993883E-01
  4.53143446E-01  4.82818171E-01  5.34595812E-01  5.36630512E-01  8.66704969E-01
  8.66707350E-01  9.70574062E-01  9.93126667E-01  1.01370871E+00  1.01493179E+00
  1.24377610E+00  1.24516232E+00  1.31999005E+00  1.32376590E+00  1.49580807E+00
  1.51263980E+00  1.58590350E+00  1.58674025E+00  1.73129604E+00  1.73130794E+00
  1.84496535E+00  1.84956854E+00  2.20092896E+00  2.21233069E+00  2.27304227E+00
  2.29582330E+00  2.31661904E+00  2.32341409E+00  2.42905405E+00  2.43717981E+00
  2.51239650E+00  2.52207468E+00  2.73673902E+00  2.77513440E+00  3.49579885E+00
  3.49991694E+00  2.35184869E+01  2.35188043E+01
Alpha MO coefficients                      R   N=        4624
 -3.87942374E-01 -3.19117839E-01  5.07243044E-04 -1.58450850E-08 -1.67956921E-14
 -7.73159852E-03  1.33539679E-03 -4.51744640E-08  2.75777801E-12  2.52671463E-03
 -8.03008973E-05 -8.81174710E-10 -6.91026161E-14  2.66251626E-04 -5.76263361E-04
  1.33319194E-08 -1.23429954E-12  7.76899902E-04 -1.28167019E-12 -7.68687948E-14
  6.27199795E-04 -3.65060866E-08  4.09621746E-01  3.36951095E-01  5.35494660E-04
 -1.67725605E-08 -8.28825835E-13  8.16378688E-03  1.41005777E-03 -4.74526928E-08
 -1.03717918E-11 -2.66831550E-03 -8.41179564E-05 -9.25516850E-10  9.45759437E-13
 -2.97646950E-04 -6.01183991E-04  1.33783595E-08  2.94401782E-12 -8.19821578E-04
 -4.83546361E-12 -8.17306214E-14 -6.62377379E-04  3.86434639E-08 -2.12340008E-04
  2.04555742E-03 -1.57578804E-03  7.09074764E-04  1.12336537E-03  1.27652609E-12
 -2.12339504E-04  2.04556753E-03 -1.57578774E-03  7.09007601E-04 -1.12341252E-03
  1.20924055E-12  2.24103524E-04 -2.15946603E-03  1.66648938E-03  7.48404946E-04
  1.18613103E-03 -4.74836235E-12  2.24102845E-04 -2.15947564E-03  1.66648704E-03
  7.48333983E-04 -1.18618069E-03 -4.67735882E-12  4.09621884E-01  3.36951278E-01
 -5.33848764E-04  1.75038980E-08  5.63188913E-14  8.16594264E-03 -1.41066830E-03
  4.31644159E-08 -3.05443831E-12 -2.67529016E-03  7.24474199E-05  8.40244362E-10
  4.89476418E-13 -5.85166722E-04  4.74406830E-04 -1.21699650E-09  3.27600889E-13
 -8.11225530E-04  1.30693312E-12  8.21347802E-14 -6.64601243E-04  4.03380095E-08
  3.87942520E-01  3.19118032E-01  5.05505031E-04 -1.66172810E-08 -7.73825633E-13
  7.73387475E-03  1.33604143E-03 -4.06467023E-08 -9.87245183E-12 -2.53407896E-03
 -6.79782037E-05 -7.91132292E-10  1.13837124E-12 -5.69838872E-04 -4.42401451E-04
  4.90969455E-10  2.59012726E-12 -7.67823505E-04 -4.54955367E-12 -7.69418254E-14
 -6.29548051E-04  3.82952672E-08  2.22316384E-04 -2.15244724E-03  1.71247587E-03
 -7.43269524E-04 -1.18593392E-03 -1.33555427E-12  2.22313168E-04 -2.15243832E-03
  1.71243841E-03 -7.43197720E-04  1.18598119E-03 -1.26538778E-12  2.10452980E-04
 -2.03814644E-03  1.62434438E-03  7.03652349E-04  1.12315728E-03 -4.50065548E-12
  2.10449796E-04 -2.03813698E-03  1.62430698E-03  7.03584300E-04 -1.12320191E-03
 -4.43304314E-12 -7.94047246E-02 -1.28789465E-01 -3.40147392E-02  1.09589364E-06
 -7.10949468E-11  3.64059598E-01 -4.91440039E-02  1.57804369E-06 -9.98128875E-11
  2.32374831E-01 -1.94324163E-02  6.44645606E-07 -5.17656304E-11  2.64982075E-03
 -2.97201503E-03  2.65105709E-08  2.90674053E-12 -5.30003469E-03  6.87415728E-12
  1.53417326E-13 -3.45874809E-03  1.97851710E-07 -7.94082474E-02 -1.28795178E-01
  3.40162554E-02 -1.09594312E-06 -2.38286809E-10  3.64075748E-01  4.91462139E-02
 -1.57811537E-06 -3.36628979E-10  2.32385180E-01  1.94332572E-02 -6.44667876E-07
 -1.47306559E-10  2.64957851E-03  2.97233596E-03 -2.65107163E-08 -1.95699574E-11
 -5.30026814E-03 -3.13318965E-11 -1.52216019E-13 -3.45890869E-03  1.97861054E-07
  7.74537102E-02  9.24345708E-02 -5.36265430E-03  5.53015250E-03  1.32457693E-02
  1.13288865E-11  7.74537984E-02  9.24345295E-02 -5.36243079E-03  5.52933719E-03
 -1.32461021E-02  1.06020769E-11  7.74571513E-02  9.24386593E-02 -5.36280605E-03
 -5.53039825E-03 -1.32463546E-02  3.85966654E-11  7.74572395E-02  9.24386180E-02
 -5.36258252E-03 -5.52958290E-03  1.32466874E-02  3.78695468E-11 -7.94241201E-02
 -1.28821248E-01 -3.42251942E-02  1.09443588E-06 -7.07892671E-11  3.64071360E-01
 -4.98863826E-02  1.59197236E-06 -1.02647877E-10  2.33377276E-01 -1.89865841E-02
  4.95124238E-07 -4.25734674E-11 -5.45803221E-03 -7.24004026E-03  3.11906550E-09
 -1.26263789E-11 -5.26250481E-03  6.97794794E-12  1.56610590E-13 -3.61182097E-03
  2.13530755E-07  7.94205991E-02  1.28815537E-01 -3.42236842E-02  1.09438823E-06
  2.38674927E-10 -3.64055219E-01 -4.98842009E-02  1.59190345E-06  3.39391190E-10
 -2.33366970E-01 -1.89857213E-02  4.95095936E-07  1.42214094E-10  5.45815015E-03
 -7.23990840E-03  3.11789043E-09  1.91859109E-11  5.26226983E-03  3.17801534E-11
  1.55989340E-13  3.61166801E-03 -2.13521860E-07  7.76022723E-02  9.22116613E-02
 -3.40950007E-03  5.54687330E-03  1.31962540E-02  1.10989927E-11  7.76023448E-02
  9.22117023E-02 -3.40905981E-03  5.54607335E-03 -1.31965942E-02  1.03761025E-11
 -7.75988369E-02 -9.22075611E-02  3.40926267E-03  5.54662780E-03  1.31956666E-02
 -3.82060301E-11 -7.75989094E-02 -9.22076021E-02  3.40882242E-03  5.54582790E-03
 -1.31960068E-02 -3.74828283E-11  2.05079509E-08  3.43796613E-08  4.83010932E-06
  1.58785574E-01  5.19812355E-12 -7.57120578E-08  7.17741999E-06  2.35772893E-01
  7.51034727E-12 -4.17293975E-07  3.58766445E-06  1.18395654E-01  3.49125443E-12
  2.60114542E-07  1.61742914E-07 -2.21056685E-03 -3.31904426E-14  7.60323723E-09
 -7.11851030E-13 -4.46806869E-11 -1.52783318E-06 -2.47156120E-02 -2.05099499E-08
 -3.43830788E-08  4.83055298E-06  1.58799920E-01 -5.19693086E-12  7.57226054E-08
  7.17808148E-06  2.35794167E-01 -7.51227256E-12  4.17309765E-07  3.58799595E-06
  1.18406303E-01 -3.47968502E-12 -2.60111221E-07  1.61740237E-07 -2.21067111E-03
  1.94707491E-14 -7.60311375E-09 -7.15015876E-13 -1.55857256E-10  1.52796996E-06
  2.47178365E-02 -1.05304936E-01 -1.49425547E-01 -3.58686862E-02 -8.29254045E-03
 -7.55909842E-03 -1.44458436E-11  1.05304943E-01  1.49425612E-01  3.58687804E-02
  8.29207942E-03 -7.55961149E-03  1.40730211E-11  1.05314442E-01  1.49439122E-01
  3.58717932E-02 -8.29329481E-03 -7.55978780E-03  5.25728019E-11 -1.05314448E-01
 -1.49439187E-01 -3.58718874E-02  8.29283374E-03 -7.56030091E-03 -5.22013334E-11
  1.76175664E-08  3.02311373E-08  4.91885059E-06  1.58904033E-01  5.20729343E-12
 -9.37574264E-08  7.33189500E-06  2.35656748E-01  7.51085435E-12 -1.43770321E-07
  3.67340364E-06  1.17985651E-01  3.50722773E-12 -3.51175839E-08 -2.99551309E-08
 -1.15651374E-03 -4.19160618E-15 -8.36058926E-10 -7.04766534E-13 -4.43897865E-11
 -1.51523386E-06 -2.46518715E-02  1.76161191E-08  3.02287152E-08 -4.91841422E-06
 -1.58889700E-01  5.20701460E-12 -9.37526593E-08 -7.33124677E-06 -2.35635464E-01
  7.50576500E-12 -1.43735431E-07 -3.67307972E-06 -1.17974962E-01  3.51702111E-12
 -3.51411586E-08  2.99696736E-08  1.15631422E-03 -2.38465974E-14 -8.36790399E-10
  7.08654954E-13  1.54830351E-10 -1.51509592E-06 -2.46496395E-02 -1.05301016E-01
 -1.50388887E-01 -3.44516362E-02 -8.35748207E-03 -7.63094678E-03 -1.45590022E-11
  1.05300970E-01  1.50388743E-01  3.44517690E-02  8.35701871E-03 -7.63143952E-03
  1.41796648E-11 -1.05291510E-01 -1.50375397E-01 -3.44483953E-02  8.35673338E-03
  7.63026492E-03 -5.29652658E-11  1.05291464E-01  1.50375252E-01  3.44485281E-02
 -8.35627006E-03  7.63075761E-03  5.25853967E-11 -3.04723926E-02 -5.13936918E-02
  1.88269401E-01 -5.89953248E-06  2.16371591E-10  1.63925805E-01  2.83293613E-01
 -8.79139664E-06  3.18797911E-10  1.96541514E-01  2.29069646E-01 -7.01667959E-06
  2.44232143E-10  9.40480895E-03  9.41911945E-03 -5.69977818E-07 -2.69989133E-12
  1.20496201E-02 -4.42926603E-11 -5.94240564E-13 -4.77234239E-03  3.01733572E-07
 -3.04724432E-02 -5.13937774E-02 -1.88269711E-01  5.89954182E-06  9.21709642E-10
  1.63926082E-01 -2.83294081E-01  8.79141062E-06  1.37641165E-09  1.96541825E-01
 -2.29070016E-01  7.01669069E-06  1.07056290E-09  9.40483469E-03 -9.41914346E-03
  5.69977986E-07  4.57581133E-11  1.20496409E-02  1.54869349E-10  5.90543672E-13
 -4.77235062E-03  3.01734032E-07 -4.72749807E-02 -7.67950547E-02 -2.61528712E-02
  7.78872741E-03 -9.07241486E-03  6.62645744E-12 -4.72750529E-02 -7.67955699E-02
 -2.61522406E-02  7.78925753E-03  9.07196624E-03  7.23478440E-12 -4.72750565E-02
 -7.67951751E-02 -2.61529163E-02 -7.78874119E-03  9.07242918E-03  3.24623520E-11
 -4.72751287E-02 -7.67956902E-02 -2.61522856E-02 -7.78927132E-03 -9.07198056E-03
  3.30695287E-11 -3.21558614E-02 -5.43031387E-02  1.92243875E-01 -5.83816006E-06
  2.23009837E-10  1.75032910E-01  2.89777097E-01 -8.86979879E-06  3.35538889E-10
  1.99067490E-01  2.30480401E-01 -7.11136792E-06  2.38447956E-10  1.84371855E-02
  1.65793706E-02 -1.25626516E-07  2.94452031E-11  1.32308981E-02 -4.65895028E-11
 -6.37207269E-13 -5.68629179E-03  3.13327686E-07  3.21558117E-02  5.43030550E-02
  1.92243576E-01 -5.83815064E-06 -9.62429031E-10 -1.75032645E-01  2.89776649E-01
 -8.86978459E-06 -1.44483662E-09 -1.99067168E-01  2.30480034E-01 -7.11135645E-06
 -1.13032195E-09 -1.84371683E-02  1.65793537E-02 -1.25625538E-07 -6.51504774E-11
 -1.32308784E-02 -1.61026914E-10 -6.32771690E-13  5.68628328E-03 -3.13327174E-07
 -4.76965405E-02 -7.58316108E-02 -2.95817586E-02  8.44697553E-03 -8.95367971E-03
  7.87474472E-12 -4.76964064E-02 -7.58310070E-02 -2.95824049E-02  8.44755690E-03
  8.95312802E-03  8.47656551E-12  4.76964643E-02  7.58314865E-02  2.95817152E-02
  8.44696335E-03 -8.95366514E-03 -3.63384359E-11  4.76963301E-02  7.58308827E-02
  2.95823614E-02  8.44754472E-03  8.95311345E-03 -3.69390611E-11 -3.39937354E-11
 -5.68030908E-11 -1.97999384E-10 -5.91781224E-12  1.84003136E-01  1.87065490E-10
 -3.19962025E-10 -1.08787384E-11  2.94789407E-01  1.77129712E-10 -3.90729795E-10
 -1.60520185E-11  3.15732801E-01  9.85537456E-11  5.13375533E-12 -6.31744876E-12
  7.03059434E-02 -2.32855275E-11 -8.70840456E-03  2.78082320E-07  9.47315851E-12
  1.28832636E-12 -4.93514696E-11 -7.99598329E-11  9.74423355E-10  5.89323183E-12
  1.84004227E-01  2.32265700E-10  1.58183653E-09  1.08410998E-11  2.94791161E-01
  3.62920449E-10  1.65504177E-09  1.60006139E-11  3.15734654E-01 -1.76465561E-10
  4.41618493E-10  6.31226741E-12  7.03063774E-02 -1.00361918E-10  8.70845866E-03
 -2.78084005E-07  5.32035831E-11  1.28616407E-12 -3.31872695E-11 -4.07980853E-11
 -5.63760522E-11 -1.89176822E-11 -4.58809797E-12  1.61136208E-02 -3.27201502E-11
 -3.66077592E-11 -4.21796708E-11 -1.79463001E-11  2.13636512E-12  1.61136306E-02
 -5.96354430E-11 -9.96744583E-11 -8.02849583E-13  9.24577349E-11  9.75595593E-12
  1.61137171E-02 -5.91645105E-11 -9.54994753E-11  1.33953764E-11  9.14851879E-11
 -7.30735647E-12  1.61137269E-02 -9.74691375E-12 -1.48510782E-11 -2.81541270E-10
 -5.90659851E-12  1.86122815E-01  2.60518766E-11 -4.63940771E-10 -1.11510904E-11
  2.99080705E-01  1.18159764E-10 -4.32012724E-10 -1.62532732E-11  3.16972004E-01
 -2.65288796E-10 -2.40534899E-10 -3.81403531E-12  7.54536188E-02 -4.02109167E-11
 -9.36431797E-03  2.80679405E-07  1.88976754E-11  1.37911020E-12  4.51890870E-11
  7.26221808E-11 -9.95678714E-10 -5.88238266E-12 -1.86121741E-01 -1.99208754E-10
 -1.62216687E-09 -1.11122695E-11 -2.99078985E-01 -3.88186774E-10 -1.67851656E-09