Title Card Required                                                     
FOpt      UM062X                                                      6-311+G(d,p)        
Number of atoms                            I                4
Info1-9                                    I   N=           9
          13          13           0           0           0         110
           2          18        -502
Full Title                                 C   N=           2
Title Card Required     
Route                                      C   N=           4
#p opt UM062X/6-311+G** nosymm int=superfine    
Charge                                     I                1
Multiplicity                               I                2
Number of electrons                        I               13
Number of alpha electrons                  I                7
Number of beta electrons                   I                6
Number of basis functions                  I               56
Number of independent functions            I               56
Number of point charges in /Mol/           I                0
Number of translation vectors              I                0
Atomic numbers                             I   N=           4
           6           6           1           1
Nuclear charges                            R   N=           4
  6.00000000E+00  6.00000000E+00  1.00000000E+00  1.00000000E+00
Current cartesian coordinates              R   N=          12
 -1.24461718E+00  0.00000000E+00  0.00000000E+00  1.24461718E+00  0.00000000E+00
  0.00000000E+00 -3.29184811E+00 -4.02290161E-11  8.89668949E-10  3.29184782E+00
  4.05356150E-11 -3.50570220E-09
Number of symbols in /Mol/                 I                0
Force Field                                I                0
Atom Types                                 C   N=           4
                                                
Int Atom Types                             I   N=           4
           0           0           0           0
MM charges                                 R   N=           4
  0.00000000E+00  0.00000000E+00  0.00000000E+00  0.00000000E+00
Integer atomic weights                     I   N=           4
          12          12           1           1
Real atomic weights                        R   N=           4
  1.20000000E+01  1.20000000E+01  1.00782504E+00  1.00782504E+00
Atom fragment info                         I   N=           4
           0           0           0           0
Atom residue num                           I   N=           4
           0           0           0           0
Nuclear spins                              I   N=           4
           0           0           1           1
Nuclear ZEff                               R   N=           4
 -3.60000000E+00 -3.60000000E+00 -1.00000000E+00 -1.00000000E+00
Nuclear ZNuc                               R   N=           4
  6.00000000E+00  6.00000000E+00  1.00000000E+00  1.00000000E+00
Nuclear QMom                               R   N=           4
  0.00000000E+00  0.00000000E+00  0.00000000E+00  0.00000000E+00
Nuclear GFac                               R   N=           4
  0.00000000E+00  0.00000000E+00  2.79284600E+00  2.79284600E+00
MicOpt                                     I   N=           4
          -2          -2          -1          -1
Number of residues                         I                0
Number of secondary structures             I                0
Redundant internal dimensions              I   N=           4
          12           8           4           0
Redundant internal coordinate indices      I   N=          48
           1          -1           0           0           1          -2
           0           0           1          -3           0           0
           2          -1           0           0           2          -2
           0           0           2          -3           0           0
           1           3           0           0           2           4
           0           0           2           1           3          -4
           1           2           4          -4           2           1
           3          -8           1           2           4          -8
Redundant internal coordinates             R   N=          12
 -1.24461718E+00  0.00000000E+00  0.00000000E+00  1.24461718E+00  0.00000000E+00
  0.00000000E+00  2.04723093E+00  2.04723064E+00  3.14159265E+00  3.14159265E+00
  3.14159265E+00  3.14159265E+00
ZRed-IntVec                                I   N=          12
          -1          -1          -1          -1          -1          -1
           0           0           0           0           0           0
ZRed-FPVec                                 R   N=          12
  0.00000000E+00  0.00000000E+00  0.00000000E+00  0.00000000E+00  0.00000000E+00
  0.00000000E+00  0.00000000E+00  0.00000000E+00  0.00000000E+00  0.00000000E+00
  0.00000000E+00  0.00000000E+00
ZRed-Constraint1                           R   N=          12
 -1.24461718E+00  0.00000000E+00  0.00000000E+00  1.24461718E+00  0.00000000E+00
  0.00000000E+00  2.16549979E+00  2.16547776E+00  3.14159265E+00  3.14159265E+00
  3.14159265E+00  3.14159265E+00
ZRed-Constraint2                           R   N=          12
 -1.24461718E+00  0.00000000E+00  0.00000000E+00  1.24461718E+00  0.00000000E+00
  0.00000000E+00  0.00000000E+00  0.00000000E+00  0.00000000E+00  0.00000000E+00
  0.00000000E+00  0.00000000E+00
Number of contracted shells                I               20
Number of primitive shells                 I               38
Pure/Cartesian d shells                    I                0
Pure/Cartesian f shells                    I                0
Highest angular momentum                   I                2
Largest degree of contraction              I                6
Shell types                                I   N=          20
           0          -1          -1          -1          -1          -2
           0          -1          -1          -1          -1          -2
           0           0           0           1           0           0
           0           1
Number of primitives per shell             I   N=          20
           6           3           1           1           1           1
           6           3           1           1           1           1
           3           1           1           1           3           1
           1           1
Shell to atom map                          I   N=          20
           1           1           1           1           1           1
           2           2           2           2           2           2
           3           3           3           3           4           4
           4           4
Primitive exponents                        R   N=          38
  4.56324000E+03  6.82024000E+02  1.54973000E+02  4.44553000E+01  1.30290000E+01
  1.82773000E+00  2.09642000E+01  4.80331000E+00  1.45933000E+00  4.83456000E-01
  1.45585000E-01  4.38000000E-02  6.26000000E-01  4.56324000E+03  6.82024000E+02
  1.54973000E+02  4.44553000E+01  1.30290000E+01  1.82773000E+00  2.09642000E+01
  4.80331000E+00  1.45933000E+00  4.83456000E-01  1.45585000E-01  4.38000000E-02
  6.26000000E-01  3.38650000E+01  5.09479000E+00  1.15879000E+00  3.25840000E-01
  1.02741000E-01  7.50000000E-01  3.38650000E+01  5.09479000E+00  1.15879000E+00
  3.25840000E-01  1.02741000E-01  7.50000000E-01
Contraction coefficients                   R   N=          38
  1.96665025E-03  1.52306019E-02  7.61269097E-02  2.60801033E-01  6.16462078E-01
  2.21006028E-01  1.14660081E-01  9.19999648E-01 -3.03068213E-03  1.00000000E+00
  1.00000000E+00  1.00000000E+00  1.00000000E+00  1.96665025E-03  1.52306019E-02
  7.61269097E-02  2.60801033E-01  6.16462078E-01  2.21006028E-01  1.14660081E-01
  9.19999648E-01 -3.03068213E-03  1.00000000E+00  1.00000000E+00  1.00000000E+00
  1.00000000E+00  2.54938145E-02  1.90373109E-01  8.52161486E-01  1.00000000E+00
  1.00000000E+00  1.00000000E+00  2.54938145E-02  1.90373109E-01  8.52161486E-01
  1.00000000E+00  1.00000000E+00  1.00000000E+00
P(S=P) Contraction coefficients            R   N=          38
  0.00000000E+00  0.00000000E+00  0.00000000E+00  0.00000000E+00  0.00000000E+00
  0.00000000E+00  4.02486927E-02  2.37593957E-01  8.15853851E-01  1.00000000E+00
  1.00000000E+00  1.00000000E+00  0.00000000E+00  0.00000000E+00  0.00000000E+00
  0.00000000E+00  0.00000000E+00  0.00000000E+00  0.00000000E+00  4.02486927E-02
  2.37593957E-01  8.15853851E-01  1.00000000E+00  1.00000000E+00  1.00000000E+00
  0.00000000E+00  0.00000000E+00  0.00000000E+00  0.00000000E+00  0.00000000E+00
  0.00000000E+00  0.00000000E+00  0.00000000E+00  0.00000000E+00  0.00000000E+00
  0.00000000E+00  0.00000000E+00  0.00000000E+00
Coordinates of each shell                  R   N=          60
 -1.24461718E+00  0.00000000E+00  0.00000000E+00 -1.24461718E+00  0.00000000E+00
  0.00000000E+00 -1.24461718E+00  0.00000000E+00  0.00000000E+00 -1.24461718E+00
  0.00000000E+00  0.00000000E+00 -1.24461718E+00  0.00000000E+00  0.00000000E+00
 -1.24461718E+00  0.00000000E+00  0.00000000E+00  1.24461718E+00  0.00000000E+00
  0.00000000E+00  1.24461718E+00  0.00000000E+00  0.00000000E+00  1.24461718E+00
  0.00000000E+00  0.00000000E+00  1.24461718E+00  0.00000000E+00  0.00000000E+00
  1.24461718E+00  0.00000000E+00  0.00000000E+00  1.24461718E+00  0.00000000E+00
  0.00000000E+00 -3.29184811E+00 -4.02290161E-11  8.89668949E-10 -3.29184811E+00
 -4.02290161E-11  8.89668949E-10 -3.29184811E+00 -4.02290161E-11  8.89668949E-10
 -3.29184811E+00 -4.02290161E-11  8.89668949E-10  3.29184782E+00  4.05356150E-11
 -3.50570220E-09  3.29184782E+00  4.05356150E-11 -3.50570220E-09  3.29184782E+00
  4.05356150E-11 -3.50570220E-09  3.29184782E+00  4.05356150E-11 -3.50570220E-09
Num ILSW                                   I              100
ILSW                                       I   N=         100
           1           0           0           1           2           0
           0           0           0           0        4336          -1
           7           0           0           0           2           0
           0           0           0           0           1           0
           1           1           0           0           0           0
           0           0      100000           0          -1           0
           0           0           0           0           0           0
           0           0           0           1           0           0
           0 -2000000000           1           0           0           0
           0           0           4          52           0           0
           0           0          55           0           0           0
           0           0           0           4           0           1
           0           0           0           0           0           0
           0           0           0           0           0           0
           0           0           0           0           0           0
           0           0           0           0           0           0
           0           0           0           0
Num RLSW                                   I               52
RLSW                                       R   N=          52
  1.00000000E+00  1.00000000E+00  1.00000000E+00  1.00000000E+00  5.40000000E-01
  0.00000000E+00  0.00000000E+00  1.00000000E+00  0.00000000E+00  0.00000000E+00
  0.00000000E+00  0.00000000E+00  1.00000000E+00  0.00000000E+00  0.00000000E+00
  0.00000000E+00  0.00000000E+00  1.00000000E+00  0.00000000E+00  0.00000000E+00
  0.00000000E+00  0.00000000E+00  1.00000000E+00  0.00000000E+00  0.00000000E+00
  0.00000000E+00  0.00000000E+00  1.00000000E+00  0.00000000E+00  0.00000000E+00
  0.00000000E+00  0.00000000E+00  1.00000000E+00  0.00000000E+00  0.00000000E+00
  0.00000000E+00  0.00000000E+00  0.00000000E+00  1.00000000E+00  1.00000000E+00
  0.00000000E+00  1.00000000E+00  0.00000000E+00  0.00000000E+00  0.00000000E+00
  0.00000000E+00  0.00000000E+00  0.00000000E+00  0.00000000E+00  0.00000000E+00
  0.00000000E+00  0.00000000E+00
MxBond                                     I                2
NBond                                      I   N=           4
           2           2           1           1
IBond                                      I   N=           8
           2           3           1           4           1           0
           2           0
RBond                                      R   N=           8
  2.00000000E+00  1.00000000E+00  2.00000000E+00  1.00000000E+00  1.00000000E+00
  0.00000000E+00  1.00000000E+00  0.00000000E+00
Virial Ratio                               R      2.007107184817218E+00
SCF Energy                                 R     -7.689273332532474E+01
Total Energy                               R     -7.689273332532474E+01
S**2                                       R      7.522365517761971E-01
S**2 after annihilation                    R      7.500035714190478E-01
RMS Force                                  R      3.105531187477135E-06
RMS Density                                R      6.113165975110032E-09
Job Status                                 I                1
Nuclear derivative order                   I                1
External E-field                           R   N=          35
  0.00000000E+00  0.00000000E+00  0.00000000E+00  0.00000000E+00  0.00000000E+00
  0.00000000E+00  0.00000000E+00  0.00000000E+00  0.00000000E+00  0.00000000E+00
  0.00000000E+00  0.00000000E+00  0.00000000E+00  0.00000000E+00  0.00000000E+00
  0.00000000E+00  0.00000000E+00  0.00000000E+00  0.00000000E+00  0.00000000E+00
  0.00000000E+00  0.00000000E+00  0.00000000E+00  0.00000000E+00  0.00000000E+00
  0.00000000E+00  0.00000000E+00  0.00000000E+00  0.00000000E+00  0.00000000E+00
  0.00000000E+00  0.00000000E+00  0.00000000E+00  0.00000000E+00  0.00000000E+00
IOpCl                                      I                1
IROHF                                      I                0
Alpha Orbital Energies                     R   N=          56
 -1.09543144E+01 -1.09529162E+01 -1.20213322E+00 -9.75761348E-01 -8.89521186E-01
 -7.09422270E-01 -6.83780267E-01 -2.92606155E-01 -2.72415004E-01 -1.64768807E-01
 -1.44522044E-01 -1.14091802E-01 -1.00835536E-01 -9.83276508E-02 -7.51324826E-02
 -4.93446510E-02 -4.52573936E-02  2.22097228E-02  4.50805177E-02  1.41866536E-01
  1.93191974E-01  2.99622036E-01  3.11383912E-01  3.71386714E-01  3.77408225E-01
  4.73211690E-01  4.83682837E-01  5.51373648E-01  5.71628910E-01  7.39870404E-01
  7.55212458E-01  8.22353363E-01  8.66738429E-01  8.68434661E-01  1.16303185E+00
  1.16932864E+00  1.20433598E+00  1.20556493E+00  1.40254154E+00  1.49453779E+00
  1.50710836E+00  1.71710112E+00  2.07232505E+00  2.09284935E+00  2.27245889E+00
  2.39679610E+00  2.40466453E+00  2.43380892E+00  2.58678581E+00  2.61406686E+00
  2.61992785E+00  2.91720243E+00  2.98903912E+00  3.38155126E+00  2.32090258E+01
  2.43494491E+01
Beta Orbital Energies                      R   N=          56
 -1.09519000E+01 -1.09507204E+01 -1.15573924E+00 -9.59654486E-01 -8.84134488E-01
 -6.59513541E-01 -4.51292875E-01 -2.55943342E-01 -2.24999347E-01 -1.55932800E-01
 -1.53200690E-01 -1.15778112E-01 -1.03624614E-01 -1.00863541E-01 -7.12550756E-02
 -4.45412708E-02 -3.90454492E-02  1.87614240E-02  4.71714747E-02  1.47678805E-01
  2.02002950E-01  2.85851986E-01  3.10689117E-01  3.63391074E-01  3.77249894E-01
  4.51458688E-01  4.83416297E-01  5.65224665E-01  5.99355299E-01  7.73643130E-01
  7.81372269E-01  7.93690171E-01  9.05081379E-01  9.26462113E-01  1.17834969E+00
  1.18883015E+00  1.23361971E+00  1.25357333E+00  1.41795792E+00  1.51640552E+00
  1.52409930E+00  1.74406064E+00  2.09936181E+00  2.10665274E+00  2.29096489E+00
  2.41657692E+00  2.43814515E+00  2.44387166E+00  2.62706106E+00  2.63046215E+00
  2.68492861E+00  2.93829682E+00  3.08453971E+00  3.39358367E+00  2.32185758E+01
  2.43716338E+01
Alpha MO coefficients                      R   N=        3136
  3.98863907E-01  3.28128249E-01  5.88061701E-04 -8.43615232E-14  1.29729229E-12
  7.73512451E-03 -2.10005088E-03 -1.64054166E-14 -7.13402986E-13 -2.82696241E-03
  1.71837721E-04  2.49550100E-14  7.59896929E-13 -4.26579478E-04  1.56404745E-03
  3.16247072E-14 -2.27547708E-12 -5.33476213E-04 -1.80756702E-12  4.93960089E-06
  8.52229058E-04 -2.07594603E-14  3.98862231E-01  3.28126874E-01 -5.88062830E-04
 -1.41307054E-14  8.70491718E-14  7.73508035E-03  2.10006629E-03  1.38355874E-13
 -3.12294666E-12 -2.82691813E-03 -1.71882332E-04 -5.82648763E-14  7.27383885E-14
 -4.26528463E-04 -1.56406153E-03 -2.09090636E-14  2.84583322E-12 -5.33466934E-04
 -4.16709704E-12  4.93957368E-06  8.52213380E-04  5.61930447E-14  1.26457865E-04
 -3.12665915E-03  2.75147882E-03 -1.78880158E-03 -1.12879323E-13  5.40711012E-13
  1.26458109E-04 -3.12664035E-03  2.75148883E-03  1.78879339E-03  4.02817632E-14
 -2.70221309E-12 -3.99103788E-01 -3.27541842E-01  2.42395642E-04  8.05944284E-14
 -9.40460286E-13 -1.09435604E-02 -3.20347085E-03  3.17732214E-14 -1.69261577E-12
  1.10492332E-02  1.11437943E-02  2.92752509E-14  1.39696401E-12  1.43048664E-02
  3.86067209E-03  3.01883856E-15  6.56251961E-13  2.31179165E-03  3.39830559E-13
 -6.41231346E-06 -3.91096139E-03  2.56415745E-14  3.99105463E-01  3.27543220E-01
  2.42393195E-04 -1.24075727E-14 -3.90082591E-14  1.09435945E-02 -3.20346028E-03
  1.23436462E-13 -3.41520281E-12 -1.10492434E-02  1.11437943E-02 -8.46272970E-15
 -4.52597028E-12 -1.43048682E-02  3.86066563E-03  3.34323279E-14 -2.03548462E-12
 -2.31179428E-03 -4.88107862E-12  6.41233409E-06  3.91096564E-03  8.23718102E-14
  1.43190104E-04  5.20473031E-03  2.20679939E-03  2.25830943E-03  1.66890536E-13
 -2.45178384E-12 -1.43190227E-04 -5.20474582E-03 -2.20678837E-03  2.25831793E-03
  8.99144968E-14 -7.10865114E-12 -9.05620603E-02 -1.46993779E-01  7.42778445E-02
 -3.78764091E-12  4.41619909E-12  4.00780678E-01  9.02355563E-02 -6.50858910E-12
  1.05882623E-11  2.02804174E-01  1.58384077E-02 -3.02020944E-12  9.86228943E-12
 -4.94004825E-03 -2.05059195E-02  6.53537235E-13  1.48247494E-11 -1.69276269E-02
 -5.06491468E-12  7.44796451E-04  1.84972889E-02 -1.20313438E-12 -9.05620635E-02
 -1.46993783E-01 -7.42778349E-02  4.72301648E-12 -2.35987231E-11  4.00780686E-01
 -9.02355391E-02  5.55389961E-12 -4.28292592E-11  2.02804168E-01 -1.58384032E-02
  4.41588776E-12 -2.58847609E-11 -4.94001872E-03  2.05059119E-02 -1.01541605E-12
 -2.02812261E-11 -1.69276281E-02 -2.19294829E-11  7.44796578E-04  1.84972891E-02
  8.81112251E-13  3.71455425E-02  3.53803137E-02 -1.70133224E-02  2.00390922E-03
 -1.13845017E-13  6.97599581E-13  3.71455564E-02  3.53803244E-02 -1.70133247E-02
 -2.00391024E-03  3.23912085E-13 -5.79803577E-12 -6.70408170E-02 -1.11158212E-01
 -9.57628030E-02 -3.02587451E-12  6.16650573E-11  3.16296499E-01 -1.28094618E-01
 -5.42574733E-12  9.97038846E-11  2.85283336E-01 -2.20085955E-02 -2.64667900E-13
  2.97778739E-11 -2.94969659E-01 -8.10702837E-02 -2.17683691E-14 -6.19606691E-12
 -9.65434109E-03  3.78452421E-12  5.39223081E-04  8.88663700E-03 -9.06731204E-13
  6.70408185E-02  1.11158213E-01 -9.57629155E-02 -7.62145319E-12  1.35343023E-10
 -3.16296495E-01 -1.28094755E-01 -9.61886733E-12  1.92331274E-10 -2.85283337E-01
 -2.20086335E-02 -8.11529685E-12  7.60324536E-11  2.94969656E-01 -8.10702811E-02
  1.41831631E-12  1.22508735E-11  9.65433901E-03  3.16544920E-11 -5.39223149E-04
 -8.88663238E-03 -1.82231111E-12  1.23392987E-01  1.59592815E-01 -2.20652866E-03
  2.04288862E-02  2.70242901E-13 -6.30119077E-12 -1.23393076E-01 -1.59592922E-01
  2.20652423E-03  2.04289036E-02 -1.61999194E-13 -3.63101887E-11  9.62673659E-03
  1.54061504E-02  1.89790939E-01 -3.48755936E-12 -4.71337732E-12 -4.20291699E-02
  2.52263543E-01 -7.02711330E-12  7.13335124E-12 -9.07224176E-02  1.04564629E-01
 -6.48119324E-13 -1.58346465E-11 -8.51815899E-03  8.10111822E-03 -1.92370106E-12
 -2.16473751E-11 -3.59678408E-03  2.69833319E-11 -3.35504420E-05  6.71733159E-03
 -2.13955633E-12  9.62670047E-03  1.54060896E-02 -1.89790891E-01 -3.32537431E-12
  1.61896038E-10 -4.20289904E-02 -2.52263453E-01 -3.53995812E-12  2.12630881E-10
 -9.07222354E-02 -1.04564596E-01 -4.55731404E-12  1.16080339E-10 -8.51841592E-03
 -8.10104673E-03  2.16039212E-12  2.70928106E-11 -3.59678748E-03  2.62814763E-11
 -3.35501701E-05  6.71733356E-03 -2.47466560E-12 -1.32211042E-01 -1.85653348E-01
  4.18595455E-03 -2.69593321E-02 -1.28330964E-12  1.87976396E-11 -1.32210992E-01
 -1.85653269E-01  4.18595413E-03  2.69593248E-02  3.90231020E-13 -5.78017203E-11
  2.51073196E-12  5.02820552E-12 -4.92881168E-12  1.97933794E-01  1.35580879E-02
 -2.97325818E-11 -5.47494986E-12  3.25393703E-01  2.22887662E-02  3.34564388E-10
  3.29238146E-10  2.06932214E-01  1.41746537E-02  3.56163958E-10  1.23669559E-10
 -6.75381226E-03 -4.62882509E-04  5.34671935E-13  2.24365144E-03  9.63391530E-12
  4.84639881E-12  3.27549472E-02 -4.33052665E-12 -8.54029193E-12  3.75113810E-12
  1.97933779E-01  1.35580870E-02  4.27851267E-11  1.08831127E-11  3.25393682E-01
  2.22887648E-02 -3.15862214E-10  3.41655455E-10  2.06932195E-01  1.41746524E-02
 -3.51299561E-10  1.26092752E-10 -6.75381123E-03 -4.62882443E-04 -1.55236439E-12
 -2.24365148E-03 -1.40644329E-11 -4.35206584E-12 -3.27549478E-02  1.94355570E-13
  5.90940490E-11  1.44277454E-10  3.64718119E-12  1.25799842E-02  8.61700820E-04
 -5.20037662E-12 -6.84715786E-11 -1.55793488E-10  7.94551223E-12  1.25799862E-02
  8.61700960E-04  4.12400325E-11  6.98472554E-11 -4.33073794E-11 -1.35116050E-02
  1.97255674E-01 -2.09355088E-10 -3.36425366E-11 -2.21895707E-02  3.23942939E-01
 -4.77952066E-10 -2.61548151E-10 -1.41772545E-02  2.06978422E-01 -2.21730666E-11
 -2.57165744E-11  2.17189913E-04 -3.17784051E-03  1.51952416E-11  3.15690559E-02
 -2.78538123E-12  1.48471052E-13 -2.16241667E-03 -6.72119636E-11 -1.13912532E-10
  1.50088185E-10 -1.35116031E-02  1.97255648E-01  3.40721884E-10  2.60361254E-10
 -2.21895680E-02  3.23942902E-01  6.50275993E-10 -1.58725728E-10 -1.41772519E-02
  2.06978384E-01  2.79034215E-12 -4.27549877E-11  2.17189698E-04 -3.17783743E-03
 -1.69803847E-11 -3.15690579E-02  3.92531512E-12 -8.34551536E-12  2.16241681E-03
  4.47582648E-11  3.48133797E-11 -9.05010437E-11  1.81144892E-11 -9.55608804E-04
  1.39508006E-02 -4.44184045E-11  2.04686407E-11  1.53287105E-10  3.91589788E-11
 -9.55608893E-04  1.39508020E-02 -3.59762289E-12 -7.13804251E-12  1.14850146E-11
  2.11818367E-01  1.45090959E-02  4.06632286E-11  7.90900830E-12  3.47848000E-01
  2.38268627E-02 -4.96684014E-10 -4.27886994E-10  4.78620632E-01  3.27843822E-02
 -4.13415418E-10 -1.21901591E-10  1.62273272E-01  1.11159424E-02  2.78754126E-12
 -2.25000898E-03  9.49162378E-12  4.88561887E-13 -3.28478659E-02  4.77630041E-12
  9.31919868E-12 -1.54787019E-11 -2.11818373E-01 -1.45090962E-02 -4.48765660E-11
 -2.54493499E-11 -3.47848012E-01 -2.38268635E-02  3.76202227E-10 -5.14999978E-10
 -4.78620644E-01 -3.27843830E-02  3.46948325E-10 -1.70910588E-10 -1.62273275E-01
 -1.11159425E-02  5.35863199E-13 -2.25000894E-03  2.15889326E-11  9.08108181E-12
 -3.28478652E-02  1.99661951E-12 -8.01003037E-11 -1.53356570E-10 -5.15157309E-12
  2.59709932E-02  1.77896085E-03  1.47704030E-11  1.16855297E-10  3.00801979E-10
 -6.44961895E-12 -2.59709949E-02 -1.77896096E-03 -4.47411526E-11 -7.78847495E-11
  1.80769261E-10 -1.42121671E-02  2.07482799E-01  2.91447820E-10  2.31301180E-10
 -2.29617435E-02  3.35218065E-01 -2.54077392E-10 -1.57687296E-10 -3.35265288E-02
  4.89450671E-01  5.54957834E-10  1.99989616E-10 -1.40217529E-02  2.04713783E-01
  1.75802591E-11 -3.49099032E-02 -2.09691735E-12 -1.33132653E-11  2.39125698E-03
  9.63965040E-11  1.64107677E-10 -2.19416157E-10  1.42121679E-02 -2.07482810E-01
 -4.84216447E-10 -3.61608655E-10  2.29617452E-02 -3.35218089E-01 -9.18489466E-10
 -8.95378335E-10  3.35265304E-02 -4.89450693E-01 -9.73006970E-10  1.25601817E-10
  1.40217536E-02 -2.04713792E-01 -1.64955888E-11 -3.49098999E-02 -6.11929251E-12
  9.37822552E-11  2.39125675E-03 -5.29950048E-12 -1.10327758E-10 -1.49479500E-10
  2.68919260E-12 -1.88310944E-03  2.74915180E-02  2.81584492E-10  7.29667876E-10
  8.81109083E-10 -1.79025737E-11  1.88310959E-03 -2.74915202E-02 -5.40087776E-02
 -9.31135429E-02 -1.58008366E-03  6.48839485E-13 -9.56910692E-11  2.89612777E-01
 -1.26284966E-02 -2.89532207E-12 -1.50652552E-10  9.62406697E-01  4.73176096E-02
  9.26445810E-12 -2.94889522E-10  6.74074648E+00  2.09634611E+00 -1.78107609E-12
 -4.49014364E-10  1.68291120E-02  6.67288693E-11  6.71378150E-04 -3.89043220E-02
 -1.09734128E-12  5.40087590E-02  9.31135109E-02 -1.57996934E-03  7.47743440E-13
  2.63370180E-10 -2.89612692E-01 -1.26283271E-02  5.76591953E-12  4.44009702E-10
 -9.62406289E-01  4.73178403E-02 -1.04359876E-11  9.01838178E-10 -6.74074674E+00
  2.09634551E+00  5.26094173E-12  5.28323072E-11 -1.68291009E-02 -2.82232732E-11
 -6.71377934E-04  3.89042996E-02 -1.27536243E-12 -7.85928684E-02 -2.58839763E-01
 -4.54730587E-01  1.96659153E-02  1.00280381E-12 -3.44629598E-11  7.85928066E-02
  2.58839539E-01  4.54730236E-01  1.96658928E-02  2.36561902E-12  1.68325282E-11
  2.34334832E-02  4.08805309E-02  3.03790162E-02  8.27605683E-13  2.66067950E-11
 -1.50305775E-01  6.08447839E-02  1.62212492E-13  2.67273059E-11 -2.98500329E-01
  5.81405183E-02  5.31261320E-14  1.70589353E-10  9.49897221E-01 -5.35935113E-01
 -3.14792052E-11  7.17575945E-10  9.94339733E-03  1.08670809E-11  1.32121147E-04
 -1.91422657E-02 -1.04282907E-12  2.34335055E-02  4.08805693E-02 -3.03790215E-02
 -2.60518720E-12  6.27078861E-12 -1.50305898E-01 -6.08448047E-02 -3.00254289E-12
  5.31961062E-11 -2.98500833E-01 -5.81403683E-02 -1.64725226E-12 -1.50358863E-10
  9.49894607E-01  5.35936073E-01  4.29009298E-11 -1.18667844E-09  9.94339146E-03
  2.81258602E-11  1.32120997E-04 -1.91422532E-02 -1.10529405E-12 -2.57144325E-02
  3.22380328E-02 -2.89416192E-01 -8.11655157E-03 -6.36891371E-13  1.22057422E-11
 -2.57144123E-02  3.22381130E-02 -2.89416127E-01  8.11655852E-03  8.30374470E-13
 -3.17392158E-11  8.45112687E-04  7.99056531E-04  9.94764277E-02  1.83181560E-13
 -9.97469405E-11  3.20017315E-02  1.42855083E-01  3.39570665E-12 -1.71378672E-10
 -2.64946111E-01  2.46444045E-01  8.36178791E-13 -5.37400801E-10 -2.51845430E-01
 -8.45594986E-01  4.39240560E-11 -5.54666572E-10 -2.06282830E-02  4.20755735E-11
 -5.05448255E-04  4.30736257E-02 -2.02169535E-13  8.45135036E-04  7.99095667E-04
 -9.94764381E-02  1.83344082E-12  2.50160846E-10  3.20016030E-02 -1.42855100E-01
  2.83450612E-12  3.63976083E-10 -2.64946681E-01 -2.46443904E-01 -3.39372606E-12
  1.09455119E-09 -2.51853123E-01  8.45597731E-01 -4.77126042E-11 -1.77303269E-10
 -2.06282829E-02 -3.76820290E-11 -5.05448560E-04  4.30736299E-02 -1.91184326E-12
  5.82850410E-02  1.99983686E-01  6.31390230E-01 -2.51356256E-02 -4.33442225E-13
 -2.83501366E-11  5.82850236E-02  1.99983709E-01  6.31390126E-01  2.51356434E-02
  1.24825397E-12  3.23636010E-12  5.51799411E-13  1.19391783E-12  2.82549775E-12
 -6.84244399E-02 -4.06821717E-03 -3.18621741E-12  4.52672082E-12 -8.09400162E-02
 -4.76109978E-03  1.07091726E-10  1.64535473E-10 -1.93787786E-01 -1.15007260E-02
  5.80356709E-10  1.89689193E-10  6.13047495E-01  3.63953160E-02 -1.11803597E-12
 -1.11369368E-03 -2.38908557E-12  1.19211783E-12 -1.86466467E-02 -3.76993502E-13
 -7.47785033E-13 -6.09734574E-12 -6.84244367E-02 -4.06821696E-03  2.08240431E-12
 -9.87837494E-12 -8.09400152E-02 -4.76109963E-03 -1.00410540E-10  1.60499817E-10
 -1.93787776E-01 -1.15007254E-02 -5.82373230E-10  3.18093377E-10  6.13047413E-01
  3.63953112E-02 -9.72194024E-13  1.11369360E-03  3.02411858E-12  2.66377842E-12
  1.86466451E-02  6.13582147E-12  4.19806604E-11  1.74590316E-10  2.64317367E-12
  7.88785268E-03  4.73098798E-04 -6.32846799E-13 -3.59047846E-11 -1.44433306E-10
  4.23332544E-12  7.88784880E-03  4.73098575E-04 -1.05427458E-11 -1.67985371E-11
  6.06588460E-11  4.03772681E-03 -6.81269385E-02  2.73211754E-11  1.06173769E-10
  5.28490881E-03 -8.82908964E-02  1.63114638E-09  1.58136430E-09  1.12975487E-02
 -1.90237951E-01  1.01665163E-08  2.28168954E-09 -3.62778216E-02  6.11126631E-01
 -1.86864625E-11 -1.81298541E-02  4.02647260E-13  2.92182005E-11  1.06942129E-03
  1.80659957E-11  3.03220370E-11 -7.93714896E-11  4.03772672E-03 -6.81269367E-02
 -5.86959059E-11 -1.08205148E-10  5.28490930E-03 -8.82909031E-02 -1.66384309E-09
  1.43687609E-09  1.12975480E-02 -1.90237939E-01 -9.80064202E-09  4.53829694E-09
 -3.62778159E-02  6.11126537E-01 -7.85086123E-12  1.81298516E-02 -1.00162142E-12
  2.49142036E-11 -1.06942113E-03  1.67905146E-11  3.18660079E-10  9.72395730E-10
 -6.55084827E-12 -4.31936188E-04  7.35747717E-03  4.68197158E-11 -2.06127044E-10
 -6.68965593E-10  2.45720821E-11 -4.31935905E-04  7.35747254E-03  3.06141228E-02
  5.21325911E-02 -5.12308002E-02  5.94216149E-12  7.23333967E-11 -1.44069486E-01
 -7.82699526E-02  1.58208033E-11  1.05618301E-10 -6.50816015E-01  1.12154587E-01
 -1.08440736E-12  2.92634717E-10  2.41769045E-01  1.03084505E+00 -5.29148499E-11
  9.39484305E-10 -2.67920503E-02 -6.39292025E-11 -6.67751327E-04  5.61079353E-02
  1.48941206E-12 -3.06141196E-02 -5.21325854E-02 -5.12307706E-02 -2.52238730E-12
 -1.08976688E-10  1.44069456E-01 -7.82699097E-02 -1.07386094E-11 -1.57004744E-10
  6.50816146E-01  1.12154741E-01  2.11902162E-11 -8.42537224E-10 -2.41769195E-01
  1.03084402E+00  1.36113171E-11 -2.26113412E-09  2.67920570E-02  6.96324313E-11
  6.67751721E-04 -5.61079526E-02 -1.00368101E-12  1.04145310E-01  2.67460912E-01
  1.16965551E+00 -1.25243224E-03 -5.52645159E-13  2.26164881E-11 -1.04145306E-01
 -2.67460981E-01 -1.16965562E+00 -1.25244789E-03 -2.59217350E-12 -4.74404825E-11
  3.83528534E-13  7.61532107E-13 -8.26580442E-13 -8.58371379E-02 -5.89152618E-03
 -6.32269767E-12  3.38900807E-12 -1.16429888E-01 -7.99160727E-03  8.46925962E-11
  1.60366111E-10 -3.41247851E-01 -2.34224722E-02 -1.83775163E-09 -3.40625124E-10
  2.18644263E+00  1.50055640E-01 -7.68776037E-13  1.37614001E-04 -4.11582394E-12