 Entering Gaussian System, Link 0=g16
 Initial command:
 /home/szhao/Apps/g16/l1.exe "/home/szhao/tmp/Gau-154397.inp" -scrdir="/home/szhao/tmp/"
 Default is to use a total of  16 processors:
                               16 via shared-memory
                                1 via Linda
 Entering Link 1 = /home/szhao/Apps/g16/l1.exe PID=    154398.
  
 Copyright (c) 1988,1990,1992,1993,1995,1998,2003,2009,2016,
            Gaussian, Inc.  All Rights Reserved.
  
 This is part of the Gaussian(R) 16 program.  It is based on
 the Gaussian(R) 09 system (copyright 2009, Gaussian, Inc.),
 the Gaussian(R) 03 system (copyright 2003, Gaussian, Inc.),
 the Gaussian(R) 98 system (copyright 1998, Gaussian, Inc.),
 the Gaussian(R) 94 system (copyright 1995, Gaussian, Inc.),
 the Gaussian 92(TM) system (copyright 1992, Gaussian, Inc.),
 the Gaussian 90(TM) system (copyright 1990, Gaussian, Inc.),
 the Gaussian 88(TM) system (copyright 1988, Gaussian, Inc.),
 the Gaussian 86(TM) system (copyright 1986, Carnegie Mellon
 University), and the Gaussian 82(TM) system (copyright 1983,
 Carnegie Mellon University). Gaussian is a federally registered
 trademark of Gaussian, Inc.
  
 This software contains proprietary and confidential information,
 including trade secrets, belonging to Gaussian, Inc.
  
 This software is provided under written license and may be
 used, copied, transmitted, or stored only in accord with that
 written license.
  
 The following legend is applicable only to US Government
 contracts under FAR:
  
                    RESTRICTED RIGHTS LEGEND
  
 Use, reproduction and disclosure by the US Government is
 subject to restrictions as set forth in subparagraphs (a)
 and (c) of the Commercial Computer Software - Restricted
 Rights clause in FAR 52.227-19.
  
 Gaussian, Inc.
 340 Quinnipiac St., Bldg. 40, Wallingford CT 06492
  
  
 ---------------------------------------------------------------
 Warning -- This program may not be used in any manner that
 competes with the business of Gaussian, Inc. or will provide
 assistance to any competitor of Gaussian, Inc.  The licensee
 of this program is prohibited from giving any competitor of
 Gaussian, Inc. access to this program.  By using this program,
 the user acknowledges that Gaussian, Inc. is engaged in the
 business of creating and licensing software in the field of
 computational chemistry and represents and warrants to the
 licensee that it is not a competitor of Gaussian, Inc. and that
 it will not use this program in any manner prohibited above.
 ---------------------------------------------------------------
  

 Cite this work as:
 Gaussian 16, Revision A.03,
 M. J. Frisch, G. W. Trucks, H. B. Schlegel, G. E. Scuseria, 
 M. A. Robb, J. R. Cheeseman, G. Scalmani, V. Barone, 
 G. A. Petersson, H. Nakatsuji, X. Li, M. Caricato, A. V. Marenich, 
 J. Bloino, B. G. Janesko, R. Gomperts, B. Mennucci, H. P. Hratchian, 
 J. V. Ortiz, A. F. Izmaylov, J. L. Sonnenberg, D. Williams-Young, 
 F. Ding, F. Lipparini, F. Egidi, J. Goings, B. Peng, A. Petrone, 
 T. Henderson, D. Ranasinghe, V. G. Zakrzewski, J. Gao, N. Rega, 
 G. Zheng, W. Liang, M. Hada, M. Ehara, K. Toyota, R. Fukuda, 
 J. Hasegawa, M. Ishida, T. Nakajima, Y. Honda, O. Kitao, H. Nakai, 
 T. Vreven, K. Throssell, J. A. Montgomery, Jr., J. E. Peralta, 
 F. Ogliaro, M. J. Bearpark, J. J. Heyd, E. N. Brothers, K. N. Kudin, 
 V. N. Staroverov, T. A. Keith, R. Kobayashi, J. Normand, 
 K. Raghavachari, A. P. Rendell, J. C. Burant, S. S. Iyengar, 
 J. Tomasi, M. Cossi, J. M. Millam, M. Klene, C. Adamo, R. Cammi, 
 J. W. Ochterski, R. L. Martin, K. Morokuma, O. Farkas, 
 J. B. Foresman, and D. J. Fox, Gaussian, Inc., Wallingford CT, 2016.
 
 ******************************************
 Gaussian 16:  ES64L-G16RevA.03 25-Dec-2016
                21-Apr-2025 
 ******************************************
 %chk=force.chk
 %mem=4GB
 %nprocshared=8
 Will use up to    8 processors via shared memory.
 ---------------------------------------------------
 #p UM062X/6-311+G** force int=superfine pop=saveNBO
 ---------------------------------------------------
 1/10=7,30=1,38=1/1,3;
 2/12=2,17=6,18=5,40=1/2;
 3/5=4,6=6,7=111,11=2,25=1,30=1,71=1,74=-55,75=-7,116=2/1,2,3;
 4//1;
 5/5=2,38=5/2;
 6/7=2,8=2,9=2,10=2,28=1,40=1,73=1/1,7;
 7/29=1/1,2,3,16;
 1/10=7,30=1/3;
 99//99;
 Leave Link    1 at Mon Apr 21 21:21:14 2025, MaxMem=   536870912 cpu:               1.7 elap:               0.2
 (Enter /home/szhao/Apps/g16/l101.exe)
 -------------------
 Title Card Required
 -------------------
 Symbolic Z-matrix:
 Charge =  0 Multiplicity = 1
 P                    -1.2885    0.        0. 
 P                     1.2885    0.        0. 
 
 ITRead=  0  0
 MicOpt= -1 -1
 NAtoms=      2 NQM=        2 NQMF=       0 NMMI=      0 NMMIF=      0
                NMic=       0 NMicF=      0.
                    Isotopes and Nuclear Properties:
 (Nuclear quadrupole moments (NQMom) in fm**2, nuclear magnetic moments (NMagM)
  in nuclear magnetons)

  Atom         1           2
 IAtWgt=          31          31
 AtmWgt=  30.9737634  30.9737634
 NucSpn=           1           1
 AtZEff=  -0.0000000  -0.0000000
 NQMom=    0.0000000   0.0000000
 NMagM=    1.1316000   1.1316000
 AtZNuc=  15.0000000  15.0000000
 Leave Link  101 at Mon Apr 21 21:21:15 2025, MaxMem=   536870912 cpu:               2.1 elap:               0.3
 (Enter /home/szhao/Apps/g16/l103.exe)

 GradGradGradGradGradGradGradGradGradGradGradGradGradGradGradGradGradGrad
 Berny optimization.
 Initialization pass.
 Trust Radius=3.00D-01 FncErr=1.00D-07 GrdErr=1.00D-07 EigMax=2.50D+02 EigMin=1.00D-04
 Number of steps in this run=      2 maximum allowed number of steps=      2.
 GradGradGradGradGradGradGradGradGradGradGradGradGradGradGradGradGradGrad

 Leave Link  103 at Mon Apr 21 21:21:15 2025, MaxMem=   536870912 cpu:               0.5 elap:               0.1
 (Enter /home/szhao/Apps/g16/l202.exe)
                          Input orientation:                          
 ---------------------------------------------------------------------
 Center     Atomic      Atomic             Coordinates (Angstroms)
 Number     Number       Type             X           Y           Z
 ---------------------------------------------------------------------
      1         15           0       -1.288495    0.000000    0.000000
      2         15           0        1.288495    0.000000    0.000000
 ---------------------------------------------------------------------
 Stoichiometry    P2
 Framework group  D*H[C*(P.P)]
 Deg. of freedom     1
 Full point group                 D*H     NOp   8
 Largest Abelian subgroup         D2H     NOp   8
 Largest concise Abelian subgroup C2      NOp   2
                         Standard orientation:                         
 ---------------------------------------------------------------------
 Center     Atomic      Atomic             Coordinates (Angstroms)
 Number     Number       Type             X           Y           Z
 ---------------------------------------------------------------------
      1         15           0        0.000000    0.000000    1.288495
      2         15           0        0.000000    0.000000   -1.288495
 ---------------------------------------------------------------------
 Rotational constants (GHZ):           0.0000000           4.9139163           4.9139163
 Leave Link  202 at Mon Apr 21 21:21:15 2025, MaxMem=   536870912 cpu:               0.3 elap:               0.1
 (Enter /home/szhao/Apps/g16/l301.exe)
 Standard basis: 6-311+G(d,p) (5D, 7F)
 Ernie: Thresh=  0.10000D-02 Tol=  0.10000D-05 Strict=F.
 There are    16 symmetry adapted cartesian basis functions of AG  symmetry.
 There are     1 symmetry adapted cartesian basis functions of B1G symmetry.
 There are     7 symmetry adapted cartesian basis functions of B2G symmetry.
 There are     7 symmetry adapted cartesian basis functions of B3G symmetry.
 There are     1 symmetry adapted cartesian basis functions of AU  symmetry.
 There are    16 symmetry adapted cartesian basis functions of B1U symmetry.
 There are     7 symmetry adapted cartesian basis functions of B2U symmetry.
 There are     7 symmetry adapted cartesian basis functions of B3U symmetry.
 There are    15 symmetry adapted basis functions of AG  symmetry.
 There are     1 symmetry adapted basis functions of B1G symmetry.
 There are     7 symmetry adapted basis functions of B2G symmetry.
 There are     7 symmetry adapted basis functions of B3G symmetry.
 There are     1 symmetry adapted basis functions of AU  symmetry.
 There are    15 symmetry adapted basis functions of B1U symmetry.
 There are     7 symmetry adapted basis functions of B2U symmetry.
 There are     7 symmetry adapted basis functions of B3U symmetry.
    60 basis functions,   100 primitive gaussians,    62 cartesian basis functions
    15 alpha electrons       15 beta electrons
       nuclear repulsion energy        46.2030789631 Hartrees.
 IExCor= 4336 DFT=T Ex+Corr=M062X ExCW=0 ScaHFX=  0.540000
 ScaDFX=  1.000000  1.000000  1.000000  1.000000 ScalE2=  1.000000  1.000000
 IRadAn=      7 IRanWt=     -1 IRanGd=            0 ICorTp=0 IEmpDi=  4
 NAtoms=    2 NActive=    2 NUniq=    1 SFac= 4.00D+00 NAtFMM=   60 NAOKFM=F Big=F
 Integral buffers will be    131072 words long.
 Raffenetti 2 integral format.
 Two-electron integral symmetry is turned on.
 Leave Link  301 at Mon Apr 21 21:21:15 2025, MaxMem=   536870912 cpu:               0.7 elap:               0.1
 (Enter /home/szhao/Apps/g16/l302.exe)
 NPDir=0 NMtPBC=     1 NCelOv=     1 NCel=       1 NClECP=     1 NCelD=      1
         NCelK=      1 NCelE2=     1 NClLst=     1 CellRange=     0.0.
 One-electron integrals computed using PRISM.
 One-electron integral symmetry used in STVInt
 NBasis=    60 RedAO= T EigKep=  4.25D-03  NBF=    15     1     7     7     1    15     7     7
 NBsUse=    60 1.00D-06 EigRej= -1.00D+00 NBFU=    15     1     7     7     1    15     7     7
 Precomputing XC quadrature grid using
 IXCGrd= 4 IRadAn=           7 IRanWt=          -1 IRanGd=           0 AccXCQ= 0.00D+00.
 Generated NRdTot=       0 NPtTot=           0 NUsed=           0 NTot=          32
 NSgBfM=    56    56    56    56    56 MxSgAt=     2 MxSgA2=     2.
 Leave Link  302 at Mon Apr 21 21:21:16 2025, MaxMem=   536870912 cpu:               1.6 elap:               0.3
 (Enter /home/szhao/Apps/g16/l303.exe)
 DipDrv:  MaxL=1.
 Leave Link  303 at Mon Apr 21 21:21:16 2025, MaxMem=   536870912 cpu:               0.6 elap:               0.1
 (Enter /home/szhao/Apps/g16/l401.exe)
 ExpMin= 3.48D-02 ExpMax= 7.75D+04 ExpMxC= 2.65D+03 IAcc=3 IRadAn=         7 AccDes= 0.00D+00
 Harris functional with IExCor= 1009 and IRadAn=       7 diagonalized for initial guess.
 HarFok:  IExCor= 1009 AccDes= 0.00D+00 IRadAn=         7 IDoV= 1 UseB2=F ITyADJ=14
 ICtDFT=  3500011 ScaDFX=  1.000000  1.000000  1.000000  1.000000
 FoFCou: FMM=F IPFlag=           0 FMFlag=      100000 FMFlg1=           0
         NFxFlg=           0 DoJE=T BraDBF=F KetDBF=T FulRan=T
         wScrn=  0.000000 ICntrl=       500 IOpCl=  0 I1Cent=   200000004 NGrid=           0
         NMat0=    1 NMatS0=      1 NMatT0=    0 NMatD0=    1 NMtDS0=    0 NMtDT0=    0
 Petite list used in FoFCou.
 Harris En= -682.239605252229    
 JPrj=0 DoOrth=F DoCkMO=F.
 Initial guess orbital symmetries:
 Alpha Orbitals:
       Occupied  (SGU) (SGG) (SGU) (SGG) (SGG) (SGU) (PIU) (PIU)
                 (PIG) (PIG) (SGG) (SGU) (SGG) (PIU) (PIU)
       Virtual   (PIG) (PIG) (SGU) (SGG) (SGU) (PIU) (PIU) (SGG)
                 (PIG) (PIG) (SGU) (SGU) (PIU) (PIU) (SGG) (PIG)
                 (PIG) (SGG) (SGU) (SGG) (PIU) (PIU) (DLTG) (DLTG)
                 (DLTU) (DLTU) (PIG) (PIG) (SGU) (PIU) (PIU) (SGG)
                 (PIG) (PIG) (SGU) (SGG) (SGU) (PIU) (PIU) (SGG)
                 (PIG) (PIG) (SGU) (SGG) (SGU)
 Beta  Orbitals:
       Occupied  (SGU) (SGG) (SGU) (SGG) (SGG) (SGU) (PIU) (PIU)
                 (PIG) (PIG) (SGG) (SGU) (SGG) (PIU) (PIU)
       Virtual   (PIG) (PIG) (SGU) (SGG) (SGU) (PIU) (PIU) (SGG)
                 (PIG) (PIG) (SGU) (SGU) (PIU) (PIU) (SGG) (PIG)
                 (PIG) (SGG) (SGU) (SGG) (PIU) (PIU) (DLTG) (DLTG)
                 (DLTU) (DLTU) (PIG) (PIG) (SGU) (PIU) (PIU) (SGG)
                 (PIG) (PIG) (SGU) (SGG) (SGU) (PIU) (PIU) (SGG)
                 (PIG) (PIG) (SGU) (SGG) (SGU)
 The electronic state of the initial guess is 1-SGG.
 Initial guess <Sx>= 0.0000 <Sy>= 0.0000 <Sz>= 0.0000 <S**2>=-0.0000 S=-0.0000
 Leave Link  401 at Mon Apr 21 21:21:17 2025, MaxMem=   536870912 cpu:               2.3 elap:               0.4
 (Enter /home/szhao/Apps/g16/l502.exe)
 Keep R1 and R2 ints in memory in symmetry-blocked form, NReq=8792365.
 FoFCou: FMM=F IPFlag=           0 FMFlag=           0 FMFlg1=           0
         NFxFlg=           0 DoJE=F BraDBF=F KetDBF=F FulRan=T
         wScrn=  0.000000 ICntrl=       600 IOpCl=  0 I1Cent=           0 NGrid=           0
         NMat0=    1 NMatS0=   1830 NMatT0=    0 NMatD0=    1 NMtDS0=    0 NMtDT0=    0
 Petite list used in FoFCou.
 UHF open shell SCF:
 Using DIIS extrapolation, IDIIS=  1040.
 NGot=   536870912 LenX=   536388430 LenY=   536384145
 Requested convergence on RMS density matrix=1.00D-08 within 128 cycles.
 Requested convergence on MAX density matrix=1.00D-06.
 Requested convergence on             energy=1.00D-06.
 No special actions if energy rises.

 Cycle   1  Pass 1  IDiag  1:
 E= -682.505439164566    
 DIIS: error= 2.96D-02 at cycle   1 NSaved=   1.
 NSaved= 1 IEnMin= 1 EnMin= -682.505439164566     IErMin= 1 ErrMin= 2.96D-02
 ErrMax= 2.96D-02  0.00D+00 EMaxC= 1.00D-01 BMatC= 2.12D-01 BMatP= 2.12D-01
 IDIUse=3 WtCom= 7.04D-01 WtEn= 2.96D-01
 Coeff-Com:  0.100D+01
 Coeff-En:   0.100D+01
 Coeff:      0.100D+01
 Gap=     0.155 Goal=   None    Shift=    0.000
 Gap=     0.155 Goal=   None    Shift=    0.000
 GapD=    0.155 DampG=1.000 DampE=0.500 DampFc=0.5000 IDamp=-1.
 Damping current iteration by 5.00D-01
 RMSDP=2.27D-03 MaxDP=4.02D-02              OVMax= 3.20D-02

 Cycle   2  Pass 1  IDiag  1:
 E= -682.510968240200     Delta-E=       -0.005529075634 Rises=F Damp=T
 DIIS: error= 1.18D-02 at cycle   2 NSaved=   2.
 NSaved= 2 IEnMin= 2 EnMin= -682.510968240200     IErMin= 2 ErrMin= 1.18D-02
 ErrMax= 1.18D-02  0.00D+00 EMaxC= 1.00D-01 BMatC= 3.17D-02 BMatP= 2.12D-01
 IDIUse=3 WtCom= 8.82D-01 WtEn= 1.18D-01
 Coeff-Com: -0.562D+00 0.156D+01
 Coeff-En:   0.000D+00 0.100D+01
 Coeff:     -0.496D+00 0.150D+01
 Gap=     0.157 Goal=   None    Shift=    0.000
 Gap=     0.157 Goal=   None    Shift=    0.000
 RMSDP=9.67D-04 MaxDP=1.39D-02 DE=-5.53D-03 OVMax= 5.50D-03

 Cycle   3  Pass 1  IDiag  1:
 E= -682.516041088048     Delta-E=       -0.005072847848 Rises=F Damp=F
 DIIS: error= 3.22D-04 at cycle   3 NSaved=   3.
 NSaved= 3 IEnMin= 3 EnMin= -682.516041088048     IErMin= 3 ErrMin= 3.22D-04
 ErrMax= 3.22D-04  0.00D+00 EMaxC= 1.00D-01 BMatC= 2.97D-05 BMatP= 3.17D-02
 IDIUse=3 WtCom= 9.97D-01 WtEn= 3.22D-03
 Coeff-Com: -0.127D-01 0.147D-01 0.998D+00
 Coeff-En:   0.000D+00 0.000D+00 0.100D+01
 Coeff:     -0.127D-01 0.146D-01 0.998D+00
 Gap=     0.157 Goal=   None    Shift=    0.000
 Gap=     0.157 Goal=   None    Shift=    0.000
 RMSDP=9.65D-05 MaxDP=1.39D-03 DE=-5.07D-03 OVMax= 1.99D-03

 Cycle   4  Pass 1  IDiag  1:
 E= -682.516054345167     Delta-E=       -0.000013257119 Rises=F Damp=F
 DIIS: error= 6.49D-05 at cycle   4 NSaved=   4.
 NSaved= 4 IEnMin= 4 EnMin= -682.516054345167     IErMin= 4 ErrMin= 6.49D-05
 ErrMax= 6.49D-05  0.00D+00 EMaxC= 1.00D-01 BMatC= 1.42D-06 BMatP= 2.97D-05
 IDIUse=1 WtCom= 1.00D+00 WtEn= 0.00D+00
 Coeff-Com:  0.555D-02-0.130D-01-0.743D-02 0.101D+01
 Coeff:      0.555D-02-0.130D-01-0.743D-02 0.101D+01
 Gap=     0.157 Goal=   None    Shift=    0.000
 Gap=     0.157 Goal=   None    Shift=    0.000
 RMSDP=2.50D-05 MaxDP=4.59D-04 DE=-1.33D-05 OVMax= 6.21D-04

 Cycle   5  Pass 1  IDiag  1:
 E= -682.516055079393     Delta-E=       -0.000000734226 Rises=F Damp=F
 DIIS: error= 3.31D-05 at cycle   5 NSaved=   5.
 NSaved= 5 IEnMin= 5 EnMin= -682.516055079393     IErMin= 5 ErrMin= 3.31D-05
 ErrMax= 3.31D-05  0.00D+00 EMaxC= 1.00D-01 BMatC= 2.01D-07 BMatP= 1.42D-06
 IDIUse=1 WtCom= 1.00D+00 WtEn= 0.00D+00
 Coeff-Com:  0.430D-03-0.270D-03-0.748D-01 0.156D+00 0.919D+00
 Coeff:      0.430D-03-0.270D-03-0.748D-01 0.156D+00 0.919D+00
 Gap=     0.157 Goal=   None    Shift=    0.000
 Gap=     0.157 Goal=   None    Shift=    0.000
 RMSDP=4.98D-06 MaxDP=6.15D-05 DE=-7.34D-07 OVMax= 1.47D-04

 Cycle   6  Pass 1  IDiag  1:
 E= -682.516055143176     Delta-E=       -0.000000063783 Rises=F Damp=F
 DIIS: error= 5.79D-06 at cycle   6 NSaved=   6.
 NSaved= 6 IEnMin= 6 EnMin= -682.516055143176     IErMin= 6 ErrMin= 5.79D-06
 ErrMax= 5.79D-06  0.00D+00 EMaxC= 1.00D-01 BMatC= 4.56D-09 BMatP= 2.01D-07
 IDIUse=1 WtCom= 1.00D+00 WtEn= 0.00D+00
 Coeff-Com: -0.637D-04 0.290D-03-0.134D-01 0.184D-01 0.199D+00 0.796D+00
 Coeff:     -0.637D-04 0.290D-03-0.134D-01 0.184D-01 0.199D+00 0.796D+00
 Gap=     0.157 Goal=   None    Shift=    0.000
 Gap=     0.157 Goal=   None    Shift=    0.000
 RMSDP=7.21D-07 MaxDP=7.23D-06 DE=-6.38D-08 OVMax= 1.90D-05

 Cycle   7  Pass 1  IDiag  1:
 E= -682.516055144636     Delta-E=       -0.000000001460 Rises=F Damp=F
 DIIS: error= 7.21D-07 at cycle   7 NSaved=   7.
 NSaved= 7 IEnMin= 7 EnMin= -682.516055144636     IErMin= 7 ErrMin= 7.21D-07
 ErrMax= 7.21D-07  0.00D+00 EMaxC= 1.00D-01 BMatC= 1.05D-10 BMatP= 4.56D-09
 IDIUse=1 WtCom= 1.00D+00 WtEn= 0.00D+00
 Coeff-Com:  0.327D-04-0.725D-04 0.931D-03-0.383D-02-0.156D-01 0.529D-01
 Coeff-Com:  0.966D+00
 Coeff:      0.327D-04-0.725D-04 0.931D-03-0.383D-02-0.156D-01 0.529D-01
 Coeff:      0.966D+00
 Gap=     0.157 Goal=   None    Shift=    0.000
 Gap=     0.157 Goal=   None    Shift=    0.000
 RMSDP=1.30D-07 MaxDP=2.35D-06 DE=-1.46D-09 OVMax= 2.95D-06

 Cycle   8  Pass 1  IDiag  1:
 E= -682.516055144664     Delta-E=       -0.000000000028 Rises=F Damp=F
 DIIS: error= 4.15D-08 at cycle   8 NSaved=   8.
 NSaved= 8 IEnMin= 8 EnMin= -682.516055144664     IErMin= 8 ErrMin= 4.15D-08
 ErrMax= 4.15D-08  0.00D+00 EMaxC= 1.00D-01 BMatC= 2.42D-13 BMatP= 1.05D-10
 IDIUse=1 WtCom= 1.00D+00 WtEn= 0.00D+00
 Coeff-Com: -0.536D-05 0.103D-04 0.440D-04 0.105D-03-0.160D-03-0.935D-02
 Coeff-Com: -0.877D-01 0.110D+01
 Coeff:     -0.536D-05 0.103D-04 0.440D-04 0.105D-03-0.160D-03-0.935D-02
 Coeff:     -0.877D-01 0.110D+01
 Gap=     0.157 Goal=   None    Shift=    0.000
 Gap=     0.157 Goal=   None    Shift=    0.000
 RMSDP=1.85D-08 MaxDP=1.64D-07 DE=-2.82D-11 OVMax= 3.84D-07

 Cycle   9  Pass 1  IDiag  1:
 E= -682.516055144664     Delta-E=        0.000000000000 Rises=F Damp=F
 DIIS: error= 3.45D-09 at cycle   9 NSaved=   9.
 NSaved= 9 IEnMin= 8 EnMin= -682.516055144664     IErMin= 9 ErrMin= 3.45D-09
 ErrMax= 3.45D-09  0.00D+00 EMaxC= 1.00D-01 BMatC= 1.61D-15 BMatP= 2.42D-13
 IDIUse=1 WtCom= 1.00D+00 WtEn= 0.00D+00
 Coeff-Com:  0.663D-06-0.125D-05-0.930D-05-0.323D-05 0.864D-04 0.970D-03
 Coeff-Com:  0.755D-02-0.147D+00 0.114D+01
 Coeff:      0.663D-06-0.125D-05-0.930D-05-0.323D-05 0.864D-04 0.970D-03
 Coeff:      0.755D-02-0.147D+00 0.114D+01
 Gap=     0.157 Goal=   None    Shift=    0.000
 Gap=     0.157 Goal=   None    Shift=    0.000
 RMSDP=1.54D-09 MaxDP=1.69D-08 DE= 0.00D+00 OVMax= 4.68D-08

 SCF Done:  E(UM062X) =  -682.516055145     A.U. after    9 cycles
            NFock=  9  Conv=0.15D-08     -V/T= 2.0022
 <Sx>= 0.0000 <Sy>= 0.0000 <Sz>= 0.0000 <S**2>=-0.0000 S=-0.0000
 <L.S>=  0.00000000000    
 KE= 6.810500298514D+02 PE=-1.715863657492D+03 EE= 3.060944935327D+02
 Annihilation of the first spin contaminant:
 S**2 before annihilation    -0.0000,   after     0.0000
 Leave Link  502 at Mon Apr 21 21:21:18 2025, MaxMem=   536870912 cpu:               6.5 elap:               0.9
 (Enter /home/szhao/Apps/g16/l601.exe)
 Copying SCF densities to generalized density rwf, IOpCl= 1 IROHF=0.

 **********************************************************************

            Population analysis using the SCF density.

 **********************************************************************

 Orbital symmetries:
 Alpha Orbitals:
       Occupied  (SGG) (SGU) (SGG) (SGU) (PIU) (PIU) (PIG) (PIG)
                 (SGG) (SGU) (SGG) (SGU) (SGG) (PIU) (PIU)
       Virtual   (PIG) (PIG) (SGU) (SGG) (SGU) (PIU) (PIU) (SGG)
                 (PIG) (PIG) (SGU) (SGU) (SGG) (PIU) (PIU) (PIG)
                 (PIG) (SGG) (SGU) (SGG) (PIU) (PIU) (DLTG) (DLTG)
                 (DLTU) (DLTU) (PIG) (PIG) (SGU) (PIU) (PIU) (SGG)
                 (PIG) (PIG) (SGU) (SGG) (SGU) (PIU) (PIU) (SGG)
                 (PIG) (PIG) (SGU) (SGG) (SGU)
 Beta  Orbitals:
       Occupied  (SGG) (SGU) (SGG) (SGU) (PIU) (PIU) (PIG) (PIG)
                 (SGG) (SGU) (SGG) (SGU) (SGG) (PIU) (PIU)
       Virtual   (PIG) (PIG) (SGU) (SGG) (SGU) (PIU) (PIU) (SGG)
                 (PIG) (PIG) (SGU) (SGU) (SGG) (PIU) (PIU) (PIG)
                 (PIG) (SGG) (SGU) (SGG) (PIU) (PIU) (DLTG) (DLTG)
                 (DLTU) (DLTU) (PIG) (PIG) (SGU) (PIU) (PIU) (SGG)
                 (PIG) (PIG) (SGU) (SGG) (SGU) (PIU) (PIU) (SGG)
                 (PIG) (PIG) (SGU) (SGG) (SGU)
 The electronic state is 1-SGG.
 Alpha  occ. eigenvalues --  -78.10610 -78.10610  -6.92200  -6.92196  -5.03561
 Alpha  occ. eigenvalues --   -5.03561  -5.03561  -5.03561  -5.03438  -5.03432
 Alpha  occ. eigenvalues --   -0.68323  -0.59187  -0.32861  -0.28643  -0.28643
 Alpha virt. eigenvalues --   -0.12963  -0.12963  -0.04401   0.02494   0.04009
 Alpha virt. eigenvalues --    0.04525   0.04525   0.05973   0.06756   0.06756
 Alpha virt. eigenvalues --    0.12173   0.29798   0.30800   0.30898   0.30898
 Alpha virt. eigenvalues --    0.33297   0.33297   0.53003   0.59154   0.64093
 Alpha virt. eigenvalues --    0.65785   0.65785   0.68979   0.68980   0.70217
 Alpha virt. eigenvalues --    0.70217   0.75384   0.75384   0.92734   1.50748
 Alpha virt. eigenvalues --    1.50748   1.52255   1.56336   1.56336   1.68676
 Alpha virt. eigenvalues --    6.73699   6.80778  13.91735  13.91735  13.94301
 Alpha virt. eigenvalues --   13.95630  13.95630  14.01125 162.97547 163.06201
  Beta  occ. eigenvalues --  -78.10610 -78.10610  -6.92200  -6.92196  -5.03561
  Beta  occ. eigenvalues --   -5.03561  -5.03561  -5.03561  -5.03438  -5.03432
  Beta  occ. eigenvalues --   -0.68323  -0.59187  -0.32861  -0.28643  -0.28643
  Beta virt. eigenvalues --   -0.12963  -0.12963  -0.04401   0.02494   0.04009
  Beta virt. eigenvalues --    0.04525   0.04525   0.05973   0.06756   0.06756
  Beta virt. eigenvalues --    0.12173   0.29798   0.30800   0.30898   0.30898
  Beta virt. eigenvalues --    0.33297   0.33297   0.53003   0.59154   0.64093
  Beta virt. eigenvalues --    0.65785   0.65785   0.68979   0.68980   0.70217
  Beta virt. eigenvalues --    0.70217   0.75384   0.75384   0.92734   1.50748
  Beta virt. eigenvalues --    1.50748   1.52255   1.56336   1.56336   1.68676
  Beta virt. eigenvalues --    6.73699   6.80778  13.91735  13.91735  13.94301
  Beta virt. eigenvalues --   13.95630  13.95630  14.01125 162.97547 163.06201
          Condensed to atoms (all electrons):
               1          2
     1  P   14.483601   0.516399
     2  P    0.516399  14.483601
          Atomic-Atomic Spin Densities.
               1          2
     1  P   -0.000000   0.000000
     2  P    0.000000  -0.000000
 Mulliken charges and spin densities:
               1          2
     1  P    0.000000  -0.000000
     2  P    0.000000  -0.000000
 Sum of Mulliken charges =   0.00000  -0.00000
 Mulliken charges and spin densities with hydrogens summed into heavy atoms:
               1          2
     1  P    0.000000  -0.000000
     2  P    0.000000  -0.000000
 Electronic spatial extent (au):  <R**2>=            239.1676
 Charge=              0.0000 electrons
 Dipole moment (field-independent basis, Debye):
    X=             -0.0000    Y=             -0.0000    Z=              0.0000  Tot=              0.0000
 Quadrupole moment (field-independent basis, Debye-Ang):
   XX=            -28.5126   YY=            -28.5126   ZZ=            -25.4322
   XY=              0.0000   XZ=             -0.0000   YZ=              0.0000
 Traceless Quadrupole moment (field-independent basis, Debye-Ang):
   XX=             -1.0268   YY=             -1.0268   ZZ=              2.0536
   XY=              0.0000   XZ=             -0.0000   YZ=              0.0000
 Octapole moment (field-independent basis, Debye-Ang**2):
  XXX=             -0.0000  YYY=             -0.0000  ZZZ=              0.0000  XYY=             -0.0000
  XXY=              0.0000  XXZ=              0.0000  XZZ=             -0.0000  YZZ=              0.0000
  YYZ=              0.0000  XYZ=              0.0000
 Hexadecapole moment (field-independent basis, Debye-Ang**3):
 XXXX=            -52.1198 YYYY=            -52.1198 ZZZZ=           -307.9498 XXXY=              0.0000
 XXXZ=              0.0000 YYYX=              0.0000 YYYZ=              0.0000 ZZZX=              0.0000
 ZZZY=              0.0000 XXYY=            -17.3733 XXZZ=            -60.3310 YYZZ=            -60.3310
 XXYZ=              0.0000 YYXZ=              0.0000 ZZXY=              0.0000
 N-N= 4.620307896305D+01 E-N=-1.715863657421D+03  KE= 6.810500298514D+02
 Symmetry AG   KE= 2.798000468639D+02
 Symmetry B1G  KE= 2.776867370765D-36
 Symmetry B2G  KE= 2.970565992481D+01
 Symmetry B3G  KE= 2.970565992481D+01
 Symmetry AU   KE= 2.459801912162D-35
 Symmetry B1U  KE= 2.775692921886D+02
 Symmetry B2U  KE= 3.213468547465D+01
 Symmetry B3U  KE= 3.213468547465D+01
 Symmetry AG   SP=-5.225134127707D-15
 Symmetry B1G  SP=-3.623059764945D-51
 Symmetry B2G  SP=-2.492508071175D-15
 Symmetry B3G  SP=-3.271728030279D-15
 Symmetry AU   SP= 6.676990829407D-50
 Symmetry B1U  SP= 4.225255944462D-15
 Symmetry B2U  SP= 8.201220379678D-16
 Symmetry B3U  SP=-1.434501043912D-16
                          Isotropic Fermi Contact Couplings
        Atom                 a.u.       MegaHertz       Gauss      10(-4) cm-1
     1  P(31)              0.00000       0.00000       0.00000       0.00000
     2  P(31)              0.00000       0.00000       0.00000       0.00000
 --------------------------------------------------------
       Center         ----  Spin Dipole Couplings  ----
                      3XX-RR        3YY-RR        3ZZ-RR
 --------------------------------------------------------
     1   Atom        0.000000      0.000000      0.000000
     2   Atom        0.000000      0.000000      0.000000
 --------------------------------------------------------
                        XY            XZ            YZ
 --------------------------------------------------------
     1   Atom        0.000000      0.000000      0.000000
     2   Atom        0.000000      0.000000      0.000000
 --------------------------------------------------------


 ---------------------------------------------------------------------------------
              Anisotropic Spin Dipole Couplings in Principal Axis System
 ---------------------------------------------------------------------------------

       Atom             a.u.   MegaHertz   Gauss  10(-4) cm-1        Axes

              Baa     0.0000     0.000     0.000     0.000  1.0000  0.0000  0.0000
     1 P(31)  Bbb     0.0000     0.000     0.000     0.000 -0.0000  1.0000  0.0000
              Bcc     0.0000     0.000     0.000     0.000  0.0000  0.0000  1.0000
 
              Baa     0.0000     0.000     0.000     0.000  1.0000  0.0000  0.0000
     2 P(31)  Bbb     0.0000     0.000     0.000     0.000 -0.0000  1.0000  0.0000
              Bcc     0.0000     0.000     0.000     0.000  0.0000  0.0000  1.0000
 

 ---------------------------------------------------------------------------------

 No NMR shielding tensors so no spin-rotation constants.
 Leave Link  601 at Mon Apr 21 21:21:19 2025, MaxMem=   536870912 cpu:               2.4 elap:               0.4
 (Enter /home/szhao/Apps/g16/l607.exe)
 ******************************Gaussian NBO Version 3.1******************************
             N A T U R A L   A T O M I C   O R B I T A L   A N D
          N A T U R A L   B O N D   O R B I T A L   A N A L Y S I S
 ******************************Gaussian NBO Version 3.1******************************
       /RESON  / : Allow strongly delocalized NBO set

 Analyzing the SCF density

 Job title: Title Card Required                                             

 Storage needed:     11250 in NPA,     14614 in NBO ( 536870884 available)
 GSVD:  LWork=         720 too small for GESVD, short by        4716 words or        4716 for optimal perf.


 NATURAL POPULATIONS:  Natural atomic orbital occupancies 
                                                          
   NAO  Atom  No  lang   Type(AO)    Occupancy
 --------------------------------------------
     1    P    1  S      Cor( 1S)     2.00000
     2    P    1  S      Cor( 2S)     1.99994
     3    P    1  S      Val( 3S)     1.93573
     4    P    1  S      Ryd( 4S)     0.00127
     5    P    1  S      Ryd( 5S)     0.00001
     6    P    1  S      Ryd( 6S)     0.00000
     7    P    1  S      Ryd( 7S)     0.00000
     8    P    1  px     Cor( 2p)     1.99999
     9    P    1  px     Val( 3p)     0.99842
    10    P    1  px     Ryd( 4p)     0.00044
    11    P    1  px     Ryd( 5p)     0.00000
    12    P    1  px     Ryd( 6p)     0.00000
    13    P    1  px     Ryd( 7p)     0.00000
    14    P    1  py     Cor( 2p)     1.99999
    15    P    1  py     Val( 3p)     0.99842
    16    P    1  py     Ryd( 4p)     0.00044
    17    P    1  py     Ryd( 5p)     0.00000
    18    P    1  py     Ryd( 6p)     0.00000
    19    P    1  py     Ryd( 7p)     0.00000
    20    P    1  pz     Cor( 2p)     1.99997
    21    P    1  pz     Val( 3p)     1.05814
    22    P    1  pz     Ryd( 4p)     0.00217
    23    P    1  pz     Ryd( 5p)     0.00006
    24    P    1  pz     Ryd( 6p)     0.00005
    25    P    1  pz     Ryd( 7p)     0.00000
    26    P    1  dxy    Ryd( 3d)     0.00000
    27    P    1  dxz    Ryd( 3d)     0.00115
    28    P    1  dyz    Ryd( 3d)     0.00115
    29    P    1  dx2y2  Ryd( 3d)     0.00000
    30    P    1  dz2    Ryd( 3d)     0.00266
 
    31    P    2  S      Cor( 1S)     2.00000
    32    P    2  S      Cor( 2S)     1.99994
    33    P    2  S      Val( 3S)     1.93573
    34    P    2  S      Ryd( 4S)     0.00127
    35    P    2  S      Ryd( 5S)     0.00001
    36    P    2  S      Ryd( 6S)     0.00000
    37    P    2  S      Ryd( 7S)     0.00000
    38    P    2  px     Cor( 2p)     1.99999
    39    P    2  px     Val( 3p)     0.99842
    40    P    2  px     Ryd( 4p)     0.00044
    41    P    2  px     Ryd( 5p)     0.00000
    42    P    2  px     Ryd( 6p)     0.00000
    43    P    2  px     Ryd( 7p)     0.00000
    44    P    2  py     Cor( 2p)     1.99999
    45    P    2  py     Val( 3p)     0.99842
    46    P    2  py     Ryd( 4p)     0.00044
    47    P    2  py     Ryd( 5p)     0.00000
    48    P    2  py     Ryd( 6p)     0.00000
    49    P    2  py     Ryd( 7p)     0.00000
    50    P    2  pz     Cor( 2p)     1.99997
    51    P    2  pz     Val( 3p)     1.05814
    52    P    2  pz     Ryd( 4p)     0.00217
    53    P    2  pz     Ryd( 5p)     0.00006
    54    P    2  pz     Ryd( 6p)     0.00005
    55    P    2  pz     Ryd( 7p)     0.00000
    56    P    2  dxy    Ryd( 3d)     0.00000
    57    P    2  dxz    Ryd( 3d)     0.00115
    58    P    2  dyz    Ryd( 3d)     0.00115
    59    P    2  dx2y2  Ryd( 3d)     0.00000
    60    P    2  dz2    Ryd( 3d)     0.00266


 Summary of Natural Population Analysis:                  
                                                          
                                       Natural Population 
                Natural  -----------------------------------------------
    Atom  No    Charge         Core      Valence    Rydberg      Total
 -----------------------------------------------------------------------
      P    1   -0.00000      9.99989     4.99071    0.00940    15.00000
      P    2   -0.00000      9.99989     4.99071    0.00940    15.00000
 =======================================================================
   * Total *   -0.00000     19.99979     9.98142    0.01880    30.00000

                                 Natural Population      
 --------------------------------------------------------
   Core                      19.99979 ( 99.9989% of  20)
   Valence                    9.98142 ( 99.8142% of  10)
   Natural Minimal Basis     29.98120 ( 99.9373% of  30)
   Natural Rydberg Basis      0.01880 (  0.0627% of  30)
 --------------------------------------------------------

    Atom  No          Natural Electron Configuration
 ----------------------------------------------------------------------------
      P    1      [core]3S( 1.94)3p( 3.05)
      P    2      [core]3S( 1.94)3p( 3.05)


 ***************************************************
 *******         Alpha spin orbitals         *******
 ***************************************************


 NATURAL POPULATIONS:  Natural atomic orbital occupancies 
                                                          
   NAO  Atom  No  lang   Type(AO)    Occupancy      Energy
 ----------------------------------------------------------
     1    P    1  S      Cor( 1S)     1.00000     -77.23859
     2    P    1  S      Cor( 2S)     0.99997      -7.68399
     3    P    1  S      Val( 3S)     0.96787      -0.71092
     4    P    1  S      Ryd( 4S)     0.00063       0.14291
     5    P    1  S      Ryd( 5S)     0.00001       3.05723
     6    P    1  S      Ryd( 6S)     0.00000      19.31536
     7    P    1  S      Ryd( 7S)     0.00000     147.91552
     8    P    1  px     Cor( 2p)     1.00000      -5.03545
     9    P    1  px     Val( 3p)     0.49921      -0.20598
    10    P    1  px     Ryd( 4p)     0.00022       0.13932
    11    P    1  px     Ryd( 6p)     0.00000       1.25145
    12    P    1  px     Ryd( 5p)     0.00000       0.57584
    13    P    1  px     Ryd( 7p)     0.00000      13.88430
    14    P    1  py     Cor( 2p)     1.00000      -5.03545
    15    P    1  py     Val( 3p)     0.49921      -0.20598
    16    P    1  py     Ryd( 4p)     0.00022       0.13932
    17    P    1  py     Ryd( 6p)     0.00000       1.25145
    18    P    1  py     Ryd( 5p)     0.00000       0.57584
    19    P    1  py     Ryd( 7p)     0.00000      13.88430
    20    P    1  pz     Cor( 2p)     0.99998      -5.03388
    21    P    1  pz     Val( 3p)     0.52907      -0.20730
    22    P    1  pz     Ryd( 4p)     0.00109       0.14055
    23    P    1  pz     Ryd( 6p)     0.00003       1.29198
    24    P    1  pz     Ryd( 5p)     0.00002       0.59126
    25    P    1  pz     Ryd( 7p)     0.00000      13.90722
    26    P    1  dxy    Ryd( 3d)     0.00000       0.69598
    27    P    1  dxz    Ryd( 3d)     0.00058       0.70235
    28    P    1  dyz    Ryd( 3d)     0.00058       0.70235
    29    P    1  dx2y2  Ryd( 3d)     0.00000       0.69598
    30    P    1  dz2    Ryd( 3d)     0.00133       0.77041
 
    31    P    2  S      Cor( 1S)     1.00000     -77.23859
    32    P    2  S      Cor( 2S)     0.99997      -7.68399
    33    P    2  S      Val( 3S)     0.96787      -0.71092
    34    P    2  S      Ryd( 4S)     0.00063       0.14291
    35    P    2  S      Ryd( 5S)     0.00001       3.05723
    36    P    2  S      Ryd( 6S)     0.00000      19.31536
    37    P    2  S      Ryd( 7S)     0.00000     147.91552
    38    P    2  px     Cor( 2p)     1.00000      -5.03545
    39    P    2  px     Val( 3p)     0.49921      -0.20598
    40    P    2  px     Ryd( 4p)     0.00022       0.13932
    41    P    2  px     Ryd( 6p)     0.00000       1.25145
    42    P    2  px     Ryd( 5p)     0.00000       0.57584
    43    P    2  px     Ryd( 7p)     0.00000      13.88430
    44    P    2  py     Cor( 2p)     1.00000      -5.03545
    45    P    2  py     Val( 3p)     0.49921      -0.20598
    46    P    2  py     Ryd( 4p)     0.00022       0.13932
    47    P    2  py     Ryd( 6p)     0.00000       1.25145
    48    P    2  py     Ryd( 5p)     0.00000       0.57584
    49    P    2  py     Ryd( 7p)     0.00000      13.88430
    50    P    2  pz     Cor( 2p)     0.99998      -5.03388
    51    P    2  pz     Val( 3p)     0.52907      -0.20730
    52    P    2  pz     Ryd( 4p)     0.00109       0.14055
    53    P    2  pz     Ryd( 6p)     0.00003       1.29198
    54    P    2  pz     Ryd( 5p)     0.00002       0.59126
    55    P    2  pz     Ryd( 7p)     0.00000      13.90722
    56    P    2  dxy    Ryd( 3d)     0.00000       0.69598
    57    P    2  dxz    Ryd( 3d)     0.00058       0.70235
    58    P    2  dyz    Ryd( 3d)     0.00058       0.70235
    59    P    2  dx2y2  Ryd( 3d)     0.00000       0.69598
    60    P    2  dz2    Ryd( 3d)     0.00133       0.77041

 WARNING:  Population inversion found on atom  P    1
           Population inversion found on atom  P    2


 Summary of Natural Population Analysis:                  
                                                          
                                       Natural Population 
                Natural  -----------------------------------------------
    Atom  No    Charge         Core      Valence    Rydberg      Total
 -----------------------------------------------------------------------
      P    1    0.00000      4.99995     2.49535    0.00470     7.50000
      P    2   -0.00000      4.99995     2.49535    0.00470     7.50000
 =======================================================================
   * Total *    0.00000      9.99989     4.99071    0.00940    15.00000

                                 Natural Population      
 --------------------------------------------------------
   Core                       9.99989 ( 99.9989% of  10)
   Valence                    4.99071 ( 99.8142% of   5)
   Natural Minimal Basis     14.99060 ( 99.9373% of  15)
   Natural Rydberg Basis      0.00940 (  0.0627% of  15)
 --------------------------------------------------------

    Atom  No          Natural Electron Configuration
 ----------------------------------------------------------------------------
      P    1      [core]3S( 0.97)3p( 1.53)
      P    2      [core]3S( 0.97)3p( 1.53)


 NATURAL BOND ORBITAL ANALYSIS, alpha spin orbitals:

                       Occupancies       Lewis Structure    Low   High
           Occ.    -------------------  -----------------   occ   occ
  Cycle   Thresh.   Lewis   Non-Lewis     CR  BD  3C  LP    (L)   (NL)   Dev
 =============================================================================
   1(1)    0.90    14.99938   0.00062     10   3   0   2     0      0    0.00
 -----------------------------------------------------------------------------

 Structure accepted: No low occupancy Lewis orbitals

 --------------------------------------------------------
   Core                      9.99989 ( 99.999% of  10)
   Valence Lewis             4.99949 ( 99.990% of   5)
  ==================       ============================
   Total Lewis              14.99938 ( 99.996% of  15)
  -----------------------------------------------------
   Valence non-Lewis         0.00004 (  0.000% of  15)
   Rydberg non-Lewis         0.00058 (  0.004% of  15)
  ==================       ============================
   Total non-Lewis           0.00062 (  0.004% of  15)
 --------------------------------------------------------


       (Occupancy)   Bond orbital/ Coefficients/ Hybrids
 ---------------------------------------------------------------------------------
     1. (1.00000) BD ( 1) P   1 - P   2  
                ( 50.00%)   0.7071* P   1 s(  6.47%)p14.41( 93.27%)d 0.04(  0.25%)
                                            0.0000  0.0000 -0.2521  0.0345  0.0005
                                            0.0002 -0.0000  0.0000  0.0000  0.0000
                                            0.0000  0.0000  0.0000  0.0000  0.0000
                                            0.0000  0.0000  0.0000  0.0000 -0.0000
                                            0.9649 -0.0408 -0.0009  0.0024 -0.0000
                                            0.0000  0.0000  0.0000  0.0000 -0.0505
                ( 50.00%)   0.7071* P   2 s(  6.47%)p14.41( 93.27%)d 0.04(  0.25%)
                                            0.0000 -0.0000 -0.2521  0.0345  0.0005
                                            0.0002 -0.0000  0.0000  0.0000  0.0000
                                            0.0000  0.0000  0.0000  0.0000  0.0000
                                            0.0000  0.0000  0.0000  0.0000 -0.0000
                                           -0.9649  0.0408  0.0009 -0.0024  0.0000
                                            0.0000  0.0000  0.0000  0.0000 -0.0505
     2. (1.00000) BD ( 2) P   1 - P   2  
                ( 50.00%)   0.7071* P   1 s(  0.00%)p 1.00( 99.88%)d 0.00(  0.12%)
                                            0.0000  0.0000  0.0000  0.0000  0.0000
                                            0.0000  0.0000  0.0000  0.9992  0.0209
                                           -0.0007 -0.0005 -0.0000  0.0000  0.0000
                                            0.0000  0.0000  0.0000  0.0000  0.0000
                                            0.0000  0.0000  0.0000  0.0000  0.0000
                                            0.0000 -0.0340  0.0000  0.0000  0.0000
                ( 50.00%)   0.7071* P   2 s(  0.00%)p 1.00( 99.88%)d 0.00(  0.12%)
                                            0.0000  0.0000  0.0000  0.0000  0.0000
                                            0.0000  0.0000  0.0000  0.9992  0.0209
                                           -0.0007 -0.0005 -0.0000  0.0000  0.0000
                                            0.0000  0.0000  0.0000  0.0000  0.0000
                                            0.0000  0.0000  0.0000  0.0000  0.0000
                                            0.0000  0.0340  0.0000  0.0000  0.0000
     3. (1.00000) BD ( 3) P   1 - P   2  
                ( 50.00%)   0.7071* P   1 s(  0.00%)p 1.00( 99.88%)d 0.00(  0.12%)
                                            0.0000  0.0000  0.0000  0.0000  0.0000
                                            0.0000  0.0000  0.0000  0.0000  0.0000
                                            0.0000  0.0000  0.0000  0.0000  0.9992
                                            0.0209 -0.0007 -0.0005 -0.0000  0.0000
                                            0.0000  0.0000  0.0000  0.0000  0.0000
                                            0.0000  0.0000 -0.0340  0.0000  0.0000
                ( 50.00%)   0.7071* P   2 s(  0.00%)p 1.00( 99.88%)d 0.00(  0.12%)
                                            0.0000  0.0000  0.0000  0.0000  0.0000
                                            0.0000  0.0000  0.0000  0.0000  0.0000
                                            0.0000  0.0000  0.0000  0.0000  0.9992
                                            0.0209 -0.0007 -0.0005 -0.0000  0.0000
                                            0.0000  0.0000  0.0000  0.0000  0.0000
                                            0.0000  0.0000  0.0340  0.0000  0.0000
     4. (1.00000) CR ( 1) P   1           s(100.00%)
                                            1.0000 -0.0000  0.0000  0.0000  0.0000
                                            0.0000  0.0000  0.0000  0.0000  0.0000
                                            0.0000  0.0000  0.0000  0.0000  0.0000
                                            0.0000  0.0000  0.0000  0.0000  0.0000
                                            0.0000 -0.0000  0.0000 -0.0000  0.0000
                                            0.0000  0.0000  0.0000  0.0000 -0.0000
     5. (0.99997) CR ( 2) P   1           s(100.00%)
                                           -0.0000  1.0000  0.0000  0.0000  0.0000
                                            0.0000  0.0000  0.0000  0.0000  0.0000
                                            0.0000  0.0000  0.0000  0.0000  0.0000
                                            0.0000  0.0000  0.0000  0.0000  0.0000
                                            0.0000 -0.0000  0.0000 -0.0000  0.0000
                                            0.0000  0.0000  0.0000  0.0000 -0.0000
     6. (1.00000) CR ( 3) P   1           s(  0.00%)p 1.00(100.00%)
                                            0.0000  0.0000  0.0000  0.0000  0.0000
                                            0.0000  0.0000  1.0000  0.0000  0.0000
                                            0.0000  0.0000  0.0000  0.0000  0.0000
                                            0.0000  0.0000  0.0000  0.0000  0.0000
                                            0.0000  0.0000  0.0000  0.0000  0.0000
                                            0.0000  0.0000  0.0000  0.0000  0.0000
     7. (1.00000) CR ( 4) P   1           s(  0.00%)p 1.00(100.00%)
                                            0.0000  0.0000  0.0000  0.0000  0.0000
                                            0.0000  0.0000  0.0000  0.0000  0.0000
                                            0.0000  0.0000  0.0000  1.0000  0.0000
                                            0.0000  0.0000  0.0000  0.0000  0.0000
                                            0.0000  0.0000  0.0000  0.0000  0.0000
                                            0.0000  0.0000  0.0000  0.0000  0.0000
     8. (0.99998) CR ( 5) P   1           s(  0.00%)p 1.00(100.00%)
                                            0.0000  0.0000 -0.0000 -0.0000 -0.0000
                                           -0.0000 -0.0000  0.0000  0.0000  0.0000
                                            0.0000  0.0000  0.0000  0.0000  0.0000
                                            0.0000  0.0000  0.0000  0.0000  1.0000
                                           -0.0000  0.0000 -0.0000  0.0000 -0.0000
                                            0.0000  0.0000  0.0000  0.0000  0.0000
     9. (1.00000) CR ( 1) P   2           s(100.00%)
                                            1.0000 -0.0000  0.0000  0.0000  0.0000
                                            0.0000  0.0000  0.0000  0.0000  0.0000
                                            0.0000  0.0000  0.0000  0.0000  0.0000
                                            0.0000  0.0000  0.0000  0.0000  0.0000
                                           -0.0000  0.0000 -0.0000  0.0000 -0.0000
                                            0.0000  0.0000  0.0000  0.0000 -0.0000
    10. (0.99997) CR ( 2) P   2           s(100.00%)
                                           -0.0000  1.0000  0.0000  0.0000  0.0000
                                            0.0000  0.0000  0.0000  0.0000  0.0000
                                            0.0000  0.0000  0.0000  0.0000  0.0000
                                            0.0000  0.0000  0.0000  0.0000 -0.0000
                                           -0.0000  0.0000 -0.0000  0.0000 -0.0000
                                            0.0000  0.0000  0.0000  0.0000 -0.0000
    11. (1.00000) CR ( 3) P   2           s(  0.00%)p 1.00(100.00%)
                                            0.0000  0.0000  0.0000  0.0000  0.0000
                                            0.0000  0.0000  1.0000  0.0000  0.0000
                                            0.0000  0.0000  0.0000  0.0000  0.0000
                                            0.0000  0.0000  0.0000  0.0000  0.0000
                                            0.0000  0.0000  0.0000  0.0000  0.0000
                                            0.0000  0.0000  0.0000  0.0000  0.0000
    12. (1.00000) CR ( 4) P   2           s(  0.00%)p 1.00(100.00%)
                                            0.0000  0.0000  0.0000  0.0000  0.0000
                                            0.0000  0.0000  0.0000  0.0000  0.0000
                                            0.0000  0.0000  0.0000  1.0000  0.0000
                                            0.0000  0.0000  0.0000  0.0000  0.0000
                                            0.0000  0.0000  0.0000  0.0000  0.0000
                                            0.0000  0.0000  0.0000  0.0000  0.0000
    13. (0.99998) CR ( 5) P   2           s(  0.00%)p 1.00(100.00%)
                                            0.0000 -0.0000  0.0000  0.0000  0.0000
                                            0.0000  0.0000  0.0000  0.0000  0.0000
                                            0.0000  0.0000  0.0000  0.0000  0.0000
                                            0.0000  0.0000  0.0000  0.0000  1.0000
                                           -0.0000  0.0000 -0.0000  0.0000 -0.0000
                                            0.0000  0.0000  0.0000  0.0000 -0.0000
    14. (0.99974) LP ( 1) P   1           s( 93.64%)p 0.07(  6.36%)d 0.00(  0.00%)
                                           -0.0000 -0.0000  0.9676  0.0045  0.0001
                                            0.0000  0.0000  0.0000  0.0000  0.0000
                                            0.0000  0.0000  0.0000  0.0000  0.0000
                                            0.0000  0.0000  0.0000  0.0000  0.0000
                                            0.2521 -0.0047  0.0047 -0.0027  0.0001
                                            0.0000  0.0000  0.0000  0.0000 -0.0067
    15. (0.99974) LP ( 1) P   2           s( 93.64%)p 0.07(  6.36%)d 0.00(  0.00%)
                                           -0.0000 -0.0000  0.9676  0.0045  0.0001
                                            0.0000  0.0000  0.0000  0.0000  0.0000
                                            0.0000  0.0000  0.0000  0.0000  0.0000
                                            0.0000  0.0000  0.0000  0.0000 -0.0000
                                           -0.2521  0.0047 -0.0047  0.0027 -0.0001
                                            0.0000  0.0000  0.0000  0.0000 -0.0067
    16. (0.00027) RY*( 1) P   1           s(  8.09%)p11.08( 89.62%)d 0.28(  2.30%)
                                           -0.0000 -0.0000  0.0053  0.2571 -0.1128
                                           -0.0454 -0.0001 -0.0000 -0.0000 -0.0000
                                           -0.0000 -0.0000 -0.0000 -0.0000 -0.0000
                                           -0.0000 -0.0000 -0.0000 -0.0000  0.0000
                                           -0.0385 -0.9241 -0.0789 -0.1855  0.0010
                                           -0.0000 -0.0000 -0.0000 -0.0000  0.1516
    17. (0.00000) RY*( 2) P   1           s( 99.96%)p 0.00(  0.04%)d 0.00(  0.00%)
    18. (0.00000) RY*( 3) P   1           s( 99.80%)p 0.00(  0.20%)d 0.00(  0.00%)
    19. (0.00000) RY*( 4) P   1           s(100.00%)
    20. (0.00000) RY*( 5) P   1           s(  0.00%)p 1.00(100.00%)d 0.00(  0.00%)
    21. (0.00000) RY*( 6) P   1           s(  0.00%)p 1.00(100.00%)
    22. (0.00000) RY*( 7) P   1           s(  0.00%)p 1.00(100.00%)
    23. (0.00000) RY*( 8) P   1           s(  0.00%)p 1.00(100.00%)
    24. (0.00000) RY*( 9) P   1           s(  0.00%)p 1.00(100.00%)d 0.00(  0.00%)
    25. (0.00000) RY*(10) P   1           s(  0.00%)p 1.00(100.00%)
    26. (0.00000) RY*(11) P   1           s(  0.00%)p 1.00(100.00%)
    27. (0.00000) RY*(12) P   1           s(  0.00%)p 1.00(100.00%)
    28. (0.00000) RY*(13) P   1           s( 91.49%)p 0.09(  8.51%)d 0.00(  0.00%)
    29. (0.00000) RY*(14) P   1           s(  0.06%)p99.99( 99.94%)
    30. (0.00000) RY*(15) P   1           s(  0.30%)p99.99( 99.70%)d 0.00(  0.00%)
    31. (0.00000) RY*(16) P   1           s(  0.00%)p 1.00(100.00%)d 0.00(  0.00%)
    32. (0.00000) RY*(17) P   1           s(  0.00%)p 0.00(  0.00%)d 1.00(100.00%)
    33. (0.00000) RY*(18) P   1           s(  0.00%)p 1.00(  0.12%)d99.99( 99.88%)
    34. (0.00000) RY*(19) P   1           s(  0.00%)p 1.00(  0.12%)d99.99( 99.88%)
    35. (0.00000) RY*(20) P   1           s(  0.00%)p 0.00(  0.00%)d 1.00(100.00%)
    36. (0.00001) RY*(21) P   1           s(  0.19%)p12.62(  2.37%)d99.99( 97.44%)
    37. (0.00027) RY*( 1) P   2           s(  8.09%)p11.08( 89.62%)d 0.28(  2.30%)
                                           -0.0000  0.0000  0.0053  0.2571 -0.1128
                                           -0.0454 -0.0001  0.0000  0.0000  0.0000
                                            0.0000  0.0000  0.0000  0.0000  0.0000
                                            0.0000  0.0000  0.0000  0.0000  0.0000
                                            0.0385  0.9241  0.0789  0.1855 -0.0010
                                            0.0000  0.0000  0.0000  0.0000  0.1516
    38. (0.00000) RY*( 2) P   2           s( 99.96%)p 0.00(  0.04%)d 0.00(  0.00%)
    39. (0.00000) RY*( 3) P   2           s( 99.80%)p 0.00(  0.20%)d 0.00(  0.00%)
    40. (0.00000) RY*( 4) P   2           s(100.00%)
    41. (0.00000) RY*( 5) P   2           s(  0.00%)p 1.00(100.00%)d 0.00(  0.00%)
    42. (0.00000) RY*( 6) P   2           s(  0.00%)p 1.00(100.00%)
    43. (0.00000) RY*( 7) P   2           s(  0.00%)p 1.00(100.00%)
    44. (0.00000) RY*( 8) P   2           s(  0.00%)p 1.00(100.00%)
    45. (0.00000) RY*( 9) P   2           s(  0.00%)p 1.00(100.00%)d 0.00(  0.00%)
    46. (0.00000) RY*(10) P   2           s(  0.00%)p 1.00(100.00%)
    47. (0.00000) RY*(11) P   2           s(  0.00%)p 1.00(100.00%)
    48. (0.00000) RY*(12) P   2           s(  0.00%)p 1.00(100.00%)
    49. (0.00000) RY*(13) P   2           s( 91.49%)p 0.09(  8.51%)d 0.00(  0.00%)
    50. (0.00000) RY*(14) P   2           s(  0.06%)p99.99( 99.94%)
    51. (0.00000) RY*(15) P   2           s(  0.30%)p99.99( 99.70%)d 0.00(  0.00%)
    52. (0.00000) RY*(16) P   2           s(  0.00%)p 1.00(100.00%)d 0.00(  0.00%)
    53. (0.00000) RY*(17) P   2           s(  0.00%)p 0.00(  0.00%)d 1.00(100.00%)
    54. (0.00000) RY*(18) P   2           s(  0.00%)p 1.00(  0.12%)d99.99( 99.88%)
    55. (0.00000) RY*(19) P   2           s(  0.00%)p 1.00(  0.12%)d99.99( 99.88%)
    56. (0.00000) RY*(20) P   2           s(  0.00%)p 0.00(  0.00%)d 1.00(100.00%)
    57. (0.00001) RY*(21) P   2           s(  0.19%)p12.62(  2.37%)d99.99( 97.44%)
    58. (0.00003) BD*( 1) P   1 - P   2  
                ( 50.00%)   0.7071* P   1 s(  6.47%)p14.41( 93.27%)d 0.04(  0.25%)
                ( 50.00%)  -0.7071* P   2 s(  6.47%)p14.41( 93.27%)d 0.04(  0.25%)
    59. (0.00001) BD*( 2) P   1 - P   2  
                ( 50.00%)   0.7071* P   1 s(  0.00%)p 1.00( 99.88%)d 0.00(  0.12%)
                ( 50.00%)  -0.7071* P   2 s(  0.00%)p 1.00( 99.88%)d 0.00(  0.12%)
    60. (0.00001) BD*( 3) P   1 - P   2  
                ( 50.00%)   0.7071* P   1 s(  0.00%)p 1.00( 99.88%)d 0.00(  0.12%)
                ( 50.00%)  -0.7071* P   2 s(  0.00%)p 1.00( 99.88%)d 0.00(  0.12%)


 NHO Directionality and "Bond Bending" (deviations from line of nuclear centers)

         [Thresholds for printing:  angular deviation  >  1.0 degree]
                                    hybrid p-character > 25.0%
                                    orbital occupancy  >  0.10e

                                Line of Centers        Hybrid 1              Hybrid 2
                                ---------------  -------------------   ------------------
                NBO               Theta   Phi    Theta   Phi    Dev    Theta   Phi    Dev
 ========================================================================================
     2. BD (   2) P   1 - P   2   180.0    0.0    90.0    0.0  90.0     90.0    0.0  90.0
     3. BD (   3) P   1 - P   2   180.0    0.0    90.0   90.0  90.0     90.0   90.0  90.0


 Second Order Perturbation Theory Analysis of Fock Matrix in NBO Basis

     Threshold for printing:   0.25 kcal/mol
                                                                              E(2)  E(j)-E(i) F(i,j)
         Donor NBO (i)                     Acceptor NBO (j)                 kcal/mol   a.u.    a.u. 
 ===================================================================================================

 within unit  1
       None above threshold


 Natural Bond Orbitals (Summary):

                                                            Principal Delocalizations
           NBO                        Occupancy    Energy   (geminal,vicinal,remote)
 ====================================================================================
 Molecular unit  1  (P2)
     1. BD (   1) P   1 - P   2          1.00000    -0.42447   
     2. BD (   2) P   1 - P   2          1.00000    -0.28671   
     3. BD (   3) P   1 - P   2          1.00000    -0.28671   
     4. CR (   1) P   1                  1.00000   -77.23859   
     5. CR (   2) P   1                  0.99997    -7.68404   
     6. CR (   3) P   1                  1.00000    -5.03545   
     7. CR (   4) P   1                  1.00000    -5.03545   
     8. CR (   5) P   1                  0.99998    -5.03388   
     9. CR (   1) P   2                  1.00000   -77.23859   
    10. CR (   2) P   2                  0.99997    -7.68404   
    11. CR (   3) P   2                  1.00000    -5.03545   
    12. CR (   4) P   2                  1.00000    -5.03545   
    13. CR (   5) P   2                  0.99998    -5.03388   
    14. LP (   1) P   1                  0.99974    -0.69487   
    15. LP (   1) P   2                  0.99974    -0.69487   
    16. RY*(   1) P   1                  0.00027     0.23984   
    17. RY*(   2) P   1                  0.00000     2.42386   
    18. RY*(   3) P   1                  0.00000    19.37992   
    19. RY*(   4) P   1                  0.00000   147.91555   
    20. RY*(   5) P   1                  0.00000     0.13987   
    21. RY*(   6) P   1                  0.00000     1.25145   
    22. RY*(   7) P   1                  0.00000     0.57584   
    23. RY*(   8) P   1                  0.00000    13.88430   
    24. RY*(   9) P   1                  0.00000     0.13987   
    25. RY*(  10) P   1                  0.00000     1.25145   
    26. RY*(  11) P   1                  0.00000     0.57584   
    27. RY*(  12) P   1                  0.00000    13.88430   
    28. RY*(  13) P   1                  0.00000     0.67893   
    29. RY*(  14) P   1                  0.00000     1.29691   
    30. RY*(  15) P   1                  0.00000     0.53446   
    31. RY*(  16) P   1                  0.00000    13.90762   
    32. RY*(  17) P   1                  0.00000     0.69598   
    33. RY*(  18) P   1                  0.00000     0.70167   
    34. RY*(  19) P   1                  0.00000     0.70167   
    35. RY*(  20) P   1                  0.00000     0.69598   
    36. RY*(  21) P   1                  0.00001     0.75107   
    37. RY*(   1) P   2                  0.00027     0.23984   
    38. RY*(   2) P   2                  0.00000     2.42386   
    39. RY*(   3) P   2                  0.00000    19.37992   
    40. RY*(   4) P   2                  0.00000   147.91555   
    41. RY*(   5) P   2                  0.00000     0.13987   
    42. RY*(   6) P   2                  0.00000     1.25145   
    43. RY*(   7) P   2                  0.00000     0.57584   
    44. RY*(   8) P   2                  0.00000    13.88430   
    45. RY*(   9) P   2                  0.00000     0.13987   
    46. RY*(  10) P   2                  0.00000     1.25145   
    47. RY*(  11) P   2                  0.00000     0.57584   
    48. RY*(  12) P   2                  0.00000    13.88430   
    49. RY*(  13) P   2                  0.00000     0.67893   
    50. RY*(  14) P   2                  0.00000     1.29691   
    51. RY*(  15) P   2                  0.00000     0.53446   
    52. RY*(  16) P   2                  0.00000    13.90762   
    53. RY*(  17) P   2                  0.00000     0.69598   
    54. RY*(  18) P   2                  0.00000     0.70167   
    55. RY*(  19) P   2                  0.00000     0.70167   
    56. RY*(  20) P   2                  0.00000     0.69598   
    57. RY*(  21) P   2                  0.00001     0.75107   
    58. BD*(   1) P   1 - P   2          0.00003    -0.01356   
    59. BD*(   2) P   1 - P   2          0.00001    -0.12498   
    60. BD*(   3) P   1 - P   2          0.00001    -0.12498   
       -------------------------------
              Total Lewis   14.99938  ( 99.9959%)
        Valence non-Lewis    0.00004  (  0.0003%)
        Rydberg non-Lewis    0.00058  (  0.0039%)
       -------------------------------
            Total unit  1   15.00000  (100.0000%)
           Charge unit  1    0.00000
 Sorting of NBOs:                    4    9   10    5   12   11    6    7    8   13
 Sorting of NBOs:                   14   15    1    2    3   59   60   58   24   45
 Sorting of NBOs:                   20   41   16   37   51   30   47   26   43   22
 Sorting of NBOs:                   28   49   53   32   56   35   55   34   54   33
 Sorting of NBOs:                   36   57   46   42   25   21   50   29   17   38
 Sorting of NBOs:                   27   23   48   44   31   52   18   39   40   19
 Reordering of NBOs for storage:     4    9   10    5   12   11    6    7    8   13
 Reordering of NBOs for storage:    14   15    1    2    3   59   60   58   24   45
 Reordering of NBOs for storage:    20   41   16   37   51   30   47   26   43   22
 Reordering of NBOs for storage:    28   49   53   32   56   35   55   34   54   33
 Reordering of NBOs for storage:    36   57   46   42   25   21   50   29   17   38
 Reordering of NBOs for storage:    27   23   48   44   31   52   18   39   40   19
 Labels of output orbitals:  CR  CR  CR  CR  CR  CR  CR  CR  CR  CR  LP  LP  BD  BD  BD  BD* BD* BD* RY* RY* 
 Labels of output orbitals:  RY* RY* RY* RY* RY* RY* RY* RY* RY* RY* RY* RY* RY* RY* RY* RY* RY* RY* RY* RY* 
 Labels of output orbitals:  RY* RY* RY* RY* RY* RY* RY* RY* RY* RY* RY* RY* RY* RY* RY* RY* RY* RY* RY* RY* 
 GSVD:  LWork=       -2385 too small for GESVD, short by       10800 words or       10800 for optimal perf.


 ***************************************************
 *******         Beta  spin orbitals         *******
 ***************************************************


 NATURAL POPULATIONS:  Natural atomic orbital occupancies 
                                                          
   NAO  Atom  No  lang   Type(AO)    Occupancy      Energy
 ----------------------------------------------------------
     1    P    1  S      Cor( 1S)     1.00000     -77.23859
     2    P    1  S      Cor( 2S)     0.99997      -7.68399
     3    P    1  S      Val( 3S)     0.96787      -0.71092
     4    P    1  S      Ryd( 4S)     0.00063       0.14291
     5    P    1  S      Ryd( 5S)     0.00001       3.05723
     6    P    1  S      Ryd( 6S)     0.00000      19.31536
     7    P    1  S      Ryd( 7S)     0.00000     147.91552
     8    P    1  px     Cor( 2p)     1.00000      -5.03545
     9    P    1  px     Val( 3p)     0.49921      -0.20598
    10    P    1  px     Ryd( 4p)     0.00022       0.13932
    11    P    1  px     Ryd( 6p)     0.00000       1.25145
    12    P    1  px     Ryd( 5p)     0.00000       0.57584
    13    P    1  px     Ryd( 7p)     0.00000      13.88430
    14    P    1  py     Cor( 2p)     1.00000      -5.03545
    15    P    1  py     Val( 3p)     0.49921      -0.20598
    16    P    1  py     Ryd( 4p)     0.00022       0.13932
    17    P    1  py     Ryd( 6p)     0.00000       1.25145
    18    P    1  py     Ryd( 5p)     0.00000       0.57584
    19    P    1  py     Ryd( 7p)     0.00000      13.88430
    20    P    1  pz     Cor( 2p)     0.99998      -5.03388
    21    P    1  pz     Val( 3p)     0.52907      -0.20730
    22    P    1  pz     Ryd( 4p)     0.00109       0.14055
    23    P    1  pz     Ryd( 6p)     0.00003       1.29198
    24    P    1  pz     Ryd( 5p)     0.00002       0.59126
    25    P    1  pz     Ryd( 7p)     0.00000      13.90722
    26    P    1  dxy    Ryd( 3d)     0.00000       0.69598
    27    P    1  dxz    Ryd( 3d)     0.00058       0.70235
    28    P    1  dyz    Ryd( 3d)     0.00058       0.70235
    29    P    1  dx2y2  Ryd( 3d)     0.00000       0.69598
    30    P    1  dz2    Ryd( 3d)     0.00133       0.77041
 
    31    P    2  S      Cor( 1S)     1.00000     -77.23859
    32    P    2  S      Cor( 2S)     0.99997      -7.68399
    33    P    2  S      Val( 3S)     0.96787      -0.71092
    34    P    2  S      Ryd( 4S)     0.00063       0.14291
    35    P    2  S      Ryd( 5S)     0.00001       3.05723
    36    P    2  S      Ryd( 6S)     0.00000      19.31536
    37    P    2  S      Ryd( 7S)     0.00000     147.91552
    38    P    2  px     Cor( 2p)     1.00000      -5.03545
    39    P    2  px     Val( 3p)     0.49921      -0.20598
    40    P    2  px     Ryd( 4p)     0.00022       0.13932
    41    P    2  px     Ryd( 6p)     0.00000       1.25145
    42    P    2  px     Ryd( 5p)     0.00000       0.57584
    43    P    2  px     Ryd( 7p)     0.00000      13.88430
    44    P    2  py     Cor( 2p)     1.00000      -5.03545
    45    P    2  py     Val( 3p)     0.49921      -0.20598
    46    P    2  py     Ryd( 4p)     0.00022       0.13932
    47    P    2  py     Ryd( 6p)     0.00000       1.25145
    48    P    2  py     Ryd( 5p)     0.00000       0.57584
    49    P    2  py     Ryd( 7p)     0.00000      13.88430
    50    P    2  pz     Cor( 2p)     0.99998      -5.03388
    51    P    2  pz     Val( 3p)     0.52907      -0.20730
    52    P    2  pz     Ryd( 4p)     0.00109       0.14055
    53    P    2  pz     Ryd( 6p)     0.00003       1.29198
    54    P    2  pz     Ryd( 5p)     0.00002       0.59126
    55    P    2  pz     Ryd( 7p)     0.00000      13.90722
    56    P    2  dxy    Ryd( 3d)     0.00000       0.69598
    57    P    2  dxz    Ryd( 3d)     0.00058       0.70235
    58    P    2  dyz    Ryd( 3d)     0.00058       0.70235
    59    P    2  dx2y2  Ryd( 3d)     0.00000       0.69598
    60    P    2  dz2    Ryd( 3d)     0.00133       0.77041

 WARNING:  Population inversion found on atom  P    1
           Population inversion found on atom  P    2


 Summary of Natural Population Analysis:                  
                                                          
                                       Natural Population 
                Natural  -----------------------------------------------
    Atom  No    Charge         Core      Valence    Rydberg      Total
 -----------------------------------------------------------------------
      P    1    0.00000      4.99995     2.49535    0.00470     7.50000
      P    2    0.00000      4.99995     2.49535    0.00470     7.50000
 =======================================================================
   * Total *    0.00000      9.99989     4.99071    0.00940    15.00000

                                 Natural Population      
 --------------------------------------------------------
   Core                       9.99989 ( 99.9989% of  10)
   Valence                    4.99071 ( 99.8142% of   5)
   Natural Minimal Basis     14.99060 ( 99.9373% of  15)
   Natural Rydberg Basis      0.00940 (  0.0627% of  15)
 --------------------------------------------------------

    Atom  No          Natural Electron Configuration
 ----------------------------------------------------------------------------
      P    1      [core]3S( 0.97)3p( 1.53)
      P    2      [core]3S( 0.97)3p( 1.53)


 NATURAL BOND ORBITAL ANALYSIS, beta spin orbitals:

                       Occupancies       Lewis Structure    Low   High
           Occ.    -------------------  -----------------   occ   occ
  Cycle   Thresh.   Lewis   Non-Lewis     CR  BD  3C  LP    (L)   (NL)   Dev
 =============================================================================
   1(1)    0.90    14.99938   0.00062     10   3   0   2     0      0    0.00
 -----------------------------------------------------------------------------

 Structure accepted: No low occupancy Lewis orbitals

 --------------------------------------------------------
   Core                      9.99989 ( 99.999% of  10)
   Valence Lewis             4.99949 ( 99.990% of   5)
  ==================       ============================
   Total Lewis              14.99938 ( 99.996% of  15)
  -----------------------------------------------------
   Valence non-Lewis         0.00004 (  0.000% of  15)
   Rydberg non-Lewis         0.00058 (  0.004% of  15)
  ==================       ============================
   Total non-Lewis           0.00062 (  0.004% of  15)
 --------------------------------------------------------


       (Occupancy)   Bond orbital/ Coefficients/ Hybrids
 ---------------------------------------------------------------------------------
     1. (1.00000) BD ( 1) P   1 - P   2  
                ( 50.00%)   0.7071* P   1 s(  6.47%)p14.41( 93.27%)d 0.04(  0.25%)
                                            0.0000  0.0000 -0.2521  0.0345  0.0005
                                            0.0002 -0.0000  0.0000  0.0000  0.0000
                                            0.0000  0.0000  0.0000  0.0000  0.0000
                                            0.0000  0.0000  0.0000  0.0000 -0.0000
                                            0.9649 -0.0408 -0.0009  0.0024 -0.0000
                                            0.0000  0.0000  0.0000  0.0000 -0.0505
                ( 50.00%)   0.7071* P   2 s(  6.47%)p14.41( 93.27%)d 0.04(  0.25%)
                                            0.0000 -0.0000 -0.2521  0.0345  0.0005
                                            0.0002 -0.0000  0.0000  0.0000  0.0000
                                            0.0000  0.0000  0.0000  0.0000  0.0000
                                            0.0000  0.0000  0.0000  0.0000 -0.0000
                                           -0.9649  0.0408  0.0009 -0.0024  0.0000
                                            0.0000  0.0000  0.0000  0.0000 -0.0505
     2. (1.00000) BD ( 2) P   1 - P   2  
                ( 50.00%)   0.7071* P   1 s(  0.00%)p 1.00( 99.88%)d 0.00(  0.12%)
                                            0.0000  0.0000  0.0000  0.0000  0.0000
                                            0.0000  0.0000  0.0000  0.9992  0.0209
                                           -0.0007 -0.0005 -0.0000  0.0000  0.0000
                                            0.0000  0.0000  0.0000  0.0000  0.0000
                                            0.0000  0.0000  0.0000  0.0000  0.0000
                                            0.0000 -0.0340  0.0000  0.0000  0.0000
                ( 50.00%)   0.7071* P   2 s(  0.00%)p 1.00( 99.88%)d 0.00(  0.12%)
                                            0.0000  0.0000  0.0000  0.0000  0.0000
                                            0.0000  0.0000  0.0000  0.9992  0.0209
                                           -0.0007 -0.0005 -0.0000  0.0000  0.0000
                                            0.0000  0.0000  0.0000  0.0000  0.0000
                                            0.0000  0.0000  0.0000  0.0000  0.0000
                                            0.0000  0.0340  0.0000  0.0000  0.0000
     3. (1.00000) BD ( 3) P   1 - P   2  
                ( 50.00%)   0.7071* P   1 s(  0.00%)p 1.00( 99.88%)d 0.00(  0.12%)
                                            0.0000  0.0000  0.0000  0.0000  0.0000
                                            0.0000  0.0000  0.0000  0.0000  0.0000
                                            0.0000  0.0000  0.0000  0.0000  0.9992
                                            0.0209 -0.0007 -0.0005 -0.0000  0.0000
                                            0.0000  0.0000  0.0000  0.0000  0.0000
                                            0.0000  0.0000 -0.0340  0.0000  0.0000
                ( 50.00%)   0.7071* P   2 s(  0.00%)p 1.00( 99.88%)d 0.00(  0.12%)
                                            0.0000  0.0000  0.0000  0.0000  0.0000
                                            0.0000  0.0000  0.0000  0.0000  0.0000
                                            0.0000  0.0000  0.0000  0.0000  0.9992
                                            0.0209 -0.0007 -0.0005 -0.0000  0.0000
                                            0.0000  0.0000  0.0000  0.0000  0.0000
                                            0.0000  0.0000  0.0340  0.0000  0.0000
     4. (1.00000) CR ( 1) P   1           s(100.00%)
                                            1.0000 -0.0000  0.0000  0.0000  0.0000
                                            0.0000  0.0000  0.0000  0.0000  0.0000
                                            0.0000  0.0000  0.0000  0.0000  0.0000
                                            0.0000  0.0000  0.0000  0.0000  0.0000
                                            0.0000 -0.0000  0.0000 -0.0000  0.0000
                                            0.0000  0.0000  0.0000  0.0000 -0.0000
     5. (0.99997) CR ( 2) P   1           s(100.00%)
                                           -0.0000  1.0000  0.0000  0.0000  0.0000
                                            0.0000  0.0000  0.0000  0.0000  0.0000
                                            0.0000  0.0000  0.0000  0.0000  0.0000
                                            0.0000  0.0000  0.0000  0.0000  0.0000
                                            0.0000 -0.0000  0.0000 -0.0000  0.0000
                                            0.0000  0.0000  0.0000  0.0000 -0.0000
     6. (1.00000) CR ( 3) P   1           s(  0.00%)p 1.00(100.00%)
                                            0.0000  0.0000  0.0000  0.0000  0.0000
                                            0.0000  0.0000  1.0000  0.0000  0.0000
                                            0.0000  0.0000  0.0000  0.0000  0.0000
                                            0.0000  0.0000  0.0000  0.0000  0.0000
                                            0.0000  0.0000  0.0000  0.0000  0.0000
                                            0.0000  0.0000  0.0000  0.0000  0.0000
     7. (1.00000) CR ( 4) P   1           s(  0.00%)p 1.00(100.00%)
                                            0.0000  0.0000  0.0000  0.0000  0.0000
                                            0.0000  0.0000  0.0000  0.0000  0.0000
                                            0.0000  0.0000  0.0000  1.0000  0.0000
                                            0.0000  0.0000  0.0000  0.0000  0.0000
                                            0.0000  0.0000  0.0000  0.0000  0.0000
                                            0.0000  0.0000  0.0000  0.0000  0.0000
     8. (0.99998) CR ( 5) P   1           s(  0.00%)p 1.00(100.00%)
                                            0.0000  0.0000 -0.0000 -0.0000 -0.0000
                                           -0.0000 -0.0000  0.0000  0.0000  0.0000
                                            0.0000  0.0000  0.0000  0.0000  0.0000
                                            0.0000  0.0000  0.0000  0.0000  1.0000
                                           -0.0000  0.0000 -0.0000  0.0000 -0.0000
                                            0.0000  0.0000  0.0000  0.0000  0.0000
     9. (1.00000) CR ( 1) P   2           s(100.00%)
                                            1.0000 -0.0000  0.0000  0.0000  0.0000
                                            0.0000  0.0000  0.0000  0.0000  0.0000
                                            0.0000  0.0000  0.0000  0.0000  0.0000
                                            0.0000  0.0000  0.0000  0.0000 -0.0000
                                           -0.0000  0.0000 -0.0000  0.0000 -0.0000
                                            0.0000  0.0000  0.0000  0.0000 -0.0000
    10. (0.99997) CR ( 2) P   2           s(100.00%)
                                           -0.0000  1.0000  0.0000  0.0000  0.0000
                                            0.0000  0.0000  0.0000  0.0000  0.0000
                                            0.0000  0.0000  0.0000  0.0000  0.0000
                                            0.0000  0.0000  0.0000  0.0000 -0.0000
                                           -0.0000  0.0000 -0.0000  0.0000 -0.0000
                                            0.0000  0.0000  0.0000  0.0000 -0.0000
    11. (1.00000) CR ( 3) P   2           s(  0.00%)p 1.00(100.00%)
                                            0.0000  0.0000  0.0000  0.0000  0.0000
                                            0.0000  0.0000  1.0000  0.0000  0.0000
                                            0.0000  0.0000  0.0000  0.0000  0.0000
                                            0.0000  0.0000  0.0000  0.0000  0.0000
                                            0.0000  0.0000  0.0000  0.0000  0.0000
                                            0.0000  0.0000  0.0000  0.0000  0.0000
    12. (1.00000) CR ( 4) P   2           s(  0.00%)p 1.00(100.00%)
                                            0.0000  0.0000  0.0000  0.0000  0.0000
                                            0.0000  0.0000  0.0000  0.0000  0.0000
                                            0.0000  0.0000  0.0000  1.0000  0.0000
                                            0.0000  0.0000  0.0000  0.0000  0.0000
                                            0.0000  0.0000  0.0000  0.0000  0.0000
                                            0.0000  0.0000  0.0000  0.0000  0.0000
    13. (0.99998) CR ( 5) P   2           s(  0.00%)p 1.00(100.00%)
                                           -0.0000 -0.0000  0.0000  0.0000  0.0000
                                            0.0000  0.0000  0.0000  0.0000  0.0000
                                            0.0000  0.0000  0.0000  0.0000  0.0000
                                            0.0000  0.0000  0.0000  0.0000  1.0000
                                           -0.0000  0.0000 -0.0000  0.0000 -0.0000
                                            0.0000  0.0000  0.0000  0.0000 -0.0000
    14. (0.99974) LP ( 1) P   1           s( 93.64%)p 0.07(  6.36%)d 0.00(  0.00%)
                                           -0.0000 -0.0000  0.9676  0.0045  0.0001
                                            0.0000  0.0000  0.0000  0.0000  0.0000
                                            0.0000  0.0000  0.0000  0.0000  0.0000
                                            0.0000  0.0000  0.0000  0.0000  0.0000
                                            0.2521 -0.0047  0.0047 -0.0027  0.0001
                                            0.0000  0.0000  0.0000  0.0000 -0.0067
    15. (0.99974) LP ( 1) P   2           s( 93.64%)p 0.07(  6.36%)d 0.00(  0.00%)
                                           -0.0000 -0.0000  0.9676  0.0045  0.0001
                                            0.0000  0.0000  0.0000  0.0000  0.0000
                                            0.0000  0.0000  0.0000  0.0000  0.0000
                                            0.0000  0.0000  0.0000  0.0000 -0.0000
                                           -0.2521  0.0047 -0.0047  0.0027 -0.0001
                                            0.0000  0.0000  0.0000  0.0000 -0.0067
    16. (0.00027) RY*( 1) P   1           s(  8.09%)p11.08( 89.62%)d 0.28(  2.30%)
                                           -0.0000 -0.0000  0.0053  0.2571 -0.1128
                                           -0.0454 -0.0001 -0.0000 -0.0000 -0.0000
                                           -0.0000 -0.0000 -0.0000 -0.0000 -0.0000
                                           -0.0000 -0.0000 -0.0000 -0.0000  0.0000
                                           -0.0385 -0.9241 -0.0789 -0.1855  0.0010
                                           -0.0000 -0.0000 -0.0000 -0.0000  0.1516
    17. (0.00000) RY*( 2) P   1           s( 99.96%)p 0.00(  0.04%)d 0.00(  0.00%)
    18. (0.00000) RY*( 3) P   1           s( 99.80%)p 0.00(  0.20%)d 0.00(  0.00%)
    19. (0.00000) RY*( 4) P   1           s(100.00%)
    20. (0.00000) RY*( 5) P   1           s(  0.00%)p 1.00(100.00%)d 0.00(  0.00%)
    21. (0.00000) RY*( 6) P   1           s(  0.00%)p 1.00(100.00%)
    22. (0.00000) RY*( 7) P   1           s(  0.00%)p 1.00(100.00%)
    23. (0.00000) RY*( 8) P   1           s(  0.00%)p 1.00(100.00%)
    24. (0.00000) RY*( 9) P   1           s(  0.00%)p 1.00(100.00%)d 0.00(  0.00%)
    25. (0.00000) RY*(10) P   1           s(  0.00%)p 1.00(100.00%)
    26. (0.00000) RY*(11) P   1           s(  0.00%)p 1.00(100.00%)
    27. (0.00000) RY*(12) P   1           s(  0.00%)p 1.00(100.00%)
    28. (0.00000) RY*(13) P   1           s( 91.49%)p 0.09(  8.51%)d 0.00(  0.00%)
    29. (0.00000) RY*(14) P   1           s(  0.06%)p99.99( 99.94%)
    30. (0.00000) RY*(15) P   1           s(  0.30%)p99.99( 99.70%)d 0.00(  0.00%)
    31. (0.00000) RY*(16) P   1           s(  0.00%)p 1.00(100.00%)d 0.00(  0.00%)
    32. (0.00000) RY*(17) P   1           s(  0.00%)p 0.00(  0.00%)d 1.00(100.00%)
    33. (0.00000) RY*(18) P   1           s(  0.00%)p 1.00(  0.12%)d99.99( 99.88%)
    34. (0.00000) RY*(19) P   1           s(  0.00%)p 1.00(  0.12%)d99.99( 99.88%)
    35. (0.00000) RY*(20) P   1           s(  0.00%)p 0.00(  0.00%)d 1.00(100.00%)
    36. (0.00001) RY*(21) P   1           s(  0.19%)p12.62(  2.37%)d99.99( 97.44%)
    37. (0.00027) RY*( 1) P   2           s(  8.09%)p11.08( 89.62%)d 0.28(  2.30%)
                                           -0.0000  0.0000  0.0053  0.2571 -0.1128
                                           -0.0454 -0.0001  0.0000  0.0000  0.0000
                                            0.0000  0.0000  0.0000  0.0000  0.0000
                                            0.0000  0.0000  0.0000  0.0000  0.0000
                                            0.0385  0.9241  0.0789  0.1855 -0.0010
                                            0.0000  0.0000  0.0000  0.0000  0.1516
    38. (0.00000) RY*( 2) P   2           s( 99.96%)p 0.00(  0.04%)d 0.00(  0.00%)
    39. (0.00000) RY*( 3) P   2           s( 99.80%)p 0.00(  0.20%)d 0.00(  0.00%)
    40. (0.00000) RY*( 4) P   2           s(100.00%)
    41. (0.00000) RY*( 5) P   2           s(  0.00%)p 1.00(100.00%)d 0.00(  0.00%)
    42. (0.00000) RY*( 6) P   2           s(  0.00%)p 1.00(100.00%)
    43. (0.00000) RY*( 7) P   2           s(  0.00%)p 1.00(100.00%)
    44. (0.00000) RY*( 8) P   2           s(  0.00%)p 1.00(100.00%)
    45. (0.00000) RY*( 9) P   2           s(  0.00%)p 1.00(100.00%)d 0.00(  0.00%)
    46. (0.00000) RY*(10) P   2           s(  0.00%)p 1.00(100.00%)
    47. (0.00000) RY*(11) P   2           s(  0.00%)p 1.00(100.00%)
    48. (0.00000) RY*(12) P   2           s(  0.00%)p 1.00(100.00%)
    49. (0.00000) RY*(13) P   2           s( 91.49%)p 0.09(  8.51%)d 0.00(  0.00%)
    50. (0.00000) RY*(14) P   2           s(  0.06%)p99.99( 99.94%)
    51. (0.00000) RY*(15) P   2           s(  0.30%)p99.99( 99.70%)d 0.00(  0.00%)
    52. (0.00000) RY*(16) P   2           s(  0.00%)p 1.00(100.00%)d 0.00(  0.00%)
    53. (0.00000) RY*(17) P   2           s(  0.00%)p 0.00(  0.00%)d 1.00(100.00%)
    54. (0.00000) RY*(18) P   2           s(  0.00%)p 1.00(  0.12%)d99.99( 99.88%)
    55. (0.00000) RY*(19) P   2           s(  0.00%)p 1.00(  0.12%)d99.99( 99.88%)
    56. (0.00000) RY*(20) P   2           s(  0.00%)p 0.00(  0.00%)d 1.00(100.00%)
    57. (0.00001) RY*(21) P   2           s(  0.19%)p12.62(  2.37%)d99.99( 97.44%)
    58. (0.00003) BD*( 1) P   1 - P   2  
                ( 50.00%)   0.7071* P   1 s(  6.47%)p14.41( 93.27%)d 0.04(  0.25%)
                ( 50.00%)  -0.7071* P   2 s(  6.47%)p14.41( 93.27%)d 0.04(  0.25%)
    59. (0.00001) BD*( 2) P   1 - P   2  
                ( 50.00%)   0.7071* P   1 s(  0.00%)p 1.00( 99.88%)d 0.00(  0.12%)
                ( 50.00%)  -0.7071* P   2 s(  0.00%)p 1.00( 99.88%)d 0.00(  0.12%)
    60. (0.00001) BD*( 3) P   1 - P   2  
                ( 50.00%)   0.7071* P   1 s(  0.00%)p 1.00( 99.88%)d 0.00(  0.12%)
                ( 50.00%)  -0.7071* P   2 s(  0.00%)p 1.00( 99.88%)d 0.00(  0.12%)


 NHO Directionality and "Bond Bending" (deviations from line of nuclear centers)

         [Thresholds for printing:  angular deviation  >  1.0 degree]
                                    hybrid p-character > 25.0%
                                    orbital occupancy  >  0.10e

                                Line of Centers        Hybrid 1              Hybrid 2
                                ---------------  -------------------   ------------------
                NBO               Theta   Phi    Theta   Phi    Dev    Theta   Phi    Dev
 ========================================================================================
     2. BD (   2) P   1 - P   2   180.0    0.0    90.0    0.0  90.0     90.0    0.0  90.0
     3. BD (   3) P   1 - P   2   180.0    0.0    90.0   90.0  90.0     90.0   90.0  90.0


 Second Order Perturbation Theory Analysis of Fock Matrix in NBO Basis

     Threshold for printing:   0.25 kcal/mol
                                                                              E(2)  E(j)-E(i) F(i,j)
         Donor NBO (i)                     Acceptor NBO (j)                 kcal/mol   a.u.    a.u. 
 ===================================================================================================

 within unit  1
       None above threshold


 Natural Bond Orbitals (Summary):

                                                            Principal Delocalizations
           NBO                        Occupancy    Energy   (geminal,vicinal,remote)
 ====================================================================================
 Molecular unit  1  (P2)
     1. BD (   1) P   1 - P   2          1.00000    -0.42447   
     2. BD (   2) P   1 - P   2          1.00000    -0.28671   
     3. BD (   3) P   1 - P   2          1.00000    -0.28671   
     4. CR (   1) P   1                  1.00000   -77.23859   
     5. CR (   2) P   1                  0.99997    -7.68404   
     6. CR (   3) P   1                  1.00000    -5.03545   
     7. CR (   4) P   1                  1.00000    -5.03545   
     8. CR (   5) P   1                  0.99998    -5.03388   
     9. CR (   1) P   2                  1.00000   -77.23859   
    10. CR (   2) P   2                  0.99997    -7.68404   
    11. CR (   3) P   2                  1.00000    -5.03545   
    12. CR (   4) P   2                  1.00000    -5.03545   
    13. CR (   5) P   2                  0.99998    -5.03388   
    14. LP (   1) P   1                  0.99974    -0.69487   
    15. LP (   1) P   2                  0.99974    -0.69487   
    16. RY*(   1) P   1                  0.00027     0.23984   
    17. RY*(   2) P   1                  0.00000     2.42386   
    18. RY*(   3) P   1                  0.00000    19.37992   
    19. RY*(   4) P   1                  0.00000   147.91555   
    20. RY*(   5) P   1                  0.00000     0.13987   
    21. RY*(   6) P   1                  0.00000     1.25145   
    22. RY*(   7) P   1                  0.00000     0.57584   
    23. RY*(   8) P   1                  0.00000    13.88430   
    24. RY*(   9) P   1                  0.00000     0.13987   
    25. RY*(  10) P   1                  0.00000     1.25145   
    26. RY*(  11) P   1                  0.00000     0.57584   
    27. RY*(  12) P   1                  0.00000    13.88430   
    28. RY*(  13) P   1                  0.00000     0.67893   
    29. RY*(  14) P   1                  0.00000     1.29691   
    30. RY*(  15) P   1                  0.00000     0.53446   
    31. RY*(  16) P   1                  0.00000    13.90762   
    32. RY*(  17) P   1                  0.00000     0.69598   
    33. RY*(  18) P   1                  0.00000     0.70167   
    34. RY*(  19) P   1                  0.00000     0.70167   
    35. RY*(  20) P   1                  0.00000     0.69598   
    36. RY*(  21) P   1                  0.00001     0.75107   
    37. RY*(   1) P   2                  0.00027     0.23984   
    38. RY*(   2) P   2                  0.00000     2.42386   
    39. RY*(   3) P   2                  0.00000    19.37992   
    40. RY*(   4) P   2                  0.00000   147.91555   
    41. RY*(   5) P   2                  0.00000     0.13987   
    42. RY*(   6) P   2                  0.00000     1.25145   
    43. RY*(   7) P   2                  0.00000     0.57584   
    44. RY*(   8) P   2                  0.00000    13.88430   
    45. RY*(   9) P   2                  0.00000     0.13987   
    46. RY*(  10) P   2                  0.00000     1.25145   
    47. RY*(  11) P   2                  0.00000     0.57584   
    48. RY*(  12) P   2                  0.00000    13.88430   
    49. RY*(  13) P   2                  0.00000     0.67893   
    50. RY*(  14) P   2                  0.00000     1.29691   
    51. RY*(  15) P   2                  0.00000     0.53446   
    52. RY*(  16) P   2                  0.00000    13.90762   
    53. RY*(  17) P   2                  0.00000     0.69598   
    54. RY*(  18) P   2                  0.00000     0.70167   
    55. RY*(  19) P   2                  0.00000     0.70167   
    56. RY*(  20) P   2                  0.00000     0.69598   
    57. RY*(  21) P   2                  0.00001     0.75107   
    58. BD*(   1) P   1 - P   2          0.00003    -0.01356   
    59. BD*(   2) P   1 - P   2          0.00001    -0.12498   
    60. BD*(   3) P   1 - P   2          0.00001    -0.12498   
       -------------------------------
              Total Lewis   14.99938  ( 99.9959%)
        Valence non-Lewis    0.00004  (  0.0003%)
        Rydberg non-Lewis    0.00058  (  0.0039%)
       -------------------------------
            Total unit  1   15.00000  (100.0000%)
           Charge unit  1    0.00000
 Sorting of NBOs:                    4    9   10    5   12    7   11    6   13    8
 Sorting of NBOs:                   14   15    1    2    3   59   60   58   24   45
 Sorting of NBOs:                   20   41   16   37   51   30   47   26   43   22
 Sorting of NBOs:                   28   49   53   32   56   35   55   34   54   33
 Sorting of NBOs:                   36   57   46   42   25   21   50   29   17   38
 Sorting of NBOs:                   27   23   48   44   31   52   18   39   40   19
 Reordering of NBOs for storage:     4    9   10    5   12    7   11    6   13    8
 Reordering of NBOs for storage:    14   15    1    2    3   59   60   58   24   45
 Reordering of NBOs for storage:    20   41   16   37   51   30   47   26   43   22
 Reordering of NBOs for storage:    28   49   53   32   56   35   55   34   54   33
 Reordering of NBOs for storage:    36   57   46   42   25   21   50   29   17   38
 Reordering of NBOs for storage:    27   23   48   44   31   52   18   39   40   19
 Labels of output orbitals:  CR  CR  CR  CR  CR  CR  CR  CR  CR  CR  LP  LP  BD  BD  BD  BD* BD* BD* RY* RY* 
 Labels of output orbitals:  RY* RY* RY* RY* RY* RY* RY* RY* RY* RY* RY* RY* RY* RY* RY* RY* RY* RY* RY* RY* 
 Labels of output orbitals:  RY* RY* RY* RY* RY* RY* RY* RY* RY* RY* RY* RY* RY* RY* RY* RY* RY* RY* RY* RY* 
 GSVD:  LWork=       -2385 too small for GESVD, short by       10800 words or       10800 for optimal perf.
 Leave Link  607 at Mon Apr 21 21:21:20 2025, MaxMem=   536870912 cpu:               6.6 elap:               0.9
 (Enter /home/szhao/Apps/g16/l701.exe)
 ... and contract with generalized density number  0.
 Compute integral first derivatives.
 Leave Link  701 at Mon Apr 21 21:21:21 2025, MaxMem=   536870912 cpu:               1.1 elap:               0.3
 (Enter /home/szhao/Apps/g16/l702.exe)
 L702 exits ... SP integral derivatives will be done elsewhere.
 Leave Link  702 at Mon Apr 21 21:21:21 2025, MaxMem=   536870912 cpu:               0.7 elap:               0.1
 (Enter /home/szhao/Apps/g16/l703.exe)
 Integral derivatives from FoFJK, PRISM(SPDF).
 Compute integral first derivatives, UseDBF=F ICtDFT=           0.
 Calling FoFJK, ICntrl=      2127 FMM=F ISym2X=1 I1Cent= 0 IOpClX= 1 NMat=1 NMatS=1 NMatT=0.
 FoFJK:  IHMeth= 1 ICntrl=    2127 DoSepK=F KAlg= 0 I1Cent=           0 FoldK=F
 IRaf=         0 NMat=       1 IRICut=       1 DoRegI=T DoRafI=F ISym2E= 1 IDoP0=0 IntGTp=1.
 FoFCou: FMM=F IPFlag=           0 FMFlag=      100000 FMFlg1=         800
         NFxFlg=           0 DoJE=F BraDBF=F KetDBF=F FulRan=T
         wScrn=  0.000000 ICntrl=      2127 IOpCl=  1 I1Cent=           0 NGrid=           0
         NMat0=    1 NMatS0=      1 NMatT0=    0 NMatD0=    1 NMtDS0=    0 NMtDT0=    0
 Petite list used in FoFCou.
 Leave Link  703 at Mon Apr 21 21:21:22 2025, MaxMem=   536870912 cpu:               2.2 elap:               0.5
 (Enter /home/szhao/Apps/g16/l716.exe)
 Dipole        =-4.43734259D-30-3.21884133D-33 1.33226763D-15
 ***** Axes restored to original set *****
 -------------------------------------------------------------------
 Center     Atomic                   Forces (Hartrees/Bohr)
 Number     Number              X              Y              Z
 -------------------------------------------------------------------
      1       15           0.131735692   -0.000000000    0.000000000
      2       15          -0.131735692    0.000000000   -0.000000000
 -------------------------------------------------------------------
 Cartesian Forces:  Max     0.131735692 RMS     0.076057637
 Z-matrix is all fixed cartesians, so copy forces.
 Force constants in Cartesian coordinates: 
                1             2             3             4             5 
      1  0.788379D-01
      2  0.000000D+00  0.100000D+01
      3  0.000000D+00  0.000000D+00  0.100000D+01
      4 -0.788379D-01  0.000000D+00  0.000000D+00  0.788379D-01
      5  0.000000D+00  0.000000D+00  0.000000D+00  0.000000D+00  0.100000D+01
      6  0.000000D+00  0.000000D+00  0.000000D+00  0.000000D+00  0.000000D+00
                6 
      6  0.100000D+01
 Leave Link  716 at Mon Apr 21 21:21:22 2025, MaxMem=   536870912 cpu:               0.3 elap:               0.2
 (Enter /home/szhao/Apps/g16/l103.exe)

 GradGradGradGradGradGradGradGradGradGradGradGradGradGradGradGradGradGrad
 Berny optimization.
 Search for a local minimum.
 Step number   1 out of a maximum of    2
 All quantities printed in internal units (Hartrees-Bohrs-Radians)
 Second derivative matrix not updated -- first step.
 The second derivative matrix:
                          X1        Y1        Z1        X2        Y2
           X1           0.07884
           Y1           0.00000   1.00000
           Z1           0.00000   0.00000   1.00000
           X2          -0.07884   0.00000  -0.00000   0.07884
           Y2           0.00000   0.00000   0.00000   0.00000   1.00000
           Z2          -0.00000   0.00000  -0.00000   0.00000   0.00000
                          Z2
           Z2           1.00000
 ITU=  0
     Eigenvalues ---    0.15768
 Quadratic step=1.182D+00 exceeds max=3.000D-01 adjusted using Lamda=-4.627D-01.
 Angle between NR and scaled steps=   0.00 degrees.
 Angle between quadratic step and forces=   0.00 degrees.
 ClnCor:  largest displacement from symmetrization is 1.30D-17 for atom     1.
 Linear search not attempted -- first point.
 ClnCor:  largest displacement from symmetrization is 1.71D-49 for atom     1.
 B after Tr=     0.000000    0.000000    0.000000
         Rot=    1.000000    0.000000    0.000000    0.000000 Ang=   0.00 deg.
 Variable       Old X    -DE/DX   Delta X   Delta X   Delta X     New X
                                 (Linear)    (Quad)   (Total)
    X1       -2.43490   0.13174   0.00000   0.21235   0.21235  -2.22256
    Y1        0.00000  -0.00000   0.00000  -0.00000   0.00000   0.00000
    Z1        0.00000   0.00000   0.00000   0.00000   0.00000   0.00000
    X2        2.43490  -0.13174   0.00000  -0.21235  -0.21235   2.22256
    Y2        0.00000   0.00000   0.00000  -0.00000   0.00000   0.00000
    Z2        0.00000  -0.00000   0.00000  -0.00000  -0.00000   0.00000
         Item               Value     Threshold  Converged?
 Maximum Force            0.131736     0.000450     NO 
 RMS     Force            0.076058     0.000300     NO 
 Maximum Displacement     0.212346     0.001800     NO 
 RMS     Displacement     0.122598     0.001200     NO 
 Predicted change in Energy=-4.883745D-02
 GradGradGradGradGradGradGradGradGradGradGradGradGradGradGradGradGradGrad

 Leave Link  103 at Mon Apr 21 21:21:23 2025, MaxMem=   536870912 cpu:               0.4 elap:               0.1
 (Enter /home/szhao/Apps/g16/l9999.exe)
 1\1\GINC-NODE05\Force\UM062X\6-311+G(d,p)\P2\SZHAO\21-Apr-2025\0\\#p U
 M062X/6-311+G** force int=superfine pop=saveNBO\\Title Card Required\\
 0,1\P,-1.288495,0.,0.\P,1.288495,0.,0.\\Version=ES64L-G16RevA.03\State
 =1-SGG\HF=-682.5160551\S2=0.\S2-1=0.\S2A=0.\RMSD=1.538e-09\RMSF=7.606e
 -02\Dipole=0.,0.,0.\Quadrupole=1.5267936,-0.7633968,-0.7633968,0.,0.,0
 .\PG=D*H [C*(P1.P1)]\\@


 Fatherhood is pretending the present you love most is soap-on-a-rope.
 -- Bill Cosby
 Job cpu time:       0 days  0 hours  0 minutes 31.4 seconds.
 Elapsed time:       0 days  0 hours  0 minutes  5.2 seconds.
 File lengths (MBytes):  RWF=     17 Int=      0 D2E=      0 Chk=      2 Scr=      2
 Normal termination of Gaussian 16 at Mon Apr 21 21:21:23 2025.
