 Entering Gaussian System, Link 0=g16
 Initial command:
 /home/szhao/Apps/g16/l1.exe "/home/szhao/tmp/Gau-109915.inp" -scrdir="/home/szhao/tmp/"
 Default is to use a total of  16 processors:
                               16 via shared-memory
                                1 via Linda
 Entering Link 1 = /home/szhao/Apps/g16/l1.exe PID=    109917.
  
 Copyright (c) 1988,1990,1992,1993,1995,1998,2003,2009,2016,
            Gaussian, Inc.  All Rights Reserved.
  
 This is part of the Gaussian(R) 16 program.  It is based on
 the Gaussian(R) 09 system (copyright 2009, Gaussian, Inc.),
 the Gaussian(R) 03 system (copyright 2003, Gaussian, Inc.),
 the Gaussian(R) 98 system (copyright 1998, Gaussian, Inc.),
 the Gaussian(R) 94 system (copyright 1995, Gaussian, Inc.),
 the Gaussian 92(TM) system (copyright 1992, Gaussian, Inc.),
 the Gaussian 90(TM) system (copyright 1990, Gaussian, Inc.),
 the Gaussian 88(TM) system (copyright 1988, Gaussian, Inc.),
 the Gaussian 86(TM) system (copyright 1986, Carnegie Mellon
 University), and the Gaussian 82(TM) system (copyright 1983,
 Carnegie Mellon University). Gaussian is a federally registered
 trademark of Gaussian, Inc.
  
 This software contains proprietary and confidential information,
 including trade secrets, belonging to Gaussian, Inc.
  
 This software is provided under written license and may be
 used, copied, transmitted, or stored only in accord with that
 written license.
  
 The following legend is applicable only to US Government
 contracts under FAR:
  
                    RESTRICTED RIGHTS LEGEND
  
 Use, reproduction and disclosure by the US Government is
 subject to restrictions as set forth in subparagraphs (a)
 and (c) of the Commercial Computer Software - Restricted
 Rights clause in FAR 52.227-19.
  
 Gaussian, Inc.
 340 Quinnipiac St., Bldg. 40, Wallingford CT 06492
  
  
 ---------------------------------------------------------------
 Warning -- This program may not be used in any manner that
 competes with the business of Gaussian, Inc. or will provide
 assistance to any competitor of Gaussian, Inc.  The licensee
 of this program is prohibited from giving any competitor of
 Gaussian, Inc. access to this program.  By using this program,
 the user acknowledges that Gaussian, Inc. is engaged in the
 business of creating and licensing software in the field of
 computational chemistry and represents and warrants to the
 licensee that it is not a competitor of Gaussian, Inc. and that
 it will not use this program in any manner prohibited above.
 ---------------------------------------------------------------
  

 Cite this work as:
 Gaussian 16, Revision A.03,
 M. J. Frisch, G. W. Trucks, H. B. Schlegel, G. E. Scuseria, 
 M. A. Robb, J. R. Cheeseman, G. Scalmani, V. Barone, 
 G. A. Petersson, H. Nakatsuji, X. Li, M. Caricato, A. V. Marenich, 
 J. Bloino, B. G. Janesko, R. Gomperts, B. Mennucci, H. P. Hratchian, 
 J. V. Ortiz, A. F. Izmaylov, J. L. Sonnenberg, D. Williams-Young, 
 F. Ding, F. Lipparini, F. Egidi, J. Goings, B. Peng, A. Petrone, 
 T. Henderson, D. Ranasinghe, V. G. Zakrzewski, J. Gao, N. Rega, 
 G. Zheng, W. Liang, M. Hada, M. Ehara, K. Toyota, R. Fukuda, 
 J. Hasegawa, M. Ishida, T. Nakajima, Y. Honda, O. Kitao, H. Nakai, 
 T. Vreven, K. Throssell, J. A. Montgomery, Jr., J. E. Peralta, 
 F. Ogliaro, M. J. Bearpark, J. J. Heyd, E. N. Brothers, K. N. Kudin, 
 V. N. Staroverov, T. A. Keith, R. Kobayashi, J. Normand, 
 K. Raghavachari, A. P. Rendell, J. C. Burant, S. S. Iyengar, 
 J. Tomasi, M. Cossi, J. M. Millam, M. Klene, C. Adamo, R. Cammi, 
 J. W. Ochterski, R. L. Martin, K. Morokuma, O. Farkas, 
 J. B. Foresman, and D. J. Fox, Gaussian, Inc., Wallingford CT, 2016.
 
 ******************************************
 Gaussian 16:  ES64L-G16RevA.03 25-Dec-2016
                19-Nov-2024 
 ******************************************
 %chk=opt.chk
 %mem=8GB
 %nprocshared=24
 Will use up to   24 processors via shared memory.
 --------------------------------------------
 #p opt UM062X/6-311+G** nosymm int=superfine
 --------------------------------------------
 1/18=20,19=15,26=5,38=1/1,3;
 2/9=110,12=2,15=1,17=6,18=5,40=1/2;
 3/5=4,6=6,7=111,11=2,25=1,30=1,71=1,74=-55,75=-7,116=2/1,2,3;
 4//1;
 5/5=2,38=5/2;
 6/7=2,8=2,9=2,10=2,28=1/1;
 7/30=1/1,2,3,16;
 1/18=20,19=15,26=5/3(2);
 2/9=110,15=1/2;
 99//99;
 2/9=110,15=1/2;
 3/5=4,6=6,7=111,11=2,25=1,30=1,71=1,74=-55,75=-7,116=2/1,2,3;
 4/5=5,16=3,69=1/1;
 5/5=2,38=5/2;
 7/30=1/1,2,3,16;
 1/18=20,19=15,26=5/3(-5);
 2/9=110,15=1/2;
 6/7=2,8=2,9=2,10=2,19=2,28=1/1;
 99/9=1/99;
 Leave Link    1 at Tue Nov 19 12:07:11 2024, MaxMem=  1073741824 cpu:               1.0 elap:               0.0
 (Enter /home/szhao/Apps/g16/l101.exe)
 -------------------
 Title Card Required
 -------------------
 Symbolic Z-matrix:
 Charge =  0 Multiplicity = 1
 C                    -1   -1.03079   0.        0. 
 C                    -1    1.03089   0.        0. 
 H                    0     1.56454  -0.88075   0.50965 
 H                    0    -1.56416  -0.88202  -0.50795 
 H                    0     1.56427   0.88201   0.50792 
 H                    0     1.56428  -0.00087  -1.01782 
 H                    0    -1.56444   0.88074  -0.50968 
 H                    0    -1.56417   0.00086   1.01779 
 
 Add virtual bond connecting atoms C2         and C1         Dist= 3.90D+00.
 ITRead=  2  2  0  0  0  0  0  0
 MicOpt= -2 -2 -1 -1 -1 -1 -1 -1
 NAtoms=      8 NQM=        6 NQMF=       2 NMMI=      0 NMMIF=      0
                NMic=       0 NMicF=      0.
                    Isotopes and Nuclear Properties:
 (Nuclear quadrupole moments (NQMom) in fm**2, nuclear magnetic moments (NMagM)
  in nuclear magnetons)

  Atom         1           2           3           4           5           6           7           8
 IAtWgt=          12          12           1           1           1           1           1           1
 AtmWgt=  12.0000000  12.0000000   1.0078250   1.0078250   1.0078250   1.0078250   1.0078250   1.0078250
 NucSpn=           0           0           1           1           1           1           1           1
 AtZEff=  -0.0000000  -0.0000000  -0.0000000  -0.0000000  -0.0000000  -0.0000000  -0.0000000  -0.0000000
 NQMom=    0.0000000   0.0000000   0.0000000   0.0000000   0.0000000   0.0000000   0.0000000   0.0000000
 NMagM=    0.0000000   0.0000000   2.7928460   2.7928460   2.7928460   2.7928460   2.7928460   2.7928460
 AtZNuc=   6.0000000   6.0000000   1.0000000   1.0000000   1.0000000   1.0000000   1.0000000   1.0000000
 Leave Link  101 at Tue Nov 19 12:07:11 2024, MaxMem=  1073741824 cpu:              11.2 elap:               0.5
 (Enter /home/szhao/Apps/g16/l103.exe)

 GradGradGradGradGradGradGradGradGradGradGradGradGradGradGradGradGradGrad
 Berny optimization.
 Initialization pass.
                           ----------------------------
                           !    Initial Parameters    !
                           ! (Angstroms and Degrees)  !
 --------------------------                            --------------------------
 ! Name  Definition              Value          Derivative Info.                !
 --------------------------------------------------------------------------------
 ! X1    R(1,-1)                -1.0308         Frozen                          !
 ! Y1    R(1,-2)                 0.0            Frozen                          !
 ! Z1    R(1,-3)                 0.0            Frozen                          !
 ! X2    R(2,-1)                 1.0309         Frozen                          !
 ! Y2    R(2,-2)                 0.0            Frozen                          !
 ! Z2    R(2,-3)                 0.0            Frozen                          !
 ! R1    R(1,4)                  1.1491         estimate D2E/DX2                !
 ! R2    R(1,7)                  1.149          estimate D2E/DX2                !
 ! R3    R(1,8)                  1.1491         estimate D2E/DX2                !
 ! R4    R(2,3)                  1.149          estimate D2E/DX2                !
 ! R5    R(2,5)                  1.1491         estimate D2E/DX2                !
 ! R6    R(2,6)                  1.1491         estimate D2E/DX2                !
 ! A1    A(2,1,4)              117.656          estimate D2E/DX2                !
 ! A2    A(2,1,7)              117.6737         estimate D2E/DX2                !
 ! A3    A(2,1,8)              117.6574         estimate D2E/DX2                !
 ! A4    A(4,1,7)              100.1775         estimate D2E/DX2                !
 ! A5    A(4,1,8)              100.1745         estimate D2E/DX2                !
 ! A6    A(7,1,8)              100.1797         estimate D2E/DX2                !
 ! A7    A(1,2,3)              117.6737         estimate D2E/DX2                !
 ! A8    A(1,2,5)              117.6565         estimate D2E/DX2                !
 ! A9    A(1,2,6)              117.6566         estimate D2E/DX2                !
 ! A10   A(3,2,5)              100.1793         estimate D2E/DX2                !
 ! A11   A(3,2,6)              100.1783         estimate D2E/DX2                !
 ! A12   A(5,2,6)              100.1742         estimate D2E/DX2                !
 ! D1    D(4,1,2,3)            -59.9932         estimate D2E/DX2                !
 ! D2    D(4,1,2,5)            179.9987         estimate D2E/DX2                !
 ! D3    D(4,1,2,6)             60.0135         estimate D2E/DX2                !
 ! D4    D(7,1,2,3)           -179.9981         estimate D2E/DX2                !
 ! D5    D(7,1,2,5)             59.9938         estimate D2E/DX2                !
 ! D6    D(7,1,2,6)            -59.9914         estimate D2E/DX2                !
 ! D7    D(8,1,2,3)             59.9926         estimate D2E/DX2                !
 ! D8    D(8,1,2,5)            -60.0156         estimate D2E/DX2                !
 ! D9    D(8,1,2,6)            179.9993         estimate D2E/DX2                !
 --------------------------------------------------------------------------------
 Trust Radius=3.00D-01 FncErr=1.00D-07 GrdErr=1.00D-07 EigMax=2.50D+02 EigMin=1.00D-04
 Number of steps in this run=     43 maximum allowed number of steps=    100.
 GradGradGradGradGradGradGradGradGradGradGradGradGradGradGradGradGradGrad

 Leave Link  103 at Tue Nov 19 12:07:12 2024, MaxMem=  1073741824 cpu:               0.4 elap:               0.0
 (Enter /home/szhao/Apps/g16/l202.exe)
                          Input orientation:                          
 ---------------------------------------------------------------------
 Center     Atomic      Atomic             Coordinates (Angstroms)
 Number     Number       Type             X           Y           Z
 ---------------------------------------------------------------------
      1          6           0       -1.030788    0.000000    0.000000
      2          6           0        1.030894    0.000000    0.000000
      3          1           0        1.564541   -0.880754    0.509649
      4          1           0       -1.564164   -0.882021   -0.507950
      5          1           0        1.564267    0.882009    0.507916
      6          1           0        1.564279   -0.000873   -1.017819
      7          1           0       -1.564437    0.880742   -0.509681
      8          1           0       -1.564173    0.000860    1.017787
 ---------------------------------------------------------------------
                    Distance matrix (angstroms):
                    1          2          3          4          5
     1  C    0.000000
     2  C    2.061682   0.000000
     3  H    2.787688   1.149021   0.000000
     4  H    1.149114   2.787526   3.290031   0.000000
     5  H    2.787513   1.149089   1.762764   3.732407   0.000000
     6  H    2.787531   1.149111   1.762767   3.289915   1.762767
     7  H    1.149026   2.787691   3.732613   1.762764   3.290029
     8  H    1.149083   2.787519   3.290030   1.762768   3.289913
                    6          7          8
     6  H    0.000000
     7  H    3.290032   0.000000
     8  H    3.732413   1.762768   0.000000
 Symmetry turned off by external request.
 This structure is nearly, but not quite of a higher symmetry.
 Consider Symm=Loose if the higher symmetry is desired.
 Stoichiometry    C2H6
 Framework group  C1[X(C2H6)]
 Deg. of freedom    18
 Full point group                 C1      NOp   1
 Rotational constants (GHZ):          80.6886616          11.6360610          11.6360562
 Leave Link  202 at Tue Nov 19 12:07:12 2024, MaxMem=  1073741824 cpu:               0.1 elap:               0.0
 (Enter /home/szhao/Apps/g16/l301.exe)
 Standard basis: 6-311+G(d,p) (5D, 7F)
 Ernie: Thresh=  0.10000D-02 Tol=  0.10000D-05 Strict=F.
    80 basis functions,   120 primitive gaussians,    82 cartesian basis functions
     9 alpha electrons        9 beta electrons
       nuclear repulsion energy        35.8447133291 Hartrees.
 IExCor= 4336 DFT=T Ex+Corr=M062X ExCW=0 ScaHFX=  0.540000
 ScaDFX=  1.000000  1.000000  1.000000  1.000000 ScalE2=  1.000000  1.000000
 IRadAn=      7 IRanWt=     -1 IRanGd=            0 ICorTp=0 IEmpDi=  4
 NAtoms=    8 NActive=    8 NUniq=    8 SFac= 1.00D+00 NAtFMM=   60 NAOKFM=F Big=F
 Integral buffers will be    131072 words long.
 Raffenetti 2 integral format.
 Two-electron integral symmetry is turned off.
 Leave Link  301 at Tue Nov 19 12:07:12 2024, MaxMem=  1073741824 cpu:               1.2 elap:               0.1
 (Enter /home/szhao/Apps/g16/l302.exe)
 NPDir=0 NMtPBC=     1 NCelOv=     1 NCel=       1 NClECP=     1 NCelD=      1
         NCelK=      1 NCelE2=     1 NClLst=     1 CellRange=     0.0.
 One-electron integrals computed using PRISM.
 NBasis=    80 RedAO= T EigKep=  9.91D-04  NBF=    80
 NBsUse=    80 1.00D-06 EigRej= -1.00D+00 NBFU=    80
 Precomputing XC quadrature grid using
 IXCGrd= 4 IRadAn=           7 IRanWt=          -1 IRanGd=           0 AccXCQ= 0.00D+00.
 Generated NRdTot=       0 NPtTot=           0 NUsed=           0 NTot=          32
 NSgBfM=    82    82    82    82    82 MxSgAt=     8 MxSgA2=     8.
 Leave Link  302 at Tue Nov 19 12:07:12 2024, MaxMem=  1073741824 cpu:               4.1 elap:               0.2
 (Enter /home/szhao/Apps/g16/l303.exe)
 DipDrv:  MaxL=1.
 Leave Link  303 at Tue Nov 19 12:07:12 2024, MaxMem=  1073741824 cpu:               1.1 elap:               0.1
 (Enter /home/szhao/Apps/g16/l401.exe)
 ExpMin= 4.38D-02 ExpMax= 4.56D+03 ExpMxC= 6.82D+02 IAcc=3 IRadAn=         7 AccDes= 0.00D+00
 Harris functional with IExCor= 1009 and IRadAn=       7 diagonalized for initial guess.
 HarFok:  IExCor= 1009 AccDes= 0.00D+00 IRadAn=         7 IDoV= 1 UseB2=F ITyADJ=14
 ICtDFT=  3500011 ScaDFX=  1.000000  1.000000  1.000000  1.000000
 FoFCou: FMM=F IPFlag=           0 FMFlag=      100000 FMFlg1=           0
         NFxFlg=           0 DoJE=T BraDBF=F KetDBF=T FulRan=T
         wScrn=  0.000000 ICntrl=       500 IOpCl=  0 I1Cent=   200000004 NGrid=           0
         NMat0=    1 NMatS0=      1 NMatT0=    0 NMatD0=    1 NMtDS0=    0 NMtDT0=    0
 Symmetry not used in FoFCou.
 Harris En= -79.6912341604594    
 JPrj=0 DoOrth=F DoCkMO=F.
 Initial guess <Sx>= 0.0000 <Sy>= 0.0000 <Sz>= 0.0000 <S**2>=-0.0000 S=-0.0000
 Leave Link  401 at Tue Nov 19 12:07:12 2024, MaxMem=  1073741824 cpu:               6.6 elap:               0.3
 (Enter /home/szhao/Apps/g16/l502.exe)
 Keep R1 and R2 ints in memory in canonical form, NReq=32326806.
 FoFCou: FMM=F IPFlag=           0 FMFlag=           0 FMFlg1=           0
         NFxFlg=           0 DoJE=F BraDBF=F KetDBF=F FulRan=T
         wScrn=  0.000000 ICntrl=       600 IOpCl=  0 I1Cent=           0 NGrid=           0
         NMat0=    1 NMatS0=   3240 NMatT0=    0 NMatD0=    1 NMtDS0=    0 NMtDT0=    0
 Symmetry not used in FoFCou.
 Two-electron integral symmetry not used.
 UHF open shell SCF:
 Using DIIS extrapolation, IDIIS=  1040.
 NGot=  1073741824 LenX=  1063224738 LenY=  1063217573
 Requested convergence on RMS density matrix=1.00D-08 within 128 cycles.
 Requested convergence on MAX density matrix=1.00D-06.
 Requested convergence on             energy=1.00D-06.
 No special actions if energy rises.

 Cycle   1  Pass 1  IDiag  1:
 E= -79.6200401384938    
 DIIS: error= 3.40D-02 at cycle   1 NSaved=   1.
 NSaved= 1 IEnMin= 1 EnMin= -79.6200401384938     IErMin= 1 ErrMin= 3.40D-02
 ErrMax= 3.40D-02  0.00D+00 EMaxC= 1.00D-01 BMatC= 2.90D-01 BMatP= 2.90D-01
 IDIUse=3 WtCom= 6.60D-01 WtEn= 3.40D-01
 Coeff-Com:  0.100D+01
 Coeff-En:   0.100D+01
 Coeff:      0.100D+01
 Gap=     0.416 Goal=   None    Shift=    0.000
 Gap=     0.416 Goal=   None    Shift=    0.000
 GapD=    0.416 DampG=2.000 DampE=0.500 DampFc=1.0000 IDamp=-1.
 RMSDP=3.61D-03 MaxDP=7.83D-02              OVMax= 1.18D-01

 Cycle   2  Pass 1  IDiag  1:
 E= -79.6413499024118     Delta-E=       -0.021309763918 Rises=F Damp=F
 DIIS: error= 3.34D-02 at cycle   2 NSaved=   2.
 NSaved= 2 IEnMin= 2 EnMin= -79.6413499024118     IErMin= 2 ErrMin= 3.34D-02
 ErrMax= 3.34D-02  0.00D+00 EMaxC= 1.00D-01 BMatC= 1.85D-01 BMatP= 2.90D-01
 IDIUse=3 WtCom= 6.66D-01 WtEn= 3.34D-01
 Coeff-Com:  0.440D+00 0.560D+00
 Coeff-En:   0.399D+00 0.601D+00
 Coeff:      0.427D+00 0.573D+00
 Gap=     0.403 Goal=   None    Shift=    0.000
 Gap=     0.403 Goal=   None    Shift=    0.000
 RMSDP=1.77D-03 MaxDP=4.20D-02 DE=-2.13D-02 OVMax= 5.98D-02

 Cycle   3  Pass 1  IDiag  1:
 E= -79.6906657958746     Delta-E=       -0.049315893463 Rises=F Damp=F
 DIIS: error= 4.36D-03 at cycle   3 NSaved=   3.
 NSaved= 3 IEnMin= 3 EnMin= -79.6906657958746     IErMin= 3 ErrMin= 4.36D-03
 ErrMax= 4.36D-03  0.00D+00 EMaxC= 1.00D-01 BMatC= 3.03D-03 BMatP= 1.85D-01
 IDIUse=3 WtCom= 9.56D-01 WtEn= 4.36D-02
 Coeff-Com:  0.533D-01 0.147D+00 0.799D+00
 Coeff-En:   0.000D+00 0.000D+00 0.100D+01
 Coeff:      0.510D-01 0.141D+00 0.808D+00
 Gap=     0.382 Goal=   None    Shift=    0.000
 Gap=     0.382 Goal=   None    Shift=    0.000
 RMSDP=2.20D-04 MaxDP=3.33D-03 DE=-4.93D-02 OVMax= 7.82D-03

 Cycle   4  Pass 1  IDiag  1:
 E= -79.6914511126887     Delta-E=       -0.000785316814 Rises=F Damp=F
 DIIS: error= 7.24D-04 at cycle   4 NSaved=   4.
 NSaved= 4 IEnMin= 4 EnMin= -79.6914511126887     IErMin= 4 ErrMin= 7.24D-04
 ErrMax= 7.24D-04  0.00D+00 EMaxC= 1.00D-01 BMatC= 4.52D-05 BMatP= 3.03D-03
 IDIUse=3 WtCom= 9.93D-01 WtEn= 7.24D-03
 Coeff-Com: -0.173D-02 0.894D-02 0.154D+00 0.839D+00
 Coeff-En:   0.000D+00 0.000D+00 0.000D+00 0.100D+01
 Coeff:     -0.172D-02 0.887D-02 0.152D+00 0.840D+00
 Gap=     0.382 Goal=   None    Shift=    0.000
 Gap=     0.382 Goal=   None    Shift=    0.000
 RMSDP=2.80D-05 MaxDP=3.12D-04 DE=-7.85D-04 OVMax= 1.15D-03

 Cycle   5  Pass 1  IDiag  1:
 E= -79.6914627017063     Delta-E=       -0.000011589018 Rises=F Damp=F
 DIIS: error= 2.65D-05 at cycle   5 NSaved=   5.
 NSaved= 5 IEnMin= 5 EnMin= -79.6914627017063     IErMin= 5 ErrMin= 2.65D-05
 ErrMax= 2.65D-05  0.00D+00 EMaxC= 1.00D-01 BMatC= 1.16D-07 BMatP= 4.52D-05
 IDIUse=1 WtCom= 1.00D+00 WtEn= 0.00D+00
 Coeff-Com: -0.226D-03-0.140D-02-0.128D-01-0.108D-01 0.103D+01
 Coeff:     -0.226D-03-0.140D-02-0.128D-01-0.108D-01 0.103D+01
 Gap=     0.382 Goal=   None    Shift=    0.000
 Gap=     0.382 Goal=   None    Shift=    0.000
 RMSDP=2.55D-06 MaxDP=2.94D-05 DE=-1.16D-05 OVMax= 8.65D-05

 Cycle   6  Pass 1  IDiag  1:
 E= -79.6914627418064     Delta-E=       -0.000000040100 Rises=F Damp=F
 DIIS: error= 4.77D-06 at cycle   6 NSaved=   6.
 NSaved= 6 IEnMin= 6 EnMin= -79.6914627418064     IErMin= 6 ErrMin= 4.77D-06
 ErrMax= 4.77D-06  0.00D+00 EMaxC= 1.00D-01 BMatC= 1.96D-09 BMatP= 1.16D-07
 IDIUse=1 WtCom= 1.00D+00 WtEn= 0.00D+00
 Coeff-Com:  0.405D-04 0.613D-04 0.109D-02-0.114D-02-0.174D+00 0.117D+01
 Coeff:      0.405D-04 0.613D-04 0.109D-02-0.114D-02-0.174D+00 0.117D+01
 Gap=     0.382 Goal=   None    Shift=    0.000
 Gap=     0.382 Goal=   None    Shift=    0.000
 RMSDP=5.13D-07 MaxDP=7.94D-06 DE=-4.01D-08 OVMax= 2.54D-05

 Cycle   7  Pass 1  IDiag  1:
 E= -79.6914627428274     Delta-E=       -0.000000001021 Rises=F Damp=F
 DIIS: error= 2.05D-07 at cycle   7 NSaved=   7.
 NSaved= 7 IEnMin= 7 EnMin= -79.6914627428274     IErMin= 7 ErrMin= 2.05D-07
 ErrMax= 2.05D-07  0.00D+00 EMaxC= 1.00D-01 BMatC= 7.98D-12 BMatP= 1.96D-09
 IDIUse=1 WtCom= 1.00D+00 WtEn= 0.00D+00
 Coeff-Com: -0.236D-05 0.470D-05-0.213D-04 0.185D-03 0.588D-02-0.100D+00
 Coeff-Com:  0.109D+01
 Coeff:     -0.236D-05 0.470D-05-0.213D-04 0.185D-03 0.588D-02-0.100D+00
 Coeff:      0.109D+01
 Gap=     0.382 Goal=   None    Shift=    0.000
 Gap=     0.382 Goal=   None    Shift=    0.000
 RMSDP=5.13D-08 MaxDP=5.34D-07 DE=-1.02D-09 OVMax= 2.15D-06

 Cycle   8  Pass 1  IDiag  1:
 E= -79.6914627428343     Delta-E=       -0.000000000007 Rises=F Damp=F
 DIIS: error= 2.68D-08 at cycle   8 NSaved=   8.
 NSaved= 8 IEnMin= 8 EnMin= -79.6914627428343     IErMin= 8 ErrMin= 2.68D-08
 ErrMax= 2.68D-08  0.00D+00 EMaxC= 1.00D-01 BMatC= 8.45D-14 BMatP= 7.98D-12
 IDIUse=1 WtCom= 1.00D+00 WtEn= 0.00D+00
 Coeff-Com:  0.106D-06-0.116D-05-0.697D-05-0.328D-04 0.568D-03 0.137D-02
 Coeff-Com: -0.111D+00 0.111D+01
 Coeff:      0.106D-06-0.116D-05-0.697D-05-0.328D-04 0.568D-03 0.137D-02
 Coeff:     -0.111D+00 0.111D+01
 Gap=     0.382 Goal=   None    Shift=    0.000
 Gap=     0.382 Goal=   None    Shift=    0.000
 RMSDP=5.07D-09 MaxDP=6.37D-08 DE=-6.93D-12 OVMax= 2.45D-07

 SCF Done:  E(UM062X) =  -79.6914627428     A.U. after    8 cycles
            NFock=  8  Conv=0.51D-08     -V/T= 2.0149
 <Sx>= 0.0000 <Sy>= 0.0000 <Sz>= 0.0000 <S**2>=-0.0000 S=-0.0000
 <L.S>=  0.00000000000    
 KE= 7.852453376357D+01 PE=-2.550099552555D+02 EE= 6.094924542002D+01
 Annihilation of the first spin contaminant:
 S**2 before annihilation    -0.0000,   after     0.0000
 Leave Link  502 at Tue Nov 19 12:07:16 2024, MaxMem=  1073741824 cpu:              86.7 elap:               3.8
 (Enter /home/szhao/Apps/g16/l601.exe)
 Copying SCF densities to generalized density rwf, IOpCl= 1 IROHF=0.

 **********************************************************************

            Population analysis using the SCF density.

 **********************************************************************

 Alpha  occ. eigenvalues --  -10.57653 -10.57645  -0.77577  -0.72908  -0.44918
 Alpha  occ. eigenvalues --   -0.44916  -0.41756  -0.41753  -0.37730
 Alpha virt. eigenvalues --    0.00489   0.02071   0.06520   0.06520   0.08185
 Alpha virt. eigenvalues --    0.08501   0.08501   0.09908   0.13941   0.17217
 Alpha virt. eigenvalues --    0.17218   0.18895   0.18901   0.23587   0.26024
 Alpha virt. eigenvalues --    0.40535   0.40536   0.52392   0.52461   0.52465
 Alpha virt. eigenvalues --    0.56005   0.61268   0.61273   0.64182   0.64184
 Alpha virt. eigenvalues --    0.69026   0.74991   0.83721   0.93938   1.02630
 Alpha virt. eigenvalues --    1.02631   1.14609   1.14615   1.23663   1.52358
 Alpha virt. eigenvalues --    1.52364   1.57990   1.57990   1.60827   1.60829
 Alpha virt. eigenvalues --    1.62201   1.62207   1.72620   1.75118   1.75123
 Alpha virt. eigenvalues --    2.02122   2.07020   2.07024   2.12793   2.12802
 Alpha virt. eigenvalues --    2.24007   2.28289   2.32014   2.44967   2.44968
 Alpha virt. eigenvalues --    2.47392   2.47404   2.53778   2.53788   2.64641
 Alpha virt. eigenvalues --    2.64644   2.70308   2.80172   2.92526   3.42529
 Alpha virt. eigenvalues --    3.62522   3.62534   3.63955   3.63969  23.84321
 Alpha virt. eigenvalues --   23.85319
  Beta  occ. eigenvalues --  -10.57653 -10.57645  -0.77577  -0.72908  -0.44918
  Beta  occ. eigenvalues --   -0.44916  -0.41756  -0.41753  -0.37730
  Beta virt. eigenvalues --    0.00489   0.02071   0.06520   0.06520   0.08185
  Beta virt. eigenvalues --    0.08501   0.08501   0.09908   0.13941   0.17217
  Beta virt. eigenvalues --    0.17218   0.18895   0.18901   0.23587   0.26024
  Beta virt. eigenvalues --    0.40535   0.40536   0.52392   0.52461   0.52465
  Beta virt. eigenvalues --    0.56005   0.61268   0.61273   0.64182   0.64184
  Beta virt. eigenvalues --    0.69026   0.74991   0.83721   0.93938   1.02630
  Beta virt. eigenvalues --    1.02631   1.14609   1.14615   1.23663   1.52358
  Beta virt. eigenvalues --    1.52364   1.57990   1.57990   1.60827   1.60829
  Beta virt. eigenvalues --    1.62201   1.62207   1.72620   1.75118   1.75123
  Beta virt. eigenvalues --    2.02122   2.07020   2.07024   2.12793   2.12802
  Beta virt. eigenvalues --    2.24007   2.28289   2.32014   2.44967   2.44968
  Beta virt. eigenvalues --    2.47392   2.47404   2.53778   2.53788   2.64641
  Beta virt. eigenvalues --    2.64644   2.70308   2.80172   2.92526   3.42529
  Beta virt. eigenvalues --    3.62522   3.62534   3.63955   3.63969  23.84321
  Beta virt. eigenvalues --   23.85319
          Condensed to atoms (all electrons):
               1          2          3          4          5          6
     1  C    5.133837   0.251928  -0.016041   0.384626  -0.016064  -0.016064
     2  C    0.251928   5.133836   0.384615  -0.016065   0.384627   0.384626
     3  H   -0.016041   0.384615   0.539479  -0.000430  -0.036008  -0.036009
     4  H    0.384626  -0.016065  -0.000430   0.539516   0.000993  -0.000430
     5  H   -0.016064   0.384627  -0.036008   0.000993   0.539509  -0.036015
     6  H   -0.016064   0.384626  -0.036009  -0.000430  -0.036015   0.539514
     7  H    0.384615  -0.016041   0.000992  -0.036009  -0.000430  -0.000430
     8  H    0.384626  -0.016063  -0.000430  -0.036014  -0.000430   0.000993
               7          8
     1  C    0.384615   0.384626
     2  C   -0.016041  -0.016063
     3  H    0.000992  -0.000430
     4  H   -0.036009  -0.036014
     5  H   -0.000430  -0.000430
     6  H   -0.000430   0.000993
     7  H    0.539481  -0.036007
     8  H   -0.036007   0.539506
          Atomic-Atomic Spin Densities.
               1          2          3          4          5          6
     1  C    0.000000  -0.000000  -0.000000   0.000000   0.000000  -0.000000
     2  C   -0.000000   0.000000   0.000000  -0.000000  -0.000000   0.000000
     3  H   -0.000000   0.000000  -0.000000   0.000000  -0.000000  -0.000000
     4  H    0.000000  -0.000000   0.000000  -0.000000   0.000000   0.000000
     5  H    0.000000  -0.000000  -0.000000   0.000000   0.000000   0.000000
     6  H   -0.000000   0.000000  -0.000000   0.000000   0.000000  -0.000000
     7  H   -0.000000   0.000000   0.000000   0.000000   0.000000   0.000000
     8  H   -0.000000   0.000000   0.000000  -0.000000   0.000000   0.000000
               7          8
     1  C   -0.000000  -0.000000
     2  C    0.000000   0.000000
     3  H    0.000000   0.000000
     4  H    0.000000  -0.000000
     5  H    0.000000   0.000000
     6  H    0.000000   0.000000
     7  H    0.000000   0.000000
     8  H    0.000000  -0.000000
 Mulliken charges and spin densities:
               1          2
     1  C   -0.491463   0.000000
     2  C   -0.491463  -0.000000
     3  H    0.163831  -0.000000
     4  H    0.163813  -0.000000
     5  H    0.163817  -0.000000
     6  H    0.163815  -0.000000
     7  H    0.163830   0.000000
     8  H    0.163820  -0.000000
 Sum of Mulliken charges =  -0.00000   0.00000
 Mulliken charges and spin densities with hydrogens summed into heavy atoms:
               1          2
     1  C   -0.000000   0.000000
     2  C    0.000000  -0.000000
 Electronic spatial extent (au):  <R**2>=            153.4140
 Charge=             -0.0000 electrons
 Dipole moment (field-independent basis, Debye):
    X=              0.0000    Y=              0.0000    Z=              0.0000  Tot=              0.0000
 Quadrupole moment (field-independent basis, Debye-Ang):
   XX=            -12.5908   YY=            -16.0673   ZZ=            -16.0675
   XY=             -0.0001   XZ=              0.0000   YZ=             -0.0002
 Traceless Quadrupole moment (field-independent basis, Debye-Ang):
   XX=              2.3177   YY=             -1.1587   ZZ=             -1.1589
   XY=             -0.0001   XZ=              0.0000   YZ=             -0.0002
 Octapole moment (field-independent basis, Debye-Ang**2):
  XXX=             -0.0020  YYY=              0.0001  ZZZ=              0.0003  XYY=             -0.0007
  XXY=              0.0000  XXZ=              0.0001  XZZ=             -0.0009  YZZ=              0.0000
  YYZ=              0.0001  XYZ=              0.0000
 Hexadecapole moment (field-independent basis, Debye-Ang**3):
 XXXX=           -148.2475 YYYY=            -33.3096 ZZZZ=            -33.3101 XXXY=             -0.0050
 XXXZ=              0.0025 YYYX=              0.0048 YYYZ=              0.0003 ZZZX=             -2.2302
 ZZZY=             -0.0008 XXYY=            -28.8472 XXZZ=            -28.8486 YYZZ=            -11.1037
 XXYZ=             -0.0015 YYXZ=              2.2313 ZZXY=             -0.0072
 N-N= 3.584471332909D+01 E-N=-2.550099559354D+02  KE= 7.852453376357D+01
                          Isotropic Fermi Contact Couplings
        Atom                 a.u.       MegaHertz       Gauss      10(-4) cm-1
     1  C(13)             -0.00000      -0.00000      -0.00000      -0.00000
     2  C(13)             -0.00000      -0.00000      -0.00000      -0.00000
     3  H(1)               0.00000       0.00000       0.00000       0.00000
     4  H(1)              -0.00000      -0.00000      -0.00000      -0.00000
     5  H(1)              -0.00000      -0.00000      -0.00000      -0.00000
     6  H(1)              -0.00000      -0.00000      -0.00000      -0.00000
     7  H(1)               0.00000       0.00000       0.00000       0.00000
     8  H(1)               0.00000       0.00000       0.00000       0.00000
 --------------------------------------------------------
       Center         ----  Spin Dipole Couplings  ----
                      3XX-RR        3YY-RR        3ZZ-RR
 --------------------------------------------------------
     1   Atom        0.000000      0.000000      0.000000
     2   Atom        0.000000      0.000000      0.000000
     3   Atom        0.000000      0.000000      0.000000
     4   Atom        0.000000      0.000000      0.000000
     5   Atom        0.000000      0.000000      0.000000
     6   Atom        0.000000      0.000000      0.000000
     7   Atom        0.000000      0.000000      0.000000
     8   Atom        0.000000      0.000000      0.000000
 --------------------------------------------------------
                        XY            XZ            YZ
 --------------------------------------------------------
     1   Atom        0.000000      0.000000      0.000000
     2   Atom        0.000000      0.000000      0.000000
     3   Atom        0.000000      0.000000      0.000000
     4   Atom        0.000000      0.000000      0.000000
     5   Atom        0.000000      0.000000      0.000000
     6   Atom        0.000000      0.000000      0.000000
     7   Atom        0.000000      0.000000      0.000000
     8   Atom        0.000000      0.000000      0.000000
 --------------------------------------------------------


 ---------------------------------------------------------------------------------
              Anisotropic Spin Dipole Couplings in Principal Axis System
 ---------------------------------------------------------------------------------

       Atom             a.u.   MegaHertz   Gauss  10(-4) cm-1        Axes

              Baa     0.0000     0.000     0.000     0.000  1.0000  0.0000  0.0000
     1 C(13)  Bbb     0.0000     0.000     0.000     0.000 -0.0000  1.0000  0.0000
              Bcc     0.0000     0.000     0.000     0.000  0.0000  0.0000  1.0000
 
              Baa     0.0000     0.000     0.000     0.000  1.0000  0.0000  0.0000
     2 C(13)  Bbb     0.0000     0.000     0.000     0.000 -0.0000  1.0000  0.0000
              Bcc     0.0000     0.000     0.000     0.000  0.0000  0.0000  1.0000
 
              Baa     0.0000     0.000     0.000     0.000  1.0000  0.0000  0.0000
     3 H(1)   Bbb     0.0000     0.000     0.000     0.000 -0.0000  1.0000  0.0000
              Bcc     0.0000     0.000     0.000     0.000  0.0000  0.0000  1.0000
 
              Baa     0.0000     0.000     0.000     0.000  1.0000  0.0000  0.0000
     4 H(1)   Bbb     0.0000     0.000     0.000     0.000 -0.0000  1.0000  0.0000
              Bcc     0.0000     0.000     0.000     0.000  0.0000  0.0000  1.0000
 
              Baa     0.0000     0.000     0.000     0.000  1.0000  0.0000  0.0000
     5 H(1)   Bbb     0.0000     0.000     0.000     0.000 -0.0000  1.0000  0.0000
              Bcc     0.0000     0.000     0.000     0.000  0.0000  0.0000  1.0000
 
              Baa     0.0000     0.000     0.000     0.000  1.0000  0.0000  0.0000
     6 H(1)   Bbb     0.0000     0.000     0.000     0.000 -0.0000  1.0000  0.0000
              Bcc     0.0000     0.000     0.000     0.000  0.0000  0.0000  1.0000
 
              Baa     0.0000     0.000     0.000     0.000  1.0000  0.0000  0.0000
     7 H(1)   Bbb     0.0000     0.000     0.000     0.000 -0.0000  1.0000  0.0000
              Bcc     0.0000     0.000     0.000     0.000  0.0000  0.0000  1.0000
 
              Baa     0.0000     0.000     0.000     0.000  1.0000  0.0000  0.0000
     8 H(1)   Bbb     0.0000     0.000     0.000     0.000 -0.0000  1.0000  0.0000
              Bcc     0.0000     0.000     0.000     0.000  0.0000  0.0000  1.0000
 

 ---------------------------------------------------------------------------------

 No NMR shielding tensors so no spin-rotation constants.
 Leave Link  601 at Tue Nov 19 12:07:17 2024, MaxMem=  1073741824 cpu:               3.3 elap:               0.2
 (Enter /home/szhao/Apps/g16/l701.exe)
 ... and contract with generalized density number  0.
 Compute integral first derivatives.
 Leave Link  701 at Tue Nov 19 12:07:17 2024, MaxMem=  1073741824 cpu:               2.7 elap:               0.1
 (Enter /home/szhao/Apps/g16/l702.exe)
 L702 exits ... SP integral derivatives will be done elsewhere.
 Leave Link  702 at Tue Nov 19 12:07:17 2024, MaxMem=  1073741824 cpu:               1.0 elap:               0.1
 (Enter /home/szhao/Apps/g16/l703.exe)
 Integral derivatives from FoFJK, PRISM(SPDF).
 Compute integral first derivatives, UseDBF=F ICtDFT=           0.
 Calling FoFJK, ICntrl=      2127 FMM=F ISym2X=0 I1Cent= 0 IOpClX= 1 NMat=1 NMatS=1 NMatT=0.
 FoFJK:  IHMeth= 1 ICntrl=    2127 DoSepK=F KAlg= 0 I1Cent=           0 FoldK=F
 IRaf=         0 NMat=       1 IRICut=       1 DoRegI=T DoRafI=F ISym2E= 0 IDoP0=0 IntGTp=1.
 FoFCou: FMM=F IPFlag=           0 FMFlag=      100000 FMFlg1=         800
         NFxFlg=           0 DoJE=F BraDBF=F KetDBF=F FulRan=T
         wScrn=  0.000000 ICntrl=      2127 IOpCl=  1 I1Cent=           0 NGrid=           0
         NMat0=    1 NMatS0=      1 NMatT0=    0 NMatD0=    1 NMtDS0=    0 NMtDT0=    0
 Symmetry not used in FoFCou.
 Leave Link  703 at Tue Nov 19 12:07:18 2024, MaxMem=  1073741824 cpu:              19.2 elap:               0.8
 (Enter /home/szhao/Apps/g16/l716.exe)
 Dipole        = 9.75624286D-07 7.38843202D-07 1.21455368D-06
 -------------------------------------------------------------------
 Center     Atomic                   Forces (Hartrees/Bohr)
 Number     Number              X              Y              Z
 -------------------------------------------------------------------
      1        6          -0.000000000   -0.000000000   -0.000000000
      2        6          -0.000000000   -0.000000000   -0.000000000
      3        1          -0.034947719    0.014966168   -0.008662476
      4        1           0.034947848    0.015032015    0.008653955
      5        1          -0.034942974   -0.015024246   -0.008646884
      6        1          -0.034948195    0.000008281    0.017342341
      7        1           0.034948860   -0.014966374    0.008666501
      8        1           0.034942935   -0.000007094   -0.017330817
 -------------------------------------------------------------------
 Cartesian Forces:  Max     0.034948860 RMS     0.019502247
 Leave Link  716 at Tue Nov 19 12:07:18 2024, MaxMem=  1073741824 cpu:               1.0 elap:               0.1
 (Enter /home/szhao/Apps/g16/l103.exe)

 GradGradGradGradGradGradGradGradGradGradGradGradGradGradGradGradGradGrad
 Berny optimization.
 FormGI is forming the generalized inverse of G from B-inverse, IUseBI=4.
 Internal  Forces:  Max     0.104839643 RMS     0.031974135
 Search for a local minimum.
 Step number   1 out of a maximum of   43
 All quantities printed in internal units (Hartrees-Bohrs-Radians)
 RMS Force = .20865D-01 SwitMx=.10000D-02 MixMth= 1
 Mixed Optimization -- RFO/linear search
 Second derivative matrix not updated -- first step.
 ITU=  0
     Eigenvalues ---    0.00230   0.04248   0.04248   0.04251   0.04251
     Eigenvalues ---    0.16000   0.16000   0.16000   0.16000   0.16000
     Eigenvalues ---    0.16000   0.28786   0.28787   0.28789   0.28789
     Eigenvalues ---    0.28794   0.287951000.000001000.000001000.00000
     Eigenvalues --- 1000.000001000.000001000.000001000.000001000.00000
     Eigenvalues --- 1000.000001000.000001000.000001000.000001000.00000
     Eigenvalues --- 1000.000001000.000001000.00000
 RFO step:  Lambda=-4.59534735D-02 EMin= 2.30000000D-03
 Linear search not attempted -- first point.
 Maximum step size (   0.300) exceeded in Quadratic search.
    -- Step size scaled by   0.689
 Iteration  1 RMS(Cart)=  0.06602462 RMS(Int)=  0.00219938
 Iteration  2 RMS(Cart)=  0.00201419 RMS(Int)=  0.00090351
 Iteration  3 RMS(Cart)=  0.00000093 RMS(Int)=  0.00090351
 ITry= 1 IFail=0 DXMaxC= 1.56D-01 DCOld= 1.00D+10 DXMaxT= 3.00D-01 DXLimC= 3.00D+00 Rises=F
 Variable       Old X    -DE/DX   Delta X   Delta X   Delta X     New X
                                 (Linear)    (Quad)   (Total)
    X1       -1.94791   0.10484   0.00000   0.00000   0.00000  -1.94791
    Y1        0.00000   0.00007   0.00000   0.00000   0.00000   0.00000
    Z1        0.00000  -0.00001   0.00000   0.00000   0.00000   0.00000
    X2        1.94811  -0.10484   0.00000   0.00000   0.00000   1.94811
    Y2        0.00000  -0.00006   0.00000   0.00000   0.00000   0.00000
    Z2        0.00000   0.00004   0.00000   0.00000   0.00000   0.00000
    R1        2.17151  -0.03158   0.00000  -0.06515  -0.06515   2.10636
    R2        2.17135  -0.03155   0.00000  -0.06506  -0.06506   2.10628
    R3        2.17145  -0.03157   0.00000  -0.06512  -0.06512   2.10633
    R4        2.17133  -0.03155   0.00000  -0.06505  -0.06505   2.10628
    R5        2.17146  -0.03157   0.00000  -0.06513  -0.06513   2.10634
    R6        2.17150  -0.03158   0.00000  -0.06515  -0.06515   2.10636
    A1        2.05348  -0.01934   0.00000  -0.06466  -0.06626   1.98723
    A2        2.05379  -0.01936   0.00000  -0.06475  -0.06635   1.98744
    A3        2.05351  -0.01935   0.00000  -0.06468  -0.06628   1.98723
    A4        1.74843   0.02426   0.00000   0.08110   0.07971   1.82814
    A5        1.74837   0.02424   0.00000   0.08108   0.07969   1.82806
    A6        1.74847   0.02426   0.00000   0.08108   0.07969   1.82815
    A7        2.05379  -0.01936   0.00000  -0.06475  -0.06635   1.98745
    A8        2.05349  -0.01934   0.00000  -0.06466  -0.06626   1.98723
    A9        2.05350  -0.01935   0.00000  -0.06468  -0.06628   1.98722
   A10        1.74846   0.02426   0.00000   0.08110   0.07970   1.82816
   A11        1.74844   0.02426   0.00000   0.08109   0.07969   1.82813
   A12        1.74837   0.02424   0.00000   0.08108   0.07969   1.82806
    D1       -1.04708  -0.00000   0.00000  -0.00001  -0.00001  -1.04709
    D2        3.14157   0.00000   0.00000   0.00001   0.00001   3.14158
    D3        1.04743  -0.00001   0.00000  -0.00006  -0.00006   1.04737
    D4       -3.14156  -0.00000   0.00000  -0.00001  -0.00001  -3.14157
    D5        1.04709   0.00000   0.00000   0.00001   0.00001   1.04710
    D6       -1.04705  -0.00001   0.00000  -0.00006  -0.00006  -1.04710
    D7        1.04707   0.00001   0.00000   0.00005   0.00005   1.04712
    D8       -1.04747   0.00001   0.00000   0.00007   0.00007  -1.04740
    D9        3.14158   0.00000   0.00000   0.00000   0.00000   3.14158
         Item               Value     Threshold  Converged?
 Maximum Force            0.031585     0.000450     NO 
 RMS     Force            0.020865     0.000300     NO 
 Maximum Displacement     0.156040     0.001800     NO 
 RMS     Displacement     0.066516     0.001200     NO 
 Predicted change in Energy=-2.280633D-02
 Lowest energy point so far.  Saving SCF results.
 GradGradGradGradGradGradGradGradGradGradGradGradGradGradGradGradGradGrad

 Leave Link  103 at Tue Nov 19 12:07:18 2024, MaxMem=  1073741824 cpu:               1.4 elap:               0.1
 (Enter /home/szhao/Apps/g16/l202.exe)
                          Input orientation:                          
 ---------------------------------------------------------------------
 Center     Atomic      Atomic             Coordinates (Angstroms)
 Number     Number       Type             X           Y           Z
 ---------------------------------------------------------------------
      1          6           0       -1.030788    0.000000    0.000000
      2          6           0        1.030894    0.000000    0.000000
      3          1           0        1.481969   -0.882198    0.510471
      4          1           0       -1.481656   -0.883352   -0.508746
      5          1           0        1.481766    0.883349    0.508724
      6          1           0        1.481753   -0.000911   -1.019382
      7          1           0       -1.481864    0.882188   -0.510493
      8          1           0       -1.481655    0.000901    1.019365
 ---------------------------------------------------------------------
                    Distance matrix (angstroms):
                    1          2          3          4          5
     1  C    0.000000
     2  C    2.061682   0.000000
     3  H    2.711606   1.114595   0.000000
     4  H    1.114637   2.711465   3.133988   0.000000
     5  H    2.711464   1.114626   1.765548   3.596992   0.000000
     6  H    2.711458   1.114636   1.765536   3.133887   1.765509
     7  H    1.114598   2.711607   3.597184   1.765541   3.133993
     8  H    1.114624   2.711459   3.133993   1.765510   3.133901
                    6          7          8
     6  H    0.000000
     7  H    3.133984   0.000000
     8  H    3.596982   1.765541   0.000000
 Symmetry turned off by external request.
 Stoichiometry    C2H6
 Framework group  C1[X(C2H6)]
 Deg. of freedom    18
 Full point group                 C1      NOp   1
 Rotational constants (GHZ):          80.4361941          12.0553118          12.0552676
 Leave Link  202 at Tue Nov 19 12:07:18 2024, MaxMem=  1073741824 cpu:               0.4 elap:               0.0
 (Enter /home/szhao/Apps/g16/l301.exe)
 Standard basis: 6-311+G(d,p) (5D, 7F)
 Ernie: Thresh=  0.10000D-02 Tol=  0.10000D-05 Strict=F.
    80 basis functions,   120 primitive gaussians,    82 cartesian basis functions
     9 alpha electrons        9 beta electrons
       nuclear repulsion energy        36.6101544701 Hartrees.
 IExCor= 4336 DFT=T Ex+Corr=M062X ExCW=0 ScaHFX=  0.540000
 ScaDFX=  1.000000  1.000000  1.000000  1.000000 ScalE2=  1.000000  1.000000
 IRadAn=      7 IRanWt=     -1 IRanGd=            0 ICorTp=0 IEmpDi=  4
 NAtoms=    8 NActive=    8 NUniq=    8 SFac= 1.00D+00 NAtFMM=   60 NAOKFM=F Big=F
 Integral buffers will be    131072 words long.
 Raffenetti 2 integral format.
 Two-electron integral symmetry is turned off.
 Leave Link  301 at Tue Nov 19 12:07:18 2024, MaxMem=  1073741824 cpu:               1.2 elap:               0.1
 (Enter /home/szhao/Apps/g16/l302.exe)
 NPDir=0 NMtPBC=     1 NCelOv=     1 NCel=       1 NClECP=     1 NCelD=      1
         NCelK=      1 NCelE2=     1 NClLst=     1 CellRange=     0.0.
 One-electron integrals computed using PRISM.
 NBasis=    80 RedAO= T EigKep=  8.87D-04  NBF=    80
 NBsUse=    80 1.00D-06 EigRej= -1.00D+00 NBFU=    80
 Precomputing XC quadrature grid using
 IXCGrd= 4 IRadAn=           7 IRanWt=          -1 IRanGd=           0 AccXCQ= 0.00D+00.
 Generated NRdTot=       0 NPtTot=           0 NUsed=           0 NTot=          32
 NSgBfM=    82    82    82    82    82 MxSgAt=     8 MxSgA2=     8.
 Leave Link  302 at Tue Nov 19 12:07:19 2024, MaxMem=  1073741824 cpu:               3.9 elap:               0.2
 (Enter /home/szhao/Apps/g16/l303.exe)
 DipDrv:  MaxL=1.
 Leave Link  303 at Tue Nov 19 12:07:19 2024, MaxMem=  1073741824 cpu:               1.0 elap:               0.1
 (Enter /home/szhao/Apps/g16/l401.exe)
 Initial guess from the checkpoint file:  "opt.chk"
 B after Tr=     0.000000    0.000001    0.000004
         Rot=    1.000000   -0.000001    0.000003    0.000009 Ang=  -0.00 deg.
 Guess basis will be translated and rotated to current coordinates.
 JPrj=2 DoOrth=T DoCkMO=T.
 Initial guess <Sx>= 0.0000 <Sy>= 0.0000 <Sz>= 0.0000 <S**2>=-0.0000 S=-0.0000
 Generating alternative initial guess.
 ExpMin= 4.38D-02 ExpMax= 4.56D+03 ExpMxC= 6.82D+02 IAcc=3 IRadAn=         5 AccDes= 0.00D+00
 Harris functional with IExCor= 1009 and IRadAn=       5 diagonalized for initial guess.
 HarFok:  IExCor= 1009 AccDes= 0.00D+00 IRadAn=         5 IDoV= 1 UseB2=F ITyADJ=14
 ICtDFT=  3500011 ScaDFX=  1.000000  1.000000  1.000000  1.000000
 FoFCou: FMM=F IPFlag=           0 FMFlag=      100000 FMFlg1=           0
         NFxFlg=           0 DoJE=T BraDBF=F KetDBF=T FulRan=T
         wScrn=  0.000000 ICntrl=       500 IOpCl=  0 I1Cent=   200000004 NGrid=           0
         NMat0=    1 NMatS0=      1 NMatT0=    0 NMatD0=    1 NMtDS0=    0 NMtDT0=    0
 Symmetry not used in FoFCou.
 Harris En= -79.7267384877573    
 Leave Link  401 at Tue Nov 19 12:07:19 2024, MaxMem=  1073741824 cpu:               6.1 elap:               0.3
 (Enter /home/szhao/Apps/g16/l502.exe)
 Keep R1 and R2 ints in memory in canonical form, NReq=32326806.
 FoFCou: FMM=F IPFlag=           0 FMFlag=           0 FMFlg1=           0
         NFxFlg=           0 DoJE=F BraDBF=F KetDBF=F FulRan=T
         wScrn=  0.000000 ICntrl=       600 IOpCl=  0 I1Cent=           0 NGrid=           0
         NMat0=    1 NMatS0=   3240 NMatT0=    0 NMatD0=    1 NMtDS0=    0 NMtDT0=    0
 Symmetry not used in FoFCou.
 Two-electron integral symmetry not used.
 UHF open shell SCF:
 Using DIIS extrapolation, IDIIS=  1040.
 NGot=  1073741824 LenX=  1063224738 LenY=  1063217573
 Requested convergence on RMS density matrix=1.00D-08 within 128 cycles.
 Requested convergence on MAX density matrix=1.00D-06.
 Requested convergence on             energy=1.00D-06.
 No special actions if energy rises.

 Cycle   1  Pass 1  IDiag  1:
 E= -79.7152812931467    
 DIIS: error= 4.61D-03 at cycle   1 NSaved=   1.
 NSaved= 1 IEnMin= 1 EnMin= -79.7152812931467     IErMin= 1 ErrMin= 4.61D-03
 ErrMax= 4.61D-03  0.00D+00 EMaxC= 1.00D-01 BMatC= 7.34D-03 BMatP= 7.34D-03
 IDIUse=3 WtCom= 9.54D-01 WtEn= 4.61D-02
 Coeff-Com:  0.100D+01
 Coeff-En:   0.100D+01
 Coeff:      0.100D+01
 Gap=     0.567 Goal=   None    Shift=    0.000
 Gap=     0.567 Goal=   None    Shift=    0.000
 GapD=    0.567 DampG=2.000 DampE=1.000 DampFc=2.0000 IDamp=-1.
 RMSDP=4.47D-04 MaxDP=4.01D-03              OVMax= 1.41D-02

 Cycle   2  Pass 1  IDiag  1:
 E= -79.7169811522017     Delta-E=       -0.001699859055 Rises=F Damp=F
 DIIS: error= 2.59D-03 at cycle   2 NSaved=   2.
 NSaved= 2 IEnMin= 2 EnMin= -79.7169811522017     IErMin= 2 ErrMin= 2.59D-03
 ErrMax= 2.59D-03  0.00D+00 EMaxC= 1.00D-01 BMatC= 1.27D-03 BMatP= 7.34D-03
 IDIUse=3 WtCom= 9.74D-01 WtEn= 2.59D-02
 Coeff-Com:  0.204D+00 0.796D+00
 Coeff-En:   0.000D+00 0.100D+01
 Coeff:      0.198D+00 0.802D+00
 Gap=     0.373 Goal=   None    Shift=    0.000
 Gap=     0.373 Goal=   None    Shift=    0.000
 RMSDP=2.02D-04 MaxDP=5.26D-03 DE=-1.70D-03 OVMax= 7.61D-03

 Cycle   3  Pass 1  IDiag  1:
 E= -79.7172338263204     Delta-E=       -0.000252674119 Rises=F Damp=F
 DIIS: error= 1.55D-03 at cycle   3 NSaved=   3.
 NSaved= 3 IEnMin= 3 EnMin= -79.7172338263204     IErMin= 3 ErrMin= 1.55D-03
 ErrMax= 1.55D-03  0.00D+00 EMaxC= 1.00D-01 BMatC= 3.29D-04 BMatP= 1.27D-03
 IDIUse=3 WtCom= 9.84D-01 WtEn= 1.55D-02
 Coeff-Com: -0.289D-01 0.327D+00 0.702D+00
 Coeff-En:   0.000D+00 0.122D+00 0.878D+00
 Coeff:     -0.284D-01 0.324D+00 0.705D+00
 Gap=     0.375 Goal=   None    Shift=    0.000
 Gap=     0.375 Goal=   None    Shift=    0.000
 RMSDP=6.47D-05 MaxDP=1.46D-03 DE=-2.53D-04 OVMax= 2.33D-03

 Cycle   4  Pass 1  IDiag  1:
 E= -79.7173200642528     Delta-E=       -0.000086237932 Rises=F Damp=F
 DIIS: error= 8.83D-05 at cycle   4 NSaved=   4.
 NSaved= 4 IEnMin= 4 EnMin= -79.7173200642528     IErMin= 4 ErrMin= 8.83D-05
 ErrMax= 8.83D-05  0.00D+00 EMaxC= 1.00D-01 BMatC= 5.24D-07 BMatP= 3.29D-04
 IDIUse=1 WtCom= 1.00D+00 WtEn= 0.00D+00
 Coeff-Com: -0.213D-02-0.147D-01-0.786D-02 0.102D+01
 Coeff:     -0.213D-02-0.147D-01-0.786D-02 0.102D+01
 Gap=     0.375 Goal=   None    Shift=    0.000
 Gap=     0.375 Goal=   None    Shift=    0.000
 RMSDP=8.84D-06 MaxDP=1.07D-04 DE=-8.62D-05 OVMax= 4.18D-04

 Cycle   5  Pass 1  IDiag  1:
 E= -79.7173203464766     Delta-E=       -0.000000282224 Rises=F Damp=F
 DIIS: error= 1.99D-05 at cycle   5 NSaved=   5.
 NSaved= 5 IEnMin= 5 EnMin= -79.7173203464766     IErMin= 5 ErrMin= 1.99D-05
 ErrMax= 1.99D-05  0.00D+00 EMaxC= 1.00D-01 BMatC= 4.80D-08 BMatP= 5.24D-07
 IDIUse=1 WtCom= 1.00D+00 WtEn= 0.00D+00
 Coeff-Com:  0.500D-03-0.150D-01-0.278D-01 0.208D+00 0.835D+00
 Coeff:      0.500D-03-0.150D-01-0.278D-01 0.208D+00 0.835D+00
 Gap=     0.375 Goal=   None    Shift=    0.000
 Gap=     0.375 Goal=   None    Shift=    0.000
 RMSDP=1.29D-06 MaxDP=1.59D-05 DE=-2.82D-07 OVMax= 5.50D-05

 Cycle   6  Pass 1  IDiag  1:
 E= -79.7173203617138     Delta-E=       -0.000000015237 Rises=F Damp=F
 DIIS: error= 2.68D-06 at cycle   6 NSaved=   6.
 NSaved= 6 IEnMin= 6 EnMin= -79.7173203617138     IErMin= 6 ErrMin= 2.68D-06
 ErrMax= 2.68D-06  0.00D+00 EMaxC= 1.00D-01 BMatC= 3.08D-10 BMatP= 4.80D-08
 IDIUse=1 WtCom= 1.00D+00 WtEn= 0.00D+00
 Coeff-Com:  0.115D-04 0.115D-02 0.202D-02-0.338D-01-0.932D-01 0.112D+01
 Coeff:      0.115D-04 0.115D-02 0.202D-02-0.338D-01-0.932D-01 0.112D+01
 Gap=     0.375 Goal=   None    Shift=    0.000
 Gap=     0.375 Goal=   None    Shift=    0.000
 RMSDP=4.02D-07 MaxDP=5.15D-06 DE=-1.52D-08 OVMax= 2.02D-05

 Cycle   7  Pass 1  IDiag  1:
 E= -79.7173203620789     Delta-E=       -0.000000000365 Rises=F Damp=F
 DIIS: error= 1.78D-07 at cycle   7 NSaved=   7.
 NSaved= 7 IEnMin= 7 EnMin= -79.7173203620789     IErMin= 7 ErrMin= 1.78D-07
 ErrMax= 1.78D-07  0.00D+00 EMaxC= 1.00D-01 BMatC= 4.59D-12 BMatP= 3.08D-10
 IDIUse=1 WtCom= 1.00D+00 WtEn= 0.00D+00
 Coeff-Com: -0.954D-05 0.346D-04 0.375D-04 0.219D-02 0.224D-03-0.132D+00
 Coeff-Com:  0.113D+01
 Coeff:     -0.954D-05 0.346D-04 0.375D-04 0.219D-02 0.224D-03-0.132D+00
 Coeff:      0.113D+01
 Gap=     0.375 Goal=   None    Shift=    0.000
 Gap=     0.375 Goal=   None    Shift=    0.000
 RMSDP=4.18D-08 MaxDP=5.66D-07 DE=-3.65D-10 OVMax= 2.33D-06

 Cycle   8  Pass 1  IDiag  1:
 E= -79.7173203620834     Delta-E=       -0.000000000005 Rises=F Damp=F
 DIIS: error= 4.39D-08 at cycle   8 NSaved=   8.
 NSaved= 8 IEnMin= 8 EnMin= -79.7173203620834     IErMin= 8 ErrMin= 4.39D-08
 ErrMax= 4.39D-08  0.00D+00 EMaxC= 1.00D-01 BMatC= 2.35D-13 BMatP= 4.59D-12
 IDIUse=1 WtCom= 1.00D+00 WtEn= 0.00D+00
 Coeff-Com: -0.197D-05-0.528D-05-0.101D-04 0.750D-03 0.524D-03-0.328D-01
 Coeff-Com:  0.187D+00 0.844D+00
 Coeff:     -0.197D-05-0.528D-05-0.101D-04 0.750D-03 0.524D-03-0.328D-01
 Coeff:      0.187D+00 0.844D+00
 Gap=     0.375 Goal=   None    Shift=    0.000
 Gap=     0.375 Goal=   None    Shift=    0.000
 RMSDP=4.29D-09 MaxDP=8.01D-08 DE=-4.52D-12 OVMax= 2.63D-07

 SCF Done:  E(UM062X) =  -79.7173203621     A.U. after    8 cycles
            NFock=  8  Conv=0.43D-08     -V/T= 2.0119
 <Sx>= 0.0000 <Sy>= 0.0000 <Sz>= 0.0000 <S**2>=-0.0000 S=-0.0000
 <L.S>=  0.00000000000    
 KE= 7.877815091833D+01 PE=-2.567849722484D+02 EE= 6.167934649789D+01
 Annihilation of the first spin contaminant:
 S**2 before annihilation    -0.0000,   after     0.0000
 Leave Link  502 at Tue Nov 19 12:07:24 2024, MaxMem=  1073741824 cpu:              99.3 elap:               4.4
 (Enter /home/szhao/Apps/g16/l701.exe)
 ... and contract with generalized density number  0.
 Compute integral first derivatives.
 Leave Link  701 at Tue Nov 19 12:07:24 2024, MaxMem=  1073741824 cpu:               2.6 elap:               0.1
 (Enter /home/szhao/Apps/g16/l702.exe)
 L702 exits ... SP integral derivatives will be done elsewhere.
 Leave Link  702 at Tue Nov 19 12:07:24 2024, MaxMem=  1073741824 cpu:               1.0 elap:               0.1
 (Enter /home/szhao/Apps/g16/l703.exe)
 Integral derivatives from FoFJK, PRISM(SPDF).
 Compute integral first derivatives, UseDBF=F ICtDFT=           0.
 Calling FoFJK, ICntrl=      2127 FMM=F ISym2X=0 I1Cent= 0 IOpClX= 1 NMat=1 NMatS=1 NMatT=0.
 FoFJK:  IHMeth= 1 ICntrl=    2127 DoSepK=F KAlg= 0 I1Cent=           0 FoldK=F
 IRaf=         0 NMat=       1 IRICut=       1 DoRegI=T DoRafI=F ISym2E= 0 IDoP0=0 IntGTp=1.
 FoFCou: FMM=F IPFlag=           0 FMFlag=      100000 FMFlg1=         800
         NFxFlg=           0 DoJE=F BraDBF=F KetDBF=F FulRan=T
         wScrn=  0.000000 ICntrl=      2127 IOpCl=  1 I1Cent=           0 NGrid=           0
         NMat0=    1 NMatS0=      1 NMatT0=    0 NMatD0=    1 NMtDS0=    0 NMtDT0=    0
 Symmetry not used in FoFCou.
 Leave Link  703 at Tue Nov 19 12:07:25 2024, MaxMem=  1073741824 cpu:              20.0 elap:               0.8
 (Enter /home/szhao/Apps/g16/l716.exe)
 Dipole        = 1.60494237D-07-1.16451107D-06-3.39636807D-06
 -------------------------------------------------------------------
 Center     Atomic                   Forces (Hartrees/Bohr)
 Number     Number              X              Y              Z
 -------------------------------------------------------------------
      1        6          -0.000000000   -0.000000000   -0.000000000
      2        6          -0.000000000   -0.000000000   -0.000000000
      3        1          -0.020877316    0.006414164   -0.003708507
      4        1           0.020875397    0.006447439    0.003705908
      5        1          -0.020872983   -0.006443562   -0.003701741
      6        1          -0.020873355    0.000001346    0.007436655
      7        1           0.020877926   -0.006413899    0.003711301
      8        1           0.020870855   -0.000000443   -0.007430517
 -------------------------------------------------------------------
 Cartesian Forces:  Max     0.020877926 RMS     0.011078041
 Leave Link  716 at Tue Nov 19 12:07:25 2024, MaxMem=  1073741824 cpu:               1.0 elap:               0.1
 (Enter /home/szhao/Apps/g16/l103.exe)

 GradGradGradGradGradGradGradGradGradGradGradGradGradGradGradGradGradGrad
 Berny optimization.
 Using GEDIIS/GDIIS optimizer.
 FormGI is forming the generalized inverse of G from B-inverse, IUseBI=4.
 Internal  Forces:  Max     0.062624178 RMS     0.019234426
 Search for a local minimum.
 Step number   2 out of a maximum of   43
 All quantities printed in internal units (Hartrees-Bohrs-Radians)
 RMS Force = .12715D-01 SwitMx=.10000D-02 MixMth= 1
 Mixed Optimization -- RFO/linear search
 Update second derivatives using D2CorX and points    1    2
 DE= -2.59D-02 DEPred=-2.28D-02 R= 1.13D+00
 TightC=F SS=  1.41D+00  RLast= 3.00D-01 DXNew= 5.0454D-01 8.9956D-01
 Trust test= 1.13D+00 RLast= 3.00D-01 DXMaxT set to 5.05D-01
 ITU=  1  0
 Use linear search instead of GDIIS.
     Eigenvalues ---    0.00230   0.04909   0.04909   0.04910   0.04911
     Eigenvalues ---    0.09974   0.16000   0.16000   0.16000   0.16000
     Eigenvalues ---    0.16000   0.28786   0.28787   0.28789   0.28792
     Eigenvalues ---    0.28794   0.309071000.000001000.000001000.00000
     Eigenvalues --- 1000.000001000.000001000.000001000.000001000.00000
     Eigenvalues --- 1000.000001000.000001000.000001000.000001000.00000
     Eigenvalues --- 1000.000001000.000001000.00000
 RFO step:  Lambda=-3.53506387D-03 EMin= 2.30000000D-03
 Quartic linear search produced a step of  1.40584.
 Iteration  1 RMS(Cart)=  0.11862793 RMS(Int)=  0.01035602
 Iteration  2 RMS(Cart)=  0.00852199 RMS(Int)=  0.00657755
 Iteration  3 RMS(Cart)=  0.00008532 RMS(Int)=  0.00657732
 Iteration  4 RMS(Cart)=  0.00000139 RMS(Int)=  0.00657732
 Iteration  5 RMS(Cart)=  0.00000002 RMS(Int)=  0.00657732
 ITry= 1 IFail=0 DXMaxC= 2.87D-01 DCOld= 1.00D+10 DXMaxT= 5.05D-01 DXLimC= 3.00D+00 Rises=F
 Variable       Old X    -DE/DX   Delta X   Delta X   Delta X     New X
                                 (Linear)    (Quad)   (Total)
    X1       -1.94791   0.06262   0.00000   0.00000   0.00000  -1.94791
    Y1        0.00000   0.00004   0.00000   0.00000   0.00000   0.00000
    Z1        0.00000  -0.00002   0.00000   0.00000   0.00000   0.00000
    X2        1.94811  -0.06262   0.00000   0.00000   0.00000   1.94811
    Y2        0.00000  -0.00004   0.00000   0.00000   0.00000   0.00000
    Z2        0.00000   0.00003   0.00000   0.00000   0.00000   0.00000
    R1        2.10636  -0.01525  -0.09159   0.02718  -0.06441   2.04194
    R2        2.10628  -0.01523  -0.09146   0.02715  -0.06431   2.04197
    R3        2.10633  -0.01524  -0.09154   0.02717  -0.06438   2.04196
    R4        2.10628  -0.01522  -0.09146   0.02715  -0.06431   2.04197
    R5        2.10634  -0.01524  -0.09156   0.02717  -0.06438   2.04195
    R6        2.10636  -0.01524  -0.09159   0.02718  -0.06441   2.04195
    A1        1.98723  -0.01462  -0.09315  -0.03282  -0.13605   1.85118
    A2        1.98744  -0.01463  -0.09328  -0.03288  -0.13625   1.85119
    A3        1.98723  -0.01461  -0.09318  -0.03267  -0.13593   1.85130
    A4        1.82814   0.01678   0.11206   0.03754   0.13790   1.96604
    A5        1.82806   0.01678   0.11203   0.03770   0.13809   1.96615
    A6        1.82815   0.01678   0.11203   0.03765   0.13800   1.96615
    A7        1.98745  -0.01463  -0.09328  -0.03288  -0.13625   1.85119
    A8        1.98723  -0.01462  -0.09315  -0.03282  -0.13605   1.85118
    A9        1.98722  -0.01461  -0.09318  -0.03267  -0.13592   1.85129
   A10        1.82816   0.01678   0.11205   0.03753   0.13788   1.96604
   A11        1.82813   0.01678   0.11203   0.03766   0.13802   1.96615
   A12        1.82806   0.01678   0.11203   0.03770   0.13809   1.96615
    D1       -1.04709  -0.00001  -0.00002  -0.00023  -0.00023  -1.04732
    D2        3.14158   0.00000   0.00001   0.00001   0.00001   3.14159
    D3        1.04737  -0.00001  -0.00009  -0.00017  -0.00023   1.04714
    D4       -3.14157  -0.00000  -0.00001  -0.00001  -0.00002  -3.14159
    D5        1.04710   0.00001   0.00001   0.00022   0.00022   1.04732
    D6       -1.04710  -0.00000  -0.00008   0.00005  -0.00003  -1.04713
    D7        1.04712   0.00000   0.00007  -0.00005   0.00001   1.04713
    D8       -1.04740   0.00001   0.00010   0.00018   0.00025  -1.04715
    D9        3.14158   0.00000   0.00000   0.00000   0.00001   3.14159
         Item               Value     Threshold  Converged?
 Maximum Force            0.016784     0.000450     NO 
 RMS     Force            0.012715     0.000300     NO 
 Maximum Displacement     0.287322     0.001800     NO 
 RMS     Displacement     0.123335     0.001200     NO 
 Predicted change in Energy=-1.865053D-02
 Lowest energy point so far.  Saving SCF results.
 GradGradGradGradGradGradGradGradGradGradGradGradGradGradGradGradGradGrad

 Leave Link  103 at Tue Nov 19 12:07:25 2024, MaxMem=  1073741824 cpu:               1.4 elap:               0.1
 (Enter /home/szhao/Apps/g16/l202.exe)
                          Input orientation:                          
 ---------------------------------------------------------------------
 Center     Atomic      Atomic             Coordinates (Angstroms)
 Number     Number       Type             X           Y           Z
 ---------------------------------------------------------------------
      1          6           0       -1.030788    0.000000    0.000000
      2          6           0        1.030894    0.000000    0.000000
      3          1           0        1.329926   -0.898712    0.520115
      4          1           0       -1.329798   -0.899718   -0.518353
      5          1           0        1.329910    0.899722    0.518352
      6          1           0        1.330027   -0.001009   -1.038321
      7          1           0       -1.329819    0.898710   -0.520116
      8          1           0       -1.329929    0.001007    1.038324
 ---------------------------------------------------------------------
                    Distance matrix (angstroms):
                    1          2          3          4          5
     1  C    0.000000
     2  C    2.061682   0.000000
     3  H    2.578987   1.080566   0.000000
     4  H    1.080551   2.578963   2.855267   0.000000
     5  H    2.578970   1.080555   1.798435   3.374432   0.000000
     6  H    2.579062   1.080552   1.798497   2.855297   1.798485
     7  H    1.080565   2.578986   3.374471   1.798429   2.855272
     8  H    1.080557   2.579070   2.855323   1.798485   2.855312
                    6          7          8
     6  H    0.000000
     7  H    2.855314   0.000000
     8  H    3.374586   1.798502   0.000000
 Symmetry turned off by external request.
 Stoichiometry    C2H6
 Framework group  C1[X(C2H6)]
 Deg. of freedom    18
 Full point group                 C1      NOp   1
 Rotational constants (GHZ):          77.5165831          12.8081097          12.8080135
 Leave Link  202 at Tue Nov 19 12:07:25 2024, MaxMem=  1073741824 cpu:               0.5 elap:               0.0
 (Enter /home/szhao/Apps/g16/l301.exe)
 Standard basis: 6-311+G(d,p) (5D, 7F)
 Ernie: Thresh=  0.10000D-02 Tol=  0.10000D-05 Strict=F.
    80 basis functions,   120 primitive gaussians,    82 cartesian basis functions
     9 alpha electrons        9 beta electrons
       nuclear repulsion energy        37.6049253377 Hartrees.
 IExCor= 4336 DFT=T Ex+Corr=M062X ExCW=0 ScaHFX=  0.540000
 ScaDFX=  1.000000  1.000000  1.000000  1.000000 ScalE2=  1.000000  1.000000
 IRadAn=      7 IRanWt=     -1 IRanGd=            0 ICorTp=0 IEmpDi=  4
 NAtoms=    8 NActive=    8 NUniq=    8 SFac= 1.00D+00 NAtFMM=   60 NAOKFM=F Big=F
 Integral buffers will be    131072 words long.
 Raffenetti 2 integral format.
 Two-electron integral symmetry is turned off.
 Leave Link  301 at Tue Nov 19 12:07:25 2024, MaxMem=  1073741824 cpu:               1.2 elap:               0.1
 (Enter /home/szhao/Apps/g16/l302.exe)
 NPDir=0 NMtPBC=     1 NCelOv=     1 NCel=       1 NClECP=     1 NCelD=      1
         NCelK=      1 NCelE2=     1 NClLst=     1 CellRange=     0.0.
 One-electron integrals computed using PRISM.
 NBasis=    80 RedAO= T EigKep=  7.61D-04  NBF=    80
 NBsUse=    80 1.00D-06 EigRej= -1.00D+00 NBFU=    80
 Precomputing XC quadrature grid using
 IXCGrd= 4 IRadAn=           7 IRanWt=          -1 IRanGd=           0 AccXCQ= 0.00D+00.
 Generated NRdTot=       0 NPtTot=           0 NUsed=           0 NTot=          32
 NSgBfM=    82    82    82    82    82 MxSgAt=     8 MxSgA2=     8.
 Leave Link  302 at Tue Nov 19 12:07:26 2024, MaxMem=  1073741824 cpu:               3.7 elap:               0.2
 (Enter /home/szhao/Apps/g16/l303.exe)
 DipDrv:  MaxL=1.
 Leave Link  303 at Tue Nov 19 12:07:26 2024, MaxMem=  1073741824 cpu:               1.1 elap:               0.1
 (Enter /home/szhao/Apps/g16/l401.exe)
 Initial guess from the checkpoint file:  "opt.chk"
 B after Tr=     0.000000    0.000003    0.000007
         Rot=    1.000000   -0.000002    0.000024    0.000018 Ang=  -0.00 deg.
 Guess basis will be translated and rotated to current coordinates.
 JPrj=2 DoOrth=T DoCkMO=T.
 Initial guess <Sx>= 0.0000 <Sy>= 0.0000 <Sz>= 0.0000 <S**2>= 0.0000 S= 0.0000
 Generating alternative initial guess.
 ExpMin= 4.38D-02 ExpMax= 4.56D+03 ExpMxC= 6.82D+02 IAcc=3 IRadAn=         5 AccDes= 0.00D+00
 Harris functional with IExCor= 1009 and IRadAn=       5 diagonalized for initial guess.
 HarFok:  IExCor= 1009 AccDes= 0.00D+00 IRadAn=         5 IDoV= 1 UseB2=F ITyADJ=14
 ICtDFT=  3500011 ScaDFX=  1.000000  1.000000  1.000000  1.000000
 FoFCou: FMM=F IPFlag=           0 FMFlag=      100000 FMFlg1=           0
         NFxFlg=           0 DoJE=T BraDBF=F KetDBF=T FulRan=T
         wScrn=  0.000000 ICntrl=       500 IOpCl=  0 I1Cent=   200000004 NGrid=           0
         NMat0=    1 NMatS0=      1 NMatT0=    0 NMatD0=    1 NMtDS0=    0 NMtDT0=    0
 Symmetry not used in FoFCou.
 Harris En= -79.7555613285470    
 Leave Link  401 at Tue Nov 19 12:07:26 2024, MaxMem=  1073741824 cpu:               6.0 elap:               0.3
 (Enter /home/szhao/Apps/g16/l502.exe)
 Keep R1 and R2 ints in memory in canonical form, NReq=32326806.
 FoFCou: FMM=F IPFlag=           0 FMFlag=           0 FMFlg1=           0
         NFxFlg=           0 DoJE=F BraDBF=F KetDBF=F FulRan=T
         wScrn=  0.000000 ICntrl=       600 IOpCl=  0 I1Cent=           0 NGrid=           0
         NMat0=    1 NMatS0=   3240 NMatT0=    0 NMatD0=    1 NMtDS0=    0 NMtDT0=    0
 Symmetry not used in FoFCou.
 Two-electron integral symmetry not used.
 UHF open shell SCF:
 Using DIIS extrapolation, IDIIS=  1040.
 NGot=  1073741824 LenX=  1063224738 LenY=  1063217573
 Requested convergence on RMS density matrix=1.00D-08 within 128 cycles.
 Requested convergence on MAX density matrix=1.00D-06.
 Requested convergence on             energy=1.00D-06.
 No special actions if energy rises.

 Cycle   1  Pass 1  IDiag  1:
 E= -79.7288261735158    
 DIIS: error= 1.30D-02 at cycle   1 NSaved=   1.
 NSaved= 1 IEnMin= 1 EnMin= -79.7288261735158     IErMin= 1 ErrMin= 1.30D-02
 ErrMax= 1.30D-02  0.00D+00 EMaxC= 1.00D-01 BMatC= 2.00D-02 BMatP= 2.00D-02
 IDIUse=3 WtCom= 8.70D-01 WtEn= 1.30D-01
 Coeff-Com:  0.100D+01
 Coeff-En:   0.100D+01
 Coeff:      0.100D+01
 Recover alternate guess density for next cycle.
 RMSDP=2.85D-03 MaxDP=5.13D-02              OVMax= 0.00D+00

 Cycle   2  Pass 1  IDiag  1:
 E= -79.6383458314492     Delta-E=        0.090480342067 Rises=F Damp=F
 Switch densities from cycles 1 and 2 for lowest energy.
 DIIS: error= 4.30D-02 at cycle   2 NSaved=   2.
 NSaved= 2 IEnMin= 1 EnMin= -79.7288261735158     IErMin= 1 ErrMin= 1.30D-02
 ErrMax= 4.30D-02  0.00D+00 EMaxC= 1.00D+00 BMatC= 3.94D-01 BMatP= 2.00D-02
 IDIUse=1 WtCom= 1.00D+00 WtEn= 0.00D+00
 Coeff-Com:  0.905D+00 0.953D-01
 Coeff:      0.905D+00 0.953D-01
 Gap=     0.403 Goal=   None    Shift=    0.000
 Gap=     0.403 Goal=   None    Shift=    0.000
 RMSDP=6.37D-04 MaxDP=6.23D-03 DE= 9.05D-02 OVMax= 7.71D-02

 Cycle   3  Pass 1  IDiag  1:
 E= -79.7345656309244     Delta-E=       -0.096219799475 Rises=F Damp=F
 DIIS: error= 1.65D-03 at cycle   3 NSaved=   3.
 NSaved= 3 IEnMin= 3 EnMin= -79.7345656309244     IErMin= 3 ErrMin= 1.65D-03
 ErrMax= 1.65D-03  0.00D+00 EMaxC= 1.00D+00 BMatC= 4.62D-04 BMatP= 2.00D-02
 IDIUse=1 WtCom= 1.00D+00 WtEn= 0.00D+00
 Coeff-Com: -0.474D-01 0.202D-01 0.103D+01
 Coeff:     -0.474D-01 0.202D-01 0.103D+01
 Gap=     0.354 Goal=   None    Shift=    0.000
 Gap=     0.354 Goal=   None    Shift=    0.000
 RMSDP=1.61D-04 MaxDP=1.85D-03 DE=-9.62D-02 OVMax= 7.45D-03

 Cycle   4  Pass 1  IDiag  1:
 E= -79.7347288240750     Delta-E=       -0.000163193151 Rises=F Damp=F
 DIIS: error= 4.04D-04 at cycle   4 NSaved=   4.
 NSaved= 4 IEnMin= 4 EnMin= -79.7347288240750     IErMin= 4 ErrMin= 4.04D-04
 ErrMax= 4.04D-04  0.00D+00 EMaxC= 1.00D+00 BMatC= 1.78D-05 BMatP= 4.62D-04
 IDIUse=1 WtCom= 1.00D+00 WtEn= 0.00D+00
 Coeff-Com: -0.191D-01 0.198D-02 0.135D+00 0.883D+00
 Coeff:     -0.191D-01 0.198D-02 0.135D+00 0.883D+00
 Gap=     0.354 Goal=   None    Shift=    0.000
 Gap=     0.354 Goal=   None    Shift=    0.000
 RMSDP=2.25D-05 MaxDP=2.46D-04 DE=-1.63D-04 OVMax= 1.09D-03

 Cycle   5  Pass 1  IDiag  1:
 E= -79.7347342200991     Delta-E=       -0.000005396024 Rises=F Damp=F
 DIIS: error= 1.15D-04 at cycle   5 NSaved=   5.
 NSaved= 5 IEnMin= 5 EnMin= -79.7347342200991     IErMin= 5 ErrMin= 1.15D-04
 ErrMax= 1.15D-04  0.00D+00 EMaxC= 1.00D+00 BMatC= 8.36D-07 BMatP= 1.78D-05
 IDIUse=1 WtCom= 1.00D+00 WtEn= 0.00D+00
 Coeff-Com: -0.205D-03-0.105D-02-0.234D-01 0.104D+00 0.921D+00
 Coeff:     -0.205D-03-0.105D-02-0.234D-01 0.104D+00 0.921D+00
 Gap=     0.354 Goal=   None    Shift=    0.000
 Gap=     0.354 Goal=   None    Shift=    0.000
 RMSDP=9.98D-06 MaxDP=1.29D-04 DE=-5.40D-06 OVMax= 4.51D-04

 Cycle   6  Pass 1  IDiag  1:
 E= -79.7347345682908     Delta-E=       -0.000000348192 Rises=F Damp=F
 DIIS: error= 1.23D-05 at cycle   6 NSaved=   6.
 NSaved= 6 IEnMin= 6 EnMin= -79.7347345682908     IErMin= 6 ErrMin= 1.23D-05
 ErrMax= 1.23D-05  0.00D+00 EMaxC= 1.00D+00 BMatC= 2.59D-08 BMatP= 8.36D-07
 IDIUse=1 WtCom= 1.00D+00 WtEn= 0.00D+00
 Coeff-Com:  0.366D-03 0.784D-04-0.361D-02-0.321D-01 0.131D-01 0.102D+01
 Coeff:      0.366D-03 0.784D-04-0.361D-02-0.321D-01 0.131D-01 0.102D+01
 Gap=     0.354 Goal=   None    Shift=    0.000
 Gap=     0.354 Goal=   None    Shift=    0.000
 RMSDP=1.85D-06 MaxDP=2.48D-05 DE=-3.48D-07 OVMax= 7.75D-05

 Cycle   7  Pass 1  IDiag  1:
 E= -79.7347345804714     Delta-E=       -0.000000012181 Rises=F Damp=F
 DIIS: error= 1.68D-06 at cycle   7 NSaved=   7.
 NSaved= 7 IEnMin= 7 EnMin= -79.7347345804714     IErMin= 7 ErrMin= 1.68D-06
 ErrMax= 1.68D-06  0.00D+00 EMaxC= 1.00D+00 BMatC= 1.59D-10 BMatP= 2.59D-08
 IDIUse=1 WtCom= 1.00D+00 WtEn= 0.00D+00
 Coeff-Com: -0.435D-04-0.349D-05 0.762D-03 0.154D-02-0.827D-02-0.127D+00
 Coeff-Com:  0.113D+01
 Coeff:     -0.435D-04-0.349D-05 0.762D-03 0.154D-02-0.827D-02-0.127D+00
 Coeff:      0.113D+01
 Gap=     0.354 Goal=   None    Shift=    0.000
 Gap=     0.354 Goal=   None    Shift=    0.000
 RMSDP=2.51D-07 MaxDP=2.91D-06 DE=-1.22D-08 OVMax= 1.40D-05

 Cycle   8  Pass 1  IDiag  1:
 E= -79.7347345806307     Delta-E=       -0.000000000159 Rises=F Damp=F
 DIIS: error= 3.21D-07 at cycle   8 NSaved=   8.
 NSaved= 8 IEnMin= 8 EnMin= -79.7347345806307     IErMin= 8 ErrMin= 3.21D-07
 ErrMax= 3.21D-07  0.00D+00 EMaxC= 1.00D+00 BMatC= 1.23D-11 BMatP= 1.59D-10
 IDIUse=1 WtCom= 1.00D+00 WtEn= 0.00D+00
 Coeff-Com: -0.143D-04-0.165D-05 0.208D-03 0.639D-03-0.144D-02-0.384D-01
 Coeff-Com:  0.204D+00 0.835D+00
 Coeff:     -0.143D-04-0.165D-05 0.208D-03 0.639D-03-0.144D-02-0.384D-01
 Coeff:      0.204D+00 0.835D+00
 Gap=     0.354 Goal=   None    Shift=    0.000
 Gap=     0.354 Goal=   None    Shift=    0.000
 RMSDP=3.49D-08 MaxDP=4.61D-07 DE=-1.59D-10 OVMax= 2.17D-06

 Cycle   9  Pass 1  IDiag  1:
 E= -79.7347345806339     Delta-E=       -0.000000000003 Rises=F Damp=F
 DIIS: error= 3.01D-07 at cycle   9 NSaved=   9.
 NSaved= 9 IEnMin= 9 EnMin= -79.7347345806339     IErMin= 9 ErrMin= 3.01D-07
 ErrMax= 3.01D-07  0.00D+00 EMaxC= 1.00D+00 BMatC= 8.50D-12 BMatP= 1.23D-11
 IDIUse=1 WtCom= 1.00D+00 WtEn= 0.00D+00
 Coeff-Com:  0.556D-07-0.264D-06-0.269D-04 0.426D-04 0.890D-03 0.288D-02
 Coeff-Com: -0.109D+00 0.495D+00 0.610D+00
 Coeff:      0.556D-07-0.264D-06-0.269D-04 0.426D-04 0.890D-03 0.288D-02
 Coeff:     -0.109D+00 0.495D+00 0.610D+00
 Gap=     0.354 Goal=   None    Shift=    0.000
 Gap=     0.354 Goal=   None    Shift=    0.000
 RMSDP=1.52D-08 MaxDP=2.32D-07 DE=-3.21D-12 OVMax= 9.72D-07

 Cycle  10  Pass 1  IDiag  1:
 E= -79.7347345806365     Delta-E=       -0.000000000003 Rises=F Damp=F
 DIIS: error= 8.06D-09 at cycle  10 NSaved=  10.
 NSaved=10 IEnMin=10 EnMin= -79.7347345806365     IErMin=10 ErrMin= 8.06D-09
 ErrMax= 8.06D-09  0.00D+00 EMaxC= 1.00D+00 BMatC= 1.03D-14 BMatP= 8.50D-12
 IDIUse=1 WtCom= 1.00D+00 WtEn= 0.00D+00
 Coeff-Com:  0.100D-06 0.600D-08 0.185D-05-0.221D-04-0.868D-04 0.125D-03
 Coeff-Com:  0.131D-01-0.894D-01-0.895D-01 0.117D+01
 Coeff:      0.100D-06 0.600D-08 0.185D-05-0.221D-04-0.868D-04 0.125D-03
 Coeff:      0.131D-01-0.894D-01-0.895D-01 0.117D+01
 Gap=     0.354 Goal=   None    Shift=    0.000
 Gap=     0.354 Goal=   None    Shift=    0.000
 RMSDP=1.60D-09 MaxDP=1.94D-08 DE=-2.67D-12 OVMax= 8.37D-08

 SCF Done:  E(UM062X) =  -79.7347345806     A.U. after   10 cycles
            NFock= 10  Conv=0.16D-08     -V/T= 2.0084
 <Sx>= 0.0000 <Sy>= 0.0000 <Sz>= 0.0000 <S**2>=-0.0000 S=-0.0000
 <L.S>=  0.00000000000    
 KE= 7.906751007943D+01 PE=-2.590409530045D+02 EE= 6.263378300675D+01
 Annihilation of the first spin contaminant:
 S**2 before annihilation    -0.0000,   after    -0.0000
 Leave Link  502 at Tue Nov 19 12:07:31 2024, MaxMem=  1073741824 cpu:             107.3 elap:               4.7
 (Enter /home/szhao/Apps/g16/l701.exe)
 ... and contract with generalized density number  0.
 Compute integral first derivatives.
 Leave Link  701 at Tue Nov 19 12:07:31 2024, MaxMem=  1073741824 cpu:               2.8 elap:               0.1
 (Enter /home/szhao/Apps/g16/l702.exe)
 L702 exits ... SP integral derivatives will be done elsewhere.
 Leave Link  702 at Tue Nov 19 12:07:31 2024, MaxMem=  1073741824 cpu:               1.1 elap:               0.1
 (Enter /home/szhao/Apps/g16/l703.exe)
 Integral derivatives from FoFJK, PRISM(SPDF).
 Compute integral first derivatives, UseDBF=F ICtDFT=           0.
 Calling FoFJK, ICntrl=      2127 FMM=F ISym2X=0 I1Cent= 0 IOpClX= 1 NMat=1 NMatS=1 NMatT=0.
 FoFJK:  IHMeth= 1 ICntrl=    2127 DoSepK=F KAlg= 0 I1Cent=           0 FoldK=F
 IRaf=         0 NMat=       1 IRICut=       1 DoRegI=T DoRafI=F ISym2E= 0 IDoP0=0 IntGTp=1.
 FoFCou: FMM=F IPFlag=           0 FMFlag=      100000 FMFlg1=         800
         NFxFlg=           0 DoJE=F BraDBF=F KetDBF=F FulRan=T
         wScrn=  0.000000 ICntrl=      2127 IOpCl=  1 I1Cent=           0 NGrid=           0
         NMat0=    1 NMatS0=      1 NMatT0=    0 NMatD0=    1 NMtDS0=    0 NMtDT0=    0
 Symmetry not used in FoFCou.
 Leave Link  703 at Tue Nov 19 12:07:32 2024, MaxMem=  1073741824 cpu:              20.0 elap:               0.8
 (Enter /home/szhao/Apps/g16/l716.exe)
 Dipole        =-9.43119347D-08-9.27845955D-07-2.48685723D-06
 -------------------------------------------------------------------
 Center     Atomic                   Forces (Hartrees/Bohr)
 Number     Number              X              Y              Z
 -------------------------------------------------------------------
      1        6          -0.000000000   -0.000000000   -0.000000000
      2        6          -0.000000000   -0.000000000   -0.000000000
      3        1          -0.000923652   -0.003046719    0.001757242
      4        1           0.000920069   -0.003059069   -0.001756446
      5        1          -0.000921085    0.003056163    0.001755012
      6        1          -0.000921948   -0.000003840   -0.003525106
      7        1           0.000923419    0.003047533   -0.001757348
      8        1           0.000923061    0.000003939    0.003521621
 -------------------------------------------------------------------
 Cartesian Forces:  Max     0.003525106 RMS     0.001820489
 Leave Link  716 at Tue Nov 19 12:07:33 2024, MaxMem=  1073741824 cpu:               6.6 elap:               0.3
 (Enter /home/szhao/Apps/g16/l103.exe)

 GradGradGradGradGradGradGradGradGradGradGradGradGradGradGradGradGradGrad
 Berny optimization.
 Using GEDIIS/GDIIS optimizer.
 FormGI is forming the generalized inverse of G from B-inverse, IUseBI=4.
 Internal  Forces:  Max     0.003135114 RMS     0.001935735
 Search for a local minimum.
 Step number   3 out of a maximum of   43
 All quantities printed in internal units (Hartrees-Bohrs-Radians)
 RMS Force = .20032D-02 SwitMx=.10000D-02 MixMth= 1
 Mixed Optimization -- RFO/linear search
 Update second derivatives using D2CorX and points    2    3
 DE= -1.74D-02 DEPred=-1.87D-02 R= 9.34D-01
 TightC=F SS=  1.41D+00  RLast= 5.00D-01 DXNew= 8.4853D-01 1.5007D+00
 Trust test= 9.34D-01 RLast= 5.00D-01 DXMaxT set to 8.49D-01
 ITU=  1  1  0
 Use linear search instead of GDIIS.
     Eigenvalues ---    0.00230   0.06340   0.06340   0.06341   0.06341
     Eigenvalues ---    0.10354   0.16000   0.16000   0.16000   0.16000
     Eigenvalues ---    0.16000   0.28786   0.28787   0.28789   0.28792
     Eigenvalues ---    0.28794   0.334501000.000001000.000001000.00000
     Eigenvalues --- 1000.000001000.000001000.000001000.000001000.00000
     Eigenvalues --- 1000.000001000.000001000.000001000.000001000.00000
     Eigenvalues --- 1000.000001000.000001000.00000
 RFO step:  Lambda=-4.34097747D-04 EMin= 2.30000000D-03
 Quartic linear search produced a step of  0.06473.
 Iteration  1 RMS(Cart)=  0.01653879 RMS(Int)=  0.00060260
 Iteration  2 RMS(Cart)=  0.00027590 RMS(Int)=  0.00056525
 Iteration  3 RMS(Cart)=  0.00000037 RMS(Int)=  0.00056524
 ITry= 1 IFail=0 DXMaxC= 3.48D-02 DCOld= 1.00D+10 DXMaxT= 8.49D-01 DXLimC= 3.00D+00 Rises=F
 Variable       Old X    -DE/DX   Delta X   Delta X   Delta X     New X
                                 (Linear)    (Quad)   (Total)
    X1       -1.94791   0.00277   0.00000   0.00000   0.00000  -1.94791
    Y1        0.00000  -0.00001   0.00000   0.00000   0.00000   0.00000
    Z1        0.00000   0.00001   0.00000   0.00000   0.00000   0.00000
    X2        1.94811  -0.00277   0.00000   0.00000   0.00000   1.94811
    Y2        0.00000   0.00000   0.00000   0.00000   0.00000   0.00000
    Z2        0.00000  -0.00002   0.00000   0.00000   0.00000   0.00000
    R1        2.04194   0.00314  -0.00417   0.01252   0.00835   2.05030
    R2        2.04197   0.00312  -0.00416   0.01248   0.00831   2.05029
    R3        2.04196   0.00313  -0.00417   0.01249   0.00833   2.05028
    R4        2.04197   0.00312  -0.00416   0.01247   0.00831   2.05029
    R5        2.04195   0.00313  -0.00417   0.01251   0.00834   2.05029
    R6        2.04195   0.00313  -0.00417   0.01251   0.00834   2.05029
    A1        1.85118  -0.00217  -0.00881  -0.00907  -0.01872   1.83246
    A2        1.85119  -0.00217  -0.00882  -0.00907  -0.01873   1.83246
    A3        1.85130  -0.00218  -0.00880  -0.00913  -0.01877   1.83253
    A4        1.96604   0.00188   0.00893   0.00792   0.01582   1.98186
    A5        1.96615   0.00188   0.00894   0.00783   0.01575   1.98189
    A6        1.96615   0.00188   0.00893   0.00783   0.01574   1.98189
    A7        1.85119  -0.00217  -0.00882  -0.00907  -0.01873   1.83246
    A8        1.85118  -0.00217  -0.00881  -0.00907  -0.01872   1.83246
    A9        1.85129  -0.00218  -0.00880  -0.00913  -0.01877   1.83253
   A10        1.96604   0.00188   0.00892   0.00791   0.01581   1.98186
   A11        1.96615   0.00188   0.00893   0.00783   0.01574   1.98189
   A12        1.96615   0.00188   0.00894   0.00783   0.01575   1.98189
    D1       -1.04732   0.00000  -0.00001   0.00008   0.00007  -1.04725
    D2        3.14159   0.00000   0.00000   0.00000   0.00000   3.14159
    D3        1.04714   0.00000  -0.00001   0.00004   0.00003   1.04717
    D4       -3.14159  -0.00000  -0.00000  -0.00000  -0.00000   3.14159
    D5        1.04732  -0.00000   0.00001  -0.00009  -0.00007   1.04724
    D6       -1.04713  -0.00000  -0.00000  -0.00004  -0.00005  -1.04718
    D7        1.04713   0.00000   0.00000   0.00004   0.00004   1.04717
    D8       -1.04715  -0.00000   0.00002  -0.00004  -0.00003  -1.04717
    D9        3.14159   0.00000   0.00000   0.00000   0.00000   3.14159
         Item               Value     Threshold  Converged?
 Maximum Force            0.003135     0.000450     NO 
 RMS     Force            0.002003     0.000300     NO 
 Maximum Displacement     0.034771     0.001800     NO 
 RMS     Displacement     0.016731     0.001200     NO 
 Predicted change in Energy=-3.002152D-04
 Lowest energy point so far.  Saving SCF results.
 GradGradGradGradGradGradGradGradGradGradGradGradGradGradGradGradGradGrad

 Leave Link  103 at Tue Nov 19 12:07:33 2024, MaxMem=  1073741824 cpu:               3.5 elap:               0.2
 (Enter /home/szhao/Apps/g16/l202.exe)
                          Input orientation:                          
 ---------------------------------------------------------------------
 Center     Atomic      Atomic             Coordinates (Angstroms)
 Number     Number       Type             X           Y           Z
[...]
    A7        1.83246   0.00011   0.00118  -0.00042   0.00077   1.83323
    A8        1.83246   0.00011   0.00118  -0.00043   0.00076   1.83323
    A9        1.83253   0.00011   0.00118  -0.00044   0.00075   1.83328
   A10        1.98186  -0.00009  -0.00099   0.00037  -0.00061   1.98125
   A11        1.98189  -0.00009  -0.00099   0.00034  -0.00063   1.98126
   A12        1.98189  -0.00009  -0.00099   0.00034  -0.00063   1.98126
    D1       -1.04725   0.00000  -0.00000   0.00003   0.00002  -1.04723
    D2        3.14159  -0.00000  -0.00000  -0.00000  -0.00000   3.14159
    D3        1.04717   0.00000  -0.00000   0.00001   0.00001   1.04718
    D4        3.14159   0.00000   0.00000   0.00000   0.00000   3.14159
    D5        1.04724  -0.00000   0.00000  -0.00002  -0.00002   1.04722
    D6       -1.04718  -0.00000   0.00000  -0.00001  -0.00001  -1.04718
    D7        1.04717   0.00000  -0.00000   0.00001   0.00001   1.04718
    D8       -1.04717  -0.00000   0.00000  -0.00001  -0.00001  -1.04719
    D9        3.14159  -0.00000  -0.00000  -0.00000  -0.00000   3.14159
         Item               Value     Threshold  Converged?
 Maximum Force            0.000372     0.000450     YES
 RMS     Force            0.000186     0.000300     YES
 Maximum Displacement     0.001370     0.001800     YES
 RMS     Displacement     0.000791     0.001200     YES
 Predicted change in Energy=-1.532322D-06
 Optimization completed.
    -- Stationary point found.
                           ----------------------------
                           !   Optimized Parameters   !
                           ! (Angstroms and Degrees)  !
 --------------------------                            --------------------------
 ! Name  Definition              Value          Derivative Info.                !
 --------------------------------------------------------------------------------
 ! X1    R(1,-1)                -1.0308         -DE/DX =    0.0                 !
 ! Y1    R(1,-2)                 0.0            -DE/DX =    0.0                 !
 ! Z1    R(1,-3)                 0.0            -DE/DX =    0.0                 !
 ! X2    R(2,-1)                 1.0309         -DE/DX =    0.0                 !
 ! Y2    R(2,-2)                 0.0            -DE/DX =    0.0                 !
 ! Z2    R(2,-3)                 0.0            -DE/DX =    0.0                 !
 ! R1    R(1,4)                  1.085          -DE/DX =   -0.0004              !
 ! R2    R(1,7)                  1.085          -DE/DX =   -0.0004              !
 ! R3    R(1,8)                  1.085          -DE/DX =   -0.0004              !
 ! R4    R(2,3)                  1.085          -DE/DX =   -0.0004              !
 ! R5    R(2,5)                  1.085          -DE/DX =   -0.0004              !
 ! R6    R(2,6)                  1.085          -DE/DX =   -0.0004              !
 ! A1    A(2,1,4)              104.9922         -DE/DX =    0.0001              !
 ! A2    A(2,1,7)              104.9922         -DE/DX =    0.0001              !
 ! A3    A(2,1,8)              104.9963         -DE/DX =    0.0001              !
 ! A4    A(4,1,7)              113.5521         -DE/DX =   -0.0001              !
 ! A5    A(4,1,8)              113.5541         -DE/DX =   -0.0001              !
 ! A6    A(7,1,8)              113.554          -DE/DX =   -0.0001              !
 ! A7    A(1,2,3)              104.9922         -DE/DX =    0.0001              !
 ! A8    A(1,2,5)              104.9924         -DE/DX =    0.0001              !
 ! A9    A(1,2,6)              104.9961         -DE/DX =    0.0001              !
 ! A10   A(3,2,5)              113.552          -DE/DX =   -0.0001              !
 ! A11   A(3,2,6)              113.5541         -DE/DX =   -0.0001              !
 ! A12   A(5,2,6)              113.5541         -DE/DX =   -0.0001              !
 ! D1    D(4,1,2,3)            -60.0028         -DE/DX =    0.0                 !
 ! D2    D(4,1,2,5)            180.0            -DE/DX =    0.0                 !
 ! D3    D(4,1,2,6)             59.9985         -DE/DX =    0.0                 !
 ! D4    D(7,1,2,3)            180.0            -DE/DX =    0.0                 !
 ! D5    D(7,1,2,5)             60.0027         -DE/DX =    0.0                 !
 ! D6    D(7,1,2,6)            -59.9987         -DE/DX =    0.0                 !
 ! D7    D(8,1,2,3)             59.9986         -DE/DX =    0.0                 !
 ! D8    D(8,1,2,5)            -59.9986         -DE/DX =    0.0                 !
 ! D9    D(8,1,2,6)            180.0            -DE/DX =    0.0                 !
 --------------------------------------------------------------------------------
 Lowest energy point so far.  Saving SCF results.
 Largest change from initial coordinates is atom    7       0.254 Angstoms.
 GradGradGradGradGradGradGradGradGradGradGradGradGradGradGradGradGradGrad

 Leave Link  103 at Tue Nov 19 12:07:39 2024, MaxMem=  1073741824 cpu:               1.3 elap:               0.1
 (Enter /home/szhao/Apps/g16/l202.exe)
                          Input orientation:                          
 ---------------------------------------------------------------------
 Center     Atomic      Atomic             Coordinates (Angstroms)
 Number     Number       Type             X           Y           Z
 ---------------------------------------------------------------------
      1          6           0       -1.030788    0.000000    0.000000
      2          6           0        1.030894    0.000000    0.000000
      3          1           0        1.311560   -0.907099    0.524924
      4          1           0       -1.311457   -0.908126   -0.523156
      5          1           0        1.311564    0.908124    0.523154
      6          1           0        1.311632   -0.001024   -1.048014
      7          1           0       -1.311455    0.907100   -0.524924
      8          1           0       -1.311529    0.001023    1.048012
 ---------------------------------------------------------------------
                    Distance matrix (angstroms):
                    1          2          3          4          5
     1  C    0.000000
     2  C    2.061682   0.000000
     3  H    2.566120   1.084964   0.000000
     4  H    1.084969   2.566124   2.824658   0.000000
     5  H    2.566125   1.084968   1.815224   3.357643   0.000000
     6  H    2.566178   1.084965   1.815243   2.824696   1.815246
     7  H    1.084965   2.566120   3.357634   1.815226   2.824658
     8  H    1.084963   2.566179   2.824696   1.815246   2.824700
                    6          7          8
     6  H    0.000000
     7  H    2.824694   0.000000
     8  H    3.357723   1.815241   0.000000
 Symmetry turned off by external request.
 Stoichiometry    C2H6
 Framework group  C1[X(C2H6)]
 Deg. of freedom    18
 Full point group                 C1      NOp   1
 Rotational constants (GHZ):          76.0913043          12.8839407          12.8839099
 Leave Link  202 at Tue Nov 19 12:07:39 2024, MaxMem=  1073741824 cpu:               0.5 elap:               0.1
 (Enter /home/szhao/Apps/g16/l601.exe)
 Copying SCF densities to generalized density rwf, IOpCl= 1 IROHF=0.

 **********************************************************************

            Population analysis using the SCF density.

 **********************************************************************

 Alpha  occ. eigenvalues --  -10.54703 -10.54694  -0.78825  -0.72720  -0.48365
 Alpha  occ. eigenvalues --   -0.48364  -0.44552  -0.44551  -0.32690
 Alpha virt. eigenvalues --    0.02345   0.02350   0.05628   0.05628   0.08467
 Alpha virt. eigenvalues --    0.08467   0.09554   0.10535   0.13624   0.18185
 Alpha virt. eigenvalues --    0.18186   0.22052   0.22052   0.24305   0.26903
 Alpha virt. eigenvalues --    0.41092   0.41092   0.49034   0.49035   0.50074
 Alpha virt. eigenvalues --    0.52806   0.64493   0.64493   0.69311   0.69312
 Alpha virt. eigenvalues --    0.70702   0.77767   0.88827   0.95361   1.04860
 Alpha virt. eigenvalues --    1.04861   1.21243   1.21244   1.34599   1.48561
 Alpha virt. eigenvalues --    1.48683   1.57847   1.57848   1.59038   1.59039
 Alpha virt. eigenvalues --    1.72510   1.72510   1.76523   1.83676   1.83678
 Alpha virt. eigenvalues --    1.91730   1.98482   2.12638   2.12640   2.26229
 Alpha virt. eigenvalues --    2.26230   2.40510   2.48257   2.48258   2.54356
 Alpha virt. eigenvalues --    2.57363   2.57365   2.61760   2.61762   2.63360
 Alpha virt. eigenvalues --    2.63361   2.72199   2.87233   2.91094   3.30137
 Alpha virt. eigenvalues --    3.74592   3.74594   3.81685   3.81685  23.99326
 Alpha virt. eigenvalues --   24.00224
  Beta  occ. eigenvalues --  -10.54703 -10.54694  -0.78825  -0.72720  -0.48365
  Beta  occ. eigenvalues --   -0.48364  -0.44552  -0.44551  -0.32690
  Beta virt. eigenvalues --    0.02345   0.02350   0.05628   0.05628   0.08467
  Beta virt. eigenvalues --    0.08467   0.09554   0.10535   0.13624   0.18185
  Beta virt. eigenvalues --    0.18186   0.22052   0.22052   0.24305   0.26903
  Beta virt. eigenvalues --    0.41092   0.41092   0.49034   0.49035   0.50074
  Beta virt. eigenvalues --    0.52806   0.64493   0.64493   0.69311   0.69312
  Beta virt. eigenvalues --    0.70702   0.77767   0.88827   0.95361   1.04860
  Beta virt. eigenvalues --    1.04861   1.21243   1.21244   1.34599   1.48561
  Beta virt. eigenvalues --    1.48683   1.57847   1.57848   1.59038   1.59039
  Beta virt. eigenvalues --    1.72510   1.72510   1.76523   1.83676   1.83678
  Beta virt. eigenvalues --    1.91730   1.98482   2.12638   2.12640   2.26229
  Beta virt. eigenvalues --    2.26230   2.40510   2.48257   2.48258   2.54356
  Beta virt. eigenvalues --    2.57363   2.57365   2.61760   2.61762   2.63360
  Beta virt. eigenvalues --    2.63361   2.72199   2.87233   2.91094   3.30137
  Beta virt. eigenvalues --    3.74592   3.74594   3.81685   3.81685  23.99326
  Beta virt. eigenvalues --   24.00224
          Condensed to atoms (all electrons):
               1          2          3          4          5          6
     1  C    5.130503   0.241204  -0.023805   0.399663  -0.023805  -0.023798
     2  C    0.241204   5.130503   0.399663  -0.023805   0.399663   0.399660
     3  H   -0.023805   0.399663   0.511025  -0.001248  -0.026528  -0.026526
     4  H    0.399663  -0.023805  -0.001248   0.511026   0.002236  -0.001247
     5  H   -0.023805   0.399663  -0.026528   0.002236   0.511026  -0.026526
     6  H   -0.023798   0.399660  -0.026526  -0.001247  -0.026526   0.511021
     7  H    0.399663  -0.023805   0.002237  -0.026528  -0.001248  -0.001247
     8  H    0.399660  -0.023798  -0.001247  -0.026526  -0.001247   0.002236
               7          8
     1  C    0.399663   0.399660
     2  C   -0.023805  -0.023798
     3  H    0.002237  -0.001247
     4  H   -0.026528  -0.026526
     5  H   -0.001248  -0.001247
     6  H   -0.001247   0.002236
     7  H    0.511025  -0.026526
     8  H   -0.026526   0.511021
          Atomic-Atomic Spin Densities.
               1          2          3          4          5          6
     1  C    0.000000  -0.000000  -0.000000   0.000000   0.000000   0.000000
     2  C   -0.000000  -0.000000   0.000000  -0.000000  -0.000000  -0.000000
     3  H   -0.000000   0.000000  -0.000000   0.000000   0.000000   0.000000
     4  H    0.000000  -0.000000   0.000000  -0.000000   0.000000   0.000000
     5  H    0.000000  -0.000000   0.000000   0.000000   0.000000   0.000000
     6  H    0.000000  -0.000000   0.000000   0.000000   0.000000   0.000000
     7  H   -0.000000   0.000000  -0.000000  -0.000000  -0.000000  -0.000000
     8  H    0.000000  -0.000000   0.000000  -0.000000  -0.000000  -0.000000
               7          8
     1  C   -0.000000   0.000000
     2  C    0.000000  -0.000000
     3  H   -0.000000   0.000000
     4  H   -0.000000  -0.000000
     5  H   -0.000000  -0.000000
     6  H   -0.000000  -0.000000
     7  H    0.000000   0.000000
     8  H    0.000000  -0.000000
 Mulliken charges and spin densities:
               1          2
     1  C   -0.499284   0.000000
     2  C   -0.499285  -0.000000
     3  H    0.166429   0.000000
     4  H    0.166428  -0.000000
     5  H    0.166428   0.000000
     6  H    0.166427   0.000000
     7  H    0.166429  -0.000000
     8  H    0.166427  -0.000000
 Sum of Mulliken charges =  -0.00000  -0.00000
 Mulliken charges and spin densities with hydrogens summed into heavy atoms:
               1          2
     1  C    0.000000   0.000000
     2  C   -0.000000  -0.000000
 Electronic spatial extent (au):  <R**2>=            139.6292
 Charge=             -0.0000 electrons
 Dipole moment (field-independent basis, Debye):
    X=             -0.0000    Y=              0.0000    Z=              0.0000  Tot=              0.0000
 Quadrupole moment (field-independent basis, Debye-Ang):
   XX=            -15.5916   YY=            -14.8698   ZZ=            -14.8696
   XY=             -0.0000   XZ=             -0.0001   YZ=              0.0000
 Traceless Quadrupole moment (field-independent basis, Debye-Ang):
   XX=             -0.4813   YY=              0.2405   ZZ=              0.2407
   XY=             -0.0000   XZ=             -0.0001   YZ=              0.0000
 Octapole moment (field-independent basis, Debye-Ang**2):
  XXX=             -0.0025  YYY=              0.0000  ZZZ=              0.0000  XYY=             -0.0008
  XXY=              0.0000  XXZ=              0.0000  XZZ=             -0.0008  YZZ=             -0.0000
  YYZ=              0.0000  XYZ=             -0.0000
 Hexadecapole moment (field-independent basis, Debye-Ang**3):
 XXXX=           -144.7129 YYYY=            -30.1584 ZZZZ=            -30.1584 XXXY=             -0.0000
 XXXZ=             -0.0011 YYYX=              0.0065 YYYZ=             -0.0000 ZZZX=             -2.2376
 ZZZY=             -0.0000 XXYY=            -26.1165 XXZZ=            -26.1157 YYZZ=            -10.0527
 XXYZ=              0.0000 YYXZ=              2.2372 ZZXY=             -0.0066
 N-N= 3.756843298522D+01 E-N=-2.589489226760D+02  KE= 7.903448305679D+01
                          Isotropic Fermi Contact Couplings
        Atom                 a.u.       MegaHertz       Gauss      10(-4) cm-1
     1  C(13)              0.00000       0.00000       0.00000       0.00000
     2  C(13)              0.00000       0.00000       0.00000       0.00000
     3  H(1)               0.00000       0.00000       0.00000       0.00000
     4  H(1)               0.00000       0.00000       0.00000       0.00000
     5  H(1)               0.00000       0.00000       0.00000       0.00000
     6  H(1)               0.00000       0.00000       0.00000       0.00000
     7  H(1)              -0.00000      -0.00000      -0.00000      -0.00000
     8  H(1)              -0.00000      -0.00000      -0.00000      -0.00000
 --------------------------------------------------------
       Center         ----  Spin Dipole Couplings  ----
                      3XX-RR        3YY-RR        3ZZ-RR
 --------------------------------------------------------
     1   Atom        0.000000      0.000000      0.000000
     2   Atom        0.000000      0.000000      0.000000
     3   Atom        0.000000      0.000000      0.000000
     4   Atom        0.000000      0.000000      0.000000
     5   Atom        0.000000      0.000000      0.000000
     6   Atom        0.000000      0.000000      0.000000
     7   Atom        0.000000      0.000000      0.000000
     8   Atom        0.000000      0.000000      0.000000
 --------------------------------------------------------
                        XY            XZ            YZ
 --------------------------------------------------------
     1   Atom        0.000000      0.000000      0.000000
     2   Atom        0.000000      0.000000      0.000000
     3   Atom        0.000000      0.000000      0.000000
     4   Atom        0.000000      0.000000      0.000000
     5   Atom        0.000000      0.000000      0.000000
     6   Atom        0.000000      0.000000      0.000000
     7   Atom        0.000000      0.000000      0.000000
     8   Atom        0.000000      0.000000      0.000000
 --------------------------------------------------------


 ---------------------------------------------------------------------------------
              Anisotropic Spin Dipole Couplings in Principal Axis System
 ---------------------------------------------------------------------------------

       Atom             a.u.   MegaHertz   Gauss  10(-4) cm-1        Axes

              Baa     0.0000     0.000     0.000     0.000  1.0000  0.0000  0.0000
     1 C(13)  Bbb     0.0000     0.000     0.000     0.000 -0.0000  1.0000  0.0000
              Bcc     0.0000     0.000     0.000     0.000  0.0000  0.0000  1.0000
 
              Baa     0.0000     0.000     0.000     0.000  1.0000  0.0000  0.0000
     2 C(13)  Bbb     0.0000     0.000     0.000     0.000 -0.0000  1.0000  0.0000
              Bcc     0.0000     0.000     0.000     0.000  0.0000  0.0000  1.0000
 
              Baa     0.0000     0.000     0.000     0.000  1.0000  0.0000  0.0000
     3 H(1)   Bbb     0.0000     0.000     0.000     0.000 -0.0000  1.0000  0.0000
              Bcc     0.0000     0.000     0.000     0.000  0.0000  0.0000  1.0000
 
              Baa     0.0000     0.000     0.000     0.000  1.0000  0.0000  0.0000
     4 H(1)   Bbb     0.0000     0.000     0.000     0.000 -0.0000  1.0000  0.0000
              Bcc     0.0000     0.000     0.000     0.000  0.0000  0.0000  1.0000
 
              Baa     0.0000     0.000     0.000     0.000  1.0000  0.0000  0.0000
     5 H(1)   Bbb     0.0000     0.000     0.000     0.000 -0.0000  1.0000  0.0000
              Bcc     0.0000     0.000     0.000     0.000  0.0000  0.0000  1.0000
 
              Baa     0.0000     0.000     0.000     0.000  1.0000  0.0000  0.0000
     6 H(1)   Bbb     0.0000     0.000     0.000     0.000 -0.0000  1.0000  0.0000
              Bcc     0.0000     0.000     0.000     0.000  0.0000  0.0000  1.0000
 
              Baa     0.0000     0.000     0.000     0.000  1.0000  0.0000  0.0000
     7 H(1)   Bbb     0.0000     0.000     0.000     0.000 -0.0000  1.0000  0.0000
              Bcc     0.0000     0.000     0.000     0.000  0.0000  0.0000  1.0000
 
              Baa     0.0000     0.000     0.000     0.000  1.0000  0.0000  0.0000
     8 H(1)   Bbb     0.0000     0.000     0.000     0.000 -0.0000  1.0000  0.0000
              Bcc     0.0000     0.000     0.000     0.000  0.0000  0.0000  1.0000
 

 ---------------------------------------------------------------------------------

 No NMR shielding tensors so no spin-rotation constants.
 Leave Link  601 at Tue Nov 19 12:07:39 2024, MaxMem=  1073741824 cpu:               3.3 elap:               0.2
 (Enter /home/szhao/Apps/g16/l9999.exe)
 1\1\GINC-NODE02\FOpt\UM062X\6-311+G(d,p)\C2H6\SZHAO\19-Nov-2024\0\\#p 
 opt UM062X/6-311+G** nosymm int=superfine\\Title Card Required\\0,1\C,
 -1.03078845,0.,0.\C,1.03089375,0.,0.\H,1.31156048,-0.9070990298,0.5249
 240007\H,-1.3114569753,-0.9081256255,-0.523155527\H,1.3115642471,0.908
 124076,0.5231538125\H,1.3116323739,-0.0010237119,-1.0480141394\H,-1.31
 14546589,0.9070998926,-0.5249235787\H,-1.3115293714,0.0010230528,1.048
 0117159\\Version=ES64L-G16RevA.03\HF=-79.7350051\S2=0.\S2-1=0.\S2A=0.\
 RMSD=9.978e-09\RMSF=1.900e-04\Dipole=-0.0000005,0.,0.0000002\Quadrupol
 e=-0.357818,0.1788387,0.1789793,-0.0000002,-0.0001082,0.0000038\PG=C01
  [X(C2H6)]\\@


 ... FOR AFTERWARDS A MAN FINDS PLEASURE IN HIS PAINS,
 WHEN HE HAS SUFFERED LONG AND WANDERED FAR.

                                    -- HOMER
 Job cpu time:       0 days  0 hours  9 minutes 21.9 seconds.
 Elapsed time:       0 days  0 hours  0 minutes 25.2 seconds.
 File lengths (MBytes):  RWF=     22 Int=      0 D2E=      0 Chk=      3 Scr=      2
 Normal termination of Gaussian 16 at Tue Nov 19 12:07:40 2024.
