Title Card Required                                                     
FOpt      UM062X                                                      6-311+G(d,p)        
Number of atoms                            I                6
Info1-9                                    I   N=           9
          15          15           0           0           0         110
           2          18        -502
Full Title                                 C   N=           2
Title Card Required     
Route                                      C   N=           4
#p opt UM062X/6-311+G** nosymm int=superfine    
Charge                                     I                0
Multiplicity                               I                1
Number of electrons                        I               16
Number of alpha electrons                  I                8
Number of beta electrons                   I                8
Number of basis functions                  I               68
Number of independent functions            I               68
Number of point charges in /Mol/           I                0
Number of translation vectors              I                0
Atomic numbers                             I   N=           6
           6           6           1           1           1           1
Nuclear charges                            R   N=           6
  6.00000000E+00  6.00000000E+00  1.00000000E+00  1.00000000E+00  1.00000000E+00
  1.00000000E+00
Current cartesian coordinates              R   N=          18
 -1.67854636E+00  0.00000000E+00  0.00000000E+00  1.67854636E+00  0.00000000E+00
  0.00000000E+00 -2.61622832E+00 -1.81025173E+00 -2.20181576E-07 -2.61628349E+00
  1.81004925E+00  5.47931531E-09  2.61622832E+00  1.81025159E+00 -1.71559024E-07
  2.61628349E+00 -1.81004911E+00  5.40966254E-08
Number of symbols in /Mol/                 I                0
Force Field                                I                0
Atom Types                                 C   N=           6
                                                            
            
Int Atom Types                             I   N=           6
           0           0           0           0           0           0
MM charges                                 R   N=           6
  0.00000000E+00  0.00000000E+00  0.00000000E+00  0.00000000E+00  0.00000000E+00
  0.00000000E+00
Integer atomic weights                     I   N=           6
          12          12           1           1           1           1
Real atomic weights                        R   N=           6
  1.20000000E+01  1.20000000E+01  1.00782504E+00  1.00782504E+00  1.00782504E+00
  1.00782504E+00
Atom fragment info                         I   N=           6
           0           0           0           0           0           0
Atom residue num                           I   N=           6
           0           0           0           0           0           0
Nuclear spins                              I   N=           6
           0           0           1           1           1           1
Nuclear ZEff                               R   N=           6
 -3.60000000E+00 -3.60000000E+00 -1.00000000E+00 -1.00000000E+00 -1.00000000E+00
 -1.00000000E+00
Nuclear ZNuc                               R   N=           6
  6.00000000E+00  6.00000000E+00  1.00000000E+00  1.00000000E+00  1.00000000E+00
  1.00000000E+00
Nuclear QMom                               R   N=           6
  0.00000000E+00  0.00000000E+00  0.00000000E+00  0.00000000E+00  0.00000000E+00
  0.00000000E+00
Nuclear GFac                               R   N=           6
  0.00000000E+00  0.00000000E+00  2.79284600E+00  2.79284600E+00  2.79284600E+00
  2.79284600E+00
MicOpt                                     I   N=           6
          -2          -2          -1          -1          -1          -1
Number of residues                         I                0
Number of secondary structures             I                0
Redundant internal dimensions              I   N=           4
          20          10           6           4
Redundant internal coordinate indices      I   N=          80
           1          -1           0           0           1          -2
           0           0           1          -3           0           0
           2          -1           0           0           2          -2
           0           0           2          -3           0           0
           1           3           0           0           1           4
           0           0           2           5           0           0
           2           6           0           0           2           1
           3           0           2           1           4           0
           3           1           4           0           1           2
           5           0           1           2           6           0
           5           2           6           0           3           1
           2           5           3           1           2           6
           4           1           2           5           4           1
           2           6
Redundant internal coordinates             R   N=          20
 -1.67854636E+00  0.00000000E+00  0.00000000E+00  1.67854636E+00  0.00000000E+00
  0.00000000E+00  2.03869046E+00  2.03853605E+00  2.03869034E+00  2.03853593E+00
  2.04872764E+00  2.04879735E+00  2.18566032E+00  2.04872767E+00  2.04879739E+00
  2.18566025E+00  3.14159244E+00 -1.51962623E-07 -9.77134485E-08  3.14159262E+00
ZRed-IntVec                                I   N=          20
          -1          -1          -1          -1          -1          -1
           0           0           0           0           0           0
           0           0           0           0           0           0
           0           0
ZRed-FPVec                                 R   N=          20
  0.00000000E+00  0.00000000E+00  0.00000000E+00  0.00000000E+00  0.00000000E+00
  0.00000000E+00  0.00000000E+00  0.00000000E+00  0.00000000E+00  0.00000000E+00
  0.00000000E+00  0.00000000E+00  0.00000000E+00  0.00000000E+00  0.00000000E+00
  0.00000000E+00  0.00000000E+00  0.00000000E+00  0.00000000E+00  0.00000000E+00
ZRed-Constraint1                           R   N=          20
 -1.67854636E+00  0.00000000E+00  0.00000000E+00  1.67854636E+00  0.00000000E+00
  0.00000000E+00  2.26093826E+00  2.26203969E+00  2.26093826E+00  2.26203969E+00
  2.26258707E+00  2.25749921E+00  1.76309903E+00  2.26258707E+00  2.25749921E+00
  1.76309903E+00  3.14159265E+00  0.00000000E+00  0.00000000E+00  3.14159265E+00
ZRed-Constraint2                           R   N=          20
 -1.67854636E+00  0.00000000E+00  0.00000000E+00  1.67854636E+00  0.00000000E+00
  0.00000000E+00  0.00000000E+00  0.00000000E+00  0.00000000E+00  0.00000000E+00
  0.00000000E+00  0.00000000E+00  0.00000000E+00  0.00000000E+00  0.00000000E+00
  0.00000000E+00  0.00000000E+00  0.00000000E+00  0.00000000E+00  0.00000000E+00
Number of contracted shells                I               28
Number of primitive shells                 I               50
Pure/Cartesian d shells                    I                0
Pure/Cartesian f shells                    I                0
Highest angular momentum                   I                2
Largest degree of contraction              I                6
Shell types                                I   N=          28
           0          -1          -1          -1          -1          -2
           0          -1          -1          -1          -1          -2
           0           0           0           1           0           0
           0           1           0           0           0           1
           0           0           0           1
Number of primitives per shell             I   N=          28
           6           3           1           1           1           1
           6           3           1           1           1           1
           3           1           1           1           3           1
           1           1           3           1           1           1
           3           1           1           1
Shell to atom map                          I   N=          28
           1           1           1           1           1           1
           2           2           2           2           2           2
           3           3           3           3           4           4
           4           4           5           5           5           5
           6           6           6           6
Primitive exponents                        R   N=          50
  4.56324000E+03  6.82024000E+02  1.54973000E+02  4.44553000E+01  1.30290000E+01
  1.82773000E+00  2.09642000E+01  4.80331000E+00  1.45933000E+00  4.83456000E-01
  1.45585000E-01  4.38000000E-02  6.26000000E-01  4.56324000E+03  6.82024000E+02
  1.54973000E+02  4.44553000E+01  1.30290000E+01  1.82773000E+00  2.09642000E+01
  4.80331000E+00  1.45933000E+00  4.83456000E-01  1.45585000E-01  4.38000000E-02
  6.26000000E-01  3.38650000E+01  5.09479000E+00  1.15879000E+00  3.25840000E-01
  1.02741000E-01  7.50000000E-01  3.38650000E+01  5.09479000E+00  1.15879000E+00
  3.25840000E-01  1.02741000E-01  7.50000000E-01  3.38650000E+01  5.09479000E+00
  1.15879000E+00  3.25840000E-01  1.02741000E-01  7.50000000E-01  3.38650000E+01
  5.09479000E+00  1.15879000E+00  3.25840000E-01  1.02741000E-01  7.50000000E-01
Contraction coefficients                   R   N=          50
  1.96665025E-03  1.52306019E-02  7.61269097E-02  2.60801033E-01  6.16462078E-01
  2.21006028E-01  1.14660081E-01  9.19999648E-01 -3.03068213E-03  1.00000000E+00
  1.00000000E+00  1.00000000E+00  1.00000000E+00  1.96665025E-03  1.52306019E-02
  7.61269097E-02  2.60801033E-01  6.16462078E-01  2.21006028E-01  1.14660081E-01
  9.19999648E-01 -3.03068213E-03  1.00000000E+00  1.00000000E+00  1.00000000E+00
  1.00000000E+00  2.54938145E-02  1.90373109E-01  8.52161486E-01  1.00000000E+00
  1.00000000E+00  1.00000000E+00  2.54938145E-02  1.90373109E-01  8.52161486E-01
  1.00000000E+00  1.00000000E+00  1.00000000E+00  2.54938145E-02  1.90373109E-01
  8.52161486E-01  1.00000000E+00  1.00000000E+00  1.00000000E+00  2.54938145E-02
  1.90373109E-01  8.52161486E-01  1.00000000E+00  1.00000000E+00  1.00000000E+00
P(S=P) Contraction coefficients            R   N=          50
  0.00000000E+00  0.00000000E+00  0.00000000E+00  0.00000000E+00  0.00000000E+00
  0.00000000E+00  4.02486927E-02  2.37593957E-01  8.15853851E-01  1.00000000E+00
  1.00000000E+00  1.00000000E+00  0.00000000E+00  0.00000000E+00  0.00000000E+00
  0.00000000E+00  0.00000000E+00  0.00000000E+00  0.00000000E+00  4.02486927E-02
  2.37593957E-01  8.15853851E-01  1.00000000E+00  1.00000000E+00  1.00000000E+00
  0.00000000E+00  0.00000000E+00  0.00000000E+00  0.00000000E+00  0.00000000E+00
  0.00000000E+00  0.00000000E+00  0.00000000E+00  0.00000000E+00  0.00000000E+00
  0.00000000E+00  0.00000000E+00  0.00000000E+00  0.00000000E+00  0.00000000E+00
  0.00000000E+00  0.00000000E+00  0.00000000E+00  0.00000000E+00  0.00000000E+00
  0.00000000E+00  0.00000000E+00  0.00000000E+00  0.00000000E+00  0.00000000E+00
Coordinates of each shell                  R   N=          84
 -1.67854636E+00  0.00000000E+00  0.00000000E+00 -1.67854636E+00  0.00000000E+00
  0.00000000E+00 -1.67854636E+00  0.00000000E+00  0.00000000E+00 -1.67854636E+00
  0.00000000E+00  0.00000000E+00 -1.67854636E+00  0.00000000E+00  0.00000000E+00
 -1.67854636E+00  0.00000000E+00  0.00000000E+00  1.67854636E+00  0.00000000E+00
  0.00000000E+00  1.67854636E+00  0.00000000E+00  0.00000000E+00  1.67854636E+00
  0.00000000E+00  0.00000000E+00  1.67854636E+00  0.00000000E+00  0.00000000E+00
  1.67854636E+00  0.00000000E+00  0.00000000E+00  1.67854636E+00  0.00000000E+00
  0.00000000E+00 -2.61622832E+00 -1.81025173E+00 -2.20181576E-07 -2.61622832E+00
 -1.81025173E+00 -2.20181576E-07 -2.61622832E+00 -1.81025173E+00 -2.20181576E-07
 -2.61622832E+00 -1.81025173E+00 -2.20181576E-07 -2.61628349E+00  1.81004925E+00
  5.47931531E-09 -2.61628349E+00  1.81004925E+00  5.47931531E-09 -2.61628349E+00
  1.81004925E+00  5.47931531E-09 -2.61628349E+00  1.81004925E+00  5.47931531E-09
  2.61622832E+00  1.81025159E+00 -1.71559024E-07  2.61622832E+00  1.81025159E+00
 -1.71559024E-07  2.61622832E+00  1.81025159E+00 -1.71559024E-07  2.61622832E+00
  1.81025159E+00 -1.71559024E-07  2.61628349E+00 -1.81004911E+00  5.40966254E-08
  2.61628349E+00 -1.81004911E+00  5.40966254E-08  2.61628349E+00 -1.81004911E+00
  5.40966254E-08  2.61628349E+00 -1.81004911E+00  5.40966254E-08
Num ILSW                                   I              100
ILSW                                       I   N=         100
           1           0           0           1           2           0
           0           0           0           0        4336          -1
           7           0           0           0           2           0
           0           0           0           0           1           0
           1           1           0           0           0           0
           0           0      100000           0          -1           0
           0           0           0           0           0           0
           0           0           0           1           0           0
           0 -2000000000           1           0           0           0
           0           0           4          52           0           0
           0           0          55           0           0           0
           0           0           0           6           0           1
           0           0           0           0           0           0
           0           0           0           0           0           0
           0           0           0           0           0           0
           0           0           0           0           0           0
           0           0           0           0
Num RLSW                                   I               52
RLSW                                       R   N=          52
  1.00000000E+00  1.00000000E+00  1.00000000E+00  1.00000000E+00  5.40000000E-01
  0.00000000E+00  0.00000000E+00  1.00000000E+00  0.00000000E+00  0.00000000E+00
  0.00000000E+00  0.00000000E+00  1.00000000E+00  0.00000000E+00  0.00000000E+00
  0.00000000E+00  0.00000000E+00  1.00000000E+00  0.00000000E+00  0.00000000E+00
  0.00000000E+00  0.00000000E+00  1.00000000E+00  0.00000000E+00  0.00000000E+00
  0.00000000E+00  0.00000000E+00  1.00000000E+00  0.00000000E+00  0.00000000E+00
  0.00000000E+00  0.00000000E+00  1.00000000E+00  0.00000000E+00  0.00000000E+00
  0.00000000E+00  0.00000000E+00  0.00000000E+00  1.00000000E+00  1.00000000E+00
  0.00000000E+00  1.00000000E+00  0.00000000E+00  0.00000000E+00  0.00000000E+00
  0.00000000E+00  0.00000000E+00  0.00000000E+00  0.00000000E+00  0.00000000E+00
  0.00000000E+00  0.00000000E+00
MxBond                                     I                3
NBond                                      I   N=           6
           3           3           1           1           1           1
IBond                                      I   N=          18
           2           3           4           1           5           6
           1           0           0           1           0           0
           2           0           0           2           0           0
RBond                                      R   N=          18
  1.00000000E+00  1.00000000E+00  1.00000000E+00  1.00000000E+00  1.00000000E+00
  1.00000000E+00  1.00000000E+00  0.00000000E+00  0.00000000E+00  1.00000000E+00
  0.00000000E+00  0.00000000E+00  1.00000000E+00  0.00000000E+00  0.00000000E+00
  1.00000000E+00  0.00000000E+00  0.00000000E+00
Virial Ratio                               R      2.011942335783356E+00
SCF Energy                                 R     -7.845137139486327E+01
Total Energy                               R     -7.845137139486327E+01
S**2                                       R     -1.421085471520200E-14
S**2 after annihilation                    R     -9.414691248821286E-14
RMS Force                                  R      6.574481006530060E-05
RMS Density                                R      9.156807758352636E-09
Job Status                                 I                1
Nuclear derivative order                   I                1
External E-field                           R   N=          35
  0.00000000E+00  0.00000000E+00  0.00000000E+00  0.00000000E+00  0.00000000E+00
  0.00000000E+00  0.00000000E+00  0.00000000E+00  0.00000000E+00  0.00000000E+00
  0.00000000E+00  0.00000000E+00  0.00000000E+00  0.00000000E+00  0.00000000E+00
  0.00000000E+00  0.00000000E+00  0.00000000E+00  0.00000000E+00  0.00000000E+00
  0.00000000E+00  0.00000000E+00  0.00000000E+00  0.00000000E+00  0.00000000E+00
  0.00000000E+00  0.00000000E+00  0.00000000E+00  0.00000000E+00  0.00000000E+00
  0.00000000E+00  0.00000000E+00  0.00000000E+00  0.00000000E+00  0.00000000E+00
IOpCl                                      I                1
IROHF                                      I                0
Alpha Orbital Energies                     R   N=          68
 -1.05941053E+01 -1.05938824E+01 -7.91427461E-01 -7.00243968E-01 -5.29809389E-01
 -4.78413357E-01 -4.14223485E-01 -2.78654213E-01 -3.99919547E-02  3.26628302E-02
  3.36757555E-02  5.38449469E-02  7.56437167E-02  8.74082214E-02  9.77275731E-02
  1.16672226E-01  1.55227778E-01  1.64360517E-01  1.66610643E-01  2.10226330E-01
  2.23279199E-01  2.89053010E-01  4.06663722E-01  4.42104550E-01  4.69102345E-01
  5.96819762E-01  6.08076819E-01  6.20100872E-01  6.61504174E-01  6.96521485E-01
  7.05132660E-01  7.40621901E-01  7.74589984E-01  8.34993682E-01  1.07657715E+00
  1.10617799E+00  1.11574938E+00  1.35149596E+00  1.42221197E+00  1.44590936E+00
  1.49936155E+00  1.54410295E+00  1.54837502E+00  1.59398578E+00  1.74199638E+00
  1.87722516E+00  1.90986874E+00  1.93998018E+00  1.94762384E+00  2.01014643E+00
  2.08268549E+00  2.09741699E+00  2.37758052E+00  2.52712223E+00  2.55740085E+00
  2.58211813E+00  2.62342156E+00  2.63601923E+00  2.75006130E+00  2.75457912E+00
  2.77684533E+00  2.83302016E+00  2.85342962E+00  3.73389959E+00  3.78829026E+00
  3.80228924E+00  2.37969378E+01  2.38741469E+01
Beta Orbital Energies                      R   N=          68
 -1.05941053E+01 -1.05938824E+01 -7.91427461E-01 -7.00243968E-01 -5.29809389E-01
 -4.78413357E-01 -4.14223485E-01 -2.78654213E-01 -3.99919547E-02  3.26628302E-02
  3.36757555E-02  5.38449469E-02  7.56437167E-02  8.74082214E-02  9.77275731E-02
  1.16672226E-01  1.55227778E-01  1.64360517E-01  1.66610643E-01  2.10226330E-01
  2.23279199E-01  2.89053010E-01  4.06663722E-01  4.42104550E-01  4.69102345E-01
  5.96819762E-01  6.08076819E-01  6.20100872E-01  6.61504174E-01  6.96521485E-01
  7.05132660E-01  7.40621901E-01  7.74589984E-01  8.34993682E-01  1.07657715E+00
  1.10617799E+00  1.11574938E+00  1.35149596E+00  1.42221197E+00  1.44590936E+00
  1.49936155E+00  1.54410295E+00  1.54837502E+00  1.59398578E+00  1.74199638E+00
  1.87722516E+00  1.90986874E+00  1.93998018E+00  1.94762384E+00  2.01014643E+00
  2.08268549E+00  2.09741699E+00  2.37758052E+00  2.52712223E+00  2.55740085E+00
  2.58211813E+00  2.62342156E+00  2.63601923E+00  2.75006130E+00  2.75457912E+00
  2.77684533E+00  2.83302016E+00  2.85342962E+00  3.73389959E+00  3.78829026E+00
  3.80228924E+00  2.37969378E+01  2.38741469E+01
Alpha MO coefficients                      R   N=        4624
  3.98949314E-01  3.28019624E-01  3.39195059E-04 -6.02621465E-08  3.62874621E-11
  8.32293815E-03 -1.42885030E-03  8.68506928E-07 -1.94046397E-10 -2.02663801E-03
 -9.13322384E-05  8.93426258E-08  7.67226876E-12 -5.76957700E-04  5.08303803E-04
 -3.80517757E-07  4.15091246E-11 -8.32216219E-04  7.38925925E-11  1.63043285E-10
 -9.60479882E-04 -4.15441409E-07  3.98989641E-01  3.28052789E-01 -3.39219909E-04
  6.02682179E-08  4.43492125E-11  8.32376048E-03  1.42902408E-03 -8.68590631E-07
 -1.16820644E-10 -2.02700927E-03  9.14004881E-05 -8.93366874E-08  1.34963685E-11
 -5.76796204E-04 -5.08421030E-04  3.80529235E-07  6.53198130E-12 -8.32296971E-04
 -4.57802015E-11 -1.63073610E-10 -9.60577042E-04 -4.15480034E-07  1.30326411E-04
 -2.40640216E-03  1.53101632E-03 -7.24203272E-04 -1.30634524E-03 -1.58472592E-10
  1.30135459E-04 -2.40800974E-03  1.53208520E-03 -7.24630384E-04  1.30692732E-03
 -2.07718848E-12  1.30338145E-04 -2.40662099E-03  1.53118245E-03  7.24267185E-04
  1.30647466E-03 -1.21129766E-10  1.30147171E-04 -2.40822870E-03  1.53225142E-03
  7.24694337E-04 -1.30705679E-03  3.52980410E-11  3.99006438E-01  3.28140747E-01
  2.45373519E-04 -5.80968480E-08  3.55666237E-11  8.12750298E-03 -1.71218686E-03
  8.01192541E-07 -1.86465760E-10 -3.67888152E-03 -6.78580164E-04 -5.64405576E-08
  2.66261963E-11  1.62533769E-03  1.16668413E-03 -1.09351793E-07  6.24486900E-11
 -7.96628844E-04  7.07505608E-11  1.38422347E-10 -9.59181269E-04 -3.74141740E-07
 -3.98966113E-01 -3.28107591E-01  2.45339237E-04 -5.80909680E-08 -4.57527291E-11
 -8.12666258E-03 -1.71204297E-03  8.01107427E-07  1.12092193E-10  3.67867660E-03
 -6.78570907E-04 -5.64495559E-08 -1.91232177E-11 -1.62539572E-03  1.16663279E-03
 -1.09314156E-07 -4.61556705E-11  7.96544925E-04  4.19594864E-11  1.38420698E-10
  9.59084275E-04  3.74100463E-07  1.17075651E-04 -2.15629904E-03  1.63744953E-03
 -6.30215399E-04 -1.27748313E-03 -1.58995885E-10  1.16864289E-04 -2.15759956E-03
  1.63829689E-03 -6.30602833E-04  1.27802040E-03 -1.25032927E-12 -1.17062383E-04
  2.15605648E-03 -1.63729513E-03 -6.30142358E-04 -1.27735135E-03  1.21538588E-10
 -1.16851040E-04  2.15735684E-03 -1.63814238E-03 -6.30529750E-04  1.27788856E-03
 -3.62054939E-11 -7.92111904E-02 -1.27642864E-01  2.06277692E-03  6.78744777E-06
 -2.79289256E-09  3.40046321E-01  1.11789400E-02  6.17998340E-06 -3.60068487E-09
  2.26064625E-01  3.40123568E-03  2.02295048E-06 -1.54219151E-09  2.30905565E-03
 -4.94616704E-03  1.20259229E-06 -2.35423976E-10 -9.42072340E-03  4.35680481E-10
  8.85204700E-10  1.95163430E-03 -1.04027191E-06 -7.92112177E-02 -1.27642907E-01
 -2.06275417E-03 -6.78747963E-06 -1.62877879E-09  3.40046439E-01 -1.11789097E-02
 -6.18001496E-06 -1.94393474E-09  2.26064694E-01 -3.40122104E-03 -2.02296410E-06
 -1.00186680E-09  2.30905724E-03  4.94616783E-03 -1.20259315E-06 -1.74184443E-11
 -9.42072520E-03 -3.29703419E-10 -8.85191106E-10  1.95163132E-03 -1.04027124E-06
  6.82758039E-02  7.77555511E-02  3.05297767E-03  4.97368700E-03  1.04035879E-02
  1.10863255E-09  6.82895401E-02  7.77692046E-02  3.05120426E-03  4.97558361E-03
 -1.04048724E-02 -1.54616542E-10  6.82758393E-02  7.77555897E-02  3.05297857E-03
 -4.97368884E-03 -1.04035929E-02  8.84687634E-10  6.82895756E-02  7.77692433E-02
  3.05120516E-03 -4.97558545E-03  1.04048773E-02 -3.78583083E-10 -7.24339853E-02
 -1.17059373E-01 -5.70393850E-02  1.37305027E-05 -4.05995671E-09  3.16990300E-01
 -8.33645583E-02  1.54453344E-05 -5.39772881E-09  2.25613292E-01 -3.96343361E-02
  6.35332498E-06 -2.45327931E-09 -3.23803829E-02 -1.37371087E-02  1.33362167E-07
 -3.30070586E-10 -6.15322402E-03  9.02431034E-10  1.28257705E-09 -9.67327059E-03
 -1.52950513E-06  7.24339569E-02  1.17059327E-01 -5.70394021E-02  1.37305376E-05
  1.93965228E-09 -3.16990176E-01 -8.33645840E-02  1.54453716E-05  2.34724453E-09
 -2.25613193E-01 -3.96343476E-02  6.35334427E-06  1.23263892E-09  3.23803843E-02
 -1.37371065E-02  1.33362985E-07  2.61125322E-10  6.15322037E-03  6.57829544E-10
  1.28268938E-09  9.67327191E-03  1.52950775E-06  8.70879461E-02  1.05581499E-01
  1.35863270E-02  3.36635003E-03  1.24297805E-02  1.38503189E-09  8.71132444E-02
  1.05607550E-01  1.35883784E-02  3.36880542E-03 -1.24323615E-02 -2.16083648E-10
 -8.70879306E-02 -1.05581476E-01 -1.35863249E-02  3.36634822E-03  1.24297780E-02
 -1.14682184E-09 -8.71132289E-02 -1.05607528E-01 -1.35883763E-02  3.36880361E-03
 -1.24323590E-02  4.54401184E-10  5.11806606E-06  8.57332642E-06  5.34703461E-07
  1.47314029E-01  7.09681799E-09 -2.47582323E-05  3.89894268E-06  2.07606798E-01
  9.53144241E-09 -3.06827461E-05  2.80423489E-06  1.23690623E-01  5.54353715E-09
  1.77296803E-06  1.91708585E-06  4.63481000E-03  4.14386692E-10  4.32621948E-07
 -1.05568108E-09 -1.79832096E-09  1.60065612E-06 -7.24590611E-03 -5.11807760E-06
 -8.57334601E-06  5.34686063E-07  1.47314117E-01 -7.09668364E-09  2.47582908E-05
  3.89892174E-06  2.07606913E-01 -9.53132430E-09  3.06828280E-05  2.80422755E-06
  1.23690691E-01 -5.54326157E-09 -1.77296063E-06  1.91708974E-06  4.63481369E-03
 -4.14397378E-10 -4.32622198E-07 -1.05571467E-09 -9.28077506E-10 -1.60065035E-06
  7.24591900E-03 -1.04087110E-01 -1.42193100E-01 -3.99584297E-02 -7.57996518E-03
 -9.32804849E-03 -1.73079866E-09  1.04075238E-01  1.42170847E-01  3.99521769E-02
  7.58083601E-03 -9.32558155E-03  2.81520663E-10  1.04087175E-01  1.42193186E-01
  3.99584557E-02 -7.57997046E-03 -9.32805362E-03  1.25614977E-09 -1.04075303E-01
 -1.42170932E-01 -3.99522029E-02  7.58084129E-03 -9.32558668E-03  1.93149435E-10
  3.37159986E-06  5.78718234E-06 -3.49773614E-05  1.50118583E-01  1.19740261E-08
 -1.72270760E-05 -5.04239192E-05  2.08185363E-01  1.73833050E-08 -2.67359652E-05
 -3.03842494E-05  1.34053097E-01  1.09159912E-08 -1.89052085E-06 -2.24887771E-07
  1.28141699E-02  4.56216024E-10  3.71487850E-07 -4.92811819E-10 -1.91281686E-09
 -1.83528992E-06 -2.24634189E-02  3.37160710E-06  5.78719475E-06  3.49773478E-05
 -1.50118511E-01  1.19745049E-08 -1.72271138E-05  5.04238954E-05 -2.08185255E-01
  1.73836180E-08 -2.67360219E-05  3.03842293E-05 -1.34053023E-01  1.09164994E-08
 -1.89052204E-06  2.24882369E-07 -1.28141646E-02  4.56127832E-10  3.71488109E-07
  4.92883642E-10  8.75532747E-10 -1.83529316E-06 -2.24634171E-02 -1.13568836E-01
 -1.63050412E-01 -5.77937382E-02 -7.88816363E-03 -8.61574425E-03 -1.31450484E-09
  1.13588097E-01  1.63071561E-01  5.78009917E-02  7.88749071E-03 -8.61714305E-03
  6.04327298E-10 -1.13568784E-01 -1.63050334E-01 -5.77937138E-02  7.88816059E-03
  8.61573935E-03 -8.58616944E-10  1.13588045E-01  1.63071483E-01  5.78009673E-02
 -7.88748766E-03  8.61713815E-03  1.48429000E-10 -1.19132522E-02 -1.99701473E-02
  1.77906816E-01  2.64458012E-05  8.28261977E-09  5.81190032E-02  2.71841258E-01
  4.00787180E-05  1.22554599E-08  7.22708564E-02  1.90243207E-01  2.85432268E-05
  8.90806490E-09 -4.90704448E-04  1.03459476E-02  3.70293703E-06  8.26226126E-10
 -5.13328854E-04 -7.06191695E-10 -8.39915328E-10  1.46526445E-02 -3.53646721E-06
 -1.19132585E-02 -1.99701577E-02 -1.77906819E-01 -2.64457870E-05  5.39100230E-09
  5.81190337E-02 -2.71841261E-01 -4.00787034E-05  8.42554504E-09  7.22708991E-02
 -1.90243213E-01 -2.85432184E-05  5.61765475E-09 -4.90701657E-04 -1.03459467E-02
 -3.70293719E-06  2.58284336E-10 -5.13328299E-04  7.67854933E-12  8.39687760E-10
  1.46526419E-02 -3.53646761E-06 -6.23511872E-02 -9.46725562E-02 -4.36523412E-02
  5.85167287E-03 -8.94698113E-03 -6.46458000E-10 -6.23166061E-02 -9.46156874E-02
 -4.36242604E-02  5.85399343E-03  8.94575185E-03  5.33667783E-10 -6.23511832E-02
 -9.46725470E-02 -4.36523360E-02 -5.85167349E-03  8.94698119E-03 -5.57646481E-10
 -6.23166022E-02 -9.46156781E-02 -4.36242552E-02 -5.85399406E-03 -8.94575191E-03
  6.22341563E-10 -2.16096454E-09 -3.59796914E-09 -9.12498275E-09 -1.35036119E-08
  1.70941199E-01  1.05852449E-08 -1.44776331E-08 -2.01772772E-08  2.70047139E-01
  1.53445050E-08 -1.33092808E-08 -1.66451529E-08  2.85947036E-01 -3.57022860E-09
 -5.09031979E-09 -4.36755282E-09  5.01929843E-02 -3.80236869E-10  1.17851167E-02
  3.21647253E-07 -1.00320396E-10  1.44779268E-09 -5.64386146E-10 -9.29138433E-10
  8.34473229E-09  1.35033769E-08  1.70941210E-01  2.64661012E-09  1.28428709E-08
  2.01778456E-08  2.70047157E-01  5.49077343E-09  1.12597891E-08  1.66451345E-08
  2.85947052E-01  4.98950102E-09  1.62809242E-09  4.36722853E-09  5.01929864E-02
 -6.98885683E-11 -1.17851152E-02 -3.21649477E-07 -9.39194013E-11  1.44814413E-09
  1.87938044E-09  6.00347391E-09  7.51612135E-09 -8.52681884E-10 -8.85277187E-10
  1.38531601E-02 -5.06553713E-09 -9.28361976E-09 -5.70874305E-09 -1.02923910E-09
 -2.77655450E-10  1.38544812E-02  3.38410608E-09  8.01757498E-09  7.94819691E-09
  6.28354133E-10  5.82683025E-10  1.38531615E-02 -3.56080914E-09 -7.26774333E-09
 -5.27831343E-09  8.04531921E-10  5.80908312E-10  1.38544826E-02 -3.70067473E-09
 -6.18764505E-09 -3.20800109E-09 -9.11479799E-09  1.80757352E-01  1.78050299E-08
 -5.38765392E-09 -1.43096440E-08  2.77463723E-01  3.65217048E-08 -1.10121679E-08
 -2.26721751E-08  3.84427932E-01 -3.54651528E-08 -1.80921568E-08 -1.45308028E-08
  3.60284569E-01 -9.11297689E-11 -2.06636876E-02  2.87004388E-07  4.29809762E-10
 -1.21703149E-09  2.74313482E-09  4.58532814E-09  6.95364900E-10 -9.11451719E-09
 -1.80757348E-01 -1.34796274E-08  1.14891573E-09 -1.43082412E-08 -2.77463718E-01
 -2.38949068E-08 -3.04636992E-09 -2.26700809E-08 -3.84427918E-01  4.19636866E-08
 -1.14611187E-08 -1.45331244E-08 -3.60284552E-01 -2.05256156E-10 -2.06636910E-02
  2.87005996E-07 -1.22863206E-10  1.21750344E-09 -8.88794050E-09 -1.72235326E-08
 -1.63400340E-08 -6.76888847E-11 -1.89463352E-09  1.94147142E-02 -2.18572645E-09
 -4.47709129E-09  2.56582612E-09 -6.55570072E-10 -6.13813710E-10  1.94165060E-02
  6.88590234E-09  1.33542427E-08  1.29279514E-08  3.68604660E-10 -1.61499484E-09
 -1.94147145E-02  1.83475683E-10  6.11435101E-10 -5.98035885E-09 -2.19663734E-10
 -8.92666574E-10 -1.94165063E-02 -2.94424732E-02 -5.01127098E-02  2.11592487E-02
 -1.38933346E-06 -2.82777870E-09  1.56819948E-01  4.16177280E-02  3.66295226E-06
 -5.03418131E-09  2.56395627E-01 -3.34150177E-02 -1.15724465E-05 -9.07423264E-09
  3.80819731E+00  2.20006205E+00 -2.24106507E-05  3.31019293E-08  2.57451305E-03
  4.42089445E-10  7.31987563E-10 -1.58206149E-02 -2.19109246E-06  2.94425496E-02
  5.01128395E-02  2.11591154E-02 -1.38935912E-06  2.06970082E-09 -1.56820306E-01
  4.16175266E-02  3.66298470E-06  3.40260865E-09 -2.56396933E-01 -3.34154645E-02