 Entering Gaussian System, Link 0=g16
 Initial command:
 /home/szhao/Apps/g16/l1.exe "/home/szhao/tmp/Gau-191288.inp" -scrdir="/home/szhao/tmp/"
 Default is to use a total of  16 processors:
                               16 via shared-memory
                                1 via Linda
 Entering Link 1 = /home/szhao/Apps/g16/l1.exe PID=    191301.
  
 Copyright (c) 1988,1990,1992,1993,1995,1998,2003,2009,2016,
            Gaussian, Inc.  All Rights Reserved.
  
 This is part of the Gaussian(R) 16 program.  It is based on
 the Gaussian(R) 09 system (copyright 2009, Gaussian, Inc.),
 the Gaussian(R) 03 system (copyright 2003, Gaussian, Inc.),
 the Gaussian(R) 98 system (copyright 1998, Gaussian, Inc.),
 the Gaussian(R) 94 system (copyright 1995, Gaussian, Inc.),
 the Gaussian 92(TM) system (copyright 1992, Gaussian, Inc.),
 the Gaussian 90(TM) system (copyright 1990, Gaussian, Inc.),
 the Gaussian 88(TM) system (copyright 1988, Gaussian, Inc.),
 the Gaussian 86(TM) system (copyright 1986, Carnegie Mellon
 University), and the Gaussian 82(TM) system (copyright 1983,
 Carnegie Mellon University). Gaussian is a federally registered
 trademark of Gaussian, Inc.
  
 This software contains proprietary and confidential information,
 including trade secrets, belonging to Gaussian, Inc.
  
 This software is provided under written license and may be
 used, copied, transmitted, or stored only in accord with that
 written license.
  
 The following legend is applicable only to US Government
 contracts under FAR:
  
                    RESTRICTED RIGHTS LEGEND
  
 Use, reproduction and disclosure by the US Government is
 subject to restrictions as set forth in subparagraphs (a)
 and (c) of the Commercial Computer Software - Restricted
 Rights clause in FAR 52.227-19.
  
 Gaussian, Inc.
 340 Quinnipiac St., Bldg. 40, Wallingford CT 06492
  
  
 ---------------------------------------------------------------
 Warning -- This program may not be used in any manner that
 competes with the business of Gaussian, Inc. or will provide
 assistance to any competitor of Gaussian, Inc.  The licensee
 of this program is prohibited from giving any competitor of
 Gaussian, Inc. access to this program.  By using this program,
 the user acknowledges that Gaussian, Inc. is engaged in the
 business of creating and licensing software in the field of
 computational chemistry and represents and warrants to the
 licensee that it is not a competitor of Gaussian, Inc. and that
 it will not use this program in any manner prohibited above.
 ---------------------------------------------------------------
  

 Cite this work as:
 Gaussian 16, Revision A.03,
 M. J. Frisch, G. W. Trucks, H. B. Schlegel, G. E. Scuseria, 
 M. A. Robb, J. R. Cheeseman, G. Scalmani, V. Barone, 
 G. A. Petersson, H. Nakatsuji, X. Li, M. Caricato, A. V. Marenich, 
 J. Bloino, B. G. Janesko, R. Gomperts, B. Mennucci, H. P. Hratchian, 
 J. V. Ortiz, A. F. Izmaylov, J. L. Sonnenberg, D. Williams-Young, 
 F. Ding, F. Lipparini, F. Egidi, J. Goings, B. Peng, A. Petrone, 
 T. Henderson, D. Ranasinghe, V. G. Zakrzewski, J. Gao, N. Rega, 
 G. Zheng, W. Liang, M. Hada, M. Ehara, K. Toyota, R. Fukuda, 
 J. Hasegawa, M. Ishida, T. Nakajima, Y. Honda, O. Kitao, H. Nakai, 
 T. Vreven, K. Throssell, J. A. Montgomery, Jr., J. E. Peralta, 
 F. Ogliaro, M. J. Bearpark, J. J. Heyd, E. N. Brothers, K. N. Kudin, 
 V. N. Staroverov, T. A. Keith, R. Kobayashi, J. Normand, 
 K. Raghavachari, A. P. Rendell, J. C. Burant, S. S. Iyengar, 
 J. Tomasi, M. Cossi, J. M. Millam, M. Klene, C. Adamo, R. Cammi, 
 J. W. Ochterski, R. L. Martin, K. Morokuma, O. Farkas, 
 J. B. Foresman, and D. J. Fox, Gaussian, Inc., Wallingford CT, 2016.
 
 ******************************************
 Gaussian 16:  ES64L-G16RevA.03 25-Dec-2016
                21-Apr-2025 
 ******************************************
 %chk=opt.chk
 %mem=4GB
 %nprocshared=8
 Will use up to    8 processors via shared memory.
 --------------------------------------------
 #p opt UM062X/6-311+G** nosymm int=superfine
 --------------------------------------------
 1/18=20,19=15,26=5,38=1/1,3;
 2/9=110,12=2,15=1,17=6,18=5,40=1/2;
 3/5=4,6=6,7=111,11=2,25=1,30=1,71=1,74=-55,75=-7,116=2/1,2,3;
 4//1;
 5/5=2,38=5/2;
 6/7=2,8=2,9=2,10=2,28=1/1;
 7/30=1/1,2,3,16;
 1/18=20,19=15,26=5/3(2);
 2/9=110,15=1/2;
 99//99;
 2/9=110,15=1/2;
 3/5=4,6=6,7=111,11=2,25=1,30=1,71=1,74=-55,75=-7,116=2/1,2,3;
 4/5=5,16=3,69=1/1;
 5/5=2,38=5/2;
 7/30=1/1,2,3,16;
 1/18=20,19=15,26=5/3(-5);
 2/9=110,15=1/2;
 6/7=2,8=2,9=2,10=2,19=2,28=1/1;
 99/9=1/99;
 Leave Link    1 at Mon Apr 21 19:03:04 2025, MaxMem=   536870912 cpu:               1.7 elap:               0.2
 (Enter /home/szhao/Apps/g16/l101.exe)
 -------------------
 Title Card Required
 -------------------
 Symbolic Z-matrix:
 Charge =  0 Multiplicity = 1
 C                    -1   -1.50626   0.        0. 
 P                    -1    1.50626   0.        0. 
 H                    0     1.68635  -1.40534   0. 
 H                    0    -1.8564    1.01301   0.20044 
 H                    0     1.68635   0.10934   1.40108 
 H                    0    -1.85641  -0.27857  -0.99437 
 H                    0    -1.94171  -0.67759   0.73247 
 
 Add virtual bond connecting atoms P2         and C1         Dist= 5.69D+00.
 ITRead=  2  2  0  0  0  0  0
 MicOpt= -2 -2 -1 -1 -1 -1 -1
 NAtoms=      7 NQM=        5 NQMF=       2 NMMI=      0 NMMIF=      0
                NMic=       0 NMicF=      0.
                    Isotopes and Nuclear Properties:
 (Nuclear quadrupole moments (NQMom) in fm**2, nuclear magnetic moments (NMagM)
  in nuclear magnetons)

  Atom         1           2           3           4           5           6           7
 IAtWgt=          12          31           1           1           1           1           1
 AtmWgt=  12.0000000  30.9737634   1.0078250   1.0078250   1.0078250   1.0078250   1.0078250
 NucSpn=           0           1           1           1           1           1           1
 AtZEff=  -0.0000000  -0.0000000  -0.0000000  -0.0000000  -0.0000000  -0.0000000  -0.0000000
 NQMom=    0.0000000   0.0000000   0.0000000   0.0000000   0.0000000   0.0000000   0.0000000
 NMagM=    0.0000000   1.1316000   2.7928460   2.7928460   2.7928460   2.7928460   2.7928460
 AtZNuc=   6.0000000  15.0000000   1.0000000   1.0000000   1.0000000   1.0000000   1.0000000
 Leave Link  101 at Mon Apr 21 19:03:05 2025, MaxMem=   536870912 cpu:               3.4 elap:               0.5
 (Enter /home/szhao/Apps/g16/l103.exe)

 GradGradGradGradGradGradGradGradGradGradGradGradGradGradGradGradGradGrad
 Berny optimization.
 Initialization pass.
                           ----------------------------
                           !    Initial Parameters    !
                           ! (Angstroms and Degrees)  !
 --------------------------                            --------------------------
 ! Name  Definition              Value          Derivative Info.                !
 --------------------------------------------------------------------------------
 ! X1    R(1,-1)                -1.5063         Frozen                          !
 ! Y1    R(1,-2)                 0.0            Frozen                          !
 ! Z1    R(1,-3)                 0.0            Frozen                          !
 ! X2    R(2,-1)                 1.5063         Frozen                          !
 ! Y2    R(2,-2)                 0.0            Frozen                          !
 ! Z2    R(2,-3)                 0.0            Frozen                          !
 ! R1    R(1,4)                  1.0904         estimate D2E/DX2                !
 ! R2    R(1,6)                  1.0904         estimate D2E/DX2                !
 ! R3    R(1,7)                  1.0887         estimate D2E/DX2                !
 ! R4    R(2,3)                  1.4168         estimate D2E/DX2                !
 ! R5    R(2,5)                  1.4168         estimate D2E/DX2                !
 ! A1    A(2,1,4)              108.7301         estimate D2E/DX2                !
 ! A2    A(2,1,6)              108.7303         estimate D2E/DX2                !
 ! A3    A(2,1,7)              113.5765         estimate D2E/DX2                !
 ! A4    A(4,1,6)              107.5695         estimate D2E/DX2                !
 ! A5    A(4,1,7)              109.0326         estimate D2E/DX2                !
 ! A6    A(6,1,7)              109.0325         estimate D2E/DX2                !
 ! A7    A(1,2,3)               97.3022         estimate D2E/DX2                !
 ! A8    A(1,2,5)               97.3022         estimate D2E/DX2                !
 ! A9    A(3,2,5)               93.4621         estimate D2E/DX2                !
 ! D1    D(4,1,2,3)            168.8076         estimate D2E/DX2                !
 ! D2    D(4,1,2,5)             74.3454         estimate D2E/DX2                !
 ! D3    D(6,1,2,3)            -74.3502         estimate D2E/DX2                !
 ! D4    D(6,1,2,5)           -168.8124         estimate D2E/DX2                !
 ! D5    D(7,1,2,3)             47.2287         estimate D2E/DX2                !
 ! D6    D(7,1,2,5)            -47.2335         estimate D2E/DX2                !
 --------------------------------------------------------------------------------
 Trust Radius=3.00D-01 FncErr=1.00D-07 GrdErr=1.00D-07 EigMax=2.50D+02 EigMin=1.00D-04
 Number of steps in this run=     36 maximum allowed number of steps=    100.
 GradGradGradGradGradGradGradGradGradGradGradGradGradGradGradGradGradGrad

 Leave Link  103 at Mon Apr 21 19:03:05 2025, MaxMem=   536870912 cpu:               0.1 elap:               0.1
 (Enter /home/szhao/Apps/g16/l202.exe)
                          Input orientation:                          
 ---------------------------------------------------------------------
 Center     Atomic      Atomic             Coordinates (Angstroms)
 Number     Number       Type             X           Y           Z
 ---------------------------------------------------------------------
      1          6           0       -1.506264    0.000000    0.000000
      2         15           0        1.506264    0.000000    0.000000
      3          1           0        1.686347   -1.405338    0.000000
      4          1           0       -1.856403    1.013014    0.200443
      5          1           0        1.686347    0.109336    1.401080
      6          1           0       -1.856406   -0.278565   -0.994372
      7          1           0       -1.941711   -0.677591    0.732467
 ---------------------------------------------------------------------
                    Distance matrix (angstroms):
                    1          2          3          4          5
     1  C    0.000000
     2  P    3.012527   0.000000
     3  H    3.488228   1.416829   0.000000
     4  H    1.090400   3.517656   4.294145   0.000000
     5  H    3.488229   1.416831   2.063313   3.848278   0.000000
     6  H    1.090401   3.517658   3.848310   1.759477   4.294153
     7  H    1.088692   3.589452   3.772125   1.774393   3.772148
                    6          7
     6  H    0.000000
     7  H    1.774393   0.000000
 Symmetry turned off by external request.
 Stoichiometry    CH5P
 Framework group  C1[X(CH5P)]
 Deg. of freedom    15
 Full point group                 C1      NOp   1
 Rotational constants (GHZ):          72.1149636           4.9088743           4.8897528
 Leave Link  202 at Mon Apr 21 19:03:05 2025, MaxMem=   536870912 cpu:               0.1 elap:               0.1
 (Enter /home/szhao/Apps/g16/l301.exe)
 Standard basis: 6-311+G(d,p) (5D, 7F)
 Ernie: Thresh=  0.10000D-02 Tol=  0.10000D-05 Strict=F.
    82 basis functions,   126 primitive gaussians,    84 cartesian basis functions
    13 alpha electrons       13 beta electrons
       nuclear repulsion energy        46.2547916957 Hartrees.
 IExCor= 4336 DFT=T Ex+Corr=M062X ExCW=0 ScaHFX=  0.540000
 ScaDFX=  1.000000  1.000000  1.000000  1.000000 ScalE2=  1.000000  1.000000
 IRadAn=      7 IRanWt=     -1 IRanGd=            0 ICorTp=0 IEmpDi=  4
 NAtoms=    7 NActive=    7 NUniq=    7 SFac= 1.00D+00 NAtFMM=   60 NAOKFM=F Big=F
 Integral buffers will be    131072 words long.
 Raffenetti 2 integral format.
 Two-electron integral symmetry is turned off.
 Leave Link  301 at Mon Apr 21 19:03:05 2025, MaxMem=   536870912 cpu:               0.7 elap:               0.1
 (Enter /home/szhao/Apps/g16/l302.exe)
 NPDir=0 NMtPBC=     1 NCelOv=     1 NCel=       1 NClECP=     1 NCelD=      1
         NCelK=      1 NCelE2=     1 NClLst=     1 CellRange=     0.0.
 One-electron integrals computed using PRISM.
 NBasis=    82 RedAO= T EigKep=  3.69D-03  NBF=    82
 NBsUse=    82 1.00D-06 EigRej= -1.00D+00 NBFU=    82
 Precomputing XC quadrature grid using
 IXCGrd= 4 IRadAn=           7 IRanWt=          -1 IRanGd=           0 AccXCQ= 0.00D+00.
 Generated NRdTot=       0 NPtTot=           0 NUsed=           0 NTot=          32
 NSgBfM=    84    84    84    84    84 MxSgAt=     7 MxSgA2=     7.
 Leave Link  302 at Mon Apr 21 19:03:06 2025, MaxMem=   536870912 cpu:               2.2 elap:               0.3
 (Enter /home/szhao/Apps/g16/l303.exe)
 DipDrv:  MaxL=1.
 Leave Link  303 at Mon Apr 21 19:03:06 2025, MaxMem=   536870912 cpu:               0.5 elap:               0.1
 (Enter /home/szhao/Apps/g16/l401.exe)
 ExpMin= 3.48D-02 ExpMax= 7.75D+04 ExpMxC= 2.65D+03 IAcc=3 IRadAn=         7 AccDes= 0.00D+00
 Harris functional with IExCor= 1009 and IRadAn=       7 diagonalized for initial guess.
 HarFok:  IExCor= 1009 AccDes= 0.00D+00 IRadAn=         7 IDoV= 1 UseB2=F ITyADJ=14
 ICtDFT=  3500011 ScaDFX=  1.000000  1.000000  1.000000  1.000000
 FoFCou: FMM=F IPFlag=           0 FMFlag=      100000 FMFlg1=           0
         NFxFlg=           0 DoJE=T BraDBF=F KetDBF=T FulRan=T
         wScrn=  0.000000 ICntrl=       500 IOpCl=  0 I1Cent=   200000004 NGrid=           0
         NMat0=    1 NMatS0=      1 NMatT0=    0 NMatD0=    1 NMtDS0=    0 NMtDT0=    0
 Symmetry not used in FoFCou.
 Harris En= -382.199837362187    
 JPrj=0 DoOrth=F DoCkMO=F.
 Initial guess <Sx>= 0.0000 <Sy>= 0.0000 <Sz>= 0.0000 <S**2>= 0.0000 S= 0.0000
 Leave Link  401 at Mon Apr 21 19:03:07 2025, MaxMem=   536870912 cpu:               3.8 elap:               0.5
 (Enter /home/szhao/Apps/g16/l502.exe)
 Keep R1 and R2 ints in memory in canonical form, NReq=18891869.
 FoFCou: FMM=F IPFlag=           0 FMFlag=           0 FMFlg1=           0
         NFxFlg=           0 DoJE=F BraDBF=F KetDBF=F FulRan=T
         wScrn=  0.000000 ICntrl=       600 IOpCl=  0 I1Cent=           0 NGrid=           0
         NMat0=    1 NMatS0=   3403 NMatT0=    0 NMatD0=    1 NMtDS0=    0 NMtDT0=    0
 Symmetry not used in FoFCou.
 Two-electron integral symmetry not used.
 UHF open shell SCF:
 Using DIIS extrapolation, IDIIS=  1040.
 NGot=   536870912 LenX=   525271507 LenY=   525264010
 Requested convergence on RMS density matrix=1.00D-08 within 128 cycles.
 Requested convergence on MAX density matrix=1.00D-06.
 Requested convergence on             energy=1.00D-06.
 No special actions if energy rises.

 Cycle   1  Pass 1  IDiag  1:
 E= -382.076255732580    
 DIIS: error= 5.11D-02 at cycle   1 NSaved=   1.
 NSaved= 1 IEnMin= 1 EnMin= -382.076255732580     IErMin= 1 ErrMin= 5.11D-02
 ErrMax= 5.11D-02  0.00D+00 EMaxC= 1.00D-01 BMatC= 7.73D-01 BMatP= 7.73D-01
 IDIUse=3 WtCom= 4.89D-01 WtEn= 5.11D-01
 Coeff-Com:  0.100D+01
 Coeff-En:   0.100D+01
 Coeff:      0.100D+01
 Gap=     0.117 Goal=   None    Shift=    0.000
 Gap=     0.117 Goal=   None    Shift=    0.000
 GapD=    0.117 DampG=1.000 DampE=0.500 DampFc=0.5000 IDamp=-1.
 Damping current iteration by 5.00D-01
 RMSDP=9.35D-03 MaxDP=2.86D-01              OVMax= 7.63D-01

 Cycle   2  Pass 1  IDiag  1:
 E= -382.155083677407     Delta-E=       -0.078827944826 Rises=F Damp=T
 DIIS: error= 1.48D-02 at cycle   2 NSaved=   2.
 NSaved= 2 IEnMin= 2 EnMin= -382.155083677407     IErMin= 2 ErrMin= 1.48D-02
 ErrMax= 1.48D-02  0.00D+00 EMaxC= 1.00D-01 BMatC= 8.40D-02 BMatP= 7.73D-01
 IDIUse=3 WtCom= 8.52D-01 WtEn= 1.48D-01
 Coeff-Com:  0.166D+00 0.834D+00
 Coeff-En:   0.328D+00 0.672D+00
 Coeff:      0.190D+00 0.810D+00
 Gap=     0.446 Goal=   None    Shift=    0.000
 Gap=     0.446 Goal=   None    Shift=    0.000
 RMSDP=3.13D-03 MaxDP=6.71D-02 DE=-7.88D-02 OVMax= 5.27D-01

 Cycle   3  Pass 1  IDiag  1:
 E= -382.299907525611     Delta-E=       -0.144823848205 Rises=F Damp=F
 DIIS: error= 5.23D-03 at cycle   3 NSaved=   3.
 NSaved= 3 IEnMin= 3 EnMin= -382.299907525611     IErMin= 3 ErrMin= 5.23D-03
 ErrMax= 5.23D-03  0.00D+00 EMaxC= 1.00D-01 BMatC= 8.80D-03 BMatP= 8.40D-02
 IDIUse=3 WtCom= 9.48D-01 WtEn= 5.23D-02
 Coeff-Com: -0.979D-02 0.185D+00 0.825D+00
 Coeff-En:   0.000D+00 0.000D+00 0.100D+01
 Coeff:     -0.928D-02 0.175D+00 0.834D+00
 Gap=     0.184 Goal=   None    Shift=    0.000
 Gap=     0.184 Goal=   None    Shift=    0.000
 RMSDP=1.18D-03 MaxDP=3.20D-02 DE=-1.45D-01 OVMax= 8.93D-02

 Cycle   4  Pass 1  IDiag  1:
 E= -382.303394255205     Delta-E=       -0.003486729594 Rises=F Damp=F
 DIIS: error= 3.15D-03 at cycle   4 NSaved=   4.
 NSaved= 4 IEnMin= 4 EnMin= -382.303394255205     IErMin= 4 ErrMin= 3.15D-03
 ErrMax= 3.15D-03  0.00D+00 EMaxC= 1.00D-01 BMatC= 4.14D-03 BMatP= 8.80D-03
 IDIUse=3 WtCom= 9.69D-01 WtEn= 3.15D-02
 Coeff-Com:  0.188D-01-0.458D-01 0.291D+00 0.736D+00
 Coeff-En:   0.000D+00 0.000D+00 0.206D+00 0.794D+00
 Coeff:      0.182D-01-0.444D-01 0.288D+00 0.738D+00
 Gap=     0.195 Goal=   None    Shift=    0.000
 Gap=     0.195 Goal=   None    Shift=    0.000
 RMSDP=3.87D-04 MaxDP=9.79D-03 DE=-3.49D-03 OVMax= 2.09D-02

 Cycle   5  Pass 1  IDiag  1:
 E= -382.304869886271     Delta-E=       -0.001475631065 Rises=F Damp=F
 DIIS: error= 7.87D-04 at cycle   5 NSaved=   5.
 NSaved= 5 IEnMin= 5 EnMin= -382.304869886271     IErMin= 5 ErrMin= 7.87D-04
 ErrMax= 7.87D-04  0.00D+00 EMaxC= 1.00D-01 BMatC= 1.57D-04 BMatP= 4.14D-03
 IDIUse=3 WtCom= 9.92D-01 WtEn= 7.87D-03
 Coeff-Com:  0.657D-02-0.238D-01 0.181D-01 0.902D-02 0.990D+00
 Coeff-En:   0.000D+00 0.000D+00 0.000D+00 0.000D+00 0.100D+01
 Coeff:      0.652D-02-0.237D-01 0.180D-01 0.895D-02 0.990D+00
 Gap=     0.195 Goal=   None    Shift=    0.000
 Gap=     0.195 Goal=   None    Shift=    0.000
 RMSDP=1.06D-04 MaxDP=1.12D-03 DE=-1.48D-03 OVMax= 4.37D-03

 Cycle   6  Pass 1  IDiag  1:
 E= -382.304931937719     Delta-E=       -0.000062051448 Rises=F Damp=F
 DIIS: error= 1.07D-04 at cycle   6 NSaved=   6.
 NSaved= 6 IEnMin= 6 EnMin= -382.304931937719     IErMin= 6 ErrMin= 1.07D-04
 ErrMax= 1.07D-04  0.00D+00 EMaxC= 1.00D-01 BMatC= 7.12D-06 BMatP= 1.57D-04
 IDIUse=3 WtCom= 9.99D-01 WtEn= 1.07D-03
 Coeff-Com: -0.900D-04 0.296D-03-0.893D-02-0.681D-01 0.183D+00 0.894D+00
 Coeff-En:   0.000D+00 0.000D+00 0.000D+00 0.000D+00 0.000D+00 0.100D+01
 Coeff:     -0.899D-04 0.296D-03-0.892D-02-0.680D-01 0.183D+00 0.894D+00
 Gap=     0.194 Goal=   None    Shift=    0.000
 Gap=     0.194 Goal=   None    Shift=    0.000
 RMSDP=3.09D-05 MaxDP=6.90D-04 DE=-6.21D-05 OVMax= 1.86D-03

 Cycle   7  Pass 1  IDiag  1:
 E= -382.304935678620     Delta-E=       -0.000003740901 Rises=F Damp=F
 DIIS: error= 2.60D-05 at cycle   7 NSaved=   7.
 NSaved= 7 IEnMin= 7 EnMin= -382.304935678620     IErMin= 7 ErrMin= 2.60D-05
 ErrMax= 2.60D-05  0.00D+00 EMaxC= 1.00D-01 BMatC= 3.55D-07 BMatP= 7.12D-06
 IDIUse=1 WtCom= 1.00D+00 WtEn= 0.00D+00
 Coeff-Com: -0.430D-03 0.153D-02 0.442D-03 0.724D-02-0.105D+00-0.122D+00
 Coeff-Com:  0.122D+01
 Coeff:     -0.430D-03 0.153D-02 0.442D-03 0.724D-02-0.105D+00-0.122D+00
 Coeff:      0.122D+01
 Gap=     0.194 Goal=   None    Shift=    0.000
 Gap=     0.194 Goal=   None    Shift=    0.000
 RMSDP=1.34D-05 MaxDP=1.73D-04 DE=-3.74D-06 OVMax= 8.73D-04

 Cycle   8  Pass 1  IDiag  1:
 E= -382.304936119943     Delta-E=       -0.000000441324 Rises=F Damp=F
 DIIS: error= 5.70D-06 at cycle   8 NSaved=   8.
 NSaved= 8 IEnMin= 8 EnMin= -382.304936119943     IErMin= 8 ErrMin= 5.70D-06
 ErrMax= 5.70D-06  0.00D+00 EMaxC= 1.00D-01 BMatC= 1.32D-08 BMatP= 3.55D-07
 IDIUse=1 WtCom= 1.00D+00 WtEn= 0.00D+00
 Coeff-Com: -0.443D-04 0.139D-03 0.196D-03 0.354D-02-0.126D-01-0.481D-01
 Coeff-Com:  0.468D-01 0.101D+01
 Coeff:     -0.443D-04 0.139D-03 0.196D-03 0.354D-02-0.126D-01-0.481D-01
 Coeff:      0.468D-01 0.101D+01
 Gap=     0.194 Goal=   None    Shift=    0.000
 Gap=     0.194 Goal=   None    Shift=    0.000
 RMSDP=2.38D-06 MaxDP=3.41D-05 DE=-4.41D-07 OVMax= 1.56D-04

 Cycle   9  Pass 1  IDiag  1:
 E= -382.304936134625     Delta-E=       -0.000000014682 Rises=F Damp=F
 DIIS: error= 2.47D-06 at cycle   9 NSaved=   9.
 NSaved= 9 IEnMin= 9 EnMin= -382.304936134625     IErMin= 9 ErrMin= 2.47D-06
 ErrMax= 2.47D-06  0.00D+00 EMaxC= 1.00D-01 BMatC= 2.01D-09 BMatP= 1.32D-08
 IDIUse=1 WtCom= 1.00D+00 WtEn= 0.00D+00
 Coeff-Com: -0.505D-05-0.112D-04-0.109D-03-0.273D-03 0.480D-02 0.846D-02
 Coeff-Com: -0.830D-01 0.842D-01 0.986D+00
 Coeff:     -0.505D-05-0.112D-04-0.109D-03-0.273D-03 0.480D-02 0.846D-02
 Coeff:     -0.830D-01 0.842D-01 0.986D+00
 Gap=     0.194 Goal=   None    Shift=    0.000
 Gap=     0.194 Goal=   None    Shift=    0.000
 RMSDP=5.16D-07 MaxDP=5.60D-06 DE=-1.47D-08 OVMax= 2.52D-05

 Cycle  10  Pass 1  IDiag  1:
 E= -382.304936135666     Delta-E=       -0.000000001041 Rises=F Damp=F
 DIIS: error= 1.79D-07 at cycle  10 NSaved=  10.
 NSaved=10 IEnMin=10 EnMin= -382.304936135666     IErMin=10 ErrMin= 1.79D-07
 ErrMax= 1.79D-07  0.00D+00 EMaxC= 1.00D-01 BMatC= 1.08D-11 BMatP= 2.01D-09
 IDIUse=1 WtCom= 1.00D+00 WtEn= 0.00D+00
 Coeff-Com: -0.427D-06-0.146D-05-0.800D-05-0.679D-04 0.227D-03 0.823D-03
 Coeff-Com:  0.323D-03-0.194D-01-0.128D-01 0.103D+01
 Coeff:     -0.427D-06-0.146D-05-0.800D-05-0.679D-04 0.227D-03 0.823D-03
 Coeff:      0.323D-03-0.194D-01-0.128D-01 0.103D+01
 Gap=     0.194 Goal=   None    Shift=    0.000
 Gap=     0.194 Goal=   None    Shift=    0.000
 RMSDP=7.63D-08 MaxDP=1.22D-06 DE=-1.04D-09 OVMax= 2.33D-06

 Cycle  11  Pass 1  IDiag  1:
 E= -382.304936135674     Delta-E=       -0.000000000008 Rises=F Damp=F
 DIIS: error= 6.44D-08 at cycle  11 NSaved=  11.
 NSaved=11 IEnMin=11 EnMin= -382.304936135674     IErMin=11 ErrMin= 6.44D-08
 ErrMax= 6.44D-08  0.00D+00 EMaxC= 1.00D-01 BMatC= 1.42D-12 BMatP= 1.08D-11
 IDIUse=1 WtCom= 1.00D+00 WtEn= 0.00D+00
 Coeff-Com: -0.493D-06 0.132D-05 0.243D-05-0.418D-07-0.133D-03-0.183D-03
 Coeff-Com:  0.262D-02-0.632D-02-0.380D-01 0.157D+00 0.885D+00
 Coeff:     -0.493D-06 0.132D-05 0.243D-05-0.418D-07-0.133D-03-0.183D-03
 Coeff:      0.262D-02-0.632D-02-0.380D-01 0.157D+00 0.885D+00
 Gap=     0.194 Goal=   None    Shift=    0.000
 Gap=     0.194 Goal=   None    Shift=    0.000
 RMSDP=1.42D-08 MaxDP=1.76D-07 DE=-7.96D-12 OVMax= 4.72D-07

 Cycle  12  Pass 1  IDiag  1:
 E= -382.304936135675     Delta-E=       -0.000000000001 Rises=F Damp=F
 DIIS: error= 9.26D-09 at cycle  12 NSaved=  12.
 NSaved=12 IEnMin=12 EnMin= -382.304936135675     IErMin=12 ErrMin= 9.26D-09
 ErrMax= 9.26D-09  0.00D+00 EMaxC= 1.00D-01 BMatC= 3.47D-14 BMatP= 1.42D-12
 IDIUse=1 WtCom= 1.00D+00 WtEn= 0.00D+00
 Coeff-Com:  0.201D-07-0.375D-07-0.738D-06 0.145D-05 0.719D-05-0.189D-05
 Coeff-Com: -0.149D-03 0.110D-02 0.220D-02-0.492D-01-0.455D-01 0.109D+01
 Coeff:      0.201D-07-0.375D-07-0.738D-06 0.145D-05 0.719D-05-0.189D-05
 Coeff:     -0.149D-03 0.110D-02 0.220D-02-0.492D-01-0.455D-01 0.109D+01
 Gap=     0.194 Goal=   None    Shift=    0.000
 Gap=     0.194 Goal=   None    Shift=    0.000
 RMSDP=3.28D-09 MaxDP=5.47D-08 DE=-5.68D-13 OVMax= 9.80D-08

 SCF Done:  E(UM062X) =  -382.304936136     A.U. after   12 cycles
            NFock= 12  Conv=0.33D-08     -V/T= 2.0024
 <Sx>= 0.0000 <Sy>= 0.0000 <Sz>= 0.0000 <S**2>=-0.0000 S=-0.0000
 <L.S>=  0.00000000000    
 KE= 3.813720924974D+02 PE=-9.989431364571D+02 EE= 1.890113161283D+02
 Annihilation of the first spin contaminant:
 S**2 before annihilation    -0.0000,   after     0.0000
 Leave Link  502 at Mon Apr 21 19:03:18 2025, MaxMem=   536870912 cpu:              88.7 elap:              11.7
 (Enter /home/szhao/Apps/g16/l601.exe)
 Copying SCF densities to generalized density rwf, IOpCl= 1 IROHF=0.

 **********************************************************************

            Population analysis using the SCF density.

 **********************************************************************

 Alpha  occ. eigenvalues --  -78.04535 -10.57092  -6.86828  -4.98378  -4.98276
 Alpha  occ. eigenvalues --   -4.98077  -0.77038  -0.70362  -0.46920  -0.46616
 Alpha  occ. eigenvalues --   -0.44706  -0.35512  -0.28044
 Alpha virt. eigenvalues --   -0.08595   0.01894   0.03840   0.04066   0.04798
 Alpha virt. eigenvalues --    0.06501   0.06551   0.07393   0.07614   0.13124
 Alpha virt. eigenvalues --    0.16566   0.18694   0.19378   0.25788   0.29933
 Alpha virt. eigenvalues --    0.30397   0.33542   0.38366   0.42819   0.44987
 Alpha virt. eigenvalues --    0.45349   0.53416   0.61881   0.63150   0.63498
 Alpha virt. eigenvalues --    0.64823   0.69427   0.69850   0.76088   0.85030
 Alpha virt. eigenvalues --    0.91213   0.96450   1.07381   1.07827   1.38138
 Alpha virt. eigenvalues --    1.38264   1.44645   1.49454   1.50301   1.50999
 Alpha virt. eigenvalues --    1.57180   1.57221   1.62234   1.66492   1.68411
 Alpha virt. eigenvalues --    1.71375   1.71946   2.01770   2.04108   2.12513
 Alpha virt. eigenvalues --    2.19202   2.19769   2.40303   2.48353   2.48851
 Alpha virt. eigenvalues --    2.55261   2.55328   2.58149   2.65511   2.74521
 Alpha virt. eigenvalues --    3.02557   3.75299   3.77415   7.04452  14.00943
 Alpha virt. eigenvalues --   14.03944  14.04517  23.96123 163.32304
  Beta  occ. eigenvalues --  -78.04535 -10.57092  -6.86828  -4.98378  -4.98276
  Beta  occ. eigenvalues --   -4.98077  -0.77038  -0.70362  -0.46920  -0.46616
  Beta  occ. eigenvalues --   -0.44706  -0.35512  -0.28044
  Beta virt. eigenvalues --   -0.08595   0.01894   0.03840   0.04066   0.04798
  Beta virt. eigenvalues --    0.06501   0.06551   0.07393   0.07614   0.13124
  Beta virt. eigenvalues --    0.16566   0.18694   0.19378   0.25788   0.29933
  Beta virt. eigenvalues --    0.30397   0.33542   0.38366   0.42819   0.44987
  Beta virt. eigenvalues --    0.45349   0.53416   0.61881   0.63150   0.63498
  Beta virt. eigenvalues --    0.64823   0.69427   0.69850   0.76088   0.85030
  Beta virt. eigenvalues --    0.91213   0.96450   1.07381   1.07827   1.38138
  Beta virt. eigenvalues --    1.38264   1.44645   1.49454   1.50301   1.50999
  Beta virt. eigenvalues --    1.57180   1.57221   1.62234   1.66492   1.68411
  Beta virt. eigenvalues --    1.71375   1.71946   2.01770   2.04108   2.12513
  Beta virt. eigenvalues --    2.19202   2.19769   2.40303   2.48353   2.48851
  Beta virt. eigenvalues --    2.55261   2.55328   2.58149   2.65511   2.74521
  Beta virt. eigenvalues --    3.02557   3.75299   3.77415   7.04452  14.00943
  Beta virt. eigenvalues --   14.03944  14.04517  23.96123 163.32304
          Condensed to atoms (all electrons):
               1          2          3          4          5          6
     1  C    5.200210   0.198559  -0.010934   0.385550  -0.010934   0.385551
     2  P    0.198559  14.276935   0.269964  -0.007103   0.269967  -0.007103
     3  H   -0.010934   0.269964   0.756930   0.000241  -0.026206   0.000051
     4  H    0.385550  -0.007103   0.000241   0.514885   0.000051  -0.030809
     5  H   -0.010934   0.269967  -0.026206   0.000051   0.756931   0.000241
     6  H    0.385551  -0.007103   0.000051  -0.030809   0.000241   0.514885
     7  H    0.383681  -0.011792   0.000288  -0.029479   0.000288  -0.029479
               7
     1  C    0.383681
     2  P   -0.011792
     3  H    0.000288
     4  H   -0.029479
     5  H    0.000288
     6  H   -0.029479
     7  H    0.518039
          Atomic-Atomic Spin Densities.
               1          2          3          4          5          6
     1  C   -0.000000  -0.000000   0.000000   0.000000   0.000000   0.000000
     2  P   -0.000000   0.000000  -0.000000   0.000000  -0.000000   0.000000
     3  H    0.000000  -0.000000   0.000000  -0.000000   0.000000  -0.000000
     4  H    0.000000   0.000000  -0.000000   0.000000   0.000000   0.000000
     5  H    0.000000  -0.000000   0.000000   0.000000   0.000000  -0.000000
     6  H    0.000000   0.000000  -0.000000   0.000000  -0.000000   0.000000
     7  H    0.000000   0.000000  -0.000000   0.000000  -0.000000   0.000000
               7
     1  C    0.000000
     2  P    0.000000
     3  H   -0.000000
     4  H    0.000000
     5  H   -0.000000
     6  H    0.000000
     7  H    0.000000
 Mulliken charges and spin densities:
               1          2
     1  C   -0.531683  -0.000000
     2  P    0.010574   0.000000
     3  H    0.009666   0.000000
     4  H    0.166663   0.000000
     5  H    0.009663  -0.000000
     6  H    0.166663   0.000000
     7  H    0.168454   0.000000
 Sum of Mulliken charges =  -0.00000   0.00000
 Mulliken charges and spin densities with hydrogens summed into heavy atoms:
               1          2
     1  C   -0.029903  -0.000000
     2  P    0.029903   0.000000
 Electronic spatial extent (au):  <R**2>=            302.3710
 Charge=             -0.0000 electrons
 Dipole moment (field-independent basis, Debye):
    X=             -0.3319    Y=             -0.5074    Z=              0.5486  Tot=              0.8176
 Quadrupole moment (field-independent basis, Debye-Ang):
   XX=            -20.0120   YY=            -22.5880   ZZ=            -22.7163
   XY=             -1.3422   XZ=              1.4510   YZ=              0.8217
 Traceless Quadrupole moment (field-independent basis, Debye-Ang):
   XX=              1.7601   YY=             -0.8159   ZZ=             -0.9442
   XY=             -1.3422   XZ=              1.4510   YZ=              0.8217
 Octapole moment (field-independent basis, Debye-Ang**2):
  XXX=            -31.4692  YYY=              3.2892  ZZZ=             -3.3899  XYY=            -10.5834
  XXY=             -1.7886  XXZ=              1.9335  XZZ=            -10.7997  YZZ=              0.3356
  YYZ=             -0.5288  XYZ=              1.3863
 Hexadecapole moment (field-independent basis, Debye-Ang**3):
 XXXX=           -356.9798 YYYY=            -47.9657 ZZZZ=            -48.3397 XXXY=             -0.6064
 XXXZ=              0.6555 YYYX=              2.5035 YYYZ=              1.1305 ZZZX=             -3.0608
 ZZZY=              1.2653 XXYY=            -65.8704 XXZZ=            -66.1948 YYZZ=            -16.6233
 XXYZ=              2.0783 YYXZ=             -2.3032 ZZXY=              2.4581
 N-N= 4.625479169570D+01 E-N=-9.989431368278D+02  KE= 3.813720924974D+02
                          Isotropic Fermi Contact Couplings
        Atom                 a.u.       MegaHertz       Gauss      10(-4) cm-1
     1  C(13)              0.00000       0.00000       0.00000       0.00000
     2  P(31)              0.00000       0.00000       0.00000       0.00000
     3  H(1)               0.00000       0.00000       0.00000       0.00000
     4  H(1)               0.00000       0.00000       0.00000       0.00000
     5  H(1)               0.00000       0.00000       0.00000       0.00000
     6  H(1)               0.00000       0.00000       0.00000       0.00000
     7  H(1)               0.00000       0.00000       0.00000       0.00000
 --------------------------------------------------------
       Center         ----  Spin Dipole Couplings  ----
                      3XX-RR        3YY-RR        3ZZ-RR
 --------------------------------------------------------
     1   Atom        0.000000      0.000000      0.000000
     2   Atom        0.000000      0.000000      0.000000
     3   Atom        0.000000      0.000000      0.000000
     4   Atom        0.000000      0.000000      0.000000
     5   Atom        0.000000      0.000000      0.000000
     6   Atom        0.000000      0.000000      0.000000
     7   Atom        0.000000      0.000000      0.000000
 --------------------------------------------------------
                        XY            XZ            YZ
 --------------------------------------------------------
     1   Atom        0.000000      0.000000      0.000000
     2   Atom        0.000000      0.000000      0.000000
     3   Atom        0.000000      0.000000      0.000000
     4   Atom        0.000000      0.000000      0.000000
     5   Atom        0.000000      0.000000      0.000000
     6   Atom        0.000000      0.000000      0.000000
     7   Atom        0.000000      0.000000      0.000000
 --------------------------------------------------------


 ---------------------------------------------------------------------------------
              Anisotropic Spin Dipole Couplings in Principal Axis System
 ---------------------------------------------------------------------------------

       Atom             a.u.   MegaHertz   Gauss  10(-4) cm-1        Axes

              Baa     0.0000     0.000     0.000     0.000  1.0000  0.0000  0.0000
     1 C(13)  Bbb     0.0000     0.000     0.000     0.000 -0.0000  1.0000  0.0000
              Bcc     0.0000     0.000     0.000     0.000  0.0000  0.0000  1.0000
 
              Baa     0.0000     0.000     0.000     0.000  1.0000  0.0000  0.0000
     2 P(31)  Bbb     0.0000     0.000     0.000     0.000 -0.0000  1.0000  0.0000
              Bcc     0.0000     0.000     0.000     0.000  0.0000  0.0000  1.0000
 
              Baa     0.0000     0.000     0.000     0.000  1.0000  0.0000  0.0000
     3 H(1)   Bbb     0.0000     0.000     0.000     0.000 -0.0000  1.0000  0.0000
              Bcc     0.0000     0.000     0.000     0.000  0.0000  0.0000  1.0000
 
              Baa     0.0000     0.000     0.000     0.000  1.0000  0.0000  0.0000
     4 H(1)   Bbb     0.0000     0.000     0.000     0.000 -0.0000  1.0000  0.0000
              Bcc     0.0000     0.000     0.000     0.000  0.0000  0.0000  1.0000
 
              Baa     0.0000     0.000     0.000     0.000  1.0000  0.0000  0.0000
     5 H(1)   Bbb     0.0000     0.000     0.000     0.000 -0.0000  1.0000  0.0000
              Bcc     0.0000     0.000     0.000     0.000  0.0000  0.0000  1.0000
 
              Baa     0.0000     0.000     0.000     0.000  1.0000  0.0000  0.0000
     6 H(1)   Bbb     0.0000     0.000     0.000     0.000 -0.0000  1.0000  0.0000
              Bcc     0.0000     0.000     0.000     0.000  0.0000  0.0000  1.0000
 
              Baa     0.0000     0.000     0.000     0.000  1.0000  0.0000  0.0000
     7 H(1)   Bbb     0.0000     0.000     0.000     0.000 -0.0000  1.0000  0.0000
              Bcc     0.0000     0.000     0.000     0.000  0.0000  0.0000  1.0000
 

 ---------------------------------------------------------------------------------

 No NMR shielding tensors so no spin-rotation constants.
 Leave Link  601 at Mon Apr 21 19:03:19 2025, MaxMem=   536870912 cpu:               1.2 elap:               0.2
 (Enter /home/szhao/Apps/g16/l701.exe)
 ... and contract with generalized density number  0.
 Compute integral first derivatives.
 Leave Link  701 at Mon Apr 21 19:03:20 2025, MaxMem=   536870912 cpu:               1.0 elap:               0.2
 (Enter /home/szhao/Apps/g16/l702.exe)
 L702 exits ... SP integral derivatives will be done elsewhere.
 Leave Link  702 at Mon Apr 21 19:03:20 2025, MaxMem=   536870912 cpu:               0.4 elap:               0.1
 (Enter /home/szhao/Apps/g16/l703.exe)
 Integral derivatives from FoFJK, PRISM(SPDF).
 Compute integral first derivatives, UseDBF=F ICtDFT=           0.
 Calling FoFJK, ICntrl=      2127 FMM=F ISym2X=0 I1Cent= 0 IOpClX= 1 NMat=1 NMatS=1 NMatT=0.
 FoFJK:  IHMeth= 1 ICntrl=    2127 DoSepK=F KAlg= 0 I1Cent=           0 FoldK=F
 IRaf=         0 NMat=       1 IRICut=       1 DoRegI=T DoRafI=F ISym2E= 0 IDoP0=0 IntGTp=1.
 FoFCou: FMM=F IPFlag=           0 FMFlag=      100000 FMFlg1=         800
         NFxFlg=           0 DoJE=F BraDBF=F KetDBF=F FulRan=T
         wScrn=  0.000000 ICntrl=      2127 IOpCl=  1 I1Cent=           0 NGrid=           0
         NMat0=    1 NMatS0=      1 NMatT0=    0 NMatD0=    1 NMtDS0=    0 NMtDT0=    0
 Symmetry not used in FoFCou.
 Leave Link  703 at Mon Apr 21 19:03:21 2025, MaxMem=   536870912 cpu:              11.7 elap:               1.5
 (Enter /home/szhao/Apps/g16/l716.exe)
 Dipole        =-1.30564759D-01-1.99637618D-01 2.15824799D-01
 -------------------------------------------------------------------
 Center     Atomic                   Forces (Hartrees/Bohr)
 Number     Number              X              Y              Z
 -------------------------------------------------------------------
      1        6          -0.000000000   -0.000000000   -0.000000000
      2       15          -0.000000000   -0.000000000   -0.000000000
      3        1          -0.003920808   -0.001080627    0.001731014
      4        1           0.015406349    0.003466676    0.002776830
      5        1          -0.003922101   -0.001659794    0.001208245
      6        1           0.015407083   -0.003036028   -0.003242455
      7        1           0.014242927   -0.003953542    0.004273125
 -------------------------------------------------------------------
 Cartesian Forces:  Max     0.015407083 RMS     0.006133744
 Leave Link  716 at Mon Apr 21 19:03:22 2025, MaxMem=   536870912 cpu:               0.7 elap:               0.2
 (Enter /home/szhao/Apps/g16/l103.exe)

 GradGradGradGradGradGradGradGradGradGradGradGradGradGradGradGradGradGrad
 Berny optimization.
 FormGI is forming the generalized inverse of G from B-inverse, IUseBI=4.
 Internal  Forces:  Max     0.045056360 RMS     0.012282010
 Search for a local minimum.
 Step number   1 out of a maximum of   36
 All quantities printed in internal units (Hartrees-Bohrs-Radians)
 RMS Force = .94301D-02 SwitMx=.10000D-02 MixMth= 1
 Mixed Optimization -- RFO/linear search
 Second derivative matrix not updated -- first step.
 ITU=  0
     Eigenvalues ---    0.00230   0.06270   0.06704   0.07377   0.16000
     Eigenvalues ---    0.16000   0.16000   0.16000   0.16000   0.21118
     Eigenvalues ---    0.21118   0.34766   0.34766   0.349641000.00000
     Eigenvalues --- 1000.000001000.000001000.000001000.000001000.00000
     Eigenvalues --- 1000.000001000.000001000.000001000.000001000.00000
     Eigenvalues --- 1000.00000
 RFO step:  Lambda=-1.06487966D-02 EMin= 2.30000000D-03
 Linear search not attempted -- first point.
 Iteration  1 RMS(Cart)=  0.08270799 RMS(Int)=  0.00484831
 Iteration  2 RMS(Cart)=  0.00486881 RMS(Int)=  0.00260151
 Iteration  3 RMS(Cart)=  0.00003407 RMS(Int)=  0.00260142
 Iteration  4 RMS(Cart)=  0.00000029 RMS(Int)=  0.00260142
 ITry= 1 IFail=0 DXMaxC= 1.90D-01 DCOld= 1.00D+10 DXMaxT= 3.00D-01 DXLimC= 3.00D+00 Rises=F
 Variable       Old X    -DE/DX   Delta X   Delta X   Delta X     New X
                                 (Linear)    (Quad)   (Total)
    X1       -2.84643   0.04506   0.00000   0.00000   0.00000  -2.84643
    Y1        0.00000  -0.00164   0.00000   0.00000   0.00000   0.00000
    Z1        0.00000   0.00177   0.00000   0.00000   0.00000   0.00000
    X2        2.84643  -0.00784   0.00000   0.00000   0.00000   2.84643
    Y2        0.00000  -0.00462   0.00000   0.00000   0.00000   0.00000
    Z2        0.00000   0.00498   0.00000   0.00000   0.00000   0.00000
    R1        2.06056  -0.00122   0.00000  -0.00339  -0.00339   2.05716
    R2        2.06056  -0.00121   0.00000  -0.00339  -0.00339   2.05717
    R3        2.05733  -0.00036   0.00000  -0.00100  -0.00100   2.05633
    R4        2.67742   0.00057   0.00000   0.00259   0.00259   2.68000
    R5        2.67742   0.00057   0.00000   0.00256   0.00256   2.67998
    A1        1.89770  -0.01594   0.00000  -0.09129  -0.09576   1.80194
    A2        1.89770  -0.01594   0.00000  -0.09130  -0.09577   1.80193
    A3        1.98228  -0.01506   0.00000  -0.09285  -0.09769   1.88459
    A4        1.87744   0.01676   0.00000   0.10817   0.10318   1.98062
    A5        1.90298   0.01591   0.00000   0.08884   0.08288   1.98586
    A6        1.90298   0.01591   0.00000   0.08884   0.08288   1.98586
    A7        1.69824  -0.01079   0.00000  -0.06627  -0.06646   1.63178
    A8        1.69824  -0.01079   0.00000  -0.06628  -0.06647   1.63177
    A9        1.63122  -0.00005   0.00000  -0.02275  -0.02585   1.60537
    D1        2.94625  -0.00271   0.00000  -0.03460  -0.03325   2.91300
    D2        1.29757   0.00034   0.00000   0.00691   0.00620   1.30377
    D3       -1.29766  -0.00033   0.00000  -0.00645  -0.00574  -1.30340
    D4       -2.94633   0.00271   0.00000   0.03506   0.03371  -2.91262
    D5        0.82430  -0.00152   0.00000  -0.02053  -0.01949   0.80480
    D6       -0.82438   0.00153   0.00000   0.02098   0.01995  -0.80443
         Item               Value     Threshold  Converged?
 Maximum Force            0.016760     0.000450     NO 
 RMS     Force            0.009430     0.000300     NO 
 Maximum Displacement     0.190416     0.001800     NO 
 RMS     Displacement     0.085138     0.001200     NO 
 Predicted change in Energy=-5.633402D-03
 Lowest energy point so far.  Saving SCF results.
 GradGradGradGradGradGradGradGradGradGradGradGradGradGradGradGradGradGrad

 Leave Link  103 at Mon Apr 21 19:03:22 2025, MaxMem=   536870912 cpu:               0.7 elap:               0.1
 (Enter /home/szhao/Apps/g16/l202.exe)
                          Input orientation:                          
 ---------------------------------------------------------------------
 Center     Atomic      Atomic             Coordinates (Angstroms)
 Number     Number       Type             X           Y           Z
 ---------------------------------------------------------------------
      1          6           0       -1.506264    0.000000    0.000000
      2         15           0        1.506264    0.000000    0.000000
      3          1           0        1.592695   -1.415285    0.027935
      4          1           0       -1.755651    1.036626    0.219710
      5          1           0        1.592681    0.082292    1.413157
      6          1           0       -1.755642   -0.300102   -1.016274
      7          1           0       -1.842150   -0.702675    0.759951
 ---------------------------------------------------------------------
                    Distance matrix (angstroms):
                    1          2          3          4          5
     1  C    0.000000
     2  P    3.012527   0.000000
     3  H    3.406957   1.418197   0.000000
     4  H    1.088604   3.429716   4.154524   0.000000
     5  H    3.406940   1.418186   2.039994   3.680543   0.000000
     6  H    1.088606   3.429708   3.680403   1.820576   4.154470
     7  H    1.088162   3.504732   3.583549   1.823323   3.583422
                    6          7
     6  H    0.000000
     7  H    1.823327   0.000000
 Symmetry turned off by external request.
 Stoichiometry    CH5P
 Framework group  C1[X(CH5P)]
 Deg. of freedom    15
 Full point group                 C1      NOp   1
 Rotational constants (GHZ):          69.6288067           4.9902511           4.9766692
 Leave Link  202 at Mon Apr 21 19:03:22 2025, MaxMem=   536870912 cpu:               0.1 elap:               0.1
 (Enter /home/szhao/Apps/g16/l301.exe)
 Standard basis: 6-311+G(d,p) (5D, 7F)
 Ernie: Thresh=  0.10000D-02 Tol=  0.10000D-05 Strict=F.
    82 basis functions,   126 primitive gaussians,    84 cartesian basis functions
    13 alpha electrons       13 beta electrons
       nuclear repulsion energy        46.4800933626 Hartrees.
 IExCor= 4336 DFT=T Ex+Corr=M062X ExCW=0 ScaHFX=  0.540000
 ScaDFX=  1.000000  1.000000  1.000000  1.000000 ScalE2=  1.000000  1.000000
 IRadAn=      7 IRanWt=     -1 IRanGd=            0 ICorTp=0 IEmpDi=  4
 NAtoms=    7 NActive=    7 NUniq=    7 SFac= 1.00D+00 NAtFMM=   60 NAOKFM=F Big=F
 Integral buffers will be    131072 words long.
 Raffenetti 2 integral format.
 Two-electron integral symmetry is turned off.
 Leave Link  301 at Mon Apr 21 19:03:22 2025, MaxMem=   536870912 cpu:               0.6 elap:               0.1
 (Enter /home/szhao/Apps/g16/l302.exe)
 NPDir=0 NMtPBC=     1 NCelOv=     1 NCel=       1 NClECP=     1 NCelD=      1
         NCelK=      1 NCelE2=     1 NClLst=     1 CellRange=     0.0.
 One-electron integrals computed using PRISM.
 NBasis=    82 RedAO= T EigKep=  3.39D-03  NBF=    82
 NBsUse=    82 1.00D-06 EigRej= -1.00D+00 NBFU=    82
 Precomputing XC quadrature grid using
 IXCGrd= 4 IRadAn=           7 IRanWt=          -1 IRanGd=           0 AccXCQ= 0.00D+00.
 Generated NRdTot=       0 NPtTot=           0 NUsed=           0 NTot=          32
 NSgBfM=    84    84    84    84    84 MxSgAt=     7 MxSgA2=     7.
 Leave Link  302 at Mon Apr 21 19:03:23 2025, MaxMem=   536870912 cpu:               1.6 elap:               0.2
 (Enter /home/szhao/Apps/g16/l303.exe)
 DipDrv:  MaxL=1.
 Leave Link  303 at Mon Apr 21 19:03:23 2025, MaxMem=   536870912 cpu:               0.6 elap:               0.1
 (Enter /home/szhao/Apps/g16/l401.exe)
 Initial guess from the checkpoint file:  "opt.chk"
 B after Tr=     0.008668   -0.002708    0.002908
         Rot=    0.999999    0.000059    0.001096    0.001016 Ang=   0.17 deg.
 Guess basis will be translated and rotated to current coordinates.
 JPrj=2 DoOrth=T DoCkMO=T.
 Initial guess <Sx>= 0.0000 <Sy>= 0.0000 <Sz>= 0.0000 <S**2>=-0.0000 S=-0.0000
 Generating alternative initial guess.
 ExpMin= 3.48D-02 ExpMax= 7.75D+04 ExpMxC= 2.65D+03 IAcc=3 IRadAn=         5 AccDes= 0.00D+00
 Harris functional with IExCor= 1009 and IRadAn=       5 diagonalized for initial guess.
 HarFok:  IExCor= 1009 AccDes= 0.00D+00 IRadAn=         5 IDoV= 1 UseB2=F ITyADJ=14
 ICtDFT=  3500011 ScaDFX=  1.000000  1.000000  1.000000  1.000000
 FoFCou: FMM=F IPFlag=           0 FMFlag=      100000 FMFlg1=           0
         NFxFlg=           0 DoJE=T BraDBF=F KetDBF=T FulRan=T
         wScrn=  0.000000 ICntrl=       500 IOpCl=  0 I1Cent=   200000004 NGrid=           0
         NMat0=    1 NMatS0=      1 NMatT0=    0 NMatD0=    1 NMtDS0=    0 NMtDT0=    0
 Symmetry not used in FoFCou.
 Harris En= -382.202516748580    
 Leave Link  401 at Mon Apr 21 19:03:23 2025, MaxMem=   536870912 cpu:               2.9 elap:               0.4
 (Enter /home/szhao/Apps/g16/l502.exe)
 Keep R1 and R2 ints in memory in canonical form, NReq=18891869.
 FoFCou: FMM=F IPFlag=           0 FMFlag=           0 FMFlg1=           0
         NFxFlg=           0 DoJE=F BraDBF=F KetDBF=F FulRan=T
         wScrn=  0.000000 ICntrl=       600 IOpCl=  0 I1Cent=           0 NGrid=           0
         NMat0=    1 NMatS0=   3403 NMatT0=    0 NMatD0=    1 NMtDS0=    0 NMtDT0=    0
 Symmetry not used in FoFCou.
 Two-electron integral symmetry not used.
 UHF open shell SCF:
 Using DIIS extrapolation, IDIIS=  1040.
 NGot=   536870912 LenX=   525271507 LenY=   525264010
 Requested convergence on RMS density matrix=1.00D-08 within 128 cycles.
 Requested convergence on MAX density matrix=1.00D-06.
 Requested convergence on             energy=1.00D-06.
 No special actions if energy rises.

 Cycle   1  Pass 1  IDiag  1:
 E= -382.310623242772    
 DIIS: error= 6.24D-03 at cycle   1 NSaved=   1.
 NSaved= 1 IEnMin= 1 EnMin= -382.310623242772     IErMin= 1 ErrMin= 6.24D-03
 ErrMax= 6.24D-03  0.00D+00 EMaxC= 1.00D-01 BMatC= 5.90D-03 BMatP= 5.90D-03
 IDIUse=3 WtCom= 9.38D-01 WtEn= 6.24D-02
 Coeff-Com:  0.100D+01
 Coeff-En:   0.100D+01
 Coeff:      0.100D+01
 Gap=     0.449 Goal=   None    Shift=    0.000
 Gap=     0.449 Goal=   None    Shift=    0.000
 GapD=    0.449 DampG=2.000 DampE=1.000 DampFc=2.0000 IDamp=-1.
 RMSDP=6.78D-04 MaxDP=7.90D-03              OVMax= 3.10D-02

 Cycle   2  Pass 1  IDiag  1:
 E= -382.312914326070     Delta-E=       -0.002291083298 Rises=F Damp=F
 DIIS: error= 1.03D-03 at cycle   2 NSaved=   2.
 NSaved= 2 IEnMin= 2 EnMin= -382.312914326070     IErMin= 2 ErrMin= 1.03D-03
 ErrMax= 1.03D-03  0.00D+00 EMaxC= 1.00D-01 BMatC= 3.56D-04 BMatP= 5.90D-03
 IDIUse=3 WtCom= 9.90D-01 WtEn= 1.03D-02
 Coeff-Com: -0.423D-01 0.104D+01
 Coeff-En:   0.000D+00 0.100D+01
 Coeff:     -0.419D-01 0.104D+01
 Gap=     0.194 Goal=   None    Shift=    0.000
 Gap=     0.194 Goal=   None    Shift=    0.000
 RMSDP=2.95D-04 MaxDP=7.44D-03 DE=-2.29D-03 OVMax= 1.75D-02

 Cycle   3  Pass 1  IDiag  1:
 E= -382.312786342741     Delta-E=        0.000127983329 Rises=F Damp=F
 DIIS: error= 1.58D-03 at cycle   3 NSaved=   3.
 NSaved= 3 IEnMin= 2 EnMin= -382.312914326070     IErMin= 2 ErrMin= 1.03D-03
 ErrMax= 1.58D-03  0.00D+00 EMaxC= 1.00D-01 BMatC= 8.39D-04 BMatP= 3.56D-04
 IDIUse=3 WtCom= 2.01D-01 WtEn= 7.99D-01
 Coeff-Com: -0.587D-01 0.675D+00 0.383D+00
 Coeff-En:   0.000D+00 0.651D+00 0.349D+00
 Coeff:     -0.118D-01 0.656D+00 0.356D+00
 Gap=     0.194 Goal=   None    Shift=    0.000
 Gap=     0.194 Goal=   None    Shift=    0.000
 RMSDP=1.71D-04 MaxDP=5.41D-03 DE= 1.28D-04 OVMax= 1.49D-02

 Cycle   4  Pass 1  IDiag  1:
 E= -382.313097444237     Delta-E=       -0.000311101496 Rises=F Damp=F
 DIIS: error= 2.39D-04 at cycle   4 NSaved=   4.
 NSaved= 4 IEnMin= 4 EnMin= -382.313097444237     IErMin= 4 ErrMin= 2.39D-04
 ErrMax= 2.39D-04  0.00D+00 EMaxC= 1.00D-01 BMatC= 2.04D-05 BMatP= 3.56D-04
 IDIUse=3 WtCom= 9.98D-01 WtEn= 2.39D-03
 Coeff-Com: -0.188D-01 0.274D-01 0.122D+00 0.869D+00
 Coeff-En:   0.000D+00 0.000D+00 0.000D+00 0.100D+01
 Coeff:     -0.187D-01 0.274D-01 0.122D+00 0.869D+00
 Gap=     0.194 Goal=   None    Shift=    0.000
 Gap=     0.194 Goal=   None    Shift=    0.000
 RMSDP=3.85D-05 MaxDP=6.42D-04 DE=-3.11D-04 OVMax= 2.18D-03

 Cycle   5  Pass 1  IDiag  1:
 E= -382.313107207241     Delta-E=       -0.000009763004 Rises=F Damp=F
 DIIS: error= 5.56D-05 at cycle   5 NSaved=   5.
 NSaved= 5 IEnMin= 5 EnMin= -382.313107207241     IErMin= 5 ErrMin= 5.56D-05
 ErrMax= 5.56D-05  0.00D+00 EMaxC= 1.00D-01 BMatC= 1.38D-06 BMatP= 2.04D-05
 IDIUse=1 WtCom= 1.00D+00 WtEn= 0.00D+00
 Coeff-Com:  0.307D-02-0.607D-01 0.380D-02 0.919D-01 0.962D+00
 Coeff:      0.307D-02-0.607D-01 0.380D-02 0.919D-01 0.962D+00
 Gap=     0.194 Goal=   None    Shift=    0.000
 Gap=     0.194 Goal=   None    Shift=    0.000
 RMSDP=1.71D-05 MaxDP=2.98D-04 DE=-9.76D-06 OVMax= 1.01D-03

 Cycle   6  Pass 1  IDiag  1:
 E= -382.313108210227     Delta-E=       -0.000001002986 Rises=F Damp=F
 DIIS: error= 2.02D-05 at cycle   6 NSaved=   6.
 NSaved= 6 IEnMin= 6 EnMin= -382.313108210227     IErMin= 6 ErrMin= 2.02D-05
 ErrMax= 2.02D-05  0.00D+00 EMaxC= 1.00D-01 BMatC= 1.55D-07 BMatP= 1.38D-06
 IDIUse=1 WtCom= 1.00D+00 WtEn= 0.00D+00
 Coeff-Com:  0.266D-02-0.209D-01-0.785D-02-0.620D-01 0.244D+00 0.844D+00
 Coeff:      0.266D-02-0.209D-01-0.785D-02-0.620D-01 0.244D+00 0.844D+00
 Gap=     0.194 Goal=   None    Shift=    0.000
 Gap=     0.194 Goal=   None    Shift=    0.000
 RMSDP=4.70D-06 MaxDP=6.30D-05 DE=-1.00D-06 OVMax= 3.19D-04

 Cycle   7  Pass 1  IDiag  1:
 E= -382.313108304008     Delta-E=       -0.000000093781 Rises=F Damp=F
 DIIS: error= 3.34D-06 at cycle   7 NSaved=   7.
 NSaved= 7 IEnMin= 7 EnMin= -382.313108304008     IErMin= 7 ErrMin= 3.34D-06
 ErrMax= 3.34D-06  0.00D+00 EMaxC= 1.00D-01 BMatC= 4.70D-09 BMatP= 1.55D-07
 IDIUse=1 WtCom= 1.00D+00 WtEn= 0.00D+00
 Coeff-Com: -0.506D-03 0.759D-02-0.444D-03-0.418D-02-0.976D-01-0.871D-01
 Coeff-Com:  0.118D+01
 Coeff:     -0.506D-03 0.759D-02-0.444D-03-0.418D-02-0.976D-01-0.871D-01
 Coeff:      0.118D+01
 Gap=     0.194 Goal=   None    Shift=    0.000
 Gap=     0.194 Goal=   None    Shift=    0.000
 RMSDP=1.81D-06 MaxDP=2.47D-05 DE=-9.38D-08 OVMax= 1.17D-04

 Cycle   8  Pass 1  IDiag  1:
 E= -382.313108310940     Delta-E=       -0.000000006932 Rises=F Damp=F
 DIIS: error= 7.58D-07 at cycle   8 NSaved=   8.
 NSaved= 8 IEnMin= 8 EnMin= -382.313108310940     IErMin= 8 ErrMin= 7.58D-07
 ErrMax= 7.58D-07  0.00D+00 EMaxC= 1.00D-01 BMatC= 2.17D-10 BMatP= 4.70D-09
 IDIUse=1 WtCom= 1.00D+00 WtEn= 0.00D+00
 Coeff-Com: -0.719D-04 0.652D-03-0.155D-03 0.190D-02-0.985D-02-0.149D-01
 Coeff-Com: -0.966D-02 0.103D+01
 Coeff:     -0.719D-04 0.652D-03-0.155D-03 0.190D-02-0.985D-02-0.149D-01
 Coeff:     -0.966D-02 0.103D+01
 Gap=     0.194 Goal=   None    Shift=    0.000
 Gap=     0.194 Goal=   None    Shift=    0.000
 RMSDP=2.20D-07 MaxDP=3.60D-06 DE=-6.93D-09 OVMax= 1.03D-05

 Cycle   9  Pass 1  IDiag  1:
 E= -382.313108311069     Delta-E=       -0.000000000129 Rises=F Damp=F
 DIIS: error= 1.18D-07 at cycle   9 NSaved=   9.
 NSaved= 9 IEnMin= 9 EnMin= -382.313108311069     IErMin= 9 ErrMin= 1.18D-07
 ErrMax= 1.18D-07  0.00D+00 EMaxC= 1.00D-01 BMatC= 5.15D-12 BMatP= 2.17D-10
 IDIUse=1 WtCom= 1.00D+00 WtEn= 0.00D+00
 Coeff-Com:  0.122D-04-0.217D-03-0.294D-04 0.421D-03 0.272D-02 0.192D-02
 Coeff-Com: -0.406D-01 0.893D-01 0.946D+00
 Coeff:      0.122D-04-0.217D-03-0.294D-04 0.421D-03 0.272D-02 0.192D-02
 Coeff:     -0.406D-01 0.893D-01 0.946D+00
 Gap=     0.194 Goal=   None    Shift=    0.000
 Gap=     0.194 Goal=   None    Shift=    0.000
 RMSDP=3.51D-08 MaxDP=5.63D-07 DE=-1.29D-10 OVMax= 1.57D-06

 Cycle  10  Pass 1  IDiag  1:
 E= -382.313108311072     Delta-E=       -0.000000000003 Rises=F Damp=F
 DIIS: error= 2.08D-08 at cycle  10 NSaved=  10.
 NSaved=10 IEnMin=10 EnMin= -382.313108311072     IErMin=10 ErrMin= 2.08D-08
 ErrMax= 2.08D-08  0.00D+00 EMaxC= 1.00D-01 BMatC= 1.84D-13 BMatP= 5.15D-12
 IDIUse=1 WtCom= 1.00D+00 WtEn= 0.00D+00
 Coeff-Com:  0.415D-05-0.453D-04 0.727D-05-0.772D-04 0.625D-03 0.519D-03
 Coeff-Com: -0.153D-02-0.465D-01 0.606D-01 0.986D+00
 Coeff:      0.415D-05-0.453D-04 0.727D-05-0.772D-04 0.625D-03 0.519D-03
 Coeff:     -0.153D-02-0.465D-01 0.606D-01 0.986D+00
 Gap=     0.194 Goal=   None    Shift=    0.000
 Gap=     0.194 Goal=   None    Shift=    0.000
 RMSDP=9.68D-09 MaxDP=1.77D-07 DE=-3.41D-12 OVMax= 4.35D-07

 SCF Done:  E(UM062X) =  -382.313108311     A.U. after   10 cycles
            NFock= 10  Conv=0.97D-08     -V/T= 2.0025
 <Sx>= 0.0000 <Sy>= 0.0000 <Sz>= 0.0000 <S**2>=-0.0000 S=-0.0000
 <L.S>=  0.00000000000    
 KE= 3.813759837792D+02 PE=-9.994518981156D+02 EE= 1.892827126627D+02
 Annihilation of the first spin contaminant:
 S**2 before annihilation    -0.0000,   after     0.0000
 Leave Link  502 at Mon Apr 21 19:03:34 2025, MaxMem=   536870912 cpu:              79.9 elap:              10.5
 (Enter /home/szhao/Apps/g16/l701.exe)
 ... and contract with generalized density number  0.
 Compute integral first derivatives.
 Leave Link  701 at Mon Apr 21 19:03:34 2025, MaxMem=   536870912 cpu:               1.3 elap:               0.2
 (Enter /home/szhao/Apps/g16/l702.exe)
 L702 exits ... SP integral derivatives will be done elsewhere.
 Leave Link  702 at Mon Apr 21 19:03:34 2025, MaxMem=   536870912 cpu:               0.3 elap:               0.1
 (Enter /home/szhao/Apps/g16/l703.exe)
 Integral derivatives from FoFJK, PRISM(SPDF).
 Compute integral first derivatives, UseDBF=F ICtDFT=           0.
 Calling FoFJK, ICntrl=      2127 FMM=F ISym2X=0 I1Cent= 0 IOpClX= 1 NMat=1 NMatS=1 NMatT=0.
 FoFJK:  IHMeth= 1 ICntrl=    2127 DoSepK=F KAlg= 0 I1Cent=           0 FoldK=F
 IRaf=         0 NMat=       1 IRICut=       1 DoRegI=T DoRafI=F ISym2E= 0 IDoP0=0 IntGTp=1.
 FoFCou: FMM=F IPFlag=           0 FMFlag=      100000 FMFlg1=         800
         NFxFlg=           0 DoJE=F BraDBF=F KetDBF=F FulRan=T
         wScrn=  0.000000 ICntrl=      2127 IOpCl=  1 I1Cent=           0 NGrid=           0
         NMat0=    1 NMatS0=      1 NMatT0=    0 NMatD0=    1 NMtDS0=    0 NMtDT0=    0
 Symmetry not used in FoFCou.
 Leave Link  703 at Mon Apr 21 19:03:36 2025, MaxMem=   536870912 cpu:              11.9 elap:               1.5
 (Enter /home/szhao/Apps/g16/l716.exe)
 Dipole        =-2.72582012D-01-1.97958891D-01 2.14012847D-01
 -------------------------------------------------------------------
 Center     Atomic                   Forces (Hartrees/Bohr)
 Number     Number              X              Y              Z
 -------------------------------------------------------------------
      1        6          -0.000000000   -0.000000000   -0.000000000
      2       15          -0.000000000   -0.000000000   -0.000000000
      3        1          -0.002175392   -0.000381537   -0.000185863
      4        1           0.007995974   -0.001297285    0.000132422
      5        1          -0.002171102    0.000213634    0.000362222
      6        1           0.007995557   -0.000029381    0.001304048
      7        1           0.008590531   -0.000064275    0.000066663
 -------------------------------------------------------------------
 Cartesian Forces:  Max     0.008590531 RMS     0.003198774
 Leave Link  716 at Mon Apr 21 19:03:36 2025, MaxMem=   536870912 cpu:               0.5 elap:               0.1
 (Enter /home/szhao/Apps/g16/l103.exe)

 GradGradGradGradGradGradGradGradGradGradGradGradGradGradGradGradGradGrad
 Berny optimization.
 Using GEDIIS/GDIIS optimizer.
 FormGI is forming the generalized inverse of G from B-inverse, IUseBI=4.
 Internal  Forces:  Max     0.024582062 RMS     0.006733743
 Search for a local minimum.
 Step number   2 out of a maximum of   36
 All quantities printed in internal units (Hartrees-Bohrs-Radians)
 RMS Force = .52582D-02 SwitMx=.10000D-02 MixMth= 1
 Mixed Optimization -- RFO/linear search
 Update second derivatives using D2CorX and points    1    2
 DE= -8.17D-03 DEPred=-5.63D-03 R= 1.45D+00
 TightC=F SS=  1.41D+00  RLast= 2.55D-01 DXNew= 5.0454D-01 7.6429D-01
 Trust test= 1.45D+00 RLast= 2.55D-01 DXMaxT set to 5.05D-01
 ITU=  1  0
 Use linear search instead of GDIIS.
     Eigenvalues ---    0.00230   0.06618   0.07246   0.07880   0.08581
     Eigenvalues ---    0.16000   0.16000   0.16000   0.16103   0.21118
     Eigenvalues ---    0.21118   0.34766   0.34856   0.352181000.00000
     Eigenvalues --- 1000.000001000.000001000.000001000.000001000.00000
     Eigenvalues --- 1000.000001000.000001000.000001000.000001000.00000
     Eigenvalues --- 1000.00000
 RFO step:  Lambda=-5.73391562D-04 EMin= 2.30000356D-03
 Quartic linear search produced a step of  1.04078.
 Iteration  1 RMS(Cart)=  0.09825156 RMS(Int)=  0.01059040
 Iteration  2 RMS(Cart)=  0.00639420 RMS(Int)=  0.00896059
 Iteration  3 RMS(Cart)=  0.00022544 RMS(Int)=  0.00895981
 Iteration  4 RMS(Cart)=  0.00001381 RMS(Int)=  0.00895981
 Iteration  5 RMS(Cart)=  0.00000085 RMS(Int)=  0.00895981
 ITry= 1 IFail=0 DXMaxC= 2.74D-01 DCOld= 1.00D+10 DXMaxT= 5.05D-01 DXLimC= 3.00D+00 Rises=F
 Variable       Old X    -DE/DX   Delta X   Delta X   Delta X     New X
                                 (Linear)    (Quad)   (Total)
    X1       -2.84643   0.02458   0.00000   0.00000   0.00000  -2.84643
    Y1        0.00000  -0.00059   0.00000   0.00000   0.00000   0.00000
    Z1        0.00000   0.00064   0.00000   0.00000   0.00000   0.00000
    X2        2.84643  -0.00435   0.00000   0.00000   0.00000   2.84643
    Y2        0.00000  -0.00097   0.00000   0.00000   0.00000   0.00000
    Z2        0.00000   0.00104   0.00000   0.00000   0.00000   0.00000
    R1        2.05716  -0.00304  -0.00353  -0.01446  -0.01799   2.03917
    R2        2.05717  -0.00304  -0.00353  -0.01447  -0.01800   2.03917
    R3        2.05633  -0.00256  -0.00104  -0.01404  -0.01509   2.04124
    R4        2.68000   0.00024   0.00269  -0.00040   0.00229   2.68229
    R5        2.67998   0.00024   0.00267  -0.00041   0.00225   2.68224
    A1        1.80194  -0.00918  -0.09967  -0.00405  -0.11440   1.68753
    A2        1.80193  -0.00918  -0.09968  -0.00404  -0.11440   1.68753
    A3        1.88459  -0.01040  -0.10167  -0.02341  -0.13632   1.74827
    A4        1.98062   0.00744   0.10739  -0.00342   0.08237   2.06299
    A5        1.98586   0.00795   0.08626   0.01437   0.07621   2.06207
    A6        1.98586   0.00795   0.08626   0.01433   0.07618   2.06204
    A7        1.63178  -0.00584  -0.06918  -0.00318  -0.07228   1.55950
    A8        1.63177  -0.00583  -0.06919  -0.00301  -0.07213   1.55964
    A9        1.60537   0.00065  -0.02691   0.03884   0.00553   1.61090
    D1        2.91300  -0.00052  -0.03460   0.02078  -0.01051   2.90249
    D2        1.30377  -0.00043   0.00645  -0.01781  -0.01232   1.29146
    D3       -1.30340   0.00043  -0.00597   0.01383   0.00881  -1.29459
    D4       -2.91262   0.00052   0.03508  -0.02477   0.00701  -2.90562
    D5        0.80480  -0.00004  -0.02029   0.01729  -0.00087   0.80393
    D6       -0.80443   0.00004   0.02077  -0.02131  -0.00267  -0.80710
         Item               Value     Threshold  Converged?
 Maximum Force            0.010404     0.000450     NO 
 RMS     Force            0.005258     0.000300     NO 
 Maximum Displacement     0.274360     0.001800     NO 
 RMS     Displacement     0.100798     0.001200     NO 
 Predicted change in Energy=-3.622047D-03
 Lowest energy point so far.  Saving SCF results.
 GradGradGradGradGradGradGradGradGradGradGradGradGradGradGradGradGradGrad

 Leave Link  103 at Mon Apr 21 19:03:37 2025, MaxMem=   536870912 cpu:               0.5 elap:               0.1
 (Enter /home/szhao/Apps/g16/l202.exe)
                          Input orientation:                          
 ---------------------------------------------------------------------
 Center     Atomic      Atomic             Coordinates (Angstroms)
 Number     Number       Type             X           Y           Z
 ---------------------------------------------------------------------
      1          6           0       -1.506264    0.000000    0.000000
      2         15           0        1.506264    0.000000    0.000000
      3          1           0        1.490225   -1.419036    0.028212
      4          1           0       -1.631947    1.046087    0.233077
      5          1           0        1.490435    0.085267    1.416727
      6          1           0       -1.631939   -0.312713   -1.025103
      7          1           0       -1.696965   -0.722376    0.780123
 ---------------------------------------------------------------------
                    Distance matrix (angstroms):
                    1          2          3          4          5
     1  C    0.000000
     2  P    3.012527   0.000000
     3  H    3.315630   1.419407   0.000000
     4  H    1.079083   3.316171   3.983310   0.000000
     5  H    3.315809   1.419379   2.047169   3.474690   0.000000
     6  H    1.079083   3.316163   3.475821   1.851851   3.983734
     7  H    1.080179   3.375069   3.347967   1.852282   3.349189
                    6          7
     6  H    0.000000
     7  H    1.852267   0.000000
 Symmetry turned off by external request.
 Stoichiometry    CH5P
 Framework group  C1[X(CH5P)]
 Deg. of freedom    15
 Full point group                 C1      NOp   1
 Rotational constants (GHZ):          68.3101946           5.0985047           5.0840620
 Leave Link  202 at Mon Apr 21 19:03:37 2025, MaxMem=   536870912 cpu:               0.1 elap:               0.1
 (Enter /home/szhao/Apps/g16/l301.exe)
 Standard basis: 6-311+G(d,p) (5D, 7F)
 Ernie: Thresh=  0.10000D-02 Tol=  0.10000D-05 Strict=F.
    82 basis functions,   126 primitive gaussians,    84 cartesian basis functions
    13 alpha electrons       13 beta electrons
       nuclear repulsion energy        46.8741840423 Hartrees.
 IExCor= 4336 DFT=T Ex+Corr=M062X ExCW=0 ScaHFX=  0.540000
 ScaDFX=  1.000000  1.000000  1.000000  1.000000 ScalE2=  1.000000  1.000000
 IRadAn=      7 IRanWt=     -1 IRanGd=            0 ICorTp=0 IEmpDi=  4
 NAtoms=    7 NActive=    7 NUniq=    7 SFac= 1.00D+00 NAtFMM=   60 NAOKFM=F Big=F
 Integral buffers will be    131072 words long.
 Raffenetti 2 integral format.
 Two-electron integral symmetry is turned off.
 Leave Link  301 at Mon Apr 21 19:03:37 2025, MaxMem=   536870912 cpu:               1.2 elap:               0.2
 (Enter /home/szhao/Apps/g16/l302.exe)
 NPDir=0 NMtPBC=     1 NCelOv=     1 NCel=       1 NClECP=     1 NCelD=      1
         NCelK=      1 NCelE2=     1 NClLst=     1 CellRange=     0.0.
 One-electron integrals computed using PRISM.
 NBasis=    82 RedAO= T EigKep=  3.23D-03  NBF=    82
 NBsUse=    82 1.00D-06 EigRej= -1.00D+00 NBFU=    82
 Precomputing XC quadrature grid using
 IXCGrd= 4 IRadAn=           7 IRanWt=          -1 IRanGd=           0 AccXCQ= 0.00D+00.
 Generated NRdTot=       0 NPtTot=           0 NUsed=           0 NTot=          32
 NSgBfM=    84    84    84    84    84 MxSgAt=     7 MxSgA2=     7.
 Leave Link  302 at Mon Apr 21 19:03:38 2025, MaxMem=   536870912 cpu:               1.9 elap:               0.3
 (Enter /home/szhao/Apps/g16/l303.exe)
 DipDrv:  MaxL=1.
 Leave Link  303 at Mon Apr 21 19:03:38 2025, MaxMem=   536870912 cpu:               0.5 elap:               0.2
 (Enter /home/szhao/Apps/g16/l401.exe)
 Initial guess from the checkpoint file:  "opt.chk"
 B after Tr=     0.013951   -0.000567    0.000753
         Rot=    0.999999    0.000109    0.000787    0.000708 Ang=   0.12 deg.
 Guess basis will be translated and rotated to current coordinates.
 JPrj=2 DoOrth=T DoCkMO=T.
 Initial guess <Sx>= 0.0000 <Sy>= 0.0000 <Sz>= 0.0000 <S**2>=-0.0000 S=-0.0000
 Generating alternative initial guess.
 ExpMin= 3.48D-02 ExpMax= 7.75D+04 ExpMxC= 2.65D+03 IAcc=3 IRadAn=         5 AccDes= 0.00D+00
 Harris functional with IExCor= 1009 and IRadAn=       5 diagonalized for initial guess.
 HarFok:  IExCor= 1009 AccDes= 0.00D+00 IRadAn=         5 IDoV= 1 UseB2=F ITyADJ=14
 ICtDFT=  3500011 ScaDFX=  1.000000  1.000000  1.000000  1.000000
 FoFCou: FMM=F IPFlag=           0 FMFlag=      100000 FMFlg1=           0
         NFxFlg=           0 DoJE=T BraDBF=F KetDBF=T FulRan=T
         wScrn=  0.000000 ICntrl=       500 IOpCl=  0 I1Cent=   200000004 NGrid=           0
         NMat0=    1 NMatS0=      1 NMatT0=    0 NMatD0=    1 NMtDS0=    0 NMtDT0=    0
 Symmetry not used in FoFCou.
 Harris En= -382.203380340207    
 Leave Link  401 at Mon Apr 21 19:03:39 2025, MaxMem=   536870912 cpu:               2.9 elap:               0.4
 (Enter /home/szhao/Apps/g16/l502.exe)
 Keep R1 and R2 ints in memory in canonical form, NReq=18891869.
 FoFCou: FMM=F IPFlag=           0 FMFlag=           0 FMFlg1=           0
         NFxFlg=           0 DoJE=F BraDBF=F KetDBF=F FulRan=T
         wScrn=  0.000000 ICntrl=       600 IOpCl=  0 I1Cent=           0 NGrid=           0
         NMat0=    1 NMatS0=   3403 NMatT0=    0 NMatD0=    1 NMtDS0=    0 NMtDT0=    0
 Symmetry not used in FoFCou.
 Two-electron integral symmetry not used.
 UHF open shell SCF:
 Using DIIS extrapolation, IDIIS=  1040.
 NGot=   536870912 LenX=   525271507 LenY=   525264010
 Requested convergence on RMS density matrix=1.00D-08 within 128 cycles.
 Requested convergence on MAX density matrix=1.00D-06.
 Requested convergence on             energy=1.00D-06.
 No special actions if energy rises.

 Cycle   1  Pass 1  IDiag  1:
 E= -382.312570758306    
 DIIS: error= 7.68D-03 at cycle   1 NSaved=   1.
 NSaved= 1 IEnMin= 1 EnMin= -382.312570758306     IErMin= 1 ErrMin= 7.68D-03
 ErrMax= 7.68D-03  0.00D+00 EMaxC= 1.00D-01 BMatC= 9.35D-03 BMatP= 9.35D-03
 IDIUse=3 WtCom= 9.23D-01 WtEn= 7.68D-02
 Coeff-Com:  0.100D+01
 Coeff-En:   0.100D+01
 Coeff:      0.100D+01
 Gap=     0.441 Goal=   None    Shift=    0.000
 Gap=     0.441 Goal=   None    Shift=    0.000
 GapD=    0.441 DampG=2.000 DampE=1.000 DampFc=2.0000 IDamp=-1.
 RMSDP=8.15D-04 MaxDP=1.01D-02              OVMax= 3.22D-02

 Cycle   2  Pass 1  IDiag  1:
 E= -382.316193973075     Delta-E=       -0.003623214769 Rises=F Damp=F
 DIIS: error= 9.19D-04 at cycle   2 NSaved=   2.
 NSaved= 2 IEnMin= 2 EnMin= -382.316193973075     IErMin= 2 ErrMin= 9.19D-04
 ErrMax= 9.19D-04  0.00D+00 EMaxC= 1.00D-01 BMatC= 2.70D-04 BMatP= 9.35D-03
 IDIUse=3 WtCom= 9.91D-01 WtEn= 9.19D-03
 Coeff-Com: -0.803D-01 0.108D+01
 Coeff-En:   0.000D+00 0.100D+01
 Coeff:     -0.796D-01 0.108D+01
 Gap=     0.191 Goal=   None    Shift=    0.000
 Gap=     0.191 Goal=   None    Shift=    0.000
 RMSDP=2.63D-04 MaxDP=4.55D-03 DE=-3.62D-03 OVMax= 1.03D-02

 Cycle   3  Pass 1  IDiag  1:
 E= -382.316315258824     Delta-E=       -0.000121285749 Rises=F Damp=F
 DIIS: error= 7.33D-04 at cycle   3 NSaved=   3.
 NSaved= 3 IEnMin= 3 EnMin= -382.316315258824     IErMin= 3 ErrMin= 7.33D-04
 ErrMax= 7.33D-04  0.00D+00 EMaxC= 1.00D-01 BMatC= 1.58D-04 BMatP= 2.70D-04
 IDIUse=3 WtCom= 9.93D-01 WtEn= 7.33D-03
 Coeff-Com: -0.479D-01 0.485D+00 0.563D+00
 Coeff-En:   0.000D+00 0.000D+00 0.100D+01
 Coeff:     -0.475D-01 0.482D+00 0.566D+00
 Gap=     0.191 Goal=   None    Shift=    0.000
 Gap=     0.191 Goal=   None    Shift=    0.000
 RMSDP=1.20D-04 MaxDP=3.80D-03 DE=-1.21D-04 OVMax= 1.05D-02

 Cycle   4  Pass 1  IDiag  1:
 E= -382.316351915884     Delta-E=       -0.000036657060 Rises=F Damp=F
 DIIS: error= 5.36D-04 at cycle   4 NSaved=   4.
 NSaved= 4 IEnMin= 4 EnMin= -382.316351915884     IErMin= 4 ErrMin= 5.36D-04
 ErrMax= 5.36D-04  0.00D+00 EMaxC= 1.00D-01 BMatC= 9.19D-05 BMatP= 1.58D-04
 IDIUse=3 WtCom= 9.95D-01 WtEn= 5.36D-03
 Coeff-Com: -0.169D-01 0.511D-01 0.426D+00 0.540D+00
 Coeff-En:   0.000D+00 0.000D+00 0.338D+00 0.662D+00
 Coeff:     -0.168D-01 0.508D-01 0.426D+00 0.540D+00
 Gap=     0.191 Goal=   None    Shift=    0.000
 Gap=     0.191 Goal=   None    Shift=    0.000
 RMSDP=4.88D-05 MaxDP=1.31D-03 DE=-3.67D-05 OVMax= 3.54D-03

 Cycle   5  Pass 1  IDiag  1:
 E= -382.316384683286     Delta-E=       -0.000032767402 Rises=F Damp=F
 DIIS: error= 4.80D-05 at cycle   5 NSaved=   5.
 NSaved= 5 IEnMin= 5 EnMin= -382.316384683286     IErMin= 5 ErrMin= 4.80D-05
 ErrMax= 4.80D-05  0.00D+00 EMaxC= 1.00D-01 BMatC= 9.67D-07 BMatP= 9.19D-05
 IDIUse=1 WtCom= 1.00D+00 WtEn= 0.00D+00
 Coeff-Com:  0.399D-02-0.555D-01 0.172D-01 0.311D-01 0.100D+01
 Coeff:      0.399D-02-0.555D-01 0.172D-01 0.311D-01 0.100D+01
 Gap=     0.191 Goal=   None    Shift=    0.000
 Gap=     0.191 Goal=   None    Shift=    0.000
 RMSDP=1.77D-05 MaxDP=3.22D-04 DE=-3.28D-05 OVMax= 9.95D-04

 Cycle   6  Pass 1  IDiag  1:
 E= -382.316385587273     Delta-E=       -0.000000903988 Rises=F Damp=F
 DIIS: error= 1.56D-05 at cycle   6 NSaved=   6.
 NSaved= 6 IEnMin= 6 EnMin= -382.316385587273     IErMin= 6 ErrMin= 1.56D-05
 ErrMax= 1.56D-05  0.00D+00 EMaxC= 1.00D-01 BMatC= 1.26D-07 BMatP= 9.67D-07
 IDIUse=1 WtCom= 1.00D+00 WtEn= 0.00D+00
 Coeff-Com:  0.217D-02-0.190D-01-0.231D-01-0.316D-01 0.257D+00 0.815D+00
 Coeff:      0.217D-02-0.190D-01-0.231D-01-0.316D-01 0.257D+00 0.815D+00
 Gap=     0.191 Goal=   None    Shift=    0.000
 Gap=     0.191 Goal=   None    Shift=    0.000
 RMSDP=3.76D-06 MaxDP=5.71D-05 DE=-9.04D-07 OVMax= 2.57D-04

 Cycle   7  Pass 1  IDiag  1:
 E= -382.316385661060     Delta-E=       -0.000000073787 Rises=F Damp=F
 DIIS: error= 4.35D-06 at cycle   7 NSaved=   7.
 NSaved= 7 IEnMin= 7 EnMin= -382.316385661060     IErMin= 7 ErrMin= 4.35D-06
 ErrMax= 4.35D-06  0.00D+00 EMaxC= 1.00D-01 BMatC= 6.47D-09 BMatP= 1.26D-07
 IDIUse=1 WtCom= 1.00D+00 WtEn= 0.00D+00
 Coeff-Com: -0.495D-03 0.716D-02-0.367D-02-0.401D-02-0.120D+00 0.236D-02
 Coeff-Com:  0.112D+01
 Coeff:     -0.495D-03 0.716D-02-0.367D-02-0.401D-02-0.120D+00 0.236D-02
 Coeff:      0.112D+01
 Gap=     0.191 Goal=   None    Shift=    0.000
 Gap=     0.191 Goal=   None    Shift=    0.000
 RMSDP=1.86D-06 MaxDP=2.43D-05 DE=-7.38D-08 OVMax= 1.25D-04

 Cycle   8  Pass 1  IDiag  1:
 E= -382.316385669135     Delta-E=       -0.000000008075 Rises=F Damp=F
 DIIS: error= 6.90D-07 at cycle   8 NSaved=   8.
 NSaved= 8 IEnMin= 8 EnMin= -382.316385669135     IErMin= 8 ErrMin= 6.90D-07
 ErrMax= 6.90D-07  0.00D+00 EMaxC= 1.00D-01 BMatC= 1.68D-10 BMatP= 6.47D-09
 IDIUse=1 WtCom= 1.00D+00 WtEn= 0.00D+00
 Coeff-Com: -0.623D-04 0.612D-03 0.519D-03 0.156D-02-0.100D-01-0.140D-01
 Coeff-Com: -0.692D-02 0.103D+01
 Coeff:     -0.623D-04 0.612D-03 0.519D-03 0.156D-02-0.100D-01-0.140D-01
 Coeff:     -0.692D-02 0.103D+01
 Gap=     0.191 Goal=   None    Shift=    0.000
 Gap=     0.191 Goal=   None    Shift=    0.000
 RMSDP=2.41D-07 MaxDP=3.84D-06 DE=-8.07D-09 OVMax= 1.16D-05

 Cycle   9  Pass 1  IDiag  1:
 E= -382.316385669268     Delta-E=       -0.000000000133 Rises=F Damp=F
 DIIS: error= 1.39D-07 at cycle   9 NSaved=   9.
 NSaved= 9 IEnMin= 9 EnMin= -382.316385669268     IErMin= 9 ErrMin= 1.39D-07
 ErrMax= 1.39D-07  0.00D+00 EMaxC= 1.00D-01 BMatC= 7.50D-12 BMatP= 1.68D-10
 IDIUse=1 WtCom= 1.00D+00 WtEn= 0.00D+00
 Coeff-Com:  0.123D-04-0.210D-03 0.152D-03 0.409D-03 0.312D-02-0.295D-02
 Coeff-Com: -0.443D-01 0.112D+00 0.932D+00
 Coeff:      0.123D-04-0.210D-03 0.152D-03 0.409D-03 0.312D-02-0.295D-02
 Coeff:     -0.443D-01 0.112D+00 0.932D+00
 Gap=     0.191 Goal=   None    Shift=    0.000
 Gap=     0.191 Goal=   None    Shift=    0.000
 RMSDP=5.26D-08 MaxDP=9.37D-07 DE=-1.33D-10 OVMax= 1.91D-06

 Cycle  10  Pass 1  IDiag  1:
 E= -382.316385669273     Delta-E=       -0.000000000005 Rises=F Damp=F
 DIIS: error= 3.52D-08 at cycle  10 NSaved=  10.
 NSaved=10 IEnMin=10 EnMin= -382.316385669273     IErMin=10 ErrMin= 3.52D-08
 ErrMax= 3.52D-08  0.00D+00 EMaxC= 1.00D-01 BMatC= 3.58D-13 BMatP= 7.50D-12
 IDIUse=1 WtCom= 1.00D+00 WtEn= 0.00D+00
 Coeff-Com:  0.419D-05-0.460D-04-0.111D-04-0.332D-04 0.789D-03 0.724D-03
 Coeff-Com: -0.163D-03-0.539D-01 0.291D-01 0.102D+01
 Coeff:      0.419D-05-0.460D-04-0.111D-04-0.332D-04 0.789D-03 0.724D-03
 Coeff:     -0.163D-03-0.539D-01 0.291D-01 0.102D+01
 Gap=     0.191 Goal=   None    Shift=    0.000
 Gap=     0.191 Goal=   None    Shift=    0.000
 RMSDP=1.20D-08 MaxDP=2.14D-07 DE=-4.95D-12 OVMax= 6.09D-07

 Cycle  11  Pass 1  IDiag  1:
 E= -382.316385669273     Delta-E=       -0.000000000000 Rises=F Damp=F
 DIIS: error= 5.92D-09 at cycle  11 NSaved=  11.
 NSaved=11 IEnMin=11 EnMin= -382.316385669273     IErMin=11 ErrMin= 5.92D-09
 ErrMax= 5.92D-09  0.00D+00 EMaxC= 1.00D-01 BMatC= 1.46D-14 BMatP= 3.58D-13
 IDIUse=1 WtCom= 1.00D+00 WtEn= 0.00D+00
 Coeff-Com: -0.260D-07 0.320D-05-0.760D-05-0.226D-04-0.818D-04 0.223D-03
 Coeff-Com:  0.150D-02-0.101D-01-0.294D-01 0.112D+00 0.926D+00
 Coeff:     -0.260D-07 0.320D-05-0.760D-05-0.226D-04-0.818D-04 0.223D-03
 Coeff:      0.150D-02-0.101D-01-0.294D-01 0.112D+00 0.926D+00
 Gap=     0.191 Goal=   None    Shift=    0.000
 Gap=     0.191 Goal=   None    Shift=    0.000
 RMSDP=2.19D-09 MaxDP=3.54D-08 DE=-4.55D-13 OVMax= 8.75D-08

 SCF Done:  E(UM062X) =  -382.316385669     A.U. after   11 cycles
            NFock= 11  Conv=0.22D-08     -V/T= 2.0024
 <Sx>= 0.0000 <Sy>= 0.0000 <Sz>= 0.0000 <S**2>=-0.0000 S=-0.0000
 <L.S>=  0.00000000000    
 KE= 3.814166300395D+02 PE=-1.000302287094D+03 EE= 1.896950873425D+02
 Annihilation of the first spin contaminant:
 S**2 before annihilation    -0.0000,   after    -0.0000
 Leave Link  502 at Mon Apr 21 19:03:50 2025, MaxMem=   536870912 cpu:              87.9 elap:              11.6
 (Enter /home/szhao/Apps/g16/l701.exe)
 ... and contract with generalized density number  0.
 Compute integral first derivatives.
 Leave Link  701 at Mon Apr 21 19:03:51 2025, MaxMem=   536870912 cpu:               1.5 elap:               0.2
 (Enter /home/szhao/Apps/g16/l702.exe)
 L702 exits ... SP integral derivatives will be done elsewhere.
 Leave Link  702 at Mon Apr 21 19:03:51 2025, MaxMem=   536870912 cpu:               0.5 elap:               0.2
 (Enter /home/szhao/Apps/g16/l703.exe)
 Integral derivatives from FoFJK, PRISM(SPDF).
 Compute integral first derivatives, UseDBF=F ICtDFT=           0.
 Calling FoFJK, ICntrl=      2127 FMM=F ISym2X=0 I1Cent= 0 IOpClX= 1 NMat=1 NMatS=1 NMatT=0.
 FoFJK:  IHMeth= 1 ICntrl=    2127 DoSepK=F KAlg= 0 I1Cent=           0 FoldK=F
 IRaf=         0 NMat=       1 IRICut=       1 DoRegI=T DoRafI=F ISym2E= 0 IDoP0=0 IntGTp=1.
 FoFCou: FMM=F IPFlag=           0 FMFlag=      100000 FMFlg1=         800
         NFxFlg=           0 DoJE=F BraDBF=F KetDBF=F FulRan=T
         wScrn=  0.000000 ICntrl=      2127 IOpCl=  1 I1Cent=           0 NGrid=           0
         NMat0=    1 NMatS0=      1 NMatT0=    0 NMatD0=    1 NMtDS0=    0 NMtDT0=    0
 Symmetry not used in FoFCou.
 Leave Link  703 at Mon Apr 21 19:03:53 2025, MaxMem=   536870912 cpu:              10.8 elap:               1.4
 (Enter /home/szhao/Apps/g16/l716.exe)
 Dipole        =-3.72336383D-01-2.04289546D-01 2.21357983D-01
 -------------------------------------------------------------------
 Center     Atomic                   Forces (Hartrees/Bohr)
 Number     Number              X              Y              Z
 -------------------------------------------------------------------
      1        6          -0.000000000   -0.000000000   -0.000000000
      2       15          -0.000000000   -0.000000000   -0.000000000
      3        1          -0.000180836    0.000220118    0.000167164
      4        1          -0.000579038    0.001217071   -0.000034318
      5        1          -0.000184777   -0.000185273   -0.000204479
      6        1          -0.000578313   -0.000055536   -0.001216971
      7        1           0.000510425   -0.000586897    0.000634353
 -------------------------------------------------------------------
 Cartesian Forces:  Max     0.001217071 RMS     0.000481220
 Leave Link  716 at Mon Apr 21 19:03:53 2025, MaxMem=   536870912 cpu:               0.4 elap:               0.1
 (Enter /home/szhao/Apps/g16/l103.exe)

 GradGradGradGradGradGradGradGradGradGradGradGradGradGradGradGradGradGrad
 Berny optimization.
 Using GEDIIS/GDIIS optimizer.
 FormGI is forming the generalized inverse of G from B-inverse, IUseBI=4.
 Internal  Forces:  Max     0.001283435 RMS     0.000574518
 Search for a local minimum.
 Step number   3 out of a maximum of   36
 All quantities printed in internal units (Hartrees-Bohrs-Radians)
 RMS Force = .61596D-03 SwitMx=.10000D-02 MixMth= 2
 Mixed Optimization -- En-DIIS/RFO-DIIS
 Update second derivatives using D2CorX and points    1    2    3
 DE= -3.28D-03 DEPred=-3.62D-03 R= 9.05D-01
 TightC=F SS=  1.41D+00  RLast= 2.74D-01 DXNew= 8.4853D-01 8.2101D-01
 Trust test= 9.05D-01 RLast= 2.74D-01 DXMaxT set to 8.21D-01
 ITU=  1  1  0
 Use linear search instead of GDIIS.
     Eigenvalues ---    0.00230   0.06663   0.08165   0.09103   0.09441
     Eigenvalues ---    0.16000   0.16000   0.16014   0.16304   0.21118
     Eigenvalues ---    0.21122   0.34766   0.34881   0.352711000.00000
     Eigenvalues --- 1000.000001000.000001000.000001000.000001000.00000
     Eigenvalues --- 1000.000001000.000001000.000001000.000001000.00000
     Eigenvalues --- 1000.00000
 RFO step:  Lambda=-3.55171442D-05 EMin= 2.29999852D-03
 Quartic linear search produced a step of -0.00325.
 Iteration  1 RMS(Cart)=  0.00522179 RMS(Int)=  0.00002944
 Iteration  2 RMS(Cart)=  0.00002006 RMS(Int)=  0.00002377
 Iteration  3 RMS(Cart)=  0.00000000 RMS(Int)=  0.00002377
 ITry= 1 IFail=0 DXMaxC= 1.69D-02 DCOld= 1.00D+10 DXMaxT= 8.21D-01 DXLimC= 3.00D+00 Rises=F
 Variable       Old X    -DE/DX   Delta X   Delta X   Delta X     New X
                                 (Linear)    (Quad)   (Total)
    X1       -2.84643  -0.00065   0.00000   0.00000   0.00000  -2.84643
    Y1        0.00000   0.00040   0.00000   0.00000   0.00000   0.00000
    Z1        0.00000  -0.00043   0.00000   0.00000   0.00000   0.00000
    X2        2.84643  -0.00037   0.00000   0.00000   0.00000   2.84643
    Y2        0.00000   0.00021   0.00000   0.00000   0.00000   0.00000
    Z2        0.00000  -0.00022   0.00000   0.00000   0.00000   0.00000
    R1        2.03917   0.00124   0.00006   0.00342   0.00348   2.04265
    R2        2.03917   0.00124   0.00006   0.00342   0.00348   2.04265
    R3        2.04124   0.00076   0.00005   0.00205   0.00210   2.04334
    R4        2.68229  -0.00021  -0.00001  -0.00100  -0.00100   2.68129
    R5        2.68224  -0.00021  -0.00001  -0.00099  -0.00100   2.68124
    A1        1.68753   0.00084   0.00037   0.00426   0.00466   1.69219
    A2        1.68753   0.00084   0.00037   0.00425   0.00465   1.69218
    A3        1.74827  -0.00128   0.00044  -0.00905  -0.00857   1.73970
    A4        2.06299  -0.00042  -0.00027  -0.00248  -0.00271   2.06028
    A5        2.06207   0.00012  -0.00025   0.00135   0.00117   2.06324
    A6        2.06204   0.00012  -0.00025   0.00137   0.00119   2.06323
    A7        1.55950  -0.00049   0.00024  -0.00360  -0.00336   1.55613
[...]
     Eigenvalues --- 1000.000001000.000001000.000001000.000001000.00000
     Eigenvalues --- 1000.00000
 En-DIIS/RFO-DIIS/Sim-DIIS IScMMF=       -3 using points:     6    5    4    3
 RFO step:  Lambda=-1.73765454D-07.
 NNeg= 0 NGDIIS= 4 SimSw=  2.50D-01 Rises=F DC= -3.28D-06 SmlDif=  1.00D-05
 NRisDI= 0 DoIntr=F SqrtH=F CThrHd= 10.0 CDAdj=  3.0
 RMS Error=  0.3148283862D-03 NUsed= 4 OKEnD=F EnDIS=F
 InvSVX:  RCond= 1.00D-07 Info=           0 Equed=N FErr=  6.15D-13 BErr=  7.92D-17
 DidBck=F Rises=F RFO-DIIS coefs:    1.43918   -0.68960    0.41053   -0.16012
 Iteration  1 RMS(Cart)=  0.00046956 RMS(Int)=  0.00000125
 Iteration  2 RMS(Cart)=  0.00000014 RMS(Int)=  0.00000124
 ITry= 1 IFail=0 DXMaxC= 1.18D-03 DCOld= 1.00D+10 DXMaxT= 8.21D-01 DXLimC= 3.00D+00 Rises=F
 Variable       Old X    -DE/DX   Delta X   Delta X   Delta X     New X
                                 (Linear)    (Quad)   (Total)
    X1       -2.84643   0.00001  -0.00000   0.00000   0.00000  -2.84643
    Y1        0.00000  -0.00013   0.00000   0.00000   0.00000   0.00000
    Z1        0.00000   0.00014   0.00000   0.00000   0.00000   0.00000
    X2        2.84643  -0.00000   0.00000   0.00000   0.00000   2.84643
    Y2        0.00000   0.00000   0.00000   0.00000   0.00000   0.00000
    Z2        0.00000  -0.00000   0.00000   0.00000   0.00000   0.00000
    R1        2.04283  -0.00007  -0.00019  -0.00002  -0.00022   2.04262
    R2        2.04283  -0.00007  -0.00019  -0.00002  -0.00022   2.04261
    R3        2.04311  -0.00002  -0.00010   0.00008  -0.00002   2.04309
    R4        2.68144   0.00001   0.00000   0.00003   0.00003   2.68147
    R5        2.68140   0.00001   0.00000   0.00003   0.00003   2.68143
    A1        1.70478   0.00001   0.00060  -0.00025   0.00034   1.70512
    A2        1.70478   0.00001   0.00060  -0.00025   0.00034   1.70512
    A3        1.71918  -0.00001  -0.00037  -0.00021  -0.00058   1.71859
    A4        2.05778   0.00006   0.00050   0.00040   0.00090   2.05868
    A5        2.06343  -0.00003  -0.00044  -0.00003  -0.00047   2.06296
    A6        2.06343  -0.00003  -0.00044  -0.00003  -0.00048   2.06296
    A7        1.54730  -0.00000  -0.00016  -0.00004  -0.00021   1.54709
    A8        1.54732  -0.00000  -0.00015  -0.00003  -0.00018   1.54714
    A9        1.60781   0.00001   0.00027  -0.00016   0.00011   1.60792
    D1        2.89913  -0.00003  -0.00032  -0.00032  -0.00064   2.89849
    D2        1.29075  -0.00004  -0.00061  -0.00016  -0.00077   1.28999
    D3       -1.29584   0.00004   0.00048  -0.00003   0.00045  -1.29539
    D4       -2.90423   0.00003   0.00020   0.00013   0.00033  -2.90390
    D5        0.80165   0.00000   0.00008  -0.00018  -0.00010   0.80155
    D6       -0.80674  -0.00000  -0.00021  -0.00001  -0.00022  -0.80696
         Item               Value     Threshold  Converged?
 Maximum Force            0.000071     0.000450     YES
 RMS     Force            0.000033     0.000300     YES
 Maximum Displacement     0.001182     0.001800     YES
 RMS     Displacement     0.000470     0.001200     YES
 Predicted change in Energy=-8.104336D-08
 Optimization completed.
    -- Stationary point found.
                           ----------------------------
                           !   Optimized Parameters   !
                           ! (Angstroms and Degrees)  !
 --------------------------                            --------------------------
 ! Name  Definition              Value          Derivative Info.                !
 --------------------------------------------------------------------------------
 ! X1    R(1,-1)                -1.5063         -DE/DX =    0.0                 !
 ! Y1    R(1,-2)                 0.0            -DE/DX =   -0.0001              !
 ! Z1    R(1,-3)                 0.0            -DE/DX =    0.0001              !
 ! X2    R(2,-1)                 1.5063         -DE/DX =    0.0                 !
 ! Y2    R(2,-2)                 0.0            -DE/DX =    0.0                 !
 ! Z2    R(2,-3)                 0.0            -DE/DX =    0.0                 !
 ! R1    R(1,4)                  1.081          -DE/DX =   -0.0001              !
 ! R2    R(1,6)                  1.081          -DE/DX =   -0.0001              !
 ! R3    R(1,7)                  1.0812         -DE/DX =    0.0                 !
 ! R4    R(2,3)                  1.419          -DE/DX =    0.0                 !
 ! R5    R(2,5)                  1.4189         -DE/DX =    0.0                 !
 ! A1    A(2,1,4)               97.6767         -DE/DX =    0.0                 !
 ! A2    A(2,1,6)               97.6765         -DE/DX =    0.0                 !
 ! A3    A(2,1,7)               98.5015         -DE/DX =    0.0                 !
 ! A4    A(4,1,6)              117.9021         -DE/DX =    0.0001              !
 ! A5    A(4,1,7)              118.2258         -DE/DX =    0.0                 !
 ! A6    A(6,1,7)              118.2261         -DE/DX =    0.0                 !
 ! A7    A(1,2,3)               88.6539         -DE/DX =    0.0                 !
 ! A8    A(1,2,5)               88.6546         -DE/DX =    0.0                 !
 ! A9    A(3,2,5)               92.1208         -DE/DX =    0.0                 !
 ! D1    D(4,1,2,3)            166.1082         -DE/DX =    0.0                 !
 ! D2    D(4,1,2,5)             73.9546         -DE/DX =    0.0                 !
 ! D3    D(6,1,2,3)            -74.2463         -DE/DX =    0.0                 !
 ! D4    D(6,1,2,5)           -166.4            -DE/DX =    0.0                 !
 ! D5    D(7,1,2,3)             45.931          -DE/DX =    0.0                 !
 ! D6    D(7,1,2,5)            -46.2226         -DE/DX =    0.0                 !
 --------------------------------------------------------------------------------
 Lowest energy point so far.  Saving SCF results.
 Largest change from initial coordinates is atom    7       0.285 Angstoms.
 GradGradGradGradGradGradGradGradGradGradGradGradGradGradGradGradGradGrad

 Leave Link  103 at Mon Apr 21 19:04:38 2025, MaxMem=   536870912 cpu:               0.7 elap:               0.2
 (Enter /home/szhao/Apps/g16/l202.exe)
                          Input orientation:                          
 ---------------------------------------------------------------------
 Center     Atomic      Atomic             Coordinates (Angstroms)
 Number     Number       Type             X           Y           Z
 ---------------------------------------------------------------------
      1          6           0       -1.506264    0.000000    0.000000
      2         15           0        1.506264    0.000000    0.000000
      3          1           0        1.472929   -1.418228    0.030883
      4          1           0       -1.650669    1.045350    0.234513
      5          1           0        1.472948    0.084155    1.416044
      6          1           0       -1.650665   -0.313247   -1.024512
      7          1           0       -1.666099   -0.726812    0.784294
 ---------------------------------------------------------------------
                    Distance matrix (angstroms):
                    1          2          3          4          5
     1  C    0.000000
     2  P    3.012527   0.000000
     3  H    3.299683   1.418956   0.000000
     4  H    1.081020   3.333763   3.983409   0.000000
     5  H    3.299692   1.418934   2.043484   3.475183   0.000000
     6  H    1.081018   3.333758   3.477309   1.852277   3.983868
     7  H    1.081166   3.347724   3.301390   1.855547   3.303088
                    6          7
     6  H    0.000000
     7  H    1.855547   0.000000
 Symmetry turned off by external request.
 Stoichiometry    CH5P
 Framework group  C1[X(CH5P)]
 Deg. of freedom    15
 Full point group                 C1      NOp   1
 Rotational constants (GHZ):          68.2547243           5.0998171           5.0863709
 Leave Link  202 at Mon Apr 21 19:04:39 2025, MaxMem=   536870912 cpu:               0.1 elap:               0.1
 (Enter /home/szhao/Apps/g16/l601.exe)
 Copying SCF densities to generalized density rwf, IOpCl= 1 IROHF=0.

 **********************************************************************

            Population analysis using the SCF density.

 **********************************************************************

 Alpha  occ. eigenvalues --  -78.03271 -10.58122  -6.85604  -4.97131  -4.97070
 Alpha  occ. eigenvalues --   -4.96880  -0.77774  -0.69365  -0.49545  -0.49471
 Alpha  occ. eigenvalues --   -0.43602  -0.34768  -0.26985
 Alpha virt. eigenvalues --   -0.07879   0.01876   0.04004   0.04278   0.04663
 Alpha virt. eigenvalues --    0.06414   0.06867   0.07302   0.07461   0.12375
 Alpha virt. eigenvalues --    0.17536   0.18806   0.19023   0.24656   0.30066
 Alpha virt. eigenvalues --    0.30714   0.34025   0.39016   0.41254   0.43824
 Alpha virt. eigenvalues --    0.43974   0.52105   0.62378   0.64080   0.65320
 Alpha virt. eigenvalues --    0.66293   0.69949   0.70721   0.73720   0.83959
 Alpha virt. eigenvalues --    0.91771   0.96839   1.10129   1.10254   1.39613
 Alpha virt. eigenvalues --    1.44597   1.45374   1.48522   1.48750   1.49118
 Alpha virt. eigenvalues --    1.49823   1.53097   1.62885   1.64327   1.69170
 Alpha virt. eigenvalues --    1.84770   1.85162   1.85310   2.03616   2.08199
 Alpha virt. eigenvalues --    2.08390   2.12381   2.45357   2.48018   2.48083
 Alpha virt. eigenvalues --    2.58216   2.64641   2.64887   2.67523   2.77040
 Alpha virt. eigenvalues --    2.95754   3.75017   3.75142   7.06345  14.02753
 Alpha virt. eigenvalues --   14.05165  14.05506  23.96689 163.34656
  Beta  occ. eigenvalues --  -78.03271 -10.58122  -6.85604  -4.97131  -4.97070
  Beta  occ. eigenvalues --   -4.96880  -0.77774  -0.69365  -0.49545  -0.49471
  Beta  occ. eigenvalues --   -0.43602  -0.34768  -0.26985
  Beta virt. eigenvalues --   -0.07879   0.01876   0.04004   0.04278   0.04663
  Beta virt. eigenvalues --    0.06414   0.06867   0.07302   0.07461   0.12375
  Beta virt. eigenvalues --    0.17536   0.18806   0.19023   0.24656   0.30066
  Beta virt. eigenvalues --    0.30714   0.34025   0.39016   0.41254   0.43824
  Beta virt. eigenvalues --    0.43974   0.52105   0.62378   0.64080   0.65320
  Beta virt. eigenvalues --    0.66293   0.69949   0.70721   0.73720   0.83959
  Beta virt. eigenvalues --    0.91771   0.96839   1.10129   1.10254   1.39613
  Beta virt. eigenvalues --    1.44597   1.45374   1.48522   1.48750   1.49118
  Beta virt. eigenvalues --    1.49823   1.53097   1.62885   1.64327   1.69170
  Beta virt. eigenvalues --    1.84770   1.85162   1.85310   2.03616   2.08199
  Beta virt. eigenvalues --    2.08390   2.12381   2.45357   2.48018   2.48083
  Beta virt. eigenvalues --    2.58216   2.64641   2.64887   2.67523   2.77040
  Beta virt. eigenvalues --    2.95754   3.75017   3.75142   7.06345  14.02753
  Beta virt. eigenvalues --   14.05165  14.05506  23.96689 163.34656
          Condensed to atoms (all electrons):
               1          2          3          4          5          6
     1  C    5.246407   0.196521  -0.016945   0.380027  -0.016958   0.380022
     2  P    0.196521  14.315481   0.275729  -0.010132   0.275742  -0.010130
     3  H   -0.016945   0.275729   0.758918   0.000524  -0.029125   0.000265
     4  H    0.380027  -0.010132   0.000524   0.486585   0.000264  -0.020849
     5  H   -0.016958   0.275742  -0.029125   0.000264   0.758904   0.000526
     6  H    0.380022  -0.010130   0.000265  -0.020849   0.000526   0.486561
     7  H    0.377611  -0.014200   0.000536  -0.022120   0.000536  -0.022116
               7
     1  C    0.377611
     2  P   -0.014200
     3  H    0.000536
     4  H   -0.022120
     5  H    0.000536
     6  H   -0.022116
     7  H    0.495689
          Atomic-Atomic Spin Densities.
               1          2          3          4          5          6
     1  C   -0.000000   0.000000   0.000000  -0.000000   0.000000  -0.000000
     2  P    0.000000   0.000000  -0.000000  -0.000000   0.000000  -0.000000
     3  H    0.000000  -0.000000  -0.000000  -0.000000   0.000000  -0.000000
     4  H   -0.000000  -0.000000  -0.000000   0.000000  -0.000000  -0.000000
     5  H    0.000000   0.000000   0.000000  -0.000000  -0.000000   0.000000
     6  H   -0.000000  -0.000000  -0.000000  -0.000000   0.000000   0.000000
     7  H   -0.000000  -0.000000  -0.000000   0.000000   0.000000  -0.000000
               7
     1  C   -0.000000
     2  P   -0.000000
     3  H   -0.000000
     4  H    0.000000
     5  H    0.000000
     6  H   -0.000000
     7  H    0.000000
 Mulliken charges and spin densities:
               1          2
     1  C   -0.546684  -0.000000
     2  P   -0.029010   0.000000
     3  H    0.010097  -0.000000
     4  H    0.185699   0.000000
     5  H    0.010111  -0.000000
     6  H    0.185722   0.000000
     7  H    0.184064   0.000000
 Sum of Mulliken charges =  -0.00000   0.00000
 Mulliken charges and spin densities with hydrogens summed into heavy atoms:
               1          2
     1  C    0.008802  -0.000000
     2  P   -0.008802   0.000000
 Electronic spatial extent (au):  <R**2>=            291.5819
 Charge=             -0.0000 electrons
 Dipole moment (field-independent basis, Debye):
    X=             -0.9510    Y=             -0.5315    Z=              0.5766  Tot=              1.2326
 Quadrupole moment (field-independent basis, Debye-Ang):
   XX=            -22.5952   YY=            -22.2147   ZZ=            -22.3291
   XY=             -1.1070   XZ=              1.2008   YZ=              0.7035
 Traceless Quadrupole moment (field-independent basis, Debye-Ang):
   XX=             -0.2155   YY=              0.1650   ZZ=              0.0506
   XY=             -1.1070   XZ=              1.2008   YZ=              0.7035
 Octapole moment (field-independent basis, Debye-Ang**2):
  XXX=            -32.8172  YYY=              3.7111  ZZZ=             -3.7738  XYY=            -11.6331
  XXY=             -1.3218  XXZ=              1.4338  XZZ=            -11.8093  YZZ=              0.0864
  YYZ=             -0.3448  XYZ=              1.0841
 Hexadecapole moment (field-independent basis, Debye-Ang**3):
 XXXX=           -364.5785 YYYY=            -47.8804 ZZZZ=            -48.2437 XXXY=             -0.4814
 XXXZ=              0.5235 YYYX=              2.4190 YYYZ=              1.0617 ZZZX=             -2.9777
 ZZZY=              1.1780 XXYY=            -64.2439 XXZZ=            -64.5569 YYZZ=            -16.4949
 XXYZ=              1.9262 YYXZ=             -2.2945 ZZXY=              2.4426
 N-N= 4.687147438006D+01 E-N=-1.000293074196D+03  KE= 3.814109830164D+02
                          Isotropic Fermi Contact Couplings
        Atom                 a.u.       MegaHertz       Gauss      10(-4) cm-1
     1  C(13)             -0.00000      -0.00000      -0.00000      -0.00000
     2  P(31)              0.00000       0.00000       0.00000       0.00000
     3  H(1)              -0.00000      -0.00000      -0.00000      -0.00000
     4  H(1)               0.00000       0.00000       0.00000       0.00000
     5  H(1)              -0.00000      -0.00000      -0.00000      -0.00000
     6  H(1)               0.00000       0.00000       0.00000       0.00000
     7  H(1)               0.00000       0.00000       0.00000       0.00000
 --------------------------------------------------------
       Center         ----  Spin Dipole Couplings  ----
                      3XX-RR        3YY-RR        3ZZ-RR
 --------------------------------------------------------
     1   Atom        0.000000      0.000000      0.000000
     2   Atom        0.000000      0.000000      0.000000
     3   Atom        0.000000      0.000000      0.000000
     4   Atom        0.000000      0.000000      0.000000
     5   Atom        0.000000      0.000000      0.000000
     6   Atom        0.000000      0.000000      0.000000
     7   Atom        0.000000      0.000000      0.000000
 --------------------------------------------------------
                        XY            XZ            YZ
 --------------------------------------------------------
     1   Atom        0.000000      0.000000      0.000000
     2   Atom        0.000000      0.000000      0.000000
     3   Atom        0.000000      0.000000      0.000000
     4   Atom        0.000000      0.000000      0.000000
     5   Atom        0.000000      0.000000      0.000000
     6   Atom        0.000000      0.000000      0.000000
     7   Atom        0.000000      0.000000      0.000000
 --------------------------------------------------------


 ---------------------------------------------------------------------------------
              Anisotropic Spin Dipole Couplings in Principal Axis System
 ---------------------------------------------------------------------------------

       Atom             a.u.   MegaHertz   Gauss  10(-4) cm-1        Axes

              Baa     0.0000     0.000     0.000     0.000  1.0000  0.0000  0.0000
     1 C(13)  Bbb     0.0000     0.000     0.000     0.000 -0.0000  1.0000  0.0000
              Bcc     0.0000     0.000     0.000     0.000  0.0000  0.0000  1.0000
 
              Baa     0.0000     0.000     0.000     0.000  1.0000  0.0000  0.0000
     2 P(31)  Bbb     0.0000     0.000     0.000     0.000 -0.0000  1.0000  0.0000
              Bcc     0.0000     0.000     0.000     0.000  0.0000  0.0000  1.0000
 
              Baa     0.0000     0.000     0.000     0.000  1.0000  0.0000  0.0000
     3 H(1)   Bbb     0.0000     0.000     0.000     0.000 -0.0000  1.0000  0.0000
              Bcc     0.0000     0.000     0.000     0.000  0.0000  0.0000  1.0000
 
              Baa     0.0000     0.000     0.000     0.000  1.0000  0.0000  0.0000
     4 H(1)   Bbb     0.0000     0.000     0.000     0.000 -0.0000  1.0000  0.0000
              Bcc     0.0000     0.000     0.000     0.000  0.0000  0.0000  1.0000
 
              Baa     0.0000     0.000     0.000     0.000  1.0000  0.0000  0.0000
     5 H(1)   Bbb     0.0000     0.000     0.000     0.000 -0.0000  1.0000  0.0000
              Bcc     0.0000     0.000     0.000     0.000  0.0000  0.0000  1.0000
 
              Baa     0.0000     0.000     0.000     0.000  1.0000  0.0000  0.0000
     6 H(1)   Bbb     0.0000     0.000     0.000     0.000 -0.0000  1.0000  0.0000
              Bcc     0.0000     0.000     0.000     0.000  0.0000  0.0000  1.0000
 
              Baa     0.0000     0.000     0.000     0.000  1.0000  0.0000  0.0000
     7 H(1)   Bbb     0.0000     0.000     0.000     0.000 -0.0000  1.0000  0.0000
              Bcc     0.0000     0.000     0.000     0.000  0.0000  0.0000  1.0000
 

 ---------------------------------------------------------------------------------

 No NMR shielding tensors so no spin-rotation constants.
 Leave Link  601 at Mon Apr 21 19:04:39 2025, MaxMem=   536870912 cpu:               1.5 elap:               0.2
 (Enter /home/szhao/Apps/g16/l9999.exe)
 1\1\GINC-NODE06\FOpt\UM062X\6-311+G(d,p)\C1H5P1\SZHAO\21-Apr-2025\0\\#
 p opt UM062X/6-311+G** nosymm int=superfine\\Title Card Required\\0,1\
 C,-1.50626351,0.,0.\P,1.50626351,0.,0.\H,1.4729286355,-1.4182283051,0.
 0308831745\H,-1.6506689087,1.0453497297,0.2345127421\H,1.4729483013,0.
 0841554341,1.4160441483\H,-1.650664885,-0.3132468314,-1.0245121862\H,-
 1.666098683,-0.7268116675,0.7842944649\\Version=ES64L-G16RevA.03\HF=-3
 82.3164322\S2=0.\S2-1=0.\S2A=0.\RMSD=2.693e-09\RMSF=3.269e-05\Dipole=-
 0.374154,-0.2091203,0.2268432\Quadrupole=-0.1602347,0.1226434,0.037591
 3,-0.8229903,0.8927648,0.5230319\PG=C01 [X(C1H5P1)]\\@


 THOSE WHO ARE UNABLE TO LEARN FROM PAST MEETINGS
 ARE CONDEMNED TO REPEAT THEM.
 Job cpu time:       0 days  0 hours 10 minutes  4.8 seconds.
 Elapsed time:       0 days  0 hours  1 minutes 23.3 seconds.
 File lengths (MBytes):  RWF=     22 Int=      0 D2E=      0 Chk=      3 Scr=      2
 Normal termination of Gaussian 16 at Mon Apr 21 19:04:40 2025.
