Title Card Required                                                     
FOpt      UM062X                                                      6-311+G(d,p)        
Number of atoms                            I                4
Info1-9                                    I   N=           9
          13          13           0           0           0         110
           2          18        -502
Full Title                                 C   N=           2
Title Card Required     
Route                                      C   N=           4
#p opt UM062X/6-311+G** nosymm int=superfine    
Charge                                     I                0
Multiplicity                               I                1
Number of electrons                        I               14
Number of alpha electrons                  I                7
Number of beta electrons                   I                7
Number of basis functions                  I               56
Number of independent functions            I               56
Number of point charges in /Mol/           I                0
Number of translation vectors              I                0
Atomic numbers                             I   N=           4
           6           6           1           1
Nuclear charges                            R   N=           4
  6.00000000E+00  6.00000000E+00  1.00000000E+00  1.00000000E+00
Current cartesian coordinates              R   N=          12
 -1.21020251E+00  0.00000000E+00  0.00000000E+00  1.21020251E+00  0.00000000E+00
  0.00000000E+00 -3.22502033E+00 -7.62212559E-10 -4.93558024E-11  3.22501934E+00
 -9.57679074E-10  2.95607158E-11
Number of symbols in /Mol/                 I                0
Force Field                                I                0
Atom Types                                 C   N=           4
                                                
Int Atom Types                             I   N=           4
           0           0           0           0
MM charges                                 R   N=           4
  0.00000000E+00  0.00000000E+00  0.00000000E+00  0.00000000E+00
Integer atomic weights                     I   N=           4
          12          12           1           1
Real atomic weights                        R   N=           4
  1.20000000E+01  1.20000000E+01  1.00782504E+00  1.00782504E+00
Atom fragment info                         I   N=           4
           0           0           0           0
Atom residue num                           I   N=           4
           0           0           0           0
Nuclear spins                              I   N=           4
           0           0           1           1
Nuclear ZEff                               R   N=           4
 -3.60000000E+00 -3.60000000E+00 -1.00000000E+00 -1.00000000E+00
Nuclear ZNuc                               R   N=           4
  6.00000000E+00  6.00000000E+00  1.00000000E+00  1.00000000E+00
Nuclear QMom                               R   N=           4
  0.00000000E+00  0.00000000E+00  0.00000000E+00  0.00000000E+00
Nuclear GFac                               R   N=           4
  0.00000000E+00  0.00000000E+00  2.79284600E+00  2.79284600E+00
MicOpt                                     I   N=           4
          -2          -2          -1          -1
Number of residues                         I                0
Number of secondary structures             I                0
Redundant internal dimensions              I   N=           4
          12           8           4           0
Redundant internal coordinate indices      I   N=          48
           1          -1           0           0           1          -2
           0           0           1          -3           0           0
           2          -1           0           0           2          -2
           0           0           2          -3           0           0
           1           3           0           0           2           4
           0           0           2           1           3          -4
           1           2           4          -4           2           1
           3          -8           1           2           4          -8
Redundant internal coordinates             R   N=          12
 -1.21020251E+00  0.00000000E+00  0.00000000E+00  1.21020251E+00  0.00000000E+00
  0.00000000E+00  2.01481782E+00  2.01481682E+00  3.14159265E+00  3.14159265E+00
  3.14159265E+00  3.14159265E+00
ZRed-IntVec                                I   N=          12
          -1          -1          -1          -1          -1          -1
           0           0           0           0           0           0
ZRed-FPVec                                 R   N=          12
  0.00000000E+00  0.00000000E+00  0.00000000E+00  0.00000000E+00  0.00000000E+00
  0.00000000E+00  0.00000000E+00  0.00000000E+00  0.00000000E+00  0.00000000E+00
  0.00000000E+00  0.00000000E+00
ZRed-Constraint1                           R   N=          12
 -1.21020251E+00  0.00000000E+00  0.00000000E+00  1.21020251E+00  0.00000000E+00
  0.00000000E+00  2.15224238E+00  2.15221005E+00  3.14159265E+00  3.14159265E+00
  3.14159265E+00  3.14159265E+00
ZRed-Constraint2                           R   N=          12
 -1.21020251E+00  0.00000000E+00  0.00000000E+00  1.21020251E+00  0.00000000E+00
  0.00000000E+00  0.00000000E+00  0.00000000E+00  0.00000000E+00  0.00000000E+00
  0.00000000E+00  0.00000000E+00
Number of contracted shells                I               20
Number of primitive shells                 I               38
Pure/Cartesian d shells                    I                0
Pure/Cartesian f shells                    I                0
Highest angular momentum                   I                2
Largest degree of contraction              I                6
Shell types                                I   N=          20
           0          -1          -1          -1          -1          -2
           0          -1          -1          -1          -1          -2
           0           0           0           1           0           0
           0           1
Number of primitives per shell             I   N=          20
           6           3           1           1           1           1
           6           3           1           1           1           1
           3           1           1           1           3           1
           1           1
Shell to atom map                          I   N=          20
           1           1           1           1           1           1
           2           2           2           2           2           2
           3           3           3           3           4           4
           4           4
Primitive exponents                        R   N=          38
  4.56324000E+03  6.82024000E+02  1.54973000E+02  4.44553000E+01  1.30290000E+01
  1.82773000E+00  2.09642000E+01  4.80331000E+00  1.45933000E+00  4.83456000E-01
  1.45585000E-01  4.38000000E-02  6.26000000E-01  4.56324000E+03  6.82024000E+02
  1.54973000E+02  4.44553000E+01  1.30290000E+01  1.82773000E+00  2.09642000E+01
  4.80331000E+00  1.45933000E+00  4.83456000E-01  1.45585000E-01  4.38000000E-02
  6.26000000E-01  3.38650000E+01  5.09479000E+00  1.15879000E+00  3.25840000E-01
  1.02741000E-01  7.50000000E-01  3.38650000E+01  5.09479000E+00  1.15879000E+00
  3.25840000E-01  1.02741000E-01  7.50000000E-01
Contraction coefficients                   R   N=          38
  1.96665025E-03  1.52306019E-02  7.61269097E-02  2.60801033E-01  6.16462078E-01
  2.21006028E-01  1.14660081E-01  9.19999648E-01 -3.03068213E-03  1.00000000E+00
  1.00000000E+00  1.00000000E+00  1.00000000E+00  1.96665025E-03  1.52306019E-02
  7.61269097E-02  2.60801033E-01  6.16462078E-01  2.21006028E-01  1.14660081E-01
  9.19999648E-01 -3.03068213E-03  1.00000000E+00  1.00000000E+00  1.00000000E+00
  1.00000000E+00  2.54938145E-02  1.90373109E-01  8.52161486E-01  1.00000000E+00
  1.00000000E+00  1.00000000E+00  2.54938145E-02  1.90373109E-01  8.52161486E-01
  1.00000000E+00  1.00000000E+00  1.00000000E+00
P(S=P) Contraction coefficients            R   N=          38
  0.00000000E+00  0.00000000E+00  0.00000000E+00  0.00000000E+00  0.00000000E+00
  0.00000000E+00  4.02486927E-02  2.37593957E-01  8.15853851E-01  1.00000000E+00
  1.00000000E+00  1.00000000E+00  0.00000000E+00  0.00000000E+00  0.00000000E+00
  0.00000000E+00  0.00000000E+00  0.00000000E+00  0.00000000E+00  4.02486927E-02
  2.37593957E-01  8.15853851E-01  1.00000000E+00  1.00000000E+00  1.00000000E+00
  0.00000000E+00  0.00000000E+00  0.00000000E+00  0.00000000E+00  0.00000000E+00
  0.00000000E+00  0.00000000E+00  0.00000000E+00  0.00000000E+00  0.00000000E+00
  0.00000000E+00  0.00000000E+00  0.00000000E+00
Coordinates of each shell                  R   N=          60
 -1.21020251E+00  0.00000000E+00  0.00000000E+00 -1.21020251E+00  0.00000000E+00
  0.00000000E+00 -1.21020251E+00  0.00000000E+00  0.00000000E+00 -1.21020251E+00
  0.00000000E+00  0.00000000E+00 -1.21020251E+00  0.00000000E+00  0.00000000E+00
 -1.21020251E+00  0.00000000E+00  0.00000000E+00  1.21020251E+00  0.00000000E+00
  0.00000000E+00  1.21020251E+00  0.00000000E+00  0.00000000E+00  1.21020251E+00
  0.00000000E+00  0.00000000E+00  1.21020251E+00  0.00000000E+00  0.00000000E+00
  1.21020251E+00  0.00000000E+00  0.00000000E+00  1.21020251E+00  0.00000000E+00
  0.00000000E+00 -3.22502033E+00 -7.62212559E-10 -4.93558024E-11 -3.22502033E+00
 -7.62212559E-10 -4.93558024E-11 -3.22502033E+00 -7.62212559E-10 -4.93558024E-11
 -3.22502033E+00 -7.62212559E-10 -4.93558024E-11  3.22501934E+00 -9.57679074E-10
  2.95607158E-11  3.22501934E+00 -9.57679074E-10  2.95607158E-11  3.22501934E+00
 -9.57679074E-10  2.95607158E-11  3.22501934E+00 -9.57679074E-10  2.95607158E-11
Num ILSW                                   I              100
ILSW                                       I   N=         100
           1           0           0           1           2           0
           0           0           0           0        4336          -1
           7           0           0           0           2           0
           0           0           0           0           1           0
           1           1           0           0           0           0
           0           0      100000           0          -1           0
           0           0           0           0           0           0
           0           0           0           1           0           0
           0 -2000000000           1           0           0           0
           0           0           4          52           0           0
           0           0          55           0           0           0
           0           0           0           4           0           1
           0           0           0           0           0           0
           0           0           0           0           0           0
           0           0           0           0           0           0
           0           0           0           0           0           0
           0           0           0           0
Num RLSW                                   I               52
RLSW                                       R   N=          52
  1.00000000E+00  1.00000000E+00  1.00000000E+00  1.00000000E+00  5.40000000E-01
  0.00000000E+00  0.00000000E+00  1.00000000E+00  0.00000000E+00  0.00000000E+00
  0.00000000E+00  0.00000000E+00  1.00000000E+00  0.00000000E+00  0.00000000E+00
  0.00000000E+00  0.00000000E+00  1.00000000E+00  0.00000000E+00  0.00000000E+00
  0.00000000E+00  0.00000000E+00  1.00000000E+00  0.00000000E+00  0.00000000E+00
  0.00000000E+00  0.00000000E+00  1.00000000E+00  0.00000000E+00  0.00000000E+00
  0.00000000E+00  0.00000000E+00  1.00000000E+00  0.00000000E+00  0.00000000E+00
  0.00000000E+00  0.00000000E+00  0.00000000E+00  1.00000000E+00  1.00000000E+00
  0.00000000E+00  1.00000000E+00  0.00000000E+00  0.00000000E+00  0.00000000E+00
  0.00000000E+00  0.00000000E+00  0.00000000E+00  0.00000000E+00  0.00000000E+00
  0.00000000E+00  0.00000000E+00
MxBond                                     I                2
NBond                                      I   N=           4
           2           2           1           1
IBond                                      I   N=           8
           2           3           1           4           1           0
           2           0
RBond                                      R   N=           8
  2.00000000E+00  1.00000000E+00  2.00000000E+00  1.00000000E+00  1.00000000E+00
  0.00000000E+00  1.00000000E+00  0.00000000E+00
Virial Ratio                               R      2.008519813305417E+00
SCF Energy                                 R     -7.730390862254974E+01
Total Energy                               R     -7.730390862254974E+01
S**2                                       R     -3.375077994860476E-14
S**2 after annihilation                    R      1.456612608308182E-13
RMS Force                                  R      8.899022394619607E-06
RMS Density                                R      1.797964094879596E-09
Job Status                                 I                1
Nuclear derivative order                   I                1
External E-field                           R   N=          35
  0.00000000E+00  0.00000000E+00  0.00000000E+00  0.00000000E+00  0.00000000E+00
  0.00000000E+00  0.00000000E+00  0.00000000E+00  0.00000000E+00  0.00000000E+00
  0.00000000E+00  0.00000000E+00  0.00000000E+00  0.00000000E+00  0.00000000E+00
  0.00000000E+00  0.00000000E+00  0.00000000E+00  0.00000000E+00  0.00000000E+00
  0.00000000E+00  0.00000000E+00  0.00000000E+00  0.00000000E+00  0.00000000E+00
  0.00000000E+00  0.00000000E+00  0.00000000E+00  0.00000000E+00  0.00000000E+00
  0.00000000E+00  0.00000000E+00  0.00000000E+00  0.00000000E+00  0.00000000E+00
IOpCl                                      I                1
IROHF                                      I                0
Alpha Orbital Energies                     R   N=          56
 -1.05717103E+01 -1.05701122E+01 -8.36766152E-01 -6.57703686E-01 -5.65661340E-01
 -3.45328599E-01 -3.45328599E-01  2.55027080E-02  2.63613926E-02  3.18584495E-02
  3.18584495E-02  7.78027385E-02  7.78027385E-02  9.30083602E-02  1.35944151E-01
  1.35944151E-01  1.49857463E-01  1.92884616E-01  2.41291811E-01  3.77236806E-01
  4.51043186E-01  5.75618743E-01  5.75618743E-01  6.45306696E-01  6.45306696E-01
  7.16558807E-01  7.28551905E-01  8.38388978E-01  9.47495268E-01  1.08000587E+00
  1.08355844E+00  1.08355844E+00  1.22011588E+00  1.22011687E+00  1.46614141E+00
  1.46614141E+00  1.57252847E+00  1.57252969E+00  1.70822357E+00  1.83780008E+00
  1.83780008E+00  2.06580966E+00  2.45499485E+00  2.45499485E+00  2.55393782E+00
  2.66763845E+00  2.78038158E+00  2.78038158E+00  2.98457452E+00  2.98649858E+00
  2.98649858E+00  3.29631914E+00  3.33748511E+00  3.74673495E+00  2.36107858E+01
  2.48936677E+01
Beta Orbital Energies                      R   N=          56
 -1.05717103E+01 -1.05701122E+01 -8.36766152E-01 -6.57703686E-01 -5.65661340E-01
 -3.45328599E-01 -3.45328599E-01  2.55027080E-02  2.63613926E-02  3.18584495E-02
  3.18584495E-02  7.78027385E-02  7.78027385E-02  9.30083602E-02  1.35944151E-01
  1.35944151E-01  1.49857463E-01  1.92884616E-01  2.41291811E-01  3.77236806E-01
  4.51043186E-01  5.75618743E-01  5.75618743E-01  6.45306696E-01  6.45306696E-01
  7.16558807E-01  7.28551905E-01  8.38388978E-01  9.47495268E-01  1.08000587E+00
  1.08355844E+00  1.08355844E+00  1.22011588E+00  1.22011687E+00  1.46614141E+00
  1.46614141E+00  1.57252847E+00  1.57252969E+00  1.70822357E+00  1.83780008E+00
  1.83780008E+00  2.06580966E+00  2.45499485E+00  2.45499485E+00  2.55393782E+00
  2.66763845E+00  2.78038158E+00  2.78038158E+00  2.98457452E+00  2.98649858E+00
  2.98649858E+00  3.29631914E+00  3.33748511E+00  3.74673495E+00  2.36107858E+01
  2.48936677E+01
Alpha MO coefficients                      R   N=        3136
  3.98765206E-01  3.28119128E-01 -2.89352397E-05  4.60706108E-13 -2.36507806E-15
  8.00232954E-03 -2.14906708E-03 -1.35532130E-12 -5.16092806E-14 -2.39684131E-03
 -1.77022934E-04  2.74907128E-13  4.27700889E-15 -4.52881217E-04  1.53002519E-03
  5.60502467E-14  4.07242101E-14 -6.33975163E-04  7.01345201E-14  1.09193636E-17
  1.09807719E-03  7.36277706E-13  3.98753503E-01  3.28109526E-01  2.89109014E-05
  4.02273360E-13  1.81602261E-14  8.00197262E-03  2.14921527E-03 -1.45835859E-12
 -1.11387491E-15 -2.39651119E-03  1.76681199E-04  2.00806264E-13 -2.49906755E-15
 -4.52342144E-04 -1.53016901E-03  2.85474755E-13 -3.66795330E-14 -6.33899860E-04
  2.70981933E-14 -1.14400027E-18  1.09794676E-03 -1.08754060E-12  6.10874200E-05
 -3.64869235E-03  2.64844377E-03 -2.03636286E-03 -7.85591348E-13 -4.62193444E-14
  6.10938561E-05 -3.64854867E-03  2.64852640E-03  2.03629975E-03 -9.44221515E-13
  8.82446715E-14 -3.99049507E-01 -3.27401686E-01  8.05914305E-04 -2.70883247E-13
  9.52172922E-15 -1.23997148E-02 -4.77980930E-03  3.80664146E-13  3.94028954E-14
  1.15648279E-02  1.19643006E-02  2.09003482E-12  7.16571019E-14  1.95961944E-02
  5.18484557E-03  1.02637114E-12  1.90744178E-14  2.62047371E-03 -7.84150449E-14
  2.75762620E-19 -4.53879361E-03 -1.47215233E-12  3.99061200E-01  3.27411308E-01
  8.05915066E-04  2.26613944E-13  1.43276442E-14  1.23999551E-02 -4.77974021E-03
 -6.25041023E-13  3.60053926E-14 -1.15648919E-02  1.19643080E-02 -2.24011715E-12
 -1.39206489E-14 -1.95962079E-02  5.18480111E-03 -1.10109859E-12  1.20159022E-14
 -2.62049367E-03 -8.66104713E-16 -8.30834968E-18  4.53882818E-03 -1.72244217E-12
  2.74197352E-04  5.30421406E-03  2.74009174E-03  2.31592847E-03  1.41179906E-12
  1.07063995E-13 -2.74198147E-04 -5.30432906E-03 -2.74001636E-03  2.31599141E-03
 -1.86414474E-12  1.37935978E-13 -9.04202627E-02 -1.45221840E-01  6.15002381E-02
 -7.42423004E-12 -3.93828403E-13  3.77891999E-01  6.31668580E-02 -1.32496739E-11
 -6.00515399E-13  2.19106921E-01  8.39377186E-03 -3.21426864E-12 -4.57532971E-13
 -1.60876545E-03 -1.63116135E-02 -2.03444264E-12 -7.06004517E-14 -1.25785531E-02
  3.30338445E-13  1.10579843E-17  2.17866930E-02  5.69293084E-12 -9.04202895E-02
 -1.45221884E-01 -6.15001882E-02 -9.10227363E-12  1.88563911E-13  3.77892115E-01
 -6.31668005E-02 -1.55249701E-11  3.06897859E-13  2.19106981E-01 -8.39374232E-03
 -7.51834788E-12  3.50273343E-13 -1.60883352E-03  1.63116313E-02 -1.04631095E-12
  2.72095287E-14 -1.25785615E-02  2.02340566E-13  1.29343638E-17  2.17867076E-02
 -7.24962965E-12  5.01908169E-02  4.77257833E-02 -6.72237955E-03  1.46676757E-03
 -2.16968573E-12 -2.03200782E-13  5.01908909E-02  4.77258383E-02 -6.72238651E-03
 -1.46677250E-03 -2.41987090E-12  1.11958497E-13 -6.16899472E-02 -1.01087388E-01
 -9.17026585E-02 -1.98110996E-11 -1.82219442E-12  2.73039204E-01 -1.16822058E-01
 -2.16044207E-11 -2.57482830E-12  2.40512192E-01 -4.33443176E-02 -1.19243830E-11
 -6.69952857E-13 -2.66014123E-01 -7.17503941E-02 -5.44283318E-12 -1.17165969E-12
 -8.89431765E-03  3.24900790E-13 -2.89327771E-17  1.54054101E-02  1.13457600E-11
  6.16899137E-02  1.01087331E-01 -9.17030043E-02  2.81810737E-11 -1.23551519E-12
 -2.73039026E-01 -1.16822443E-01  3.38185264E-11 -1.76052609E-12 -2.40512062E-01
 -4.33444337E-02  1.67511672E-11 -1.07256197E-12  2.66014122E-01 -7.17503758E-02
  5.42090382E-12  1.71245245E-12  8.89430717E-03 -9.49314585E-14 -9.95639932E-18
 -1.54053919E-02  1.29116317E-11  1.32067580E-01  1.75081506E-01  2.77901839E-02
  1.81269500E-02  8.27570632E-12  2.75589525E-13 -1.32067823E-01 -1.75081806E-01
 -2.77902431E-02  1.81269985E-02 -1.00583292E-11  1.04539478E-13 -2.01216158E-03
 -3.97657350E-03  1.86325521E-01  4.43330032E-11  1.91999082E-12  1.32063309E-02
  2.31003592E-01  5.73323014E-11  2.21371398E-12 -3.62801266E-02  1.07845832E-01
  2.79750739E-11  1.99240363E-12 -8.14771431E-03  6.73566073E-03  3.28814158E-13
 -5.14683754E-13 -3.34017656E-03 -1.45000787E-13  8.88304457E-17  5.78535551E-03
  1.81701285E-12 -2.01225052E-03 -3.97672243E-03 -1.86325404E-01  5.14656550E-11
 -7.70188288E-13  1.32067612E-02 -2.31003362E-01  6.50708756E-11 -6.92895436E-13
 -3.62797057E-02 -1.07845691E-01  3.29434130E-11 -1.57340299E-12 -8.14838004E-03
 -6.73547364E-03  1.96848919E-12  7.36386355E-13 -3.34018921E-03 -1.74192797E-13
 -8.83621667E-17  5.78537741E-03  6.49267282E-14 -1.36079394E-01 -2.06328140E-01
 -3.93925500E-02 -2.60746734E-02 -1.18839291E-11 -7.40623733E-13 -1.36079235E-01
 -2.06327878E-01 -3.93924842E-02  2.60746597E-02 -1.54233196E-11  4.72982835E-13
 -9.51727280E-13 -1.48467184E-12 -2.09783014E-12  1.64898806E-03  1.84782678E-01
  2.61499286E-12 -4.00182689E-12  2.59810342E-03  2.91138862E-01  6.52840856E-11
  5.05375362E-11  2.06964953E-03  2.31921256E-01  7.24487711E-11  2.40295855E-11
  2.07843410E-04  2.32905640E-02 -9.50799154E-14  2.18790724E-02 -3.42193536E-13
 -1.45256192E-13  1.95247355E-04  6.91948814E-13  1.06915075E-12  6.25103532E-13
  1.64898807E-03  1.84782678E-01 -2.02682163E-12 -5.59204244E-13  2.59810346E-03
  2.91138867E-01 -5.34788239E-11  5.89278598E-11  2.06964954E-03  2.31921258E-01
 -6.85455302E-11  3.00636219E-11  2.07843365E-04  2.32905590E-02  2.98245352E-14
 -2.18790739E-02 -1.33786934E-12  2.72809396E-13 -1.95247368E-04 -9.77002218E-13
  5.16810090E-12  2.91488020E-11 -9.26711525E-14  1.43736121E-04  1.61068148E-02
  1.08451785E-12 -6.68596653E-12 -3.91236546E-11  5.96440371E-13  1.43736225E-04
  1.61068265E-02 -3.96017891E-12 -6.87662943E-12 -6.11497006E-11  1.84782678E-01
 -1.64898806E-03  1.50099136E-11 -8.15083897E-11  2.91138862E-01 -2.59810342E-03
  4.97298248E-11 -1.43918605E-10  2.31921256E-01 -2.06964953E-03 -1.12526295E-09
 -3.39895978E-10  2.32905640E-02 -2.07843410E-04 -1.71435326E-12 -1.95247355E-04
 -1.56407104E-13  3.88894296E-12  2.18790724E-02 -8.65353075E-12 -1.41695959E-11
  6.51114856E-11  1.84782678E-01 -1.64898807E-03  3.63205017E-11  1.01500250E-10
  2.91138867E-01 -2.59810346E-03  1.54802559E-10  2.84168737E-12  2.31921258E-01
 -2.06964954E-03  1.16306891E-09 -2.70360777E-10  2.32905590E-02 -2.07843365E-04
  3.10697789E-12  1.95247368E-04  1.65971500E-13 -2.15251757E-12 -2.18790739E-02
  2.14151517E-12 -1.14944902E-11 -5.04892585E-11 -1.07502628E-11  1.61068148E-02
 -1.43736121E-04 -3.11163737E-12  1.80417641E-11  1.28387044E-11  8.97374433E-12
  1.61068265E-02 -1.43736225E-04 -1.54264467E-02 -2.66995371E-02 -3.07736967E-02
 -3.26847955E-12 -2.17557197E-11  9.20774471E-02 -6.77355447E-02 -2.03999256E-11
 -3.64828720E-11  2.68137369E-04  2.13951087E-02  2.29814393E-11 -5.44985450E-11
 -1.12406908E+00  1.24157953E+00  8.61343326E-11 -1.45810409E-10 -7.03080366E-03
  5.26881951E-12 -9.84502847E-17  1.21777092E-02  7.03252667E-12 -1.54260997E-02
 -2.66989545E-02  3.07734053E-02 -4.48038558E-12  2.26675435E-11  9.20756783E-02
  6.77347481E-02 -2.16671104E-11  3.47249354E-11  2.61853929E-04 -2.13906527E-02
  2.66948887E-11  5.98568587E-11 -1.12431999E+00 -1.24150197E+00  3.08390105E-10
  1.43877387E-10 -7.03088205E-03  4.95075295E-12  8.60011256E-17  1.21778449E-02
 -7.81441394E-12  3.01947187E-02 -7.56089220E-02  7.77771580E-01  7.43955003E-03
  3.43920493E-12 -3.97700391E-12  3.01947704E-02 -7.56081592E-02  7.77764404E-01
 -7.43926416E-03  4.30470500E-12  4.19314911E-12 -2.28120983E-02 -3.83816364E-02
 -1.95436349E-02 -5.50384501E-11 -1.46911181E-11  1.18098526E-01 -5.74668608E-02
 -1.67047724E-10 -2.50346520E-11  4.51821525E-01  3.59476154E-01  2.34335218E-11
 -3.19907334E-11  1.67896839E+01  5.22369379E+00 -2.98223578E-10 -1.19442010E-10
  4.74499414E-03  3.04520844E-12 -7.68120974E-17 -8.21857094E-03  2.93280966E-11
  2.28123191E-02  3.83820195E-02 -1.95440016E-02  7.23106085E-11  1.29765893E-11
 -1.18099855E-01 -5.74677596E-02  1.46043850E-10  2.34629744E-11 -4.51821125E-01
  3.59476810E-01  4.67571822E-11  2.80784821E-11 -1.67896674E+01  5.22371130E+00
  1.84506436E-10  1.39369015E-10 -4.74488040E-03  3.49387681E-12  8.80364167E-17
  8.21837394E-03  1.52378293E-11 -1.57363654E-03 -4.36733242E-02  5.47772372E-01
  1.78939479E-02 -3.02744003E-12 -2.09567797E-12  1.57315554E-03  4.36742524E-02
 -5.47784197E-01  1.78940271E-02  5.15066814E-12  3.21598939E-12 -4.61816626E-11
 -8.06155285E-11 -2.32406639E-11  1.40553634E-01 -6.80632795E-04  2.78355380E-10
 -7.49246917E-11  2.28024283E-01 -1.10421055E-03 -1.22708640E-09 -1.79532535E-09
  3.55175311E-01 -1.71994105E-03 -2.38353638E-09 -5.08317461E-10  1.11377675E+00
 -5.39347838E-03  1.04288720E-11  1.59070974E-04 -1.57561769E-13 -1.39213859E-11
 -3.28488483E-02  4.69882183E-11  8.18817752E-11 -3.92639049E-11 -1.40553638E-01
  6.80632818E-04 -2.79833693E-10 -9.84656232E-11 -2.28024286E-01  1.10421056E-03
  1.20804078E-09 -1.82066408E-09 -3.55175337E-01  1.71994118E-03  2.33927637E-09
 -4.91102755E-10 -1.11377667E+00  5.39347800E-03 -1.29868536E-11  1.59070966E-04
 -1.39969400E-13  1.61603083E-11 -3.28488466E-02 -4.96810502E-11 -5.03307952E-10
 -7.89948281E-10 -1.33199315E-11  2.89274627E-02 -1.40081614E-04  6.10069086E-11
  5.28966456E-10  8.08738570E-10 -1.25491467E-11 -2.89274622E-02  1.40081611E-04
 -6.92526770E-12 -1.22029929E-11 -1.30814919E-11  6.80632795E-04  1.40553634E-01
  4.17913775E-11 -2.27076336E-11  1.10421055E-03  2.28024283E-01 -1.32730702E-10
 -2.76881157E-10  1.71994105E-03  3.55175311E-01  1.22590352E-09  5.76476861E-10
  5.39347838E-03  1.11377675E+00 -1.32149245E-12 -3.28488483E-02 -1.95913755E-12
  1.97405110E-12 -1.59070974E-04  1.11062468E-12  2.29925976E-12  6.62195168E-12
 -6.80632818E-04 -1.40553638E-01 -1.31018374E-11  8.83866256E-12 -1.10421056E-03
 -2.28024286E-01  2.41778247E-10 -2.04962257E-10 -1.71994118E-03 -3.55175337E-01
 -1.53098319E-09  2.21227525E-10 -5.39347800E-03 -1.11377667E+00 -1.26729383E-12
 -3.28488466E-02  2.85611233E-12  1.93681982E-12 -1.59070966E-04  2.42151311E-12
 -7.79627510E-11 -7.43407712E-11 -1.90571904E-12  1.40081614E-04  2.89274627E-02
  3.55741745E-12  2.47491228E-11  1.85597302E-10 -1.41723878E-12 -1.40081611E-04
 -2.89274622E-02 -6.36206855E-13 -8.73741080E-13  1.29835100E-12 -6.81597347E-02
 -8.43638004E-05 -7.84250580E-12  2.13740071E-12 -5.35534417E-02 -6.62850564E-05
  1.53919134E-10 -6.61961941E-11 -2.91726824E-01 -3.61080976E-04 -1.63711243E-10
 -3.71817275E-10  6.46818123E-01  8.00590484E-04 -2.98839685E-12 -1.39357428E-05
  6.75251437E-14  3.75977306E-12 -1.12590534E-02  3.20769439E-12  5.73237573E-12
 -6.37784661E-12 -6.81597088E-02 -8.43637682E-05 -2.27646475E-11 -2.33539768E-12
 -5.35534031E-02 -6.62850087E-05  6.19518523E-11  3.55053689E-11 -2.91726750E-01
 -3.61080884E-04  5.35370173E-10  3.04083650E-10  6.46818185E-01  8.00590561E-04
 -9.48792724E-13  1.39357467E-05 -5.40467687E-14 -8.25620908E-13  1.12590565E-02
  1.51908913E-13 -5.82678080E-11 -1.60211936E-10 -3.61209965E-13  4.78435696E-03
  5.92177386E-06  5.80936546E-14 -4.42298867E-11 -1.76378484E-10 -5.36504432E-13
  4.78435171E-03  5.92176737E-06  9.33079844E-13  1.87307980E-12 -6.18894916E-13
  8.43638004E-05 -6.81597347E-02 -8.90975566E-12  6.22837614E-14  6.62850564E-05
 -5.35534417E-02  1.20801057E-10  1.18564416E-10  3.61080976E-04 -2.91726824E-01
 -1.57376154E-10 -1.96859337E-11 -8.00590484E-04  6.46818123E-01  4.58371889E-13
 -1.12590534E-02  6.20320554E-13 -6.58909957E-13  1.39357428E-05 -1.10300776E-12
 -2.11244561E-12  1.70059885E-12  8.43637682E-05 -6.81597088E-02  8.43414708E-12
  1.23175463E-12  6.62850087E-05 -5.35534031E-02 -8.88209343E-11  1.43457595E-10
  3.61080884E-04 -2.91726750E-01  1.72378920E-10 -2.00060337E-11 -8.00590561E-04
  6.46818185E-01 -3.08449155E-13  1.12590565E-02  1.05745318E-12  4.22472676E-13
 -1.39357467E-05  1.15156190E-12  1.69049186E-11  7.79669361E-11  2.16207062E-12
 -5.92177386E-06  4.78435696E-03 -1.08235862E-12 -2.40418632E-11 -1.25712033E-10
  2.12149174E-12 -5.92176737E-06  4.78435171E-03 -8.49048765E-03 -1.30716335E-02
  6.13802137E-02  1.14606629E-11  1.94175592E-12  9.16291346E-03  3.33210911E-02
 -1.32558916E-12  3.07784275E-12  1.97453382E-01  2.23984048E-01  6.12680412E-11
  3.43079703E-12 -4.23076191E-01 -1.14254214E+00 -7.95091283E-11  5.02559345E-11
 -2.26233701E-02 -1.04676730E-13  1.57351927E-16  3.91848264E-02  1.40662598E-11
 -8.49052481E-03 -1.30716989E-02 -6.13802061E-02  1.58233259E-11 -2.69019191E-12
  9.16313265E-03 -3.33210163E-02  6.31819092E-12 -5.24100832E-12  1.97453308E-01
 -2.23983168E-01  7.79951070E-11 -5.56515476E-12 -4.23083339E-01  1.14254516E+00
  1.13221925E-10 -3.84947347E-11 -2.26233613E-02 -2.84708922E-13 -9.90022527E-17
  3.91848112E-02 -1.61105738E-11  3.23632319E-02  4.38694284E-02  4.37686390E-01
 -3.29232695E-02 -8.95235517E-12  2.41550349E-13  3.23630963E-02  4.38690395E-02
  4.37684664E-01  3.29232974E-02 -9.08799815E-12 -1.80141240E-13  9.85488662E-11
  1.65781502E-10 -1.06275397E-11 -1.46031328E-01  1.68694525E-04 -5.27329435E-10
 -2.46997121E-11 -1.69913229E-01  1.96282756E-04  1.64309823E-09  3.42467100E-09
 -7.56940788E-01  8.74413516E-04 -5.30464847E-08 -1.12116440E-08  2.08713330E+00
 -2.41104403E-03 -9.21716269E-11 -2.45216692E-05  2.07690605E-13  1.53248382E-10
  2.12273156E-02 -1.01723444E-10 -1.70231597E-10  1.68906811E-12  1.46031325E-01
 -1.68694522E-04  5.24433184E-10 -1.45823208E-11  1.69913230E-01 -1.96282757E-04
 -1.43222232E-09  3.52529643E-09  7.56940792E-01 -8.74413520E-04  5.30364843E-08
 -1.10844548E-08 -2.08713333E+00  2.41104406E-03  9.24652520E-11 -2.45216741E-05
  1.55588373E-13 -1.50735288E-10  2.12273198E-02  2.58730904E-10  6.24307007E-10
  6.24144990E-09 -5.17133219E-11 -9.48855286E-03  1.09611201E-05 -2.64006335E-10
 -6.47207274E-10 -6.41492283E-09 -4.91077278E-11  9.48856249E-03 -1.09611312E-05
 -7.58624199E-12 -1.32525483E-11  4.56439725E-13 -1.68694525E-04 -1.46031328E-01
  4.76117862E-11  4.57529707E-12 -1.96282756E-04 -1.69913229E-01 -3.75706584E-10
 -5.65123719E-10 -8.74413516E-04 -7.56940788E-01  2.58999233E-09  4.26307955E-10
  2.41104403E-03  2.08713330E+00  5.65798860E-12  2.12273156E-02  2.99066438E-12