Title Card Required                                                     
FOpt      UM062X                                                      6-311+G(d,p)        
Number of atoms                            I                4
Info1-9                                    I   N=           9
          13          13           0           0           0         110
           2          18        -502
Full Title                                 C   N=           2
Title Card Required     
Route                                      C   N=           4
#p opt UM062X/6-311+G** nosymm int=superfine    
Charge                                     I                0
Multiplicity                               I                1
Number of electrons                        I               14
Number of alpha electrons                  I                7
Number of beta electrons                   I                7
Number of basis functions                  I               56
Number of independent functions            I               56
Number of point charges in /Mol/           I                0
Number of translation vectors              I                0
Atomic numbers                             I   N=           4
           6           6           1           1
Nuclear charges                            R   N=           4
  6.00000000E+00  6.00000000E+00  1.00000000E+00  1.00000000E+00
Current cartesian coordinates              R   N=          12
 -1.14234067E+00  0.00000000E+00  0.00000000E+00  1.14234067E+00  0.00000000E+00
  0.00000000E+00 -3.15428676E+00 -1.82296191E-07  2.09959190E-07  3.15428664E+00
 -5.46858748E-07  5.23206255E-07
Number of symbols in /Mol/                 I                0
Force Field                                I                0
Atom Types                                 C   N=           4
                                                
Int Atom Types                             I   N=           4
           0           0           0           0
MM charges                                 R   N=           4
  0.00000000E+00  0.00000000E+00  0.00000000E+00  0.00000000E+00
Integer atomic weights                     I   N=           4
          12          12           1           1
Real atomic weights                        R   N=           4
  1.20000000E+01  1.20000000E+01  1.00782504E+00  1.00782504E+00
Atom fragment info                         I   N=           4
           0           0           0           0
Atom residue num                           I   N=           4
           0           0           0           0
Nuclear spins                              I   N=           4
           0           0           1           1
Nuclear ZEff                               R   N=           4
 -3.60000000E+00 -3.60000000E+00 -1.00000000E+00 -1.00000000E+00
Nuclear ZNuc                               R   N=           4
  6.00000000E+00  6.00000000E+00  1.00000000E+00  1.00000000E+00
Nuclear QMom                               R   N=           4
  0.00000000E+00  0.00000000E+00  0.00000000E+00  0.00000000E+00
Nuclear GFac                               R   N=           4
  0.00000000E+00  0.00000000E+00  2.79284600E+00  2.79284600E+00
MicOpt                                     I   N=           4
          -2          -2          -1          -1
Number of residues                         I                0
Number of secondary structures             I                0
Redundant internal dimensions              I   N=           4
          12           8           4           0
Redundant internal coordinate indices      I   N=          48
           1          -1           0           0           1          -2
           0           0           1          -3           0           0
           2          -1           0           0           2          -2
           0           0           2          -3           0           0
           1           3           0           0           2           4
           0           0           2           1           3          -4
           1           2           4          -4           2           1
           3          -8           1           2           4          -8
Redundant internal coordinates             R   N=          12
 -1.14234067E+00  0.00000000E+00  0.00000000E+00  1.14234067E+00  0.00000000E+00
  0.00000000E+00  2.01194609E+00  2.01194597E+00  3.14159255E+00  3.14159291E+00
  3.14159256E+00  3.14159293E+00
ZRed-IntVec                                I   N=          12
          -1          -1          -1          -1          -1          -1
           0           0           0           0           0           0
ZRed-FPVec                                 R   N=          12
  0.00000000E+00  0.00000000E+00  0.00000000E+00  0.00000000E+00  0.00000000E+00
  0.00000000E+00  0.00000000E+00  0.00000000E+00  0.00000000E+00  0.00000000E+00
  0.00000000E+00  0.00000000E+00
ZRed-Constraint1                           R   N=          12
 -1.14234067E+00  0.00000000E+00  0.00000000E+00  1.14234067E+00  0.00000000E+00
  0.00000000E+00  2.03155591E+00  2.03152537E+00  3.14159265E+00  3.14159263E+00
  3.14159265E+00  3.14159263E+00
ZRed-Constraint2                           R   N=          12
 -1.14234067E+00  0.00000000E+00  0.00000000E+00  1.14234067E+00  0.00000000E+00
  0.00000000E+00  0.00000000E+00  0.00000000E+00  0.00000000E+00  0.00000000E+00
  0.00000000E+00  0.00000000E+00
Number of contracted shells                I               20
Number of primitive shells                 I               38
Pure/Cartesian d shells                    I                0
Pure/Cartesian f shells                    I                0
Highest angular momentum                   I                2
Largest degree of contraction              I                6
Shell types                                I   N=          20
           0          -1          -1          -1          -1          -2
           0          -1          -1          -1          -1          -2
           0           0           0           1           0           0
           0           1
Number of primitives per shell             I   N=          20
           6           3           1           1           1           1
           6           3           1           1           1           1
           3           1           1           1           3           1
           1           1
Shell to atom map                          I   N=          20
           1           1           1           1           1           1
           2           2           2           2           2           2
           3           3           3           3           4           4
           4           4
Primitive exponents                        R   N=          38
  4.56324000E+03  6.82024000E+02  1.54973000E+02  4.44553000E+01  1.30290000E+01
  1.82773000E+00  2.09642000E+01  4.80331000E+00  1.45933000E+00  4.83456000E-01
  1.45585000E-01  4.38000000E-02  6.26000000E-01  4.56324000E+03  6.82024000E+02
  1.54973000E+02  4.44553000E+01  1.30290000E+01  1.82773000E+00  2.09642000E+01
  4.80331000E+00  1.45933000E+00  4.83456000E-01  1.45585000E-01  4.38000000E-02
  6.26000000E-01  3.38650000E+01  5.09479000E+00  1.15879000E+00  3.25840000E-01
  1.02741000E-01  7.50000000E-01  3.38650000E+01  5.09479000E+00  1.15879000E+00
  3.25840000E-01  1.02741000E-01  7.50000000E-01
Contraction coefficients                   R   N=          38
  1.96665025E-03  1.52306019E-02  7.61269097E-02  2.60801033E-01  6.16462078E-01
  2.21006028E-01  1.14660081E-01  9.19999648E-01 -3.03068213E-03  1.00000000E+00
  1.00000000E+00  1.00000000E+00  1.00000000E+00  1.96665025E-03  1.52306019E-02
  7.61269097E-02  2.60801033E-01  6.16462078E-01  2.21006028E-01  1.14660081E-01
  9.19999648E-01 -3.03068213E-03  1.00000000E+00  1.00000000E+00  1.00000000E+00
  1.00000000E+00  2.54938145E-02  1.90373109E-01  8.52161486E-01  1.00000000E+00
  1.00000000E+00  1.00000000E+00  2.54938145E-02  1.90373109E-01  8.52161486E-01
  1.00000000E+00  1.00000000E+00  1.00000000E+00
P(S=P) Contraction coefficients            R   N=          38
  0.00000000E+00  0.00000000E+00  0.00000000E+00  0.00000000E+00  0.00000000E+00
  0.00000000E+00  4.02486927E-02  2.37593957E-01  8.15853851E-01  1.00000000E+00
  1.00000000E+00  1.00000000E+00  0.00000000E+00  0.00000000E+00  0.00000000E+00
  0.00000000E+00  0.00000000E+00  0.00000000E+00  0.00000000E+00  4.02486927E-02
  2.37593957E-01  8.15853851E-01  1.00000000E+00  1.00000000E+00  1.00000000E+00
  0.00000000E+00  0.00000000E+00  0.00000000E+00  0.00000000E+00  0.00000000E+00
  0.00000000E+00  0.00000000E+00  0.00000000E+00  0.00000000E+00  0.00000000E+00
  0.00000000E+00  0.00000000E+00  0.00000000E+00
Coordinates of each shell                  R   N=          60
 -1.14234067E+00  0.00000000E+00  0.00000000E+00 -1.14234067E+00  0.00000000E+00
  0.00000000E+00 -1.14234067E+00  0.00000000E+00  0.00000000E+00 -1.14234067E+00
  0.00000000E+00  0.00000000E+00 -1.14234067E+00  0.00000000E+00  0.00000000E+00
 -1.14234067E+00  0.00000000E+00  0.00000000E+00  1.14234067E+00  0.00000000E+00
  0.00000000E+00  1.14234067E+00  0.00000000E+00  0.00000000E+00  1.14234067E+00
  0.00000000E+00  0.00000000E+00  1.14234067E+00  0.00000000E+00  0.00000000E+00
  1.14234067E+00  0.00000000E+00  0.00000000E+00  1.14234067E+00  0.00000000E+00
  0.00000000E+00 -3.15428676E+00 -1.82296191E-07  2.09959190E-07 -3.15428676E+00
 -1.82296191E-07  2.09959190E-07 -3.15428676E+00 -1.82296191E-07  2.09959190E-07
 -3.15428676E+00 -1.82296191E-07  2.09959190E-07  3.15428664E+00 -5.46858748E-07
  5.23206255E-07  3.15428664E+00 -5.46858748E-07  5.23206255E-07  3.15428664E+00
 -5.46858748E-07  5.23206255E-07  3.15428664E+00 -5.46858748E-07  5.23206255E-07
Num ILSW                                   I              100
ILSW                                       I   N=         100
           1           0           0           1           2           0
           0           0           0           0        4336          -1
           7           0           0           0           2           0
           0           0           0           0           1           0
           1           1           0           0           0           0
           0           0      100000           0          -1           0
           0           0           0           0           0           0
           0           0           0           1           0           0
           0 -2000000000           1           0           0           0
           0           0           4          52           0           0
           0           0          55           0           0           0
           0           0           0           4           0           1
           0           0           0           0           0           0
           0           0           0           0           0           0
           0           0           0           0           0           0
           0           0           0           0           0           0
           0           0           0           0
Num RLSW                                   I               52
RLSW                                       R   N=          52
  1.00000000E+00  1.00000000E+00  1.00000000E+00  1.00000000E+00  5.40000000E-01
  0.00000000E+00  0.00000000E+00  1.00000000E+00  0.00000000E+00  0.00000000E+00
  0.00000000E+00  0.00000000E+00  1.00000000E+00  0.00000000E+00  0.00000000E+00
  0.00000000E+00  0.00000000E+00  1.00000000E+00  0.00000000E+00  0.00000000E+00
  0.00000000E+00  0.00000000E+00  1.00000000E+00  0.00000000E+00  0.00000000E+00
  0.00000000E+00  0.00000000E+00  1.00000000E+00  0.00000000E+00  0.00000000E+00
  0.00000000E+00  0.00000000E+00  1.00000000E+00  0.00000000E+00  0.00000000E+00
  0.00000000E+00  0.00000000E+00  0.00000000E+00  1.00000000E+00  1.00000000E+00
  0.00000000E+00  1.00000000E+00  0.00000000E+00  0.00000000E+00  0.00000000E+00
  0.00000000E+00  0.00000000E+00  0.00000000E+00  0.00000000E+00  0.00000000E+00
  0.00000000E+00  0.00000000E+00
MxBond                                     I                2
NBond                                      I   N=           4
           2           2           1           1
IBond                                      I   N=           8
           2           3           1           4           1           0
           2           0
RBond                                      R   N=           8
  3.00000000E+00  1.00000000E+00  3.00000000E+00  1.00000000E+00  1.00000000E+00
  0.00000000E+00  1.00000000E+00  0.00000000E+00
Virial Ratio                               R      2.004782780416591E+00
SCF Energy                                 R     -7.731598923572608E+01
Total Energy                               R     -7.731598923572608E+01
S**2                                       R     -1.421085471520200E-14
S**2 after annihilation                    R      3.907985046680558E-14
RMS Force                                  R      3.404354640215404E-08
RMS Density                                R      9.076600517660439E-09
Job Status                                 I                1
Nuclear derivative order                   I                1
External E-field                           R   N=          35
  0.00000000E+00  0.00000000E+00  0.00000000E+00  0.00000000E+00  0.00000000E+00
  0.00000000E+00  0.00000000E+00  0.00000000E+00  0.00000000E+00  0.00000000E+00
  0.00000000E+00  0.00000000E+00  0.00000000E+00  0.00000000E+00  0.00000000E+00
  0.00000000E+00  0.00000000E+00  0.00000000E+00  0.00000000E+00  0.00000000E+00
  0.00000000E+00  0.00000000E+00  0.00000000E+00  0.00000000E+00  0.00000000E+00
  0.00000000E+00  0.00000000E+00  0.00000000E+00  0.00000000E+00  0.00000000E+00
  0.00000000E+00  0.00000000E+00  0.00000000E+00  0.00000000E+00  0.00000000E+00
IOpCl                                      I                1
IROHF                                      I                0
Alpha Orbital Energies                     R   N=          56
 -1.05514218E+01 -1.05488294E+01 -8.51807158E-01 -6.48615634E-01 -5.67685362E-01
 -3.56377795E-01 -3.56377795E-01  2.61132287E-02  2.82626967E-02  4.46352479E-02
  4.46352479E-02  7.64390917E-02  7.64390917E-02  9.30059174E-02  1.46801946E-01
  1.46801946E-01  1.57208279E-01  1.98615464E-01  2.43784076E-01  3.98087327E-01
  4.47728127E-01  5.68981450E-01  5.68981450E-01  6.58493660E-01  6.58493660E-01
  7.13126530E-01  7.37312078E-01  8.44035994E-01  1.04057464E+00  1.09373071E+00
  1.10731966E+00  1.10731966E+00  1.21042501E+00  1.21042577E+00  1.49149091E+00
  1.49149091E+00  1.60589469E+00  1.60589565E+00  1.71133560E+00  1.87816170E+00
  1.87816170E+00  2.15091191E+00  2.51339639E+00  2.51339639E+00  2.58141825E+00
  2.63992358E+00  2.79498943E+00  2.79498943E+00  2.99559736E+00  3.02876665E+00
  3.02876665E+00  3.35501779E+00  3.38079285E+00  3.81383140E+00  2.36548321E+01
  2.51824887E+01
Beta Orbital Energies                      R   N=          56
 -1.05514218E+01 -1.05488294E+01 -8.51807158E-01 -6.48615634E-01 -5.67685362E-01
 -3.56377795E-01 -3.56377795E-01  2.61132287E-02  2.82626967E-02  4.46352479E-02
  4.46352479E-02  7.64390917E-02  7.64390917E-02  9.30059174E-02  1.46801946E-01
  1.46801946E-01  1.57208279E-01  1.98615464E-01  2.43784076E-01  3.98087327E-01
  4.47728127E-01  5.68981450E-01  5.68981450E-01  6.58493660E-01  6.58493660E-01
  7.13126530E-01  7.37312078E-01  8.44035994E-01  1.04057464E+00  1.09373071E+00
  1.10731966E+00  1.10731966E+00  1.21042501E+00  1.21042577E+00  1.49149091E+00
  1.49149091E+00  1.60589469E+00  1.60589565E+00  1.71133560E+00  1.87816170E+00
  1.87816170E+00  2.15091191E+00  2.51339639E+00  2.51339639E+00  2.58141825E+00
  2.63992358E+00  2.79498943E+00  2.79498943E+00  2.99559736E+00  3.02876665E+00
  3.02876665E+00  3.35501779E+00  3.38079285E+00  3.81383140E+00  2.36548321E+01
  2.51824887E+01
Alpha MO coefficients                      R   N=        3136
  3.98637048E-01  3.28041184E-01 -7.31321742E-05  2.30819201E-10 -2.24763231E-10
  8.15632539E-03 -2.24027102E-03 -5.48251490E-10  5.64009152E-10 -1.75751499E-03
 -5.68815826E-04  1.98053439E-10 -1.81132103E-10 -4.80693140E-04  1.44947195E-03
 -1.42774065E-10  1.13703756E-10 -8.40015959E-04 -1.20956608E-10  1.96962040E-16
  1.45495032E-03  6.68190268E-11  3.98614739E-01  3.28022891E-01  7.30916115E-05
  1.30673878E-10 -1.38716961E-10  8.15548214E-03  2.24070192E-03 -7.22642118E-10
  7.13859777E-10 -1.75682238E-03  5.68130048E-04 -4.75733966E-11  2.98875818E-11
 -4.79160609E-04 -1.44985577E-03  2.64417080E-10 -2.36073596E-10 -8.39843257E-04
  7.52797781E-10 -2.07131774E-17  1.45465119E-03 -8.02138343E-10 -6.90999194E-06
 -4.16422791E-03  2.42501816E-03 -2.27760457E-03 -2.68767296E-10  2.96984716E-10
 -6.88982468E-06 -4.16395938E-03  2.42519385E-03  2.27748359E-03 -6.34365513E-10
  6.11072772E-10 -3.99050103E-01 -3.27209614E-01  7.16103697E-04 -1.52345968E-10
  1.46170003E-10 -1.51170822E-02 -7.68876998E-03 -5.19942287E-11  2.32896258E-11
  1.24361970E-02  1.23064045E-02  8.03636980E-10 -8.28888281E-10  2.75238324E-02
  6.89032160E-03  4.46936544E-10 -4.60817076E-10  3.09641304E-03  4.76804816E-10
  4.33297033E-17 -5.36314470E-03 -4.44882672E-10  3.99072387E-01  3.27227952E-01
  7.16107340E-04  5.62972495E-11 -6.36296064E-11  1.51175394E-02 -7.68864372E-03
 -3.44039089E-10  3.16958937E-10 -1.24362947E-02  1.23064364E-02 -1.08922170E-09
  1.07432773E-09 -2.75238593E-02  6.89024050E-03 -6.02299408E-10  5.94256031E-10
 -3.09646023E-03  8.23282020E-10 -1.63528192E-16  5.36322645E-03 -8.48131919E-10
  3.65826520E-04  4.84009517E-03  3.14013760E-03  2.17858897E-03  2.71282965E-10
 -3.35659211E-10 -3.65827269E-04 -4.84032907E-03 -3.14000205E-03  2.17871679E-03
 -1.13111291E-09  1.07450289E-09 -9.26567634E-02 -1.48821833E-01  7.51890422E-02
 -1.77995371E-09  1.97312891E-09  3.77197341E-01  7.06880864E-02 -3.66397102E-09
  4.01105772E-09  2.11194875E-01  9.71259518E-03 -4.16523607E-10  7.01212695E-10
 -2.80304882E-03 -1.69269502E-02  4.49941999E-10 -2.97261673E-10 -1.38472559E-02
 -1.32165369E-09 -2.30713138E-16  2.39841508E-02  1.02820938E-09 -9.26567507E-02
 -1.48821812E-01 -7.51890500E-02 -4.28759747E-09  4.12780564E-09  3.77197269E-01
 -7.06880969E-02 -8.13393006E-09  7.85178782E-09  2.11194828E-01 -9.71259753E-03
 -4.27949545E-09  4.02056576E-09 -2.80299385E-03  1.69269364E-02 -1.66867433E-09
  1.52282668E-09 -1.38472554E-02  4.70304824E-09 -6.87277575E-16  2.39841500E-02
 -4.96355031E-09  4.42689930E-02  3.65211892E-02 -6.07489968E-03 -1.38322755E-03
 -1.05696589E-09  1.14998031E-09  4.42689758E-02  3.65211639E-02 -6.07490197E-03
  1.38323091E-03 -2.24914080E-09  2.17438160E-09  6.05856853E-02  9.94077024E-02
  9.21952262E-02  1.81297553E-09 -3.02657528E-09 -2.67923942E-01  1.17042890E-01
 -1.48022550E-10 -1.52600091E-09 -2.50114005E-01  3.86800098E-02  1.23482189E-09
 -1.88082515E-09  3.02348990E-01  7.65895401E-02  1.48871737E-09 -1.52627106E-09
  8.93356512E-03  4.35581234E-09 -2.02251182E-16 -1.54733887E-02 -4.17134638E-09
 -6.05856993E-02 -9.94077252E-02  9.21951235E-02 -1.82712676E-08  1.71682440E-08
  2.67923984E-01  1.17042764E-01 -2.27536565E-08  2.12041639E-08  2.50114006E-01
  3.86799502E-02 -9.97288211E-09  9.38881430E-09 -3.02348995E-01  7.65895366E-02
 -1.89187746E-09  1.87281515E-09 -8.93356869E-03  6.25337775E-09  1.13702002E-15
  1.54733949E-02 -6.37976740E-09 -1.33204732E-01 -1.78476450E-01 -3.10581146E-02
 -1.84214548E-02 -2.40274632E-09  2.64664783E-09  1.33204680E-01  1.78476360E-01
  3.10581054E-02 -1.84214414E-02  5.55634109E-09 -5.35631437E-09 -4.66431928E-04
 -1.38869443E-03  1.88901256E-01  1.53623225E-08 -1.63620196E-08  2.34793667E-03
  2.24286210E-01  2.04915517E-08 -2.16003870E-08 -5.15828251E-02  1.05521328E-01
  9.60121528E-09 -1.01971676E-08 -9.56908087E-03  7.86662246E-03 -8.91334219E-10
  6.43901631E-10 -3.95776855E-03 -2.17582726E-09 -1.46228190E-16  6.85505622E-03
  2.38711836E-09 -4.66400946E-04 -1.38864371E-03 -1.88901292E-01  2.78767914E-08
 -2.71150064E-08  2.34780097E-03 -2.24286244E-01  3.41129752E-08 -3.33046079E-08
 -5.15829755E-02 -1.05521324E-01  1.70283067E-08 -1.65787866E-08 -9.56898609E-03
 -7.86664629E-03  2.55941933E-09 -2.32119835E-09 -3.95776598E-03 -4.61218107E-10
 -2.18367146E-15  6.85505176E-03  6.81901594E-10 -1.38292230E-01 -2.11675922E-01
 -3.75523845E-02 -2.79050233E-02 -2.69515288E-09  3.22332870E-09 -1.38292298E-01
 -2.11676009E-01 -3.75524047E-02  2.79050330E-02 -9.71608975E-09  9.25608407E-09
  1.40898568E-09  2.44904595E-09 -1.73389990E-08  1.82816246E-01  4.00013334E-02
 -8.02039828E-09 -2.02682302E-08  2.84892522E-01  6.23362585E-02  4.27192788E-08
  1.10591477E-08  2.18043780E-01  4.77093374E-02  8.89587161E-08  1.72091621E-08
  2.00520921E-02  4.38752265E-03  7.39997124E-11  4.93913003E-03 -2.20994793E-10
 -1.13291599E-09  2.25730778E-02 -5.39774330E-09 -9.13521542E-09  2.51757823E-08
  1.82816219E-01  4.00013275E-02  2.67768217E-08  3.85466207E-08  2.84892481E-01
  6.23362495E-02  1.45590759E-08  5.62134448E-08  2.18043746E-01  4.77093298E-02
 -8.12189926E-08  2.88679525E-08  2.00520898E-02  4.38752216E-03  8.56337313E-10
 -4.93913095E-03  8.35820827E-10  1.43821502E-09 -2.25730820E-02  2.80370593E-09
  1.13137751E-08  8.99855207E-09  1.97845639E-11  1.54566144E-02  3.38200352E-03
 -1.00879929E-09 -5.69509303E-09 -8.36338206E-09  5.40246960E-09  1.54566140E-02
  3.38200343E-03 -1.38804958E-09 -2.44254814E-09  2.81643080E-08 -4.00013334E-02
  1.82816246E-01  8.37922985E-09  3.40260504E-08 -6.23362585E-02  2.84892522E-01
 -6.36466747E-08 -9.21921049E-09 -4.77093374E-02  2.18043780E-01 -1.19045707E-07
 -2.14379749E-08 -4.38752265E-03  2.00520921E-02 -8.78786838E-10  2.25730778E-02
  5.03456744E-10  1.08179984E-09 -4.93913003E-03  7.64897200E-09  1.29374563E-08
 -3.85688916E-08 -4.00013275E-02  1.82816219E-01 -3.78199887E-08 -5.82924380E-08
 -6.23362495E-02  2.84892481E-01 -2.62606965E-08 -8.00959201E-08 -4.77093298E-02
  2.18043746E-01  1.06896514E-07 -3.97378318E-08 -4.38752216E-03  2.00520898E-02
  1.25632920E-09 -2.25730820E-02 -1.45692593E-09 -4.99779464E-10  4.93913095E-03
 -3.93952672E-09 -1.57004441E-08 -1.20236182E-08  6.24993163E-10 -3.38200352E-03
  1.54566144E-02  1.12217838E-09  6.88139109E-09  1.10276171E-08 -7.82378990E-09
 -3.38200343E-03  1.54566140E-02 -1.50089591E-02 -2.60301534E-02 -3.10341090E-02
  6.92704937E-09 -5.68277694E-09  8.87087674E-02 -6.74650573E-02  1.01661118E-08
 -7.65017761E-09 -1.17179472E-02  3.07221200E-02  1.36656847E-08 -1.31312562E-08
 -1.12581013E+00  1.29001995E+00  5.37330723E-09 -1.71842269E-08 -7.00393171E-03
  9.01944680E-10 -1.08366984E-16  1.21311656E-02 -1.53098803E-09 -1.50088219E-02
 -2.60299238E-02  3.10339659E-02 -1.06085674E-08  9.38463104E-09  8.87080875E-02
  6.74646505E-02 -2.50026471E-08  2.25683756E-08 -1.17215866E-02 -3.07194611E-02
  5.33013658E-09 -5.96871964E-09 -1.12593713E+00 -1.28998336E+00  1.66469008E-07
 -1.55604171E-07 -7.00396192E-03  6.58798167E-09 -6.92523923E-16  1.21312179E-02
 -7.18593094E-09  3.07929519E-02 -7.12513941E-02  7.90327507E-01  7.56697523E-03
  2.61431462E-09 -2.51045808E-09  3.07929467E-02 -7.12511887E-02  7.90323851E-01
 -7.56685782E-03  9.96865576E-10 -1.12061992E-09 -2.09725843E-02 -3.50631142E-02
 -2.15748186E-02  2.26357917E-08 -2.24796031E-08  1.03234552E-01 -6.34289951E-02
  3.21583061E-08 -3.18073979E-08  5.83403150E-01  4.41530301E-01  9.22927689E-08
 -9.32922769E-08  1.99707315E+01  5.75450487E+00  4.31715629E-07 -4.38959952E-07
  4.68225076E-03  5.84679597E-09  6.52888028E-17 -8.10989621E-03 -5.73140099E-09
  2.09726797E-02  3.50632797E-02 -2.15749953E-02 -1.87973596E-08  1.91814796E-08
 -1.03235108E-01 -6.34294036E-02 -2.49403915E-08  2.56054430E-08 -5.83402985E-01
  4.41530585E-01 -9.90198627E-08  9.90726874E-08 -1.99707241E+01  5.75451303E+00
 -4.98294664E-07  4.96167082E-07 -4.68220137E-03  6.83197507E-09 -1.27601152E-15
  8.10981067E-03 -6.87798696E-09  1.57979888E-03 -2.82437066E-02  5.97526160E-01
  1.77728921E-02  6.23125608E-09 -6.56534481E-09 -1.58000813E-03  2.82441294E-02
 -5.97531438E-01  1.77729325E-02 -1.03310687E-08  1.00881001E-08 -1.00427390E-08
 -1.69473582E-08  1.76851486E-08  8.96984704E-02 -8.18039815E-02  4.78006378E-08
  1.28540909E-08  1.50644063E-01 -1.37385667E-01 -4.28150317E-07 -5.11099617E-07
  2.28488291E-01 -2.08378714E-01 -7.22303400E-06 -2.29434270E-06  1.02520835E+00
 -9.34978315E-01  2.39844590E-09  2.18099093E-02  3.57825027E-10 -4.26809314E-09
 -2.39146735E-02  1.46367882E-08  2.48103811E-08 -3.09516064E-08 -8.96984767E-02
  8.18039872E-02 -7.21082919E-08 -5.31989693E-08 -1.50644072E-01  1.37385675E-01
  3.35531956E-07 -6.16355816E-07 -2.28488319E-01  2.08378740E-01  7.28751564E-06
 -1.99462690E-06 -1.02520834E+00  9.34978303E-01 -7.00639784E-09  2.18099012E-02
 -2.19320545E-09  1.18003004E-08 -2.39146646E-02 -2.71589804E-08 -1.09884514E-07
 -4.95142621E-07 -1.10742435E-08  2.08837415E-02 -1.90457339E-02  5.01884104E-08
  1.95934380E-07  4.91624100E-07 -5.71927806E-09 -2.08837392E-02  1.90457318E-02
  6.69866553E-10  1.13476313E-09  1.04277115E-09  8.18039815E-02  8.96984704E-02
 -3.28405846E-09  1.96053296E-09  1.37385667E-01  1.50644063E-01  1.72555492E-08
  2.90545207E-08  2.08378714E-01  2.28488291E-01  3.54872105E-07  1.00178026E-07
  9.34978315E-01  1.02520835E+00  1.88984682E-11 -2.39146735E-02  5.69036789E-11
  6.85872005E-10 -2.18099093E-02 -5.34030413E-10 -9.02180782E-10 -3.95609647E-10
 -8.18039872E-02 -8.96984767E-02  2.56520763E-09  6.97316550E-12 -1.37385675E-01
 -1.50644072E-01 -1.99949129E-08  2.59416315E-08 -2.08378740E-01 -2.28488319E-01
 -3.52965285E-07  1.09041605E-07 -9.34978303E-01 -1.02520834E+00 -1.74087542E-09
 -2.39146646E-02  1.67313400E-10 -1.37869951E-09 -2.18099012E-02  2.22705313E-09
  8.73122857E-09  2.40154458E-08  3.30411119E-10  1.90457339E-02  2.08837415E-02
 -1.54598333E-09 -6.18605133E-09 -2.41193475E-08  4.88680429E-10 -1.90457318E-02
 -2.08837392E-02  6.52272163E-10  1.18558462E-09  1.21236217E-09 -6.61478573E-02
  9.25608668E-03 -5.75015896E-09  2.46972803E-09 -5.03919623E-02  7.05136024E-03
  6.23869551E-08  3.63344660E-08 -2.78246029E-01  3.89350383E-02  1.55086651E-06
  2.37388740E-07  6.35766036E-01 -8.89629048E-02  3.07064859E-10  1.69825572E-03
  3.47597138E-11 -4.05758220E-10 -1.21364439E-02  8.90396308E-10  1.64976553E-09
 -1.77148167E-09 -6.61478223E-02  9.25608177E-03 -7.70535605E-09 -4.75103336E-10
 -5.03919110E-02  7.05135306E-03 -1.71635061E-08  5.24059497E-08 -2.78245916E-01
  3.89350225E-02 -1.38138812E-06  5.29587415E-07  6.35765738E-01 -8.89628631E-02
 -6.68500047E-11 -1.69825645E-03 -5.37243336E-10 -7.66885587E-10  1.21364491E-02
 -1.53687685E-09 -3.91349543E-10 -3.95058745E-08  1.39450983E-09  4.86990364E-03
 -6.81446867E-04  5.96333586E-10 -3.32159637E-08 -6.67285046E-08 -2.72544634E-09
  4.86990474E-03 -6.81447022E-04 -5.08814221E-10 -9.26652305E-10 -9.52790100E-10
 -9.25608668E-03 -6.61478573E-02  4.47730576E-09 -1.75798605E-09 -7.05136024E-03
 -5.03919623E-02 -4.26988710E-08 -2.23932351E-08 -3.89350383E-02 -2.78246029E-01
 -1.00570211E-06 -1.35372530E-07  8.89629048E-02  6.35766036E-01 -1.65443175E-10
 -1.21364439E-02 -6.33436133E-11  3.55137572E-10 -1.69825572E-03 -6.61861175E-10
 -1.22463814E-09  1.31180401E-09 -9.25608177E-03 -6.61478223E-02  5.73316271E-09
  4.76744506E-10 -7.05135306E-03 -5.03919110E-02  8.38161406E-09 -3.45870127E-08
 -3.89350225E-02 -2.78245916E-01  8.77102368E-07 -3.57103096E-07  8.89628631E-02
  6.35765738E-01 -7.01963415E-10  1.21364491E-02  4.40301073E-10  1.38734047E-10
  1.69825645E-03  1.04169056E-09  2.21228596E-09  3.15655018E-08 -1.13569954E-09
  6.81446867E-04  4.86990364E-03 -3.28174560E-10  2.32891549E-08  4.90434667E-08
  1.99026036E-09  6.81447022E-04  4.86990474E-03  8.93092510E-03  1.38997961E-02
 -6.07517311E-02 -1.58916104E-09  2.21714974E-09 -5.88802876E-03 -3.18744853E-02
  7.24951847E-09 -6.24402537E-09 -1.97139744E-01 -2.11913784E-01 -1.34176088E-08
  1.56369206E-08  4.18399285E-01  1.20881077E+00  2.13256532E-07 -1.81666305E-07
  2.40457520E-02  4.43130839E-09 -6.15292891E-17 -4.16484642E-02 -4.01883538E-09
  8.93093114E-03  1.38998064E-02  6.07517255E-02 -1.00528972E-08  9.48950706E-09
 -5.88805311E-03  3.18744703E-02 -7.04141922E-09  6.03535250E-09 -1.97139641E-01
  2.11913490E-01 -4.27410242E-08  4.08325894E-08  4.18398838E-01 -1.20881101E+00
 -2.34784358E-07  2.03308328E-07  2.40457477E-02 -9.01758023E-09  1.65600310E-15
 -4.16484568E-02  9.35638912E-09 -3.30026716E-02 -3.91063489E-02 -4.41939006E-01
  3.40246982E-02  4.27973625E-09 -4.25813220E-09 -3.30026422E-02 -3.91062635E-02
 -4.41938423E-01 -3.40247011E-02  3.66203421E-09 -3.72737400E-09  5.72321551E-08
  9.52389640E-08 -1.79472207E-09 -1.19663256E-01  9.98881159E-02 -3.01961137E-07
  3.74820003E-08 -1.42675948E-01  1.19097809E-01  2.16299223E-06  2.62269619E-06
 -6.54008788E-01  5.45929534E-01 -5.24370091E-05 -1.11802637E-05  1.59707208E+00
 -1.33314541E+00 -6.76331937E-08 -1.76408065E-02 -7.62354640E-10  1.17230543E-07
  2.11332082E-02 -6.45024045E-08 -1.06645609E-07  2.69553390E-08  1.19663266E-01
 -9.98881241E-02  3.14507496E-07  7.60782635E-08  1.42675954E-01 -1.19097814E-01
 -1.83196182E-06  2.76056974E-06  6.54008857E-01 -5.45929591E-01  5.23801870E-05
 -1.09240920E-05 -1.59707217E+00  1.33314549E+00  6.61969270E-08 -1.76407976E-02
  3.52093861E-09 -1.13820964E-07  2.11331975E-02  1.57503017E-07  3.67082400E-07
  4.36126770E-06 -4.31327989E-08 -1.00476780E-02  8.38723313E-03 -1.74863724E-07
 -4.13184107E-07 -4.56419080E-06 -3.63798518E-08  1.00476771E-02 -8.38723235E-03
 -5.59884145E-09 -9.28972744E-09 -9.62886806E-10 -9.98881159E-02 -1.19663256E-01
  2.85258736E-08 -4.99575286E-09 -1.19097809E-01 -1.42675948E-01 -1.87797873E-07
 -2.48896627E-07 -5.45929534E-01 -6.54008788E-01  4.86581424E-06  1.02786786E-06
  1.33314541E+00  1.59707208E+00  5.54829321E-09  2.11332082E-02 -4.32498863E-11