 Entering Gaussian System, Link 0=g16
 Initial command:
 /home/szhao/Apps/g16/l1.exe "/home/szhao/tmp/Gau-134904.inp" -scrdir="/home/szhao/tmp/"
 Default is to use a total of  16 processors:
                               16 via shared-memory
                                1 via Linda
 Entering Link 1 = /home/szhao/Apps/g16/l1.exe PID=    134923.
  
 Copyright (c) 1988,1990,1992,1993,1995,1998,2003,2009,2016,
            Gaussian, Inc.  All Rights Reserved.
  
 This is part of the Gaussian(R) 16 program.  It is based on
 the Gaussian(R) 09 system (copyright 2009, Gaussian, Inc.),
 the Gaussian(R) 03 system (copyright 2003, Gaussian, Inc.),
 the Gaussian(R) 98 system (copyright 1998, Gaussian, Inc.),
 the Gaussian(R) 94 system (copyright 1995, Gaussian, Inc.),
 the Gaussian 92(TM) system (copyright 1992, Gaussian, Inc.),
 the Gaussian 90(TM) system (copyright 1990, Gaussian, Inc.),
 the Gaussian 88(TM) system (copyright 1988, Gaussian, Inc.),
 the Gaussian 86(TM) system (copyright 1986, Carnegie Mellon
 University), and the Gaussian 82(TM) system (copyright 1983,
 Carnegie Mellon University). Gaussian is a federally registered
 trademark of Gaussian, Inc.
  
 This software contains proprietary and confidential information,
 including trade secrets, belonging to Gaussian, Inc.
  
 This software is provided under written license and may be
 used, copied, transmitted, or stored only in accord with that
 written license.
  
 The following legend is applicable only to US Government
 contracts under FAR:
  
                    RESTRICTED RIGHTS LEGEND
  
 Use, reproduction and disclosure by the US Government is
 subject to restrictions as set forth in subparagraphs (a)
 and (c) of the Commercial Computer Software - Restricted
 Rights clause in FAR 52.227-19.
  
 Gaussian, Inc.
 340 Quinnipiac St., Bldg. 40, Wallingford CT 06492
  
  
 ---------------------------------------------------------------
 Warning -- This program may not be used in any manner that
 competes with the business of Gaussian, Inc. or will provide
 assistance to any competitor of Gaussian, Inc.  The licensee
 of this program is prohibited from giving any competitor of
 Gaussian, Inc. access to this program.  By using this program,
 the user acknowledges that Gaussian, Inc. is engaged in the
 business of creating and licensing software in the field of
 computational chemistry and represents and warrants to the
 licensee that it is not a competitor of Gaussian, Inc. and that
 it will not use this program in any manner prohibited above.
 ---------------------------------------------------------------
  

 Cite this work as:
 Gaussian 16, Revision A.03,
 M. J. Frisch, G. W. Trucks, H. B. Schlegel, G. E. Scuseria, 
 M. A. Robb, J. R. Cheeseman, G. Scalmani, V. Barone, 
 G. A. Petersson, H. Nakatsuji, X. Li, M. Caricato, A. V. Marenich, 
 J. Bloino, B. G. Janesko, R. Gomperts, B. Mennucci, H. P. Hratchian, 
 J. V. Ortiz, A. F. Izmaylov, J. L. Sonnenberg, D. Williams-Young, 
 F. Ding, F. Lipparini, F. Egidi, J. Goings, B. Peng, A. Petrone, 
 T. Henderson, D. Ranasinghe, V. G. Zakrzewski, J. Gao, N. Rega, 
 G. Zheng, W. Liang, M. Hada, M. Ehara, K. Toyota, R. Fukuda, 
 J. Hasegawa, M. Ishida, T. Nakajima, Y. Honda, O. Kitao, H. Nakai, 
 T. Vreven, K. Throssell, J. A. Montgomery, Jr., J. E. Peralta, 
 F. Ogliaro, M. J. Bearpark, J. J. Heyd, E. N. Brothers, K. N. Kudin, 
 V. N. Staroverov, T. A. Keith, R. Kobayashi, J. Normand, 
 K. Raghavachari, A. P. Rendell, J. C. Burant, S. S. Iyengar, 
 J. Tomasi, M. Cossi, J. M. Millam, M. Klene, C. Adamo, R. Cammi, 
 J. W. Ochterski, R. L. Martin, K. Morokuma, O. Farkas, 
 J. B. Foresman, and D. J. Fox, Gaussian, Inc., Wallingford CT, 2016.
 
 ******************************************
 Gaussian 16:  ES64L-G16RevA.03 25-Dec-2016
                21-Apr-2025 
 ******************************************
 %chk=opt.chk
 %mem=4GB
 %nprocshared=8
 Will use up to    8 processors via shared memory.
 --------------------------------------------
 #p opt UM062X/6-311+G** nosymm int=superfine
 --------------------------------------------
 1/18=20,19=15,26=5,38=1/1,3;
 2/9=110,12=2,15=1,17=6,18=5,40=1/2;
 3/5=4,6=6,7=111,11=2,25=1,30=1,71=1,74=-55,75=-7,116=2/1,2,3;
 4//1;
 5/5=2,38=5/2;
 6/7=2,8=2,9=2,10=2,28=1/1;
 7/30=1/1,2,3,16;
 1/18=20,19=15,26=5/3(2);
 2/9=110,15=1/2;
 99//99;
 2/9=110,15=1/2;
 3/5=4,6=6,7=111,11=2,25=1,30=1,71=1,74=-55,75=-7,116=2/1,2,3;
 4/5=5,16=3,69=1/1;
 5/5=2,38=5/2;
 7/30=1/1,2,3,16;
 1/18=20,19=15,26=5/3(-5);
 2/9=110,15=1/2;
 6/7=2,8=2,9=2,10=2,19=2,28=1/1;
 99/9=1/99;
 Leave Link    1 at Mon Apr 21 21:14:35 2025, MaxMem=   536870912 cpu:               5.4 elap:               0.8
 (Enter /home/szhao/Apps/g16/l101.exe)
 -------------------
 Title Card Required
 -------------------
 Symbolic Z-matrix:
 Charge =  0 Multiplicity = 1
 S                    -1   -1.34319   0.        0. 
 S                    -1    1.34319   0.        0. 
 H                    0    -1.52683  -1.33225   0. 
 H                    0     1.52683   0.02841   1.33195 
 
 Add virtual bond connecting atoms S2         and S1         Dist= 5.08D+00.
 ITRead=  2  2  0  0
 MicOpt= -2 -2 -1 -1
 NAtoms=      4 NQM=        2 NQMF=       2 NMMI=      0 NMMIF=      0
                NMic=       0 NMicF=      0.
                    Isotopes and Nuclear Properties:
 (Nuclear quadrupole moments (NQMom) in fm**2, nuclear magnetic moments (NMagM)
  in nuclear magnetons)

  Atom         1           2           3           4
 IAtWgt=          32          32           1           1
 AtmWgt=  31.9720718  31.9720718   1.0078250   1.0078250
 NucSpn=           0           0           1           1
 AtZEff=  -0.0000000  -0.0000000  -0.0000000  -0.0000000
 NQMom=    0.0000000   0.0000000   0.0000000   0.0000000
 NMagM=    0.0000000   0.0000000   2.7928460   2.7928460
 AtZNuc=  16.0000000  16.0000000   1.0000000   1.0000000
 Leave Link  101 at Mon Apr 21 21:14:36 2025, MaxMem=   536870912 cpu:               3.0 elap:               0.5
 (Enter /home/szhao/Apps/g16/l103.exe)

 GradGradGradGradGradGradGradGradGradGradGradGradGradGradGradGradGradGrad
 Berny optimization.
 Initialization pass.
                           ----------------------------
                           !    Initial Parameters    !
                           ! (Angstroms and Degrees)  !
 --------------------------                            --------------------------
 ! Name  Definition              Value          Derivative Info.                !
 --------------------------------------------------------------------------------
 ! X1    R(1,-1)                -1.3432         Frozen                          !
 ! Y1    R(1,-2)                 0.0            Frozen                          !
 ! Z1    R(1,-3)                 0.0            Frozen                          !
 ! X2    R(2,-1)                 1.3432         Frozen                          !
 ! Y2    R(2,-2)                 0.0            Frozen                          !
 ! Z2    R(2,-3)                 0.0            Frozen                          !
 ! R1    R(1,3)                  1.3448         estimate D2E/DX2                !
 ! R2    R(2,4)                  1.3448         estimate D2E/DX2                !
 ! A1    A(2,1,3)               97.8484         estimate D2E/DX2                !
 ! A2    A(1,2,4)               97.8484         estimate D2E/DX2                !
 ! D1    D(3,1,2,4)            -91.2217         estimate D2E/DX2                !
 --------------------------------------------------------------------------------
 Trust Radius=3.00D-01 FncErr=1.00D-07 GrdErr=1.00D-07 EigMax=2.50D+02 EigMin=1.00D-04
 Number of steps in this run=     21 maximum allowed number of steps=    100.
 GradGradGradGradGradGradGradGradGradGradGradGradGradGradGradGradGradGrad

 Leave Link  103 at Mon Apr 21 21:14:37 2025, MaxMem=   536870912 cpu:               0.3 elap:               0.1
 (Enter /home/szhao/Apps/g16/l202.exe)
                          Input orientation:                          
 ---------------------------------------------------------------------
 Center     Atomic      Atomic             Coordinates (Angstroms)
 Number     Number       Type             X           Y           Z
 ---------------------------------------------------------------------
      1         16           0       -1.343191    0.000000    0.000000
      2         16           0        1.343191    0.000000    0.000000
      3          1           0       -1.526833   -1.332250    0.000000
      4          1           0        1.526833    0.028406    1.331947
 ---------------------------------------------------------------------
                    Distance matrix (angstroms):
                    1          2          3          4
     1  S    0.000000
     2  S    2.686383   0.000000
     3  H    1.344848   3.164164   0.000000
     4  H    3.164164   1.344848   3.598659   0.000000
 Symmetry turned off by external request.
 Stoichiometry    H2S2
 Framework group  C2[X(H2S2)]
 Deg. of freedom     4
 Full point group                 C2      NOp   2
 Rotational constants (GHZ):         146.4229663           4.1480857           4.1461386
 Leave Link  202 at Mon Apr 21 21:14:37 2025, MaxMem=   536870912 cpu:               0.0 elap:               0.0
 (Enter /home/szhao/Apps/g16/l301.exe)
 Standard basis: 6-311+G(d,p) (5D, 7F)
 Ernie: Thresh=  0.10000D-02 Tol=  0.10000D-05 Strict=F.
    72 basis functions,   116 primitive gaussians,    74 cartesian basis functions
    17 alpha electrons       17 beta electrons
       nuclear repulsion energy        68.5184441934 Hartrees.
 IExCor= 4336 DFT=T Ex+Corr=M062X ExCW=0 ScaHFX=  0.540000
 ScaDFX=  1.000000  1.000000  1.000000  1.000000 ScalE2=  1.000000  1.000000
 IRadAn=      7 IRanWt=     -1 IRanGd=            0 ICorTp=0 IEmpDi=  4
 NAtoms=    4 NActive=    4 NUniq=    4 SFac= 1.00D+00 NAtFMM=   60 NAOKFM=F Big=F
 Integral buffers will be    131072 words long.
 Raffenetti 2 integral format.
 Two-electron integral symmetry is turned off.
 Leave Link  301 at Mon Apr 21 21:14:37 2025, MaxMem=   536870912 cpu:               0.9 elap:               0.2
 (Enter /home/szhao/Apps/g16/l302.exe)
 NPDir=0 NMtPBC=     1 NCelOv=     1 NCel=       1 NClECP=     1 NCelD=      1
         NCelK=      1 NCelE2=     1 NClLst=     1 CellRange=     0.0.
 One-electron integrals computed using PRISM.
 NBasis=    72 RedAO= T EigKep=  4.97D-03  NBF=    72
 NBsUse=    72 1.00D-06 EigRej= -1.00D+00 NBFU=    72
 Precomputing XC quadrature grid using
 IXCGrd= 4 IRadAn=           7 IRanWt=          -1 IRanGd=           0 AccXCQ= 0.00D+00.
 Generated NRdTot=       0 NPtTot=           0 NUsed=           0 NTot=          32
 NSgBfM=    71    71    71    71    71 MxSgAt=     4 MxSgA2=     4.
 Leave Link  302 at Mon Apr 21 21:14:38 2025, MaxMem=   536870912 cpu:               1.6 elap:               0.4
 (Enter /home/szhao/Apps/g16/l303.exe)
 DipDrv:  MaxL=1.
 Leave Link  303 at Mon Apr 21 21:14:38 2025, MaxMem=   536870912 cpu:               0.5 elap:               0.2
 (Enter /home/szhao/Apps/g16/l401.exe)
 ExpMin= 4.05D-02 ExpMax= 9.34D+04 ExpMxC= 3.17D+03 IAcc=3 IRadAn=         7 AccDes= 0.00D+00
 Harris functional with IExCor= 1009 and IRadAn=       7 diagonalized for initial guess.
 HarFok:  IExCor= 1009 AccDes= 0.00D+00 IRadAn=         7 IDoV= 1 UseB2=F ITyADJ=14
 ICtDFT=  3500011 ScaDFX=  1.000000  1.000000  1.000000  1.000000
 FoFCou: FMM=F IPFlag=           0 FMFlag=      100000 FMFlg1=           0
         NFxFlg=           0 DoJE=T BraDBF=F KetDBF=T FulRan=T
         wScrn=  0.000000 ICntrl=       500 IOpCl=  0 I1Cent=   200000004 NGrid=           0
         NMat0=    1 NMatS0=      1 NMatT0=    0 NMatD0=    1 NMtDS0=    0 NMtDT0=    0
 Symmetry not used in FoFCou.
 Harris En= -797.136418624572    
 JPrj=0 DoOrth=F DoCkMO=F.
 Initial guess <Sx>= 0.0000 <Sy>= 0.0000 <Sz>= 0.0000 <S**2>=-0.0000 S=-0.0000
 Leave Link  401 at Mon Apr 21 21:14:39 2025, MaxMem=   536870912 cpu:               3.4 elap:               0.5
 (Enter /home/szhao/Apps/g16/l502.exe)
 Keep R1 and R2 ints in memory in canonical form, NReq=14118010.
 FoFCou: FMM=F IPFlag=           0 FMFlag=           0 FMFlg1=           0
         NFxFlg=           0 DoJE=F BraDBF=F KetDBF=F FulRan=T
         wScrn=  0.000000 ICntrl=       600 IOpCl=  0 I1Cent=           0 NGrid=           0
         NMat0=    1 NMatS0=   2628 NMatT0=    0 NMatD0=    1 NMtDS0=    0 NMtDT0=    0
 Symmetry not used in FoFCou.
 Two-electron integral symmetry not used.
 UHF open shell SCF:
 Using DIIS extrapolation, IDIIS=  1040.
 NGot=   536870912 LenX=   529949706 LenY=   529943789
 Requested convergence on RMS density matrix=1.00D-08 within 128 cycles.
 Requested convergence on MAX density matrix=1.00D-06.
 Requested convergence on             energy=1.00D-06.
 No special actions if energy rises.

 Cycle   1  Pass 1  IDiag  1:
 E= -797.493554763688    
 DIIS: error= 2.22D-02 at cycle   1 NSaved=   1.
 NSaved= 1 IEnMin= 1 EnMin= -797.493554763688     IErMin= 1 ErrMin= 2.22D-02
 ErrMax= 2.22D-02  0.00D+00 EMaxC= 1.00D-01 BMatC= 2.63D-01 BMatP= 2.63D-01
 IDIUse=3 WtCom= 7.78D-01 WtEn= 2.22D-01
 Coeff-Com:  0.100D+01
 Coeff-En:   0.100D+01
 Coeff:      0.100D+01
 Gap=     0.200 Goal=   None    Shift=    0.000
 Gap=     0.200 Goal=   None    Shift=    0.000
 GapD=    0.200 DampG=1.000 DampE=0.500 DampFc=0.5000 IDamp=-1.
 Damping current iteration by 5.00D-01
 RMSDP=2.06D-03 MaxDP=3.03D-02              OVMax= 2.18D-02

 Cycle   2  Pass 1  IDiag  1:
 E= -797.499347534075     Delta-E=       -0.005792770386 Rises=F Damp=T
 DIIS: error= 8.57D-03 at cycle   2 NSaved=   2.
 NSaved= 2 IEnMin= 2 EnMin= -797.499347534075     IErMin= 2 ErrMin= 8.57D-03
 ErrMax= 8.57D-03  0.00D+00 EMaxC= 1.00D-01 BMatC= 4.19D-02 BMatP= 2.63D-01
 IDIUse=3 WtCom= 9.14D-01 WtEn= 8.57D-02
 Coeff-Com: -0.606D+00 0.161D+01
 Coeff-En:   0.000D+00 0.100D+01
 Coeff:     -0.554D+00 0.155D+01
 Gap=     0.203 Goal=   None    Shift=    0.000
 Gap=     0.203 Goal=   None    Shift=    0.000
 RMSDP=1.01D-03 MaxDP=1.13D-02 DE=-5.79D-03 OVMax= 8.55D-03

 Cycle   3  Pass 1  IDiag  1:
 E= -797.504725950733     Delta-E=       -0.005378416659 Rises=F Damp=F
 DIIS: error= 6.60D-04 at cycle   3 NSaved=   3.
 NSaved= 3 IEnMin= 3 EnMin= -797.504725950733     IErMin= 3 ErrMin= 6.60D-04
 ErrMax= 6.60D-04  0.00D+00 EMaxC= 1.00D-01 BMatC= 2.40D-04 BMatP= 4.19D-02
 IDIUse=3 WtCom= 9.93D-01 WtEn= 6.60D-03
 Coeff-Com: -0.750D-01 0.160D+00 0.915D+00
 Coeff-En:   0.000D+00 0.000D+00 0.100D+01
 Coeff:     -0.745D-01 0.159D+00 0.916D+00
 Gap=     0.203 Goal=   None    Shift=    0.000
 Gap=     0.203 Goal=   None    Shift=    0.000
 RMSDP=1.79D-04 MaxDP=3.68D-03 DE=-5.38D-03 OVMax= 3.24D-03

 Cycle   4  Pass 1  IDiag  1:
 E= -797.504775072854     Delta-E=       -0.000049122121 Rises=F Damp=F
 DIIS: error= 2.49D-04 at cycle   4 NSaved=   4.
 NSaved= 4 IEnMin= 4 EnMin= -797.504775072854     IErMin= 4 ErrMin= 2.49D-04
 ErrMax= 2.49D-04  0.00D+00 EMaxC= 1.00D-01 BMatC= 4.00D-05 BMatP= 2.40D-04
 IDIUse=3 WtCom= 9.98D-01 WtEn= 2.49D-03
 Coeff-Com:  0.196D-02-0.891D-02 0.293D+00 0.714D+00
 Coeff-En:   0.000D+00 0.000D+00 0.000D+00 0.100D+01
 Coeff:      0.195D-02-0.889D-02 0.292D+00 0.715D+00
 Gap=     0.203 Goal=   None    Shift=    0.000
 Gap=     0.203 Goal=   None    Shift=    0.000
 RMSDP=5.35D-05 MaxDP=1.05D-03 DE=-4.91D-05 OVMax= 1.31D-03

 Cycle   5  Pass 1  IDiag  1:
 E= -797.504786817344     Delta-E=       -0.000011744489 Rises=F Damp=F
 DIIS: error= 4.00D-05 at cycle   5 NSaved=   5.
 NSaved= 5 IEnMin= 5 EnMin= -797.504786817344     IErMin= 5 ErrMin= 4.00D-05
 ErrMax= 4.00D-05  0.00D+00 EMaxC= 1.00D-01 BMatC= 4.34D-07 BMatP= 4.00D-05
 IDIUse=1 WtCom= 1.00D+00 WtEn= 0.00D+00
 Coeff-Com:  0.125D-02-0.238D-02-0.460D-01-0.203D-01 0.107D+01
 Coeff:      0.125D-02-0.238D-02-0.460D-01-0.203D-01 0.107D+01
 Gap=     0.203 Goal=   None    Shift=    0.000
 Gap=     0.203 Goal=   None    Shift=    0.000
 RMSDP=8.87D-06 MaxDP=9.12D-05 DE=-1.17D-05 OVMax= 3.25D-04

 Cycle   6  Pass 1  IDiag  1:
 E= -797.504787041380     Delta-E=       -0.000000224036 Rises=F Damp=F
 DIIS: error= 6.67D-06 at cycle   6 NSaved=   6.
 NSaved= 6 IEnMin= 6 EnMin= -797.504787041380     IErMin= 6 ErrMin= 6.67D-06
 ErrMax= 6.67D-06  0.00D+00 EMaxC= 1.00D-01 BMatC= 3.22D-08 BMatP= 4.34D-07
 IDIUse=1 WtCom= 1.00D+00 WtEn= 0.00D+00
 Coeff-Com: -0.262D-03 0.846D-03-0.265D-01-0.426D-01 0.190D+00 0.879D+00
 Coeff:     -0.262D-03 0.846D-03-0.265D-01-0.426D-01 0.190D+00 0.879D+00
 Gap=     0.203 Goal=   None    Shift=    0.000
 Gap=     0.203 Goal=   None    Shift=    0.000
 RMSDP=2.65D-06 MaxDP=2.64D-05 DE=-2.24D-07 OVMax= 1.13D-04

 Cycle   7  Pass 1  IDiag  1:
 E= -797.504787060956     Delta-E=       -0.000000019577 Rises=F Damp=F
 DIIS: error= 2.00D-06 at cycle   7 NSaved=   7.
 NSaved= 7 IEnMin= 7 EnMin= -797.504787060956     IErMin= 7 ErrMin= 2.00D-06
 ErrMax= 2.00D-06  0.00D+00 EMaxC= 1.00D-01 BMatC= 2.11D-09 BMatP= 3.22D-08
 IDIUse=1 WtCom= 1.00D+00 WtEn= 0.00D+00
 Coeff-Com:  0.628D-04-0.181D-03 0.687D-02 0.987D-02-0.108D+00-0.818D-01
 Coeff-Com:  0.117D+01
 Coeff:      0.628D-04-0.181D-03 0.687D-02 0.987D-02-0.108D+00-0.818D-01
 Coeff:      0.117D+01
 Gap=     0.203 Goal=   None    Shift=    0.000
 Gap=     0.203 Goal=   None    Shift=    0.000
 RMSDP=1.06D-06 MaxDP=9.57D-06 DE=-1.96D-08 OVMax= 5.26D-05

 Cycle   8  Pass 1  IDiag  1:
 E= -797.504787063520     Delta-E=       -0.000000002564 Rises=F Damp=F
 DIIS: error= 5.98D-07 at cycle   8 NSaved=   8.
 NSaved= 8 IEnMin= 8 EnMin= -797.504787063520     IErMin= 8 ErrMin= 5.98D-07
 ErrMax= 5.98D-07  0.00D+00 EMaxC= 1.00D-01 BMatC= 2.40D-10 BMatP= 2.11D-09
 IDIUse=1 WtCom= 1.00D+00 WtEn= 0.00D+00
 Coeff-Com:  0.107D-04-0.485D-04 0.270D-02 0.433D-02-0.309D-01-0.480D-01
 Coeff-Com:  0.198D+00 0.874D+00
 Coeff:      0.107D-04-0.485D-04 0.270D-02 0.433D-02-0.309D-01-0.480D-01
 Coeff:      0.198D+00 0.874D+00
 Gap=     0.203 Goal=   None    Shift=    0.000
 Gap=     0.203 Goal=   None    Shift=    0.000
 RMSDP=3.49D-07 MaxDP=3.82D-06 DE=-2.56D-09 OVMax= 1.95D-05

 Cycle   9  Pass 1  IDiag  1:
 E= -797.504787063801     Delta-E=       -0.000000000280 Rises=F Damp=F
 DIIS: error= 5.15D-07 at cycle   9 NSaved=   9.
 NSaved= 9 IEnMin= 9 EnMin= -797.504787063801     IErMin= 9 ErrMin= 5.15D-07
 ErrMax= 5.15D-07  0.00D+00 EMaxC= 1.00D-01 BMatC= 1.72D-10 BMatP= 2.40D-10
 IDIUse=1 WtCom= 1.00D+00 WtEn= 0.00D+00
 Coeff-Com: -0.127D-04 0.237D-04-0.181D-03 0.323D-04 0.913D-02-0.550D-02
 Coeff-Com: -0.196D+00 0.530D+00 0.662D+00
 Coeff:     -0.127D-04 0.237D-04-0.181D-03 0.323D-04 0.913D-02-0.550D-02
 Coeff:     -0.196D+00 0.530D+00 0.662D+00
 Gap=     0.203 Goal=   None    Shift=    0.000
 Gap=     0.203 Goal=   None    Shift=    0.000
 RMSDP=2.30D-07 MaxDP=2.59D-06 DE=-2.80D-10 OVMax= 1.33D-05

 Cycle  10  Pass 1  IDiag  1:
 E= -797.504787063950     Delta-E=       -0.000000000149 Rises=F Damp=F
 DIIS: error= 1.94D-07 at cycle  10 NSaved=  10.
 NSaved=10 IEnMin=10 EnMin= -797.504787063950     IErMin=10 ErrMin= 1.94D-07
 ErrMax= 1.94D-07  0.00D+00 EMaxC= 1.00D-01 BMatC= 2.00D-11 BMatP= 1.72D-10
 IDIUse=1 WtCom= 1.00D+00 WtEn= 0.00D+00
 Coeff-Com: -0.200D-05 0.102D-04-0.646D-03-0.102D-02 0.728D-02 0.100D-01
 Coeff-Com: -0.706D-01-0.157D+00 0.121D+00 0.109D+01
 Coeff:     -0.200D-05 0.102D-04-0.646D-03-0.102D-02 0.728D-02 0.100D-01
 Coeff:     -0.706D-01-0.157D+00 0.121D+00 0.109D+01
 Gap=     0.203 Goal=   None    Shift=    0.000
 Gap=     0.203 Goal=   None    Shift=    0.000
 RMSDP=1.71D-07 MaxDP=2.22D-06 DE=-1.49D-10 OVMax= 1.10D-05

 Cycle  11  Pass 1  IDiag  1:
 E= -797.504787063997     Delta-E=       -0.000000000047 Rises=F Damp=F
 DIIS: error= 8.47D-08 at cycle  11 NSaved=  11.
 NSaved=11 IEnMin=11 EnMin= -797.504787063997     IErMin=11 ErrMin= 8.47D-08
 ErrMax= 8.47D-08  0.00D+00 EMaxC= 1.00D-01 BMatC= 2.89D-12 BMatP= 2.00D-11
 IDIUse=1 WtCom= 1.00D+00 WtEn= 0.00D+00
 Coeff-Com:  0.275D-05-0.484D-05-0.119D-05-0.556D-04-0.107D-02 0.295D-02
 Coeff-Com:  0.394D-01-0.163D+00-0.157D+00 0.137D+00 0.114D+01
 Coeff:      0.275D-05-0.484D-05-0.119D-05-0.556D-04-0.107D-02 0.295D-02
 Coeff:      0.394D-01-0.163D+00-0.157D+00 0.137D+00 0.114D+01
 Gap=     0.203 Goal=   None    Shift=    0.000
 Gap=     0.203 Goal=   None    Shift=    0.000
 RMSDP=8.89D-08 MaxDP=1.16D-06 DE=-4.71D-11 OVMax= 5.75D-06

 Cycle  12  Pass 1  IDiag  1:
 E= -797.504787064004     Delta-E=       -0.000000000007 Rises=F Damp=F
 DIIS: error= 9.09D-09 at cycle  12 NSaved=  12.
 NSaved=12 IEnMin=12 EnMin= -797.504787064004     IErMin=12 ErrMin= 9.09D-09
 ErrMax= 9.09D-09  0.00D+00 EMaxC= 1.00D-01 BMatC= 2.49D-14 BMatP= 2.89D-12
 IDIUse=1 WtCom= 1.00D+00 WtEn= 0.00D+00
 Coeff-Com: -0.302D-07-0.172D-06 0.215D-04 0.317D-04-0.234D-03-0.446D-03
 Coeff-Com: -0.221D-03 0.203D-01 0.106D-01-0.499D-01-0.129D+00 0.115D+01
 Coeff:     -0.302D-07-0.172D-06 0.215D-04 0.317D-04-0.234D-03-0.446D-03
 Coeff:     -0.221D-03 0.203D-01 0.106D-01-0.499D-01-0.129D+00 0.115D+01
 Gap=     0.203 Goal=   None    Shift=    0.000
 Gap=     0.203 Goal=   None    Shift=    0.000
 RMSDP=6.74D-09 MaxDP=8.63D-08 DE=-7.16D-12 OVMax= 3.88D-07

 SCF Done:  E(UM062X) =  -797.504787064     A.U. after   12 cycles
            NFock= 12  Conv=0.67D-08     -V/T= 2.0015
 <Sx>= 0.0000 <Sy>= 0.0000 <Sz>= 0.0000 <S**2>=-0.0000 S=-0.0000
 <L.S>=  0.00000000000    
 KE= 7.963036189700D+02 PE=-2.033562625936D+03 EE= 3.712357757084D+02
 Annihilation of the first spin contaminant:
 S**2 before annihilation    -0.0000,   after     0.0000
 Leave Link  502 at Mon Apr 21 21:14:47 2025, MaxMem=   536870912 cpu:              56.5 elap:               7.4
 (Enter /home/szhao/Apps/g16/l601.exe)
 Copying SCF densities to generalized density rwf, IOpCl= 1 IROHF=0.

 **********************************************************************

            Population analysis using the SCF density.

 **********************************************************************

 Alpha  occ. eigenvalues --  -89.94264 -89.94264  -8.30425  -8.30423  -6.22581
 Alpha  occ. eigenvalues --   -6.22580  -6.22313  -6.22313  -6.21783  -6.21782
 Alpha  occ. eigenvalues --   -0.83644  -0.79294  -0.48495  -0.46703  -0.37394
 Alpha  occ. eigenvalues --   -0.33122  -0.33094
 Alpha virt. eigenvalues --   -0.12774   0.01880   0.03193   0.04949   0.05084
 Alpha virt. eigenvalues --    0.06341   0.07281   0.07514   0.07841   0.11517
 Alpha virt. eigenvalues --    0.13559   0.30474   0.31064   0.32534   0.35510
 Alpha virt. eigenvalues --    0.36168   0.37404   0.41352   0.41878   0.58421
 Alpha virt. eigenvalues --    0.67848   0.72781   0.73949   0.74312   0.74935
 Alpha virt. eigenvalues --    0.79568   0.82592   0.82647   0.95898   1.00595
 Alpha virt. eigenvalues --    1.01030   1.46623   1.47867   1.48329   1.49478
 Alpha virt. eigenvalues --    1.58687   1.65245   1.65434   1.70950   1.70955
 Alpha virt. eigenvalues --    1.83717   2.10989   2.12035   2.55971   2.58888
 Alpha virt. eigenvalues --    7.86155   7.92476  17.39156  17.44247  17.44270
 Alpha virt. eigenvalues --   17.49197  17.49451  17.54260 189.12190 189.20693
  Beta  occ. eigenvalues --  -89.94264 -89.94264  -8.30425  -8.30423  -6.22581
  Beta  occ. eigenvalues --   -6.22580  -6.22313  -6.22313  -6.21783  -6.21782
  Beta  occ. eigenvalues --   -0.83644  -0.79294  -0.48495  -0.46703  -0.37394
  Beta  occ. eigenvalues --   -0.33122  -0.33094
  Beta virt. eigenvalues --   -0.12774   0.01880   0.03193   0.04949   0.05084
  Beta virt. eigenvalues --    0.06341   0.07281   0.07514   0.07841   0.11517
  Beta virt. eigenvalues --    0.13559   0.30474   0.31064   0.32534   0.35510
  Beta virt. eigenvalues --    0.36168   0.37404   0.41352   0.41878   0.58421
  Beta virt. eigenvalues --    0.67848   0.72781   0.73949   0.74312   0.74935
  Beta virt. eigenvalues --    0.79568   0.82592   0.82647   0.95898   1.00595
  Beta virt. eigenvalues --    1.01030   1.46623   1.47867   1.48329   1.49478
  Beta virt. eigenvalues --    1.58687   1.65245   1.65434   1.70950   1.70955
  Beta virt. eigenvalues --    1.83717   2.10989   2.12035   2.55971   2.58888
  Beta virt. eigenvalues --    7.86155   7.92476  17.39156  17.44247  17.44270
  Beta virt. eigenvalues --   17.49197  17.49451  17.54260 189.12190 189.20693
          Condensed to atoms (all electrons):
               1          2          3          4
     1  S   15.676188   0.166194   0.246675  -0.001213
     2  S    0.166194  15.676191  -0.001212   0.246674
     3  H    0.246675  -0.001212   0.667190  -0.000497
     4  H   -0.001213   0.246674  -0.000497   0.667188
          Atomic-Atomic Spin Densities.
               1          2          3          4
     1  S   -0.000000  -0.000000   0.000000   0.000000
     2  S   -0.000000   0.000000  -0.000000  -0.000000
     3  H    0.000000  -0.000000   0.000000  -0.000000
     4  H    0.000000  -0.000000  -0.000000   0.000000
 Mulliken charges and spin densities:
               1          2
     1  S   -0.087844  -0.000000
     2  S   -0.087848   0.000000
     3  H    0.087844   0.000000
     4  H    0.087848  -0.000000
 Sum of Mulliken charges =  -0.00000   0.00000
 Mulliken charges and spin densities with hydrogens summed into heavy atoms:
               1          2
     1  S   -0.000000  -0.000000
     2  S    0.000000   0.000000
 Electronic spatial extent (au):  <R**2>=            295.6308
 Charge=             -0.0000 electrons
 Dipole moment (field-independent basis, Debye):
    X=              0.0000    Y=             -1.0348    Z=              1.0571  Tot=              1.4793
 Quadrupole moment (field-independent basis, Debye-Ang):
   XX=            -25.1474   YY=            -27.8663   ZZ=            -27.8705
   XY=              2.1647   XZ=              2.1191   YZ=              0.0991
 Traceless Quadrupole moment (field-independent basis, Debye-Ang):
   XX=              1.8140   YY=             -0.9049   ZZ=             -0.9091
   XY=              2.1647   XZ=              2.1191   YZ=              0.0991
 Octapole moment (field-independent basis, Debye-Ang**2):
  XXX=              0.0003  YYY=              0.8321  ZZZ=             -0.8859  XYY=             -5.6189
  XXY=             -2.2991  XXZ=              2.3483  XZZ=              5.6190  YZZ=              0.8468
  YYZ=             -0.8295  XYZ=              0.1198
 Hexadecapole moment (field-independent basis, Debye-Ang**3):
 XXXX=           -311.9271 YYYY=            -45.1241 ZZZZ=            -45.1304 XXXY=              3.0563
 XXXZ=              2.9929 YYYX=             -0.4003 YYYZ=              0.0343 ZZZX=             -0.3370
 ZZZY=              0.1126 XXYY=            -63.9339 XXZZ=            -63.9424 YYZZ=            -16.2659
 XXYZ=              0.1993 YYXZ=             -1.0005 ZZXY=             -0.9666
 N-N= 6.851844419337D+01 E-N=-2.033562625696D+03  KE= 7.963036189700D+02
                          Isotropic Fermi Contact Couplings
        Atom                 a.u.       MegaHertz       Gauss      10(-4) cm-1
     1  S(33)              0.00000       0.00000       0.00000       0.00000
     2  S(33)              0.00000       0.00000       0.00000       0.00000
     3  H(1)               0.00000       0.00000       0.00000       0.00000
     4  H(1)               0.00000       0.00000       0.00000       0.00000
 --------------------------------------------------------
       Center         ----  Spin Dipole Couplings  ----
                      3XX-RR        3YY-RR        3ZZ-RR
 --------------------------------------------------------
     1   Atom        0.000000      0.000000      0.000000
     2   Atom        0.000000      0.000000      0.000000
     3   Atom        0.000000      0.000000      0.000000
     4   Atom        0.000000      0.000000      0.000000
 --------------------------------------------------------
                        XY            XZ            YZ
 --------------------------------------------------------
     1   Atom        0.000000      0.000000      0.000000
     2   Atom        0.000000      0.000000      0.000000
     3   Atom        0.000000      0.000000      0.000000
     4   Atom        0.000000      0.000000      0.000000
 --------------------------------------------------------


 ---------------------------------------------------------------------------------
              Anisotropic Spin Dipole Couplings in Principal Axis System
 ---------------------------------------------------------------------------------

       Atom             a.u.   MegaHertz   Gauss  10(-4) cm-1        Axes

              Baa     0.0000     0.000     0.000     0.000  1.0000  0.0000  0.0000
     1 S(33)  Bbb     0.0000     0.000     0.000     0.000 -0.0000  1.0000  0.0000
              Bcc     0.0000     0.000     0.000     0.000  0.0000  0.0000  1.0000
 
              Baa     0.0000     0.000     0.000     0.000  1.0000  0.0000  0.0000
     2 S(33)  Bbb     0.0000     0.000     0.000     0.000 -0.0000  1.0000  0.0000
              Bcc     0.0000     0.000     0.000     0.000  0.0000  0.0000  1.0000
 
              Baa     0.0000     0.000     0.000     0.000  1.0000  0.0000  0.0000
     3 H(1)   Bbb     0.0000     0.000     0.000     0.000 -0.0000  1.0000  0.0000
              Bcc     0.0000     0.000     0.000     0.000  0.0000  0.0000  1.0000
 
              Baa     0.0000     0.000     0.000     0.000  1.0000  0.0000  0.0000
     4 H(1)   Bbb     0.0000     0.000     0.000     0.000 -0.0000  1.0000  0.0000
              Bcc     0.0000     0.000     0.000     0.000  0.0000  0.0000  1.0000
 

 ---------------------------------------------------------------------------------

 No NMR shielding tensors so no spin-rotation constants.
 Leave Link  601 at Mon Apr 21 21:14:47 2025, MaxMem=   536870912 cpu:               1.3 elap:               0.2
 (Enter /home/szhao/Apps/g16/l701.exe)
 ... and contract with generalized density number  0.
 Compute integral first derivatives.
 Leave Link  701 at Mon Apr 21 21:14:48 2025, MaxMem=   536870912 cpu:               1.3 elap:               0.2
 (Enter /home/szhao/Apps/g16/l702.exe)
 L702 exits ... SP integral derivatives will be done elsewhere.
 Leave Link  702 at Mon Apr 21 21:14:48 2025, MaxMem=   536870912 cpu:               0.5 elap:               0.3
 (Enter /home/szhao/Apps/g16/l703.exe)
 Integral derivatives from FoFJK, PRISM(SPDF).
 Compute integral first derivatives, UseDBF=F ICtDFT=           0.
 Calling FoFJK, ICntrl=      2127 FMM=F ISym2X=0 I1Cent= 0 IOpClX= 1 NMat=1 NMatS=1 NMatT=0.
 FoFJK:  IHMeth= 1 ICntrl=    2127 DoSepK=F KAlg= 0 I1Cent=           0 FoldK=F
 IRaf=         0 NMat=       1 IRICut=       1 DoRegI=T DoRafI=F ISym2E= 0 IDoP0=0 IntGTp=1.
 FoFCou: FMM=F IPFlag=           0 FMFlag=      100000 FMFlg1=         800
         NFxFlg=           0 DoJE=F BraDBF=F KetDBF=F FulRan=T
         wScrn=  0.000000 ICntrl=      2127 IOpCl=  1 I1Cent=           0 NGrid=           0
         NMat0=    1 NMatS0=      1 NMatT0=    0 NMatD0=    1 NMtDS0=    0 NMtDT0=    0
 Symmetry not used in FoFCou.
 Leave Link  703 at Mon Apr 21 21:14:49 2025, MaxMem=   536870912 cpu:               6.3 elap:               0.9
 (Enter /home/szhao/Apps/g16/l716.exe)
 Dipole        = 1.74554504D-05-4.07128284D-01 4.15888078D-01
 -------------------------------------------------------------------
 Center     Atomic                   Forces (Hartrees/Bohr)
 Number     Number              X              Y              Z
 -------------------------------------------------------------------
      1       16          -0.000000000   -0.000000000   -0.000000000
      2       16          -0.000000000   -0.000000000   -0.000000000
      3        1           0.005295436   -0.000978293    0.000090379
      4        1          -0.005303375   -0.000127707    0.001005710
 -------------------------------------------------------------------
 Cartesian Forces:  Max     0.005303375 RMS     0.002201523
 Leave Link  716 at Mon Apr 21 21:14:50 2025, MaxMem=   536870912 cpu:               0.8 elap:               0.2
 (Enter /home/szhao/Apps/g16/l103.exe)

 GradGradGradGradGradGradGradGradGradGradGradGradGradGradGradGradGradGrad
 Berny optimization.
 FormGI is forming the generalized inverse of G from B-inverse, IUseBI=4.
 Internal  Forces:  Max     0.013699704 RMS     0.006550988
 Search for a local minimum.
 Step number   1 out of a maximum of   21
 All quantities printed in internal units (Hartrees-Bohrs-Radians)
 RMS Force = .86580D-02 SwitMx=.10000D-02 MixMth= 1
 Mixed Optimization -- RFO/linear search
 Second derivative matrix not updated -- first step.
 The second derivative matrix:
                          X1        Y1        Z1        X2        Y2
           X1           0.50000
           Y1           0.00000   0.50000
           Z1           0.00000   0.00000   0.50000
           X2           0.00000   0.00000   0.00000   0.50000
           Y2           0.00000   0.00000   0.00000   0.00000   0.50000
           Z2           0.00000   0.00000   0.00000   0.00000   0.00000
           R1           0.00000   0.00000   0.00000   0.00000   0.00000
           R2           0.00000   0.00000   0.00000   0.00000   0.00000
           A1           0.00000   0.00000   0.00000   0.00000   0.00000
           A2           0.00000   0.00000   0.00000   0.00000   0.00000
           D1           0.00000   0.00000   0.00000   0.00000   0.00000
                          Z2        R1        R2        A1        A2
           Z2           0.50000
           R1           0.00000   0.26038
           R2           0.00000   0.00000   0.26038
           A1           0.00000   0.00000   0.00000   0.16000
           A2           0.00000   0.00000   0.00000   0.00000   0.16000
           D1           0.00000   0.00000   0.00000   0.00000   0.00000
                          D1
           D1           0.00230
 ITU=  0
     Eigenvalues ---    0.00230   0.16000   0.16000   0.26038   0.26038
     Eigenvalues --- 1000.000001000.000001000.000001000.000001000.00000
     Eigenvalues --- 1000.00000
 RFO step:  Lambda=-2.32772691D-03 EMin= 2.30000000D-03
 Linear search not attempted -- first point.
 Iteration  1 RMS(Cart)=  0.09704568 RMS(Int)=  0.00436538
 Iteration  2 RMS(Cart)=  0.00449808 RMS(Int)=  0.00000226
 Iteration  3 RMS(Cart)=  0.00000476 RMS(Int)=  0.00000000
 Iteration  4 RMS(Cart)=  0.00000000 RMS(Int)=  0.00000000
 ITry= 1 IFail=0 DXMaxC= 2.13D-01 DCOld= 1.00D+10 DXMaxT= 3.00D-01 DXLimC= 3.00D+00 Rises=F
 Variable       Old X    -DE/DX   Delta X   Delta X   Delta X     New X
                                 (Linear)    (Quad)   (Total)
    X1       -2.53826   0.00530   0.00000   0.00000   0.00000  -2.53826
    Y1        0.00000  -0.00372   0.00000   0.00000   0.00000   0.00000
    Z1        0.00000  -0.00257   0.00000   0.00000   0.00000   0.00000
    X2        2.53826  -0.00530   0.00000   0.00000   0.00000   2.53826
    Y2        0.00000   0.00264   0.00000   0.00000   0.00000   0.00000
    Z2        0.00000   0.00370   0.00000   0.00000   0.00000   0.00000
    R1        2.54139   0.00025   0.00000   0.00094   0.00094   2.54233
    R2        2.54139   0.00027   0.00000   0.00102   0.00102   2.54242
    A1        1.70778  -0.01367   0.00000  -0.08422  -0.08422   1.62356
    A2        1.70778  -0.01370   0.00000  -0.08440  -0.08440   1.62338
    D1       -1.59212   0.00030   0.00000   0.06515   0.06515  -1.52697
         Item               Value     Threshold  Converged?
 Maximum Force            0.013700     0.000450     NO 
 RMS     Force            0.008658     0.000300     NO 
 Maximum Displacement     0.213402     0.001800     NO 
 RMS     Displacement     0.097869     0.001200     NO 
 Predicted change in Energy=-1.185350D-03
 Lowest energy point so far.  Saving SCF results.
 GradGradGradGradGradGradGradGradGradGradGradGradGradGradGradGradGradGrad

 Leave Link  103 at Mon Apr 21 21:14:50 2025, MaxMem=   536870912 cpu:               0.6 elap:               0.3
 (Enter /home/szhao/Apps/g16/l202.exe)
                          Input orientation:                          
 ---------------------------------------------------------------------
 Center     Atomic      Atomic             Coordinates (Angstroms)
 Number     Number       Type             X           Y           Z
 ---------------------------------------------------------------------
      1         16           0       -1.343191    0.000000    0.000000
      2         16           0        1.343191    0.000000    0.000000
      3          1           0       -1.414139   -1.342736    0.044420
      4          1           0        1.413906   -0.014448    1.343452
 ---------------------------------------------------------------------
                    Distance matrix (angstroms):
                    1          2          3          4
     1  S    0.000000
     2  S    2.686383   0.000000
     3  H    1.345343   3.067211   0.000000
     4  H    3.067028   1.345390   3.383737   0.000000
 Symmetry turned off by external request.
 Stoichiometry    H2S2
 Framework group  C1[X(H2S2)]
 Deg. of freedom     6
 Full point group                 C1      NOp   1
 Rotational constants (GHZ):         143.5467464           4.1720216           4.1664868
 Leave Link  202 at Mon Apr 21 21:14:51 2025, MaxMem=   536870912 cpu:               0.1 elap:               0.1
 (Enter /home/szhao/Apps/g16/l301.exe)
 Standard basis: 6-311+G(d,p) (5D, 7F)
 Ernie: Thresh=  0.10000D-02 Tol=  0.10000D-05 Strict=F.
    72 basis functions,   116 primitive gaussians,    74 cartesian basis functions
    17 alpha electrons       17 beta electrons
       nuclear repulsion energy        68.6922567024 Hartrees.
 IExCor= 4336 DFT=T Ex+Corr=M062X ExCW=0 ScaHFX=  0.540000
 ScaDFX=  1.000000  1.000000  1.000000  1.000000 ScalE2=  1.000000  1.000000
 IRadAn=      7 IRanWt=     -1 IRanGd=            0 ICorTp=0 IEmpDi=  4
 NAtoms=    4 NActive=    4 NUniq=    4 SFac= 1.00D+00 NAtFMM=   60 NAOKFM=F Big=F
 Integral buffers will be    131072 words long.
 Raffenetti 2 integral format.
 Two-electron integral symmetry is turned off.
 Leave Link  301 at Mon Apr 21 21:14:51 2025, MaxMem=   536870912 cpu:               0.8 elap:               0.2
 (Enter /home/szhao/Apps/g16/l302.exe)
 NPDir=0 NMtPBC=     1 NCelOv=     1 NCel=       1 NClECP=     1 NCelD=      1
         NCelK=      1 NCelE2=     1 NClLst=     1 CellRange=     0.0.
 One-electron integrals computed using PRISM.
 NBasis=    72 RedAO= T EigKep=  5.00D-03  NBF=    72
 NBsUse=    72 1.00D-06 EigRej= -1.00D+00 NBFU=    72
 Precomputing XC quadrature grid using
 IXCGrd= 4 IRadAn=           7 IRanWt=          -1 IRanGd=           0 AccXCQ= 0.00D+00.
 Generated NRdTot=       0 NPtTot=           0 NUsed=           0 NTot=          32
 NSgBfM=    71    71    71    71    71 MxSgAt=     4 MxSgA2=     4.
 Leave Link  302 at Mon Apr 21 21:14:52 2025, MaxMem=   536870912 cpu:               1.9 elap:               0.5
 (Enter /home/szhao/Apps/g16/l303.exe)
 DipDrv:  MaxL=1.
 Leave Link  303 at Mon Apr 21 21:14:53 2025, MaxMem=   536870912 cpu:               0.8 elap:               0.2
 (Enter /home/szhao/Apps/g16/l401.exe)
 Initial guess from the checkpoint file:  "opt.chk"
 B after Tr=    -0.000013   -0.003002    0.003072
         Rot=    0.999999    0.000249    0.000792   -0.000807 Ang=   0.13 deg.
 Guess basis will be translated and rotated to current coordinates.
 JPrj=2 DoOrth=T DoCkMO=T.
 Initial guess <Sx>= 0.0000 <Sy>= 0.0000 <Sz>= 0.0000 <S**2>=-0.0000 S=-0.0000
 Generating alternative initial guess.
 ExpMin= 4.05D-02 ExpMax= 9.34D+04 ExpMxC= 3.17D+03 IAcc=3 IRadAn=         5 AccDes= 0.00D+00
 Harris functional with IExCor= 1009 and IRadAn=       5 diagonalized for initial guess.
 HarFok:  IExCor= 1009 AccDes= 0.00D+00 IRadAn=         5 IDoV= 1 UseB2=F ITyADJ=14
 ICtDFT=  3500011 ScaDFX=  1.000000  1.000000  1.000000  1.000000
 FoFCou: FMM=F IPFlag=           0 FMFlag=      100000 FMFlg1=           0
         NFxFlg=           0 DoJE=T BraDBF=F KetDBF=T FulRan=T
         wScrn=  0.000000 ICntrl=       500 IOpCl=  0 I1Cent=   200000004 NGrid=           0
         NMat0=    1 NMatS0=      1 NMatT0=    0 NMatD0=    1 NMtDS0=    0 NMtDT0=    0
 Symmetry not used in FoFCou.
 Harris En= -797.137094566215    
 Leave Link  401 at Mon Apr 21 21:14:53 2025, MaxMem=   536870912 cpu:               4.0 elap:               0.6
 (Enter /home/szhao/Apps/g16/l502.exe)
 Keep R1 and R2 ints in memory in canonical form, NReq=14118010.
 FoFCou: FMM=F IPFlag=           0 FMFlag=           0 FMFlg1=           0
         NFxFlg=           0 DoJE=F BraDBF=F KetDBF=F FulRan=T
         wScrn=  0.000000 ICntrl=       600 IOpCl=  0 I1Cent=           0 NGrid=           0
         NMat0=    1 NMatS0=   2628 NMatT0=    0 NMatD0=    1 NMtDS0=    0 NMtDT0=    0
 Symmetry not used in FoFCou.
 Two-electron integral symmetry not used.
 UHF open shell SCF:
 Using DIIS extrapolation, IDIIS=  1040.
 NGot=   536870912 LenX=   529949706 LenY=   529943789
 Requested convergence on RMS density matrix=1.00D-08 within 128 cycles.
 Requested convergence on MAX density matrix=1.00D-06.
 Requested convergence on             energy=1.00D-06.
 No special actions if energy rises.

 Cycle   1  Pass 1  IDiag  1:
 E= -797.504603235863    
 DIIS: error= 4.18D-03 at cycle   1 NSaved=   1.
 NSaved= 1 IEnMin= 1 EnMin= -797.504603235863     IErMin= 1 ErrMin= 4.18D-03
 ErrMax= 4.18D-03  0.00D+00 EMaxC= 1.00D-01 BMatC= 2.97D-03 BMatP= 2.97D-03
 IDIUse=3 WtCom= 9.58D-01 WtEn= 4.18D-02
 Coeff-Com:  0.100D+01
 Coeff-En:   0.100D+01
 Coeff:      0.100D+01
 Gap=     0.482 Goal=   None    Shift=    0.000
 Gap=     0.482 Goal=   None    Shift=    0.000
 GapD=    0.482 DampG=2.000 DampE=1.000 DampFc=2.0000 IDamp=-1.
 RMSDP=5.96D-04 MaxDP=5.65D-03              OVMax= 1.88D-02

 Cycle   2  Pass 1  IDiag  1:
 E= -797.506180370049     Delta-E=       -0.001577134186 Rises=F Damp=F
 DIIS: error= 6.00D-04 at cycle   2 NSaved=   2.
 NSaved= 2 IEnMin= 2 EnMin= -797.506180370049     IErMin= 2 ErrMin= 6.00D-04
 ErrMax= 6.00D-04  0.00D+00 EMaxC= 1.00D-01 BMatC= 1.27D-04 BMatP= 2.97D-03
 IDIUse=3 WtCom= 9.94D-01 WtEn= 6.00D-03
 Coeff-Com: -0.144D+00 0.114D+01
 Coeff-En:   0.000D+00 0.100D+01
 Coeff:     -0.143D+00 0.114D+01
 Gap=     0.203 Goal=   None    Shift=    0.000
 Gap=     0.203 Goal=   None    Shift=    0.000
 RMSDP=2.02D-04 MaxDP=2.13D-03 DE=-1.58D-03 OVMax= 7.45D-03

 Cycle   3  Pass 1  IDiag  1:
 E= -797.506308815819     Delta-E=       -0.000128445770 Rises=F Damp=F
 DIIS: error= 1.44D-04 at cycle   3 NSaved=   3.
 NSaved= 3 IEnMin= 3 EnMin= -797.506308815819     IErMin= 3 ErrMin= 1.44D-04
 ErrMax= 1.44D-04  0.00D+00 EMaxC= 1.00D-01 BMatC= 1.01D-05 BMatP= 1.27D-04
 IDIUse=3 WtCom= 9.99D-01 WtEn= 1.44D-03
 Coeff-Com: -0.279D-01 0.831D-01 0.945D+00
 Coeff-En:   0.000D+00 0.000D+00 0.100D+01
 Coeff:     -0.279D-01 0.830D-01 0.945D+00
 Gap=     0.203 Goal=   None    Shift=    0.000
 Gap=     0.203 Goal=   None    Shift=    0.000
 RMSDP=7.04D-05 MaxDP=6.29D-04 DE=-1.28D-04 OVMax= 2.87D-03

 Cycle   4  Pass 1  IDiag  1:
 E= -797.506321291655     Delta-E=       -0.000012475836 Rises=F Damp=F
 DIIS: error= 8.49D-05 at cycle   4 NSaved=   4.
 NSaved= 4 IEnMin= 4 EnMin= -797.506321291655     IErMin= 4 ErrMin= 8.49D-05
 ErrMax= 8.49D-05  0.00D+00 EMaxC= 1.00D-01 BMatC= 3.59D-06 BMatP= 1.01D-05
 IDIUse=1 WtCom= 1.00D+00 WtEn= 0.00D+00
 Coeff-Com:  0.147D-01-0.167D+00 0.236D+00 0.917D+00
 Coeff:      0.147D-01-0.167D+00 0.236D+00 0.917D+00
 Gap=     0.203 Goal=   None    Shift=    0.000
 Gap=     0.203 Goal=   None    Shift=    0.000
 RMSDP=3.84D-05 MaxDP=3.89D-04 DE=-1.25D-05 OVMax= 2.08D-03

 Cycle   5  Pass 1  IDiag  1:
 E= -797.506324903774     Delta-E=       -0.000003612119 Rises=F Damp=F
 DIIS: error= 2.41D-05 at cycle   5 NSaved=   5.
 NSaved= 5 IEnMin= 5 EnMin= -797.506324903774     IErMin= 5 ErrMin= 2.41D-05
 ErrMax= 2.41D-05  0.00D+00 EMaxC= 1.00D-01 BMatC= 2.51D-07 BMatP= 3.59D-06
 IDIUse=1 WtCom= 1.00D+00 WtEn= 0.00D+00
 Coeff-Com:  0.774D-03 0.131D-01-0.115D+00-0.140D+00 0.124D+01
 Coeff:      0.774D-03 0.131D-01-0.115D+00-0.140D+00 0.124D+01
 Gap=     0.203 Goal=   None    Shift=    0.000
 Gap=     0.203 Goal=   None    Shift=    0.000
 RMSDP=2.13D-05 MaxDP=2.64D-04 DE=-3.61D-06 OVMax= 1.36D-03

 Cycle   6  Pass 1  IDiag  1:
 E= -797.506325684479     Delta-E=       -0.000000780705 Rises=F Damp=F
 DIIS: error= 1.27D-05 at cycle   6 NSaved=   6.
 NSaved= 6 IEnMin= 6 EnMin= -797.506325684479     IErMin= 6 ErrMin= 1.27D-05
 ErrMax= 1.27D-05  0.00D+00 EMaxC= 1.00D-01 BMatC= 6.13D-08 BMatP= 2.51D-07
 IDIUse=1 WtCom= 1.00D+00 WtEn= 0.00D+00
 Coeff-Com: -0.344D-02 0.410D-01-0.638D-01-0.195D+00 0.860D-01 0.114D+01
 Coeff:     -0.344D-02 0.410D-01-0.638D-01-0.195D+00 0.860D-01 0.114D+01
 Gap=     0.203 Goal=   None    Shift=    0.000
 Gap=     0.203 Goal=   None    Shift=    0.000
 RMSDP=1.06D-05 MaxDP=1.39D-04 DE=-7.81D-07 OVMax= 6.95D-04

 Cycle   7  Pass 1  IDiag  1:
 E= -797.506325837686     Delta-E=       -0.000000153207 Rises=F Damp=F
 DIIS: error= 3.31D-06 at cycle   7 NSaved=   7.
 NSaved= 7 IEnMin= 7 EnMin= -797.506325837686     IErMin= 7 ErrMin= 3.31D-06
 ErrMax= 3.31D-06  0.00D+00 EMaxC= 1.00D-01 BMatC= 6.97D-09 BMatP= 6.13D-08
 IDIUse=1 WtCom= 1.00D+00 WtEn= 0.00D+00
 Coeff-Com: -0.594D-03 0.472D-02-0.133D-02-0.984D-02-0.112D+00 0.942D-01
 Coeff-Com:  0.102D+01
 Coeff:     -0.594D-03 0.472D-02-0.133D-02-0.984D-02-0.112D+00 0.942D-01
 Coeff:      0.102D+01
 Gap=     0.203 Goal=   None    Shift=    0.000
 Gap=     0.203 Goal=   None    Shift=    0.000
 RMSDP=3.23D-06 MaxDP=4.17D-05 DE=-1.53D-07 OVMax= 2.03D-04

 Cycle   8  Pass 1  IDiag  1:
 E= -797.506325849248     Delta-E=       -0.000000011562 Rises=F Damp=F
 DIIS: error= 3.41D-06 at cycle   8 NSaved=   8.
 NSaved= 8 IEnMin= 8 EnMin= -797.506325849248     IErMin= 7 ErrMin= 3.31D-06
 ErrMax= 3.41D-06  0.00D+00 EMaxC= 1.00D-01 BMatC= 6.38D-09 BMatP= 6.97D-09
 IDIUse=1 WtCom= 1.00D+00 WtEn= 0.00D+00
 Coeff-Com:  0.337D-03-0.549D-02 0.117D-01 0.352D-01-0.849D-01-0.183D+00
 Coeff-Com:  0.672D+00 0.555D+00
 Coeff:      0.337D-03-0.549D-02 0.117D-01 0.352D-01-0.849D-01-0.183D+00
 Coeff:      0.672D+00 0.555D+00
 Gap=     0.203 Goal=   None    Shift=    0.000
 Gap=     0.203 Goal=   None    Shift=    0.000
 RMSDP=1.02D-06 MaxDP=1.41D-05 DE=-1.16D-08 OVMax= 5.28D-05

 Cycle   9  Pass 1  IDiag  1:
 E= -797.506325852028     Delta-E=       -0.000000002780 Rises=F Damp=F
 DIIS: error= 3.54D-07 at cycle   9 NSaved=   9.
 NSaved= 9 IEnMin= 9 EnMin= -797.506325852028     IErMin= 9 ErrMin= 3.54D-07
 ErrMax= 3.54D-07  0.00D+00 EMaxC= 1.00D-01 BMatC= 8.80D-11 BMatP= 6.38D-09
 IDIUse=1 WtCom= 1.00D+00 WtEn= 0.00D+00
 Coeff-Com:  0.129D-03-0.173D-02 0.323D-02 0.102D-01-0.116D-01-0.514D-01
 Coeff-Com:  0.714D-01 0.128D+00 0.851D+00
 Coeff:      0.129D-03-0.173D-02 0.323D-02 0.102D-01-0.116D-01-0.514D-01
 Coeff:      0.714D-01 0.128D+00 0.851D+00
 Gap=     0.203 Goal=   None    Shift=    0.000
 Gap=     0.203 Goal=   None    Shift=    0.000
 RMSDP=1.49D-07 MaxDP=1.60D-06 DE=-2.78D-09 OVMax= 4.92D-06

 Cycle  10  Pass 1  IDiag  1:
 E= -797.506325852077     Delta-E=       -0.000000000049 Rises=F Damp=F
 DIIS: error= 9.16D-08 at cycle  10 NSaved=  10.
 NSaved=10 IEnMin=10 EnMin= -797.506325852077     IErMin=10 ErrMin= 9.16D-08
 ErrMax= 9.16D-08  0.00D+00 EMaxC= 1.00D-01 BMatC= 3.73D-12 BMatP= 8.80D-11
 IDIUse=1 WtCom= 1.00D+00 WtEn= 0.00D+00
 Coeff-Com: -0.878D-05 0.198D-03-0.496D-03-0.167D-02 0.483D-02 0.888D-02
 Coeff-Com: -0.467D-01-0.311D-01 0.922D-01 0.974D+00
 Coeff:     -0.878D-05 0.198D-03-0.496D-03-0.167D-02 0.483D-02 0.888D-02
 Coeff:     -0.467D-01-0.311D-01 0.922D-01 0.974D+00
 Gap=     0.203 Goal=   None    Shift=    0.000
 Gap=     0.203 Goal=   None    Shift=    0.000
 RMSDP=5.27D-08 MaxDP=4.83D-07 DE=-4.87D-11 OVMax= 2.32D-06

 Cycle  11  Pass 1  IDiag  1:
 E= -797.506325852081     Delta-E=       -0.000000000004 Rises=F Damp=F
 DIIS: error= 1.05D-08 at cycle  11 NSaved=  11.
 NSaved=11 IEnMin=11 EnMin= -797.506325852081     IErMin=11 ErrMin= 1.05D-08
 ErrMax= 1.05D-08  0.00D+00 EMaxC= 1.00D-01 BMatC= 4.40D-14 BMatP= 3.73D-12
 IDIUse=1 WtCom= 1.00D+00 WtEn= 0.00D+00
 Coeff-Com: -0.703D-06 0.101D-05 0.662D-05 0.377D-04-0.496D-03-0.853D-04
 Coeff-Com:  0.497D-02 0.124D-02-0.325D-01-0.929D-01 0.112D+01
 Coeff:     -0.703D-06 0.101D-05 0.662D-05 0.377D-04-0.496D-03-0.853D-04
 Coeff:      0.497D-02 0.124D-02-0.325D-01-0.929D-01 0.112D+01
 Gap=     0.203 Goal=   None    Shift=    0.000
 Gap=     0.203 Goal=   None    Shift=    0.000
 RMSDP=7.10D-09 MaxDP=1.01D-07 DE=-3.52D-12 OVMax= 1.56D-07

 SCF Done:  E(UM062X) =  -797.506325852     A.U. after   11 cycles
            NFock= 11  Conv=0.71D-08     -V/T= 2.0015
 <Sx>= 0.0000 <Sy>= 0.0000 <Sz>= 0.0000 <S**2>= 0.0000 S= 0.0000
 <L.S>=  0.00000000000    
 KE= 7.963049105139D+02 PE=-2.033910597194D+03 EE= 3.714071041259D+02
 Annihilation of the first spin contaminant:
 S**2 before annihilation     0.0000,   after     0.0000
 Leave Link  502 at Mon Apr 21 21:15:01 2025, MaxMem=   536870912 cpu:              53.3 elap:               7.2
 (Enter /home/szhao/Apps/g16/l701.exe)
 ... and contract with generalized density number  0.
 Compute integral first derivatives.
 Leave Link  701 at Mon Apr 21 21:15:02 2025, MaxMem=   536870912 cpu:               1.1 elap:               0.2
 (Enter /home/szhao/Apps/g16/l702.exe)
 L702 exits ... SP integral derivatives will be done elsewhere.
 Leave Link  702 at Mon Apr 21 21:15:02 2025, MaxMem=   536870912 cpu:               0.4 elap:               0.1
 (Enter /home/szhao/Apps/g16/l703.exe)
 Integral derivatives from FoFJK, PRISM(SPDF).
 Compute integral first derivatives, UseDBF=F ICtDFT=           0.
 Calling FoFJK, ICntrl=      2127 FMM=F ISym2X=0 I1Cent= 0 IOpClX= 1 NMat=1 NMatS=1 NMatT=0.
 FoFJK:  IHMeth= 1 ICntrl=    2127 DoSepK=F KAlg= 0 I1Cent=           0 FoldK=F
 IRaf=         0 NMat=       1 IRICut=       1 DoRegI=T DoRafI=F ISym2E= 0 IDoP0=0 IntGTp=1.
 FoFCou: FMM=F IPFlag=           0 FMFlag=      100000 FMFlg1=         800
         NFxFlg=           0 DoJE=F BraDBF=F KetDBF=F FulRan=T
         wScrn=  0.000000 ICntrl=      2127 IOpCl=  1 I1Cent=           0 NGrid=           0
         NMat0=    1 NMatS0=      1 NMatT0=    0 NMatD0=    1 NMtDS0=    0 NMtDT0=    0
 Symmetry not used in FoFCou.
 Leave Link  703 at Mon Apr 21 21:15:03 2025, MaxMem=   536870912 cpu:               8.6 elap:               1.1
 (Enter /home/szhao/Apps/g16/l716.exe)
 Dipole        =-9.14233327D-05-4.19838693D-01 4.29326300D-01
 -------------------------------------------------------------------
 Center     Atomic                   Forces (Hartrees/Bohr)
 Number     Number              X              Y              Z
 -------------------------------------------------------------------
      1       16          -0.000000000   -0.000000000   -0.000000000
      2       16          -0.000000000   -0.000000000   -0.000000000
      3        1           0.001918979    0.000205377   -0.000290358
      4        1          -0.001896687    0.000290236   -0.000299385
 -------------------------------------------------------------------
 Cartesian Forces:  Max     0.001918979 RMS     0.000794788
 Leave Link  716 at Mon Apr 21 21:15:04 2025, MaxMem=   536870912 cpu:               0.9 elap:               0.2
 (Enter /home/szhao/Apps/g16/l103.exe)

 GradGradGradGradGradGradGradGradGradGradGradGradGradGradGradGradGradGrad
 Berny optimization.
 Using GEDIIS/GDIIS optimizer.
 FormGI is forming the generalized inverse of G from B-inverse, IUseBI=4.
 Internal  Forces:  Max     0.004843080 RMS     0.002301326
 Search for a local minimum.
 Step number   2 out of a maximum of   21
 All quantities printed in internal units (Hartrees-Bohrs-Radians)
 RMS Force = .30673D-02 SwitMx=.10000D-02 MixMth= 1
 Mixed Optimization -- RFO/linear search
 Update second derivatives using D2CorX and points    1    2
 DE= -1.54D-03 DEPred=-1.19D-03 R= 1.30D+00
 TightC=F SS=  1.41D+00  RLast= 1.36D-01 DXNew= 5.0454D-01 4.0762D-01
 Trust test= 1.30D+00 RLast= 1.36D-01 DXMaxT set to 4.08D-01
 The second derivative matrix:
                          X1        Y1        Z1        X2        Y2
           X1           0.50729
           Y1          -0.00642   0.50566
           Z1          -0.00294   0.00259   0.50118
           X2          -0.00735   0.00648   0.00296   0.50742
           Y2           0.00303  -0.00267  -0.00122  -0.00306   0.50126
           Z2           0.00664  -0.00585  -0.00268  -0.00670   0.00276
           R1           0.00121  -0.00107  -0.00049  -0.00122   0.00050
           R2           0.00145  -0.00128  -0.00058  -0.00146   0.00060
           A1          -0.01905   0.01678   0.00768   0.01922  -0.00792
           A2          -0.01926   0.01697   0.00777   0.01943  -0.00801
           D1           0.00221  -0.00195  -0.00089  -0.00223   0.00092
                          Z2        R1        R2        A1        A2
           Z2           0.50605
           R1           0.00111   0.26056
           R2           0.00132   0.00021   0.26064
           A1          -0.01737  -0.00173  -0.00221   0.13033
           A2          -0.01756  -0.00176  -0.00225  -0.02929   0.13110
           D1           0.00202   0.00035   0.00042  -0.00490  -0.00496
                          D1
           D1           0.00296
 ITU=  1  0
 Use linear search instead of GDIIS.
     Eigenvalues ---    0.00247   0.10181   0.16001   0.26038   0.26092
     Eigenvalues --- 1000.000001000.000001000.000001000.000001000.00000
     Eigenvalues --- 1000.00000
 RFO step:  Lambda=-4.78180842D-04 EMin= 2.47022168D-03
 Quartic linear search produced a step of  0.50671.
 Iteration  1 RMS(Cart)=  0.12915784 RMS(Int)=  0.05126511
 Iteration  2 RMS(Cart)=  0.09201674 RMS(Int)=  0.00388159
 Iteration  3 RMS(Cart)=  0.00390194 RMS(Int)=  0.00000086
 Iteration  4 RMS(Cart)=  0.00000154 RMS(Int)=  0.00000000
 Iteration  5 RMS(Cart)=  0.00000000 RMS(Int)=  0.00000000
 ITry= 1 IFail=0 DXMaxC= 4.63D-01 DCOld= 1.00D+10 DXMaxT= 4.08D-01 DXLimC= 3.00D+00 Rises=F
 Variable       Old X    -DE/DX   Delta X   Delta X   Delta X     New X
                                 (Linear)    (Quad)   (Total)
    X1       -2.53826   0.00192   0.00000   0.00000   0.00000  -2.53826
    Y1        0.00000  -0.00075   0.00000   0.00000   0.00000   0.00000
    Z1        0.00000  -0.00121   0.00000   0.00000   0.00000   0.00000
    X2        2.53826  -0.00190   0.00000   0.00000   0.00000   2.53826
    Y2        0.00000   0.00124   0.00000   0.00000   0.00000   0.00000
    Z2        0.00000   0.00062   0.00000   0.00000   0.00000   0.00000
    R1        2.54233  -0.00032   0.00047  -0.00207  -0.00160   2.54073
    R2        2.54242  -0.00040   0.00052  -0.00259  -0.00208   2.54034
    A1        1.62356  -0.00484  -0.04268  -0.02412  -0.06680   1.55676
    A2        1.62338  -0.00478  -0.04276  -0.02344  -0.06620   1.55718
    D1       -1.52697  -0.00072   0.03301  -0.39853  -0.36552  -1.89249
         Item               Value     Threshold  Converged?
 Maximum Force            0.004843     0.000450     NO 
 RMS     Force            0.003067     0.000300     NO 
 Maximum Displacement     0.462778     0.001800     NO 
 RMS     Displacement     0.210355     0.001200     NO 
 Predicted change in Energy=-4.985928D-04
 Lowest energy point so far.  Saving SCF results.
 GradGradGradGradGradGradGradGradGradGradGradGradGradGradGradGradGradGrad

 Leave Link  103 at Mon Apr 21 21:15:04 2025, MaxMem=   536870912 cpu:               0.9 elap:               0.4
 (Enter /home/szhao/Apps/g16/l202.exe)
                          Input orientation:                          
 ---------------------------------------------------------------------
 Center     Atomic      Atomic             Coordinates (Angstroms)
 Number     Number       Type             X           Y           Z
 ---------------------------------------------------------------------
      1         16           0       -1.343191    0.000000    0.000000
      2         16           0        1.343191    0.000000    0.000000
      3          1           0       -1.324319   -1.329334   -0.200471
      4          1           0        1.324888    0.230078    1.324330
 ---------------------------------------------------------------------
                    Distance matrix (angstroms):
                    1          2          3          4
     1  S    0.000000
     2  S    2.686383   0.000000
     3  H    1.344497   2.987127   0.000000
     4  H    2.987546   1.344292   3.431484   0.000000
 Symmetry turned off by external request.
 Stoichiometry    H2S2
 Framework group  C1[X(H2S2)]
 Deg. of freedom     6
 Full point group                 C1      NOp   1
 Rotational constants (GHZ):         143.1017016           4.2051036           4.1663817
 Leave Link  202 at Mon Apr 21 21:15:05 2025, MaxMem=   536870912 cpu:               0.5 elap:               0.2
 (Enter /home/szhao/Apps/g16/l301.exe)
 Standard basis: 6-311+G(d,p) (5D, 7F)
 Ernie: Thresh=  0.10000D-02 Tol=  0.10000D-05 Strict=F.
    72 basis functions,   116 primitive gaussians,    74 cartesian basis functions
    17 alpha electrons       17 beta electrons
       nuclear repulsion energy        68.8466311177 Hartrees.
 IExCor= 4336 DFT=T Ex+Corr=M062X ExCW=0 ScaHFX=  0.540000
 ScaDFX=  1.000000  1.000000  1.000000  1.000000 ScalE2=  1.000000  1.000000
 IRadAn=      7 IRanWt=     -1 IRanGd=            0 ICorTp=0 IEmpDi=  4
 NAtoms=    4 NActive=    4 NUniq=    4 SFac= 1.00D+00 NAtFMM=   60 NAOKFM=F Big=F
 Integral buffers will be    131072 words long.
 Raffenetti 2 integral format.
 Two-electron integral symmetry is turned off.
 Leave Link  301 at Mon Apr 21 21:15:06 2025, MaxMem=   536870912 cpu:               2.9 elap:               0.5
 (Enter /home/szhao/Apps/g16/l302.exe)
 NPDir=0 NMtPBC=     1 NCelOv=     1 NCel=       1 NClECP=     1 NCelD=      1
         NCelK=      1 NCelE2=     1 NClLst=     1 CellRange=     0.0.
 One-electron integrals computed using PRISM.
 NBasis=    72 RedAO= T EigKep=  5.00D-03  NBF=    72
 NBsUse=    72 1.00D-06 EigRej= -1.00D+00 NBFU=    72
 Precomputing XC quadrature grid using
 IXCGrd= 4 IRadAn=           7 IRanWt=          -1 IRanGd=           0 AccXCQ= 0.00D+00.
 Generated NRdTot=       0 NPtTot=           0 NUsed=           0 NTot=          32
 NSgBfM=    72    72    72    72    72 MxSgAt=     4 MxSgA2=     4.
 Leave Link  302 at Mon Apr 21 21:15:07 2025, MaxMem=   536870912 cpu:               1.8 elap:               0.5
 (Enter /home/szhao/Apps/g16/l303.exe)
 DipDrv:  MaxL=1.
 Leave Link  303 at Mon Apr 21 21:15:07 2025, MaxMem=   536870912 cpu:               1.0 elap:               0.2
 (Enter /home/szhao/Apps/g16/l401.exe)
 Initial guess from the checkpoint file:  "opt.chk"
 B after Tr=     0.000043    0.014336   -0.014673
         Rot=    0.999988   -0.000004    0.003424   -0.003512 Ang=  -0.56 deg.
 Guess basis will be translated and rotated to current coordinates.
 JPrj=2 DoOrth=T DoCkMO=T.
 Initial guess <Sx>= 0.0000 <Sy>= 0.0000 <Sz>= 0.0000 <S**2>= 0.0000 S= 0.0000
 Generating alternative initial guess.
 ExpMin= 4.05D-02 ExpMax= 9.34D+04 ExpMxC= 3.17D+03 IAcc=3 IRadAn=         5 AccDes= 0.00D+00
 Harris functional with IExCor= 1009 and IRadAn=       5 diagonalized for initial guess.
 HarFok:  IExCor= 1009 AccDes= 0.00D+00 IRadAn=         5 IDoV= 1 UseB2=F ITyADJ=14
 ICtDFT=  3500011 ScaDFX=  1.000000  1.000000  1.000000  1.000000
 FoFCou: FMM=F IPFlag=           0 FMFlag=      100000 FMFlg1=           0
         NFxFlg=           0 DoJE=T BraDBF=F KetDBF=T FulRan=T
         wScrn=  0.000000 ICntrl=       500 IOpCl=  0 I1Cent=   200000004 NGrid=           0
         NMat0=    1 NMatS0=      1 NMatT0=    0 NMatD0=    1 NMtDS0=    0 NMtDT0=    0
 Symmetry not used in FoFCou.
 Harris En= -797.137108437619    
 Leave Link  401 at Mon Apr 21 21:15:08 2025, MaxMem=   536870912 cpu:               3.6 elap:               0.7
 (Enter /home/szhao/Apps/g16/l502.exe)
 Keep R1 and R2 ints in memory in canonical form, NReq=14118010.
 FoFCou: FMM=F IPFlag=           0 FMFlag=           0 FMFlg1=           0
         NFxFlg=           0 DoJE=F BraDBF=F KetDBF=F FulRan=T
         wScrn=  0.000000 ICntrl=       600 IOpCl=  0 I1Cent=           0 NGrid=           0
         NMat0=    1 NMatS0=   2628 NMatT0=    0 NMatD0=    1 NMtDS0=    0 NMtDT0=    0
 Symmetry not used in FoFCou.
 Two-electron integral symmetry not used.
 UHF open shell SCF:
 Using DIIS extrapolation, IDIIS=  1040.
 NGot=   536870912 LenX=   529949706 LenY=   529943789
 Requested convergence on RMS density matrix=1.00D-08 within 128 cycles.
 Requested convergence on MAX density matrix=1.00D-06.
 Requested convergence on             energy=1.00D-06.
 No special actions if energy rises.

 Cycle   1  Pass 1  IDiag  1:
 E= -797.496006101369    
 DIIS: error= 8.15D-03 at cycle   1 NSaved=   1.
 NSaved= 1 IEnMin= 1 EnMin= -797.496006101369     IErMin= 1 ErrMin= 8.15D-03
 ErrMax= 8.15D-03  0.00D+00 EMaxC= 1.00D-01 BMatC= 1.97D-02 BMatP= 1.97D-02
 IDIUse=3 WtCom= 9.18D-01 WtEn= 8.15D-02
 Coeff-Com:  0.100D+01
 Coeff-En:   0.100D+01
 Coeff:      0.100D+01
 Gap=     0.494 Goal=   None    Shift=    0.000
 Gap=     0.494 Goal=   None    Shift=    0.000
 GapD=    0.494 DampG=2.000 DampE=1.000 DampFc=2.0000 IDamp=-1.
 RMSDP=1.65D-03 MaxDP=2.28D-02              OVMax= 4.74D-02

 Cycle   2  Pass 1  IDiag  1:
 E= -797.505762278058     Delta-E=       -0.009756176689 Rises=F Damp=F
 DIIS: error= 1.63D-03 at cycle   2 NSaved=   2.
 NSaved= 2 IEnMin= 2 EnMin= -797.505762278058     IErMin= 2 ErrMin= 1.63D-03
 ErrMax= 1.63D-03  0.00D+00 EMaxC= 1.00D-01 BMatC= 9.06D-04 BMatP= 1.97D-02
 IDIUse=3 WtCom= 9.84D-01 WtEn= 1.63D-02
 Coeff-Com: -0.122D+00 0.112D+01
 Coeff-En:   0.000D+00 0.100D+01
 Coeff:     -0.120D+00 0.112D+01
 Gap=     0.198 Goal=   None    Shift=    0.000
 Gap=     0.198 Goal=   None    Shift=    0.000
 RMSDP=5.12D-04 MaxDP=6.79D-03 DE=-9.76D-03 OVMax= 1.52D-02

 Cycle   3  Pass 1  IDiag  1:
 E= -797.506435890596     Delta-E=       -0.000673612537 Rises=F Damp=F
 DIIS: error= 5.20D-04 at cycle   3 NSaved=   3.
 NSaved= 3 IEnMin= 3 EnMin= -797.506435890596     IErMin= 3 ErrMin= 5.20D-04
 ErrMax= 5.20D-04  0.00D+00 EMaxC= 1.00D-01 BMatC= 6.08D-05 BMatP= 9.06D-04
 IDIUse=3 WtCom= 9.95D-01 WtEn= 5.20D-03
 Coeff-Com: -0.318D-01 0.101D+00 0.930D+00
 Coeff-En:   0.000D+00 0.000D+00 0.100D+01
 Coeff:     -0.316D-01 0.101D+00 0.931D+00
 Gap=     0.198 Goal=   None    Shift=    0.000
 Gap=     0.198 Goal=   None    Shift=    0.000
 RMSDP=2.09D-04 MaxDP=2.99D-03 DE=-6.74D-04 OVMax= 4.55D-03

 Cycle   4  Pass 1  IDiag  1:
 E= -797.506484919757     Delta-E=       -0.000049029161 Rises=F Damp=F
 DIIS: error= 1.73D-04 at cycle   4 NSaved=   4.
 NSaved= 4 IEnMin= 4 EnMin= -797.506484919757     IErMin= 4 ErrMin= 1.73D-04
 ErrMax= 1.73D-04  0.00D+00 EMaxC= 1.00D-01 BMatC= 1.30D-05 BMatP= 6.08D-05
 IDIUse=3 WtCom= 9.98D-01 WtEn= 1.73D-03
 Coeff-Com:  0.863D-02-0.116D+00 0.178D+00 0.929D+00
 Coeff-En:   0.000D+00 0.000D+00 0.000D+00 0.100D+01
 Coeff:      0.862D-02-0.116D+00 0.178D+00 0.929D+00
 Gap=     0.198 Goal=   None    Shift=    0.000
 Gap=     0.198 Goal=   None    Shift=    0.000
 RMSDP=6.75D-05 MaxDP=1.05D-03 DE=-4.90D-05 OVMax= 1.67D-03

 Cycle   5  Pass 1  IDiag  1:
 E= -797.506491496014     Delta-E=       -0.000006576257 Rises=F Damp=F
 DIIS: error= 3.69D-05 at cycle   5 NSaved=   5.
 NSaved= 5 IEnMin= 5 EnMin= -797.506491496014     IErMin= 5 ErrMin= 3.69D-05
 ErrMax= 3.69D-05  0.00D+00 EMaxC= 1.00D-01 BMatC= 4.69D-07 BMatP= 1.30D-05
 IDIUse=1 WtCom= 1.00D+00 WtEn= 0.00D+00
 Coeff-Com:  0.379D-02-0.373D-01 0.103D-01 0.212D+00 0.811D+00
 Coeff:      0.379D-02-0.373D-01 0.103D-01 0.212D+00 0.811D+00
 Gap=     0.198 Goal=   None    Shift=    0.000
 Gap=     0.198 Goal=   None    Shift=    0.000
 RMSDP=1.25D-05 MaxDP=2.09D-04 DE=-6.58D-06 OVMax= 2.87D-04

 Cycle   6  Pass 1  IDiag  1:
 E= -797.506491716152     Delta-E=       -0.000000220138 Rises=F Damp=F
 DIIS: error= 6.17D-06 at cycle   6 NSaved=   6.
 NSaved= 6 IEnMin= 6 EnMin= -797.506491716152     IErMin= 6 ErrMin= 6.17D-06
 ErrMax= 6.17D-06  0.00D+00 EMaxC= 1.00D-01 BMatC= 2.42D-08 BMatP= 4.69D-07
 IDIUse=1 WtCom= 1.00D+00 WtEn= 0.00D+00
 Coeff-Com: -0.337D-03 0.669D-02-0.134D-01-0.698D-01 0.821D-01 0.995D+00
 Coeff:     -0.337D-03 0.669D-02-0.134D-01-0.698D-01 0.821D-01 0.995D+00
 Gap=     0.198 Goal=   None    Shift=    0.000
 Gap=     0.198 Goal=   None    Shift=    0.000
 RMSDP=4.10D-06 MaxDP=7.38D-05 DE=-2.20D-07 OVMax= 1.02D-04

 Cycle   7  Pass 1  IDiag  1:
 E= -797.506491731204     Delta-E=       -0.000000015052 Rises=F Damp=F
 DIIS: error= 2.42D-06 at cycle   7 NSaved=   7.
 NSaved= 7 IEnMin= 7 EnMin= -797.506491731204     IErMin= 7 ErrMin= 2.42D-06
 ErrMax= 2.42D-06  0.00D+00 EMaxC= 1.00D-01 BMatC= 3.47D-09 BMatP= 2.42D-08
 IDIUse=1 WtCom= 1.00D+00 WtEn= 0.00D+00
 Coeff-Com: -0.217D-03 0.354D-02-0.543D-02-0.329D-01 0.192D-01 0.398D+00
 Coeff-Com:  0.618D+00
 Coeff:     -0.217D-03 0.354D-02-0.543D-02-0.329D-01 0.192D-01 0.398D+00
 Coeff:      0.618D+00
 Gap=     0.198 Goal=   None    Shift=    0.000
 Gap=     0.198 Goal=   None    Shift=    0.000
 RMSDP=7.02D-07 MaxDP=1.45D-05 DE=-1.51D-08 OVMax= 3.32D-05

 Cycle   8  Pass 1  IDiag  1:
 E= -797.506491732492     Delta-E=       -0.000000001288 Rises=F Damp=F
 DIIS: error= 1.36D-06 at cycle   8 NSaved=   8.
 NSaved= 8 IEnMin= 8 EnMin= -797.506491732492     IErMin= 8 ErrMin= 1.36D-06
 ErrMax= 1.36D-06  0.00D+00 EMaxC= 1.00D-01 BMatC= 1.12D-09 BMatP= 3.47D-09
 IDIUse=1 WtCom= 1.00D+00 WtEn= 0.00D+00
 Coeff-Com: -0.419D-04 0.369D-03 0.322D-03-0.163D-02-0.888D-02-0.237D-01
 Coeff-Com:  0.349D+00 0.685D+00
 Coeff:     -0.419D-04 0.369D-03 0.322D-03-0.163D-02-0.888D-02-0.237D-01
 Coeff:      0.349D+00 0.685D+00
 Gap=     0.198 Goal=   None    Shift=    0.000
 Gap=     0.198 Goal=   None    Shift=    0.000
 RMSDP=4.25D-07 MaxDP=5.94D-06 DE=-1.29D-09 OVMax= 2.14D-05

 Cycle   9  Pass 1  IDiag  1:
 E= -797.506491733170     Delta-E=       -0.000000000678 Rises=F Damp=F
 DIIS: error= 4.02D-07 at cycle   9 NSaved=   9.
 NSaved= 9 IEnMin= 9 EnMin= -797.506491733170     IErMin= 9 ErrMin= 4.02D-07
 ErrMax= 4.02D-07  0.00D+00 EMaxC= 1.00D-01 BMatC= 8.21D-11 BMatP= 1.12D-09
 IDIUse=1 WtCom= 1.00D+00 WtEn= 0.00D+00
 Coeff-Com:  0.168D-04-0.380D-03 0.814D-03 0.347D-02-0.563D-02-0.508D-01
 Coeff-Com: -0.380D-01 0.739D-01 0.102D+01
 Coeff:      0.168D-04-0.380D-03 0.814D-03 0.347D-02-0.563D-02-0.508D-01
 Coeff:     -0.380D-01 0.739D-01 0.102D+01
 Gap=     0.198 Goal=   None    Shift=    0.000
 Gap=     0.198 Goal=   None    Shift=    0.000
 RMSDP=2.87D-07 MaxDP=3.56D-06 DE=-6.78D-10 OVMax= 1.82D-05

 Cycle  10  Pass 1  IDiag  1:
 E= -797.506491733358     Delta-E=       -0.000000000188 Rises=F Damp=F
 DIIS: error= 2.32D-07 at cycle  10 NSaved=  10.
 NSaved=10 IEnMin=10 EnMin= -797.506491733358     IErMin=10 ErrMin= 2.32D-07
 ErrMax= 2.32D-07  0.00D+00 EMaxC= 1.00D-01 BMatC= 1.92D-11 BMatP= 8.21D-11
 IDIUse=1 WtCom= 1.00D+00 WtEn= 0.00D+00
 Coeff-Com:  0.487D-05-0.754D-05-0.577D-04-0.615D-03 0.237D-02 0.197D-01
 Coeff-Com: -0.657D-01-0.186D+00-0.369D+00 0.160D+01
 Coeff:      0.487D-05-0.754D-05-0.577D-04-0.615D-03 0.237D-02 0.197D-01
 Coeff:     -0.657D-01-0.186D+00-0.369D+00 0.160D+01
 Gap=     0.198 Goal=   None    Shift=    0.000
 Gap=     0.198 Goal=   None    Shift=    0.000
 RMSDP=2.78D-07 MaxDP=3.50D-06 DE=-1.88D-10 OVMax= 1.78D-05

 Cycle  11  Pass 1  IDiag  1:
 E= -797.506491733432     Delta-E=       -0.000000000074 Rises=F Damp=F
 DIIS: error= 5.45D-08 at cycle  11 NSaved=  11.
 NSaved=11 IEnMin=11 EnMin= -797.506491733432     IErMin=11 ErrMin= 5.45D-08
 ErrMax= 5.45D-08  0.00D+00 EMaxC= 1.00D-01 BMatC= 1.20D-12 BMatP= 1.92D-11
 IDIUse=1 WtCom= 1.00D+00 WtEn= 0.00D+00
 Coeff-Com: -0.108D-05 0.378D-04-0.846D-04-0.494D-03 0.888D-03 0.752D-02
 Coeff-Com: -0.328D-02-0.274D-01-0.141D+00 0.148D+00 0.102D+01
 Coeff:     -0.108D-05 0.378D-04-0.846D-04-0.494D-03 0.888D-03 0.752D-02
 Coeff:     -0.328D-02-0.274D-01-0.141D+00 0.148D+00 0.102D+01
 Gap=     0.198 Goal=   None    Shift=    0.000
 Gap=     0.198 Goal=   None    Shift=    0.000
 RMSDP=5.48D-08 MaxDP=7.10D-07 DE=-7.41D-11 OVMax= 3.52D-06

 Cycle  12  Pass 1  IDiag  1:
 E= -797.506491733435     Delta-E=       -0.000000000003 Rises=F Damp=F
 DIIS: error= 1.20D-08 at cycle  12 NSaved=  12.
 NSaved=12 IEnMin=12 EnMin= -797.506491733435     IErMin=12 ErrMin= 1.20D-08
 ErrMax= 1.20D-08  0.00D+00 EMaxC= 1.00D-01 BMatC= 7.24D-14 BMatP= 1.20D-12
 IDIUse=1 WtCom= 1.00D+00 WtEn= 0.00D+00
 Coeff-Com: -0.367D-06 0.272D-05-0.285D-05 0.307D-04-0.177D-03-0.108D-02
 Coeff-Com:  0.586D-02 0.148D-01 0.214D-01-0.138D+00 0.123D+00 0.974D+00
 Coeff:     -0.367D-06 0.272D-05-0.285D-05 0.307D-04-0.177D-03-0.108D-02
 Coeff:      0.586D-02 0.148D-01 0.214D-01-0.138D+00 0.123D+00 0.974D+00
 Gap=     0.198 Goal=   None    Shift=    0.000
 Gap=     0.198 Goal=   None    Shift=    0.000
 RMSDP=8.96D-09 MaxDP=1.04D-07 DE=-3.07D-12 OVMax= 4.87D-07

 SCF Done:  E(UM062X) =  -797.506491733     A.U. after   12 cycles
            NFock= 12  Conv=0.90D-08     -V/T= 2.0015
 <Sx>= 0.0000 <Sy>= 0.0000 <Sz>= 0.0000 <S**2>=-0.0000 S=-0.0000
 <L.S>=  0.00000000000    
 KE= 7.963116413053D+02 PE=-2.034230298759D+03 EE= 3.715655346023D+02
 Annihilation of the first spin contaminant:
 S**2 before annihilation    -0.0000,   after     0.0000
 Leave Link  502 at Mon Apr 21 21:15:16 2025, MaxMem=   536870912 cpu:              54.9 elap:               7.3
 (Enter /home/szhao/Apps/g16/l701.exe)
 ... and contract with generalized density number  0.
 Compute integral first derivatives.
 Leave Link  701 at Mon Apr 21 21:15:16 2025, MaxMem=   536870912 cpu:               1.2 elap:               0.2
 (Enter /home/szhao/Apps/g16/l702.exe)
 L702 exits ... SP integral derivatives will be done elsewhere.
 Leave Link  702 at Mon Apr 21 21:15:16 2025, MaxMem=   536870912 cpu:               0.4 elap:               0.1
 (Enter /home/szhao/Apps/g16/l703.exe)
 Integral derivatives from FoFJK, PRISM(SPDF).
 Compute integral first derivatives, UseDBF=F ICtDFT=           0.
 Calling FoFJK, ICntrl=      2127 FMM=F ISym2X=0 I1Cent= 0 IOpClX= 1 NMat=1 NMatS=1 NMatT=0.
 FoFJK:  IHMeth= 1 ICntrl=    2127 DoSepK=F KAlg= 0 I1Cent=           0 FoldK=F
 IRaf=         0 NMat=       1 IRICut=       1 DoRegI=T DoRafI=F ISym2E= 0 IDoP0=0 IntGTp=1.
 FoFCou: FMM=F IPFlag=           0 FMFlag=      100000 FMFlg1=         800
         NFxFlg=           0 DoJE=F BraDBF=F KetDBF=F FulRan=T
         wScrn=  0.000000 ICntrl=      2127 IOpCl=  1 I1Cent=           0 NGrid=           0
         NMat0=    1 NMatS0=      1 NMatT0=    0 NMatD0=    1 NMtDS0=    0 NMtDT0=    0
 Symmetry not used in FoFCou.
 Leave Link  703 at Mon Apr 21 21:15:18 2025, MaxMem=   536870912 cpu:               7.6 elap:               1.0
 (Enter /home/szhao/Apps/g16/l716.exe)
 Dipole        =-3.92187009D-05-3.41347424D-01 3.49065446D-01
 -------------------------------------------------------------------
 Center     Atomic                   Forces (Hartrees/Bohr)
 Number     Number              X              Y              Z
 -------------------------------------------------------------------
      1       16          -0.000000000   -0.000000000   -0.000000000
      2       16          -0.000000000   -0.000000000   -0.000000000
      3        1          -0.000647942    0.000098567    0.000419879
      4        1           0.000624347   -0.000477556   -0.000028508
 -------------------------------------------------------------------
 Cartesian Forces:  Max     0.000647942 RMS     0.000319443
 Leave Link  716 at Mon Apr 21 21:15:18 2025, MaxMem=   536870912 cpu:               0.4 elap:               0.1
 (Enter /home/szhao/Apps/g16/l103.exe)

 GradGradGradGradGradGradGradGradGradGradGradGradGradGradGradGradGradGrad
 Berny optimization.
 Using GEDIIS/GDIIS optimizer.
 FormGI is forming the generalized inverse of G from B-inverse, IUseBI=4.
 Internal  Forces:  Max     0.001640375 RMS     0.000901251
 Search for a local minimum.
 Step number   3 out of a maximum of   21
 All quantities printed in internal units (Hartrees-Bohrs-Radians)
 RMS Force = .11355D-02 SwitMx=.10000D-02 MixMth= 1
 Mixed Optimization -- RFO/linear search
 Update second derivatives using D2CorX and points    1    2    3
 DE= -1.66D-04 DEPred=-4.99D-04 R= 3.33D-01
 Trust test= 3.33D-01 RLast= 3.77D-01 DXMaxT set to 4.08D-01
 The second derivative matrix:
                          X1        Y1        Z1        X2        Y2
           X1           0.50740
           Y1          -0.00445   0.50285
           Z1          -0.00491   0.00279   0.50341
           X2          -0.00733   0.00442   0.00485   0.50726
           Y2           0.00502  -0.00285  -0.00349  -0.00496   0.50356
           Z2           0.00412  -0.00270  -0.00252  -0.00409   0.00258
           R1           0.00158  -0.00132  -0.00071  -0.00159   0.00073
           R2           0.00173  -0.00151  -0.00071  -0.00175   0.00074
           A1          -0.01783   0.01057   0.01198   0.01765  -0.01225
           A2          -0.01794   0.01072   0.01197   0.01777  -0.01224
           D1          -0.00053  -0.00055   0.00116   0.00047  -0.00118
                          Z2        R1        R2        A1        A2
           Z2           0.50258
           R1           0.00135   0.26055
           R2           0.00156   0.00020   0.26062
           A1          -0.00972  -0.00269  -0.00299   0.12316
           A2          -0.00989  -0.00271  -0.00302  -0.03670   0.12345
           D1           0.00081   0.00024   0.00039   0.00190   0.00177
                          D1
           D1           0.00432
 ITU=  0  1  0
 Use linear search instead of GDIIS.
     Eigenvalues ---    0.00424   0.08650   0.16000   0.26038   0.26098
     Eigenvalues --- 1000.000001000.000001000.000001000.000001000.00000
     Eigenvalues --- 1000.00000
 RFO step:  Lambda=-4.83264522D-05 EMin= 4.23531954D-03
 Quartic linear search produced a step of -0.38510.
 Iteration  1 RMS(Cart)=  0.10885594 RMS(Int)=  0.00956442
 Iteration  2 RMS(Cart)=  0.01518570 RMS(Int)=  0.00010059
 Iteration  3 RMS(Cart)=  0.00011648 RMS(Int)=  0.00000000
 Iteration  4 RMS(Cart)=  0.00000001 RMS(Int)=  0.00000000
 ITry= 1 IFail=0 DXMaxC= 2.91D-01 DCOld= 1.00D+10 DXMaxT= 4.08D-01 DXLimC= 3.00D+00 Rises=F
 Variable       Old X    -DE/DX   Delta X   Delta X   Delta X     New X
                                 (Linear)    (Quad)   (Total)
    X1       -2.53826  -0.00065   0.00000   0.00000   0.00000  -2.53826
    Y1        0.00000   0.00046   0.00000   0.00000   0.00000   0.00000
    Z1        0.00000   0.00080   0.00000   0.00000   0.00000   0.00000
    X2        2.53826   0.00062   0.00000   0.00000   0.00000   2.53826
    Y2        0.00000  -0.00082   0.00000   0.00000   0.00000   0.00000
    Z2        0.00000  -0.00039   0.00000   0.00000   0.00000   0.00000
    R1        2.54073  -0.00017   0.00062  -0.00119  -0.00058   2.54015
    R2        2.54034  -0.00012   0.00080  -0.00127  -0.00048   2.53987
    A1        1.55676   0.00164   0.02572  -0.01197   0.01375   1.57051
    A2        1.55718   0.00158   0.02549  -0.01194   0.01356   1.57074
    D1       -1.89249   0.00110   0.14076   0.08368   0.22444  -1.66805
         Item               Value     Threshold  Converged?
 Maximum Force            0.001640     0.000450     NO 
 RMS     Force            0.001135     0.000300     NO 
 Maximum Displacement     0.291142     0.001800     NO 
 RMS     Displacement     0.122423     0.001200     NO 
 Predicted change in Energy=-1.547954D-04
 Lowest energy point so far.  Saving SCF results.
 GradGradGradGradGradGradGradGradGradGradGradGradGradGradGradGradGradGrad

 Leave Link  103 at Mon Apr 21 21:15:18 2025, MaxMem=   536870912 cpu:               0.4 elap:               0.1
 (Enter /home/szhao/Apps/g16/l202.exe)
                          Input orientation:                          
 ---------------------------------------------------------------------
 Center     Atomic      Atomic             Coordinates (Angstroms)
 Number     Number       Type             X           Y           Z
 ---------------------------------------------------------------------
      1         16           0       -1.343191    0.000000    0.000000
      2         16           0        1.343191    0.000000    0.000000
      3          1           0       -1.342808   -1.343391   -0.046405
      4          1           0        1.343110    0.084246    1.341397
 ---------------------------------------------------------------------
                    Distance matrix (angstroms):
                    1          2          3          4
     1  S    0.000000
     2  S    2.686383   0.000000
     3  H    1.344192   3.003572   0.000000
     4  H    3.003774   1.344040   3.343396   0.000000
 Symmetry turned off by external request.
 Stoichiometry    H2S2
 Framework group  C1[X(H2S2)]
 Deg. of freedom     6
 Full point group                 C1      NOp   1
 Rotational constants (GHZ):         143.1952745           4.1885686           4.1767367
 Leave Link  202 at Mon Apr 21 21:15:18 2025, MaxMem=   536870912 cpu:               0.1 elap:               0.0
 (Enter /home/szhao/Apps/g16/l301.exe)
 Standard basis: 6-311+G(d,p) (5D, 7F)
 Ernie: Thresh=  0.10000D-02 Tol=  0.10000D-05 Strict=F.
    72 basis functions,   116 primitive gaussians,    74 cartesian basis functions
    17 alpha electrons       17 beta electrons
       nuclear repulsion energy        68.8224726084 Hartrees.
 IExCor= 4336 DFT=T Ex+Corr=M062X ExCW=0 ScaHFX=  0.540000
 ScaDFX=  1.000000  1.000000  1.000000  1.000000 ScalE2=  1.000000  1.000000
 IRadAn=      7 IRanWt=     -1 IRanGd=            0 ICorTp=0 IEmpDi=  4
 NAtoms=    4 NActive=    4 NUniq=    4 SFac= 1.00D+00 NAtFMM=   60 NAOKFM=F Big=F
 Integral buffers will be    131072 words long.
 Raffenetti 2 integral format.
 Two-electron integral symmetry is turned off.
 Leave Link  301 at Mon Apr 21 21:15:18 2025, MaxMem=   536870912 cpu:               0.6 elap:               0.1
 (Enter /home/szhao/Apps/g16/l302.exe)
 NPDir=0 NMtPBC=     1 NCelOv=     1 NCel=       1 NClECP=     1 NCelD=      1
         NCelK=      1 NCelE2=     1 NClLst=     1 CellRange=     0.0.
 One-electron integrals computed using PRISM.
 NBasis=    72 RedAO= T EigKep=  5.04D-03  NBF=    72
 NBsUse=    72 1.00D-06 EigRej= -1.00D+00 NBFU=    72
 Precomputing XC quadrature grid using
 IXCGrd= 4 IRadAn=           7 IRanWt=          -1 IRanGd=           0 AccXCQ= 0.00D+00.
 Generated NRdTot=       0 NPtTot=           0 NUsed=           0 NTot=          32
 NSgBfM=    72    72    72    72    72 MxSgAt=     4 MxSgA2=     4.
 Leave Link  302 at Mon Apr 21 21:15:19 2025, MaxMem=   536870912 cpu:               2.6 elap:               0.4
 (Enter /home/szhao/Apps/g16/l303.exe)
 DipDrv:  MaxL=1.
 Leave Link  303 at Mon Apr 21 21:15:19 2025, MaxMem=   536870912 cpu:               0.8 elap:               0.2
 (Enter /home/szhao/Apps/g16/l401.exe)
 Initial guess from the checkpoint file:  "opt.chk"
 B after Tr=    -0.000014   -0.009071    0.009332
         Rot=    0.999996    0.001473   -0.001602    0.001647 Ang=   0.31 deg.
 Guess basis will be translated and rotated to current coordinates.
 JPrj=2 DoOrth=T DoCkMO=T.
 Initial guess <Sx>= 0.0000 <Sy>= 0.0000 <Sz>= 0.0000 <S**2>=-0.0000 S=-0.0000
 Generating alternative initial guess.
 ExpMin= 4.05D-02 ExpMax= 9.34D+04 ExpMxC= 3.17D+03 IAcc=3 IRadAn=         5 AccDes= 0.00D+00
 Harris functional with IExCor= 1009 and IRadAn=       5 diagonalized for initial guess.
 HarFok:  IExCor= 1009 AccDes= 0.00D+00 IRadAn=         5 IDoV= 1 UseB2=F ITyADJ=14
 ICtDFT=  3500011 ScaDFX=  1.000000  1.000000  1.000000  1.000000
 FoFCou: FMM=F IPFlag=           0 FMFlag=      100000 FMFlg1=           0
         NFxFlg=           0 DoJE=T BraDBF=F KetDBF=T FulRan=T
         wScrn=  0.000000 ICntrl=       500 IOpCl=  0 I1Cent=   200000004 NGrid=           0
         NMat0=    1 NMatS0=      1 NMatT0=    0 NMatD0=    1 NMtDS0=    0 NMtDT0=    0
 Symmetry not used in FoFCou.
[...]

 Cycle  10  Pass 1  IDiag  1:
 E= -797.506627332541     Delta-E=        0.000000000000 Rises=F Damp=F
 DIIS: error= 4.94D-09 at cycle  10 NSaved=  10.
 NSaved=10 IEnMin= 9 EnMin= -797.506627332542     IErMin=10 ErrMin= 4.94D-09
 ErrMax= 4.94D-09  0.00D+00 EMaxC= 1.00D-01 BMatC= 1.21D-14 BMatP= 1.26D-13
 IDIUse=1 WtCom= 1.00D+00 WtEn= 0.00D+00
 Coeff-Com:  0.325D-05 0.536D-04-0.284D-03-0.163D-02 0.551D-02 0.123D-01
 Coeff-Com: -0.178D-01-0.611D-01 0.250D+00 0.813D+00
 Coeff:      0.325D-05 0.536D-04-0.284D-03-0.163D-02 0.551D-02 0.123D-01
 Coeff:     -0.178D-01-0.611D-01 0.250D+00 0.813D+00
 Gap=     0.202 Goal=   None    Shift=    0.000
 Gap=     0.202 Goal=   None    Shift=    0.000
 RMSDP=1.75D-09 MaxDP=1.56D-08 DE= 4.55D-13 OVMax= 8.76D-08

 SCF Done:  E(UM062X) =  -797.506627333     A.U. after   10 cycles
            NFock= 10  Conv=0.18D-08     -V/T= 2.0015
 <Sx>= 0.0000 <Sy>= 0.0000 <Sz>= 0.0000 <S**2>=-0.0000 S=-0.0000
 <L.S>=  0.00000000000    
 KE= 7.963102171279D+02 PE=-2.034151291473D+03 EE= 3.715248958240D+02
 Annihilation of the first spin contaminant:
 S**2 before annihilation    -0.0000,   after     0.0000
 Leave Link  502 at Mon Apr 21 21:15:52 2025, MaxMem=   536870912 cpu:              50.7 elap:               7.0
 (Enter /home/szhao/Apps/g16/l701.exe)
 ... and contract with generalized density number  0.
 Compute integral first derivatives.
 Leave Link  701 at Mon Apr 21 21:15:52 2025, MaxMem=   536870912 cpu:               1.3 elap:               0.2
 (Enter /home/szhao/Apps/g16/l702.exe)
 L702 exits ... SP integral derivatives will be done elsewhere.
 Leave Link  702 at Mon Apr 21 21:15:52 2025, MaxMem=   536870912 cpu:               0.4 elap:               0.1
 (Enter /home/szhao/Apps/g16/l703.exe)
 Integral derivatives from FoFJK, PRISM(SPDF).
 Compute integral first derivatives, UseDBF=F ICtDFT=           0.
 Calling FoFJK, ICntrl=      2127 FMM=F ISym2X=0 I1Cent= 0 IOpClX= 1 NMat=1 NMatS=1 NMatT=0.
 FoFJK:  IHMeth= 1 ICntrl=    2127 DoSepK=F KAlg= 0 I1Cent=           0 FoldK=F
 IRaf=         0 NMat=       1 IRICut=       1 DoRegI=T DoRafI=F ISym2E= 0 IDoP0=0 IntGTp=1.
 FoFCou: FMM=F IPFlag=           0 FMFlag=      100000 FMFlg1=         800
         NFxFlg=           0 DoJE=F BraDBF=F KetDBF=F FulRan=T
         wScrn=  0.000000 ICntrl=      2127 IOpCl=  1 I1Cent=           0 NGrid=           0
         NMat0=    1 NMatS0=      1 NMatT0=    0 NMatD0=    1 NMtDS0=    0 NMtDT0=    0
 Symmetry not used in FoFCou.
 Leave Link  703 at Mon Apr 21 21:15:53 2025, MaxMem=   536870912 cpu:               6.3 elap:               0.8
 (Enter /home/szhao/Apps/g16/l716.exe)
 Dipole        =-5.18514312D-05-3.87080573D-01 3.98082663D-01
 -------------------------------------------------------------------
 Center     Atomic                   Forces (Hartrees/Bohr)
 Number     Number              X              Y              Z
 -------------------------------------------------------------------
      1       16          -0.000000000   -0.000000000   -0.000000000
      2       16          -0.000000000   -0.000000000   -0.000000000
      3        1           0.000004867    0.000004855   -0.000034505
      4        1          -0.000006102   -0.000030808    0.000004194
 -------------------------------------------------------------------
 Cartesian Forces:  Max     0.000034505 RMS     0.000013668
 Leave Link  716 at Mon Apr 21 21:15:54 2025, MaxMem=   536870912 cpu:               0.6 elap:               0.3
 (Enter /home/szhao/Apps/g16/l103.exe)

 GradGradGradGradGradGradGradGradGradGradGradGradGradGradGradGradGradGrad
 Berny optimization.
 Using GEDIIS/GDIIS optimizer.
 FormGI is forming the generalized inverse of G from B-inverse, IUseBI=4.
 Internal  Forces:  Max     0.000015523 RMS     0.000007149
 Search for a local minimum.
 Step number   6 out of a maximum of   21
 All quantities printed in internal units (Hartrees-Bohrs-Radians)
 RMS Force = .92767D-05 SwitMx=.10000D-02 MixMth= 2
 Mixed Optimization -- En-DIIS/RFO-DIIS
 Swapping is turned off.
 Update second derivatives using D2CorX and points    1    2    3    4    5
                                                      6
 DE= -3.13D-07 DEPred=-3.37D-07 R= 9.28D-01
 Trust test= 9.28D-01 RLast= 9.11D-03 DXMaxT set to 6.76D-01
 The second derivative matrix:
                          X1        Y1        Z1        X2        Y2
           X1           0.50764
           Y1          -0.00325   0.50149
           Z1          -0.00353   0.00123   0.50287
           X2          -0.00732   0.00312   0.00342   0.50702
           Y2           0.00349  -0.00119  -0.00297  -0.00338   0.50309
           Z2          -0.00056   0.00051  -0.00151   0.00047   0.00170
           R1           0.00160  -0.00350  -0.00078  -0.00179   0.00084
           R2           0.00088  -0.00215  -0.00097  -0.00129   0.00130
           A1          -0.01889   0.00795   0.00876   0.01808  -0.00864
           A2          -0.01901   0.00814   0.00886   0.01826  -0.00879
           D1           0.00097  -0.00108   0.00262  -0.00084  -0.00293
                          Z2        R1        R2        A1        A2
           Z2           0.50293
           R1           0.00501   0.26018
           R2           0.00896  -0.00013   0.26238
           A1           0.00189  -0.00347  -0.00172   0.12670
           A2           0.00077  -0.00332  -0.00196  -0.03297   0.12729
           D1          -0.00447   0.00008  -0.00194  -0.00247  -0.00204
                          D1
           D1           0.00770
 ITU=  0  1  1  0  1  0
     Eigenvalues ---    0.00756   0.09396   0.15997   0.26031   0.26243
     Eigenvalues --- 1000.000001000.000001000.000001000.000001000.00000
     Eigenvalues --- 1000.00000
 En-DIIS/RFO-DIIS/Sim-DIIS IScMMF=       -3 using points:     6    5    4
 RFO step:  Lambda=-3.44811036D-09.
 NNeg= 0 NGDIIS= 3 SimSw=  2.50D-01 Rises=F DC= -3.13D-07 SmlDif=  1.00D-05
 NRisDI= 0 DoIntr=F SqrtH=F CThrHd= 10.0 CDAdj=  3.0
 RMS Error=  0.2222219228D-03 NUsed= 3 OKEnD=F EnDIS=F
 InvSVX:  RCond= 3.44D-06 Info=           0 Equed=N FErr=  4.64D-15 BErr=  4.10D-17
 DidBck=F Rises=F RFO-DIIS coefs:    0.81337    0.14257    0.04406
 Iteration  1 RMS(Cart)=  0.00039361 RMS(Int)=  0.00000007
 Iteration  2 RMS(Cart)=  0.00000007 RMS(Int)=  0.00000000
 ITry= 1 IFail=0 DXMaxC= 8.63D-04 DCOld= 1.00D+10 DXMaxT= 6.76D-01 DXLimC= 3.00D+00 Rises=F
 Variable       Old X    -DE/DX   Delta X   Delta X   Delta X     New X
                                 (Linear)    (Quad)   (Total)
    X1       -2.53826   0.00000   0.00000   0.00000   0.00000  -2.53826
    Y1        0.00000   0.00000   0.00000   0.00000   0.00000   0.00000
    Z1        0.00000  -0.00000   0.00000   0.00000   0.00000   0.00000
    X2        2.53826  -0.00001   0.00000   0.00000   0.00000   2.53826
    Y2        0.00000   0.00000   0.00000   0.00000   0.00000   0.00000
    Z2        0.00000   0.00001   0.00000   0.00000   0.00000   0.00000
    R1        2.54050  -0.00000  -0.00001  -0.00000  -0.00001   2.54048
    R2        2.54036   0.00000   0.00000   0.00000   0.00000   2.54036
    A1        1.57498  -0.00001  -0.00014   0.00001  -0.00013   1.57484
    A2        1.57504  -0.00002  -0.00014  -0.00001  -0.00015   1.57489
    D1       -1.68224  -0.00000  -0.00067   0.00000  -0.00067  -1.68292
         Item               Value     Threshold  Converged?
 Maximum Force            0.000016     0.000450     YES
 RMS     Force            0.000009     0.000300     YES
 Maximum Displacement     0.000863     0.001800     YES
 RMS     Displacement     0.000394     0.001200     YES
 Predicted change in Energy=-3.901083D-09
 Optimization completed.
    -- Stationary point found.
                           ----------------------------
                           !   Optimized Parameters   !
                           ! (Angstroms and Degrees)  !
 --------------------------                            --------------------------
 ! Name  Definition              Value          Derivative Info.                !
 --------------------------------------------------------------------------------
 ! X1    R(1,-1)                -1.3432         -DE/DX =    0.0                 !
 ! Y1    R(1,-2)                 0.0            -DE/DX =    0.0                 !
 ! Z1    R(1,-3)                 0.0            -DE/DX =    0.0                 !
 ! X2    R(2,-1)                 1.3432         -DE/DX =    0.0                 !
 ! Y2    R(2,-2)                 0.0            -DE/DX =    0.0                 !
 ! Z2    R(2,-3)                 0.0            -DE/DX =    0.0                 !
 ! R1    R(1,3)                  1.3444         -DE/DX =    0.0                 !
 ! R2    R(2,4)                  1.3443         -DE/DX =    0.0                 !
 ! A1    A(2,1,3)               90.2394         -DE/DX =    0.0                 !
 ! A2    A(1,2,4)               90.2429         -DE/DX =    0.0                 !
 ! D1    D(3,1,2,4)            -96.3855         -DE/DX =    0.0                 !
 --------------------------------------------------------------------------------
 Lowest energy point so far.  Saving SCF results.
 Largest change from initial coordinates is atom    4       0.190 Angstoms.
 GradGradGradGradGradGradGradGradGradGradGradGradGradGradGradGradGradGrad

 Leave Link  103 at Mon Apr 21 21:15:54 2025, MaxMem=   536870912 cpu:               0.9 elap:               0.2
 (Enter /home/szhao/Apps/g16/l202.exe)
                          Input orientation:                          
 ---------------------------------------------------------------------
 Center     Atomic      Atomic             Coordinates (Angstroms)
 Number     Number       Type             X           Y           Z
 ---------------------------------------------------------------------
      1         16           0       -1.343191    0.000000    0.000000
      2         16           0        1.343191    0.000000    0.000000
      3          1           0       -1.348809   -1.343193   -0.056050
      4          1           0        1.348891    0.093678    1.341018
 ---------------------------------------------------------------------
                    Distance matrix (angstroms):
                    1          2          3          4
     1  S    0.000000
     2  S    2.686383   0.000000
     3  H    1.344374   3.009016   0.000000
     4  H    3.009055   1.344298   3.360652   0.000000
 Symmetry turned off by external request.
 Stoichiometry    H2S2
 Framework group  C1[X(H2S2)]
 Deg. of freedom     6
 Full point group                 C1      NOp   1
 Rotational constants (GHZ):         143.1737024           4.1882599           4.1747254
 Leave Link  202 at Mon Apr 21 21:15:55 2025, MaxMem=   536870912 cpu:               0.9 elap:               0.3
 (Enter /home/szhao/Apps/g16/l601.exe)
 Copying SCF densities to generalized density rwf, IOpCl= 1 IROHF=0.

 **********************************************************************

            Population analysis using the SCF density.

 **********************************************************************

 Alpha  occ. eigenvalues --  -89.94252 -89.94252  -8.30417  -8.30415  -6.22571
 Alpha  occ. eigenvalues --   -6.22570  -6.22312  -6.22312  -6.21775  -6.21775
 Alpha  occ. eigenvalues --   -0.83792  -0.79141  -0.47823  -0.47190  -0.37755
 Alpha  occ. eigenvalues --   -0.33336  -0.32900
 Alpha virt. eigenvalues --   -0.12710   0.01821   0.03314   0.04786   0.05057
 Alpha virt. eigenvalues --    0.06122   0.07469   0.07495   0.07629   0.12059
 Alpha virt. eigenvalues --    0.13393   0.30861   0.31105   0.32312   0.35089
 Alpha virt. eigenvalues --    0.36142   0.37402   0.41451   0.41797   0.58699
 Alpha virt. eigenvalues --    0.68457   0.73231   0.73341   0.74315   0.74439
 Alpha virt. eigenvalues --    0.79437   0.82210   0.82532   0.95617   1.00994
 Alpha virt. eigenvalues --    1.01715   1.45647   1.47712   1.48523   1.50299
 Alpha virt. eigenvalues --    1.58878   1.64894   1.65526   1.71119   1.71368
 Alpha virt. eigenvalues --    1.85243   2.10733   2.12367   2.58016   2.58084
 Alpha virt. eigenvalues --    7.85918   7.92821  17.39255  17.44118  17.44370
 Alpha virt. eigenvalues --   17.49346  17.49695  17.54493 189.12041 189.21075
  Beta  occ. eigenvalues --  -89.94252 -89.94252  -8.30417  -8.30415  -6.22571
  Beta  occ. eigenvalues --   -6.22570  -6.22312  -6.22312  -6.21775  -6.21775
  Beta  occ. eigenvalues --   -0.83792  -0.79141  -0.47823  -0.47190  -0.37755
  Beta  occ. eigenvalues --   -0.33336  -0.32900
  Beta virt. eigenvalues --   -0.12710   0.01821   0.03314   0.04786   0.05057
  Beta virt. eigenvalues --    0.06122   0.07469   0.07495   0.07629   0.12059
  Beta virt. eigenvalues --    0.13393   0.30861   0.31105   0.32312   0.35089
  Beta virt. eigenvalues --    0.36142   0.37402   0.41451   0.41797   0.58699
  Beta virt. eigenvalues --    0.68457   0.73231   0.73341   0.74315   0.74439
  Beta virt. eigenvalues --    0.79437   0.82210   0.82532   0.95617   1.00994
  Beta virt. eigenvalues --    1.01715   1.45647   1.47712   1.48523   1.50299
  Beta virt. eigenvalues --    1.58878   1.64894   1.65526   1.71119   1.71368
  Beta virt. eigenvalues --    1.85243   2.10733   2.12367   2.58016   2.58084
  Beta virt. eigenvalues --    7.85918   7.92821  17.39255  17.44118  17.44370
  Beta virt. eigenvalues --   17.49346  17.49695  17.54493 189.12041 189.21075
          Condensed to atoms (all electrons):
               1          2          3          4
     1  S   15.674503   0.170818   0.249453  -0.005038
     2  S    0.170818  15.674540  -0.005042   0.249447
     3  H    0.249453  -0.005042   0.666250  -0.000416
     4  H   -0.005038   0.249447  -0.000416   0.666263
          Atomic-Atomic Spin Densities.
               1          2          3          4
     1  S   -0.000000  -0.000000  -0.000000  -0.000000
     2  S   -0.000000  -0.000000   0.000000  -0.000000
     3  H   -0.000000   0.000000   0.000000  -0.000000
     4  H   -0.000000  -0.000000  -0.000000   0.000000
 Mulliken charges and spin densities:
               1          2
     1  S   -0.089736  -0.000000
     2  S   -0.089763  -0.000000
     3  H    0.089755   0.000000
     4  H    0.089745   0.000000
 Sum of Mulliken charges =  -0.00000  -0.00000
 Mulliken charges and spin densities with hydrogens summed into heavy atoms:
               1          2
     1  S    0.000019  -0.000000
     2  S   -0.000019   0.000000
 Electronic spatial extent (au):  <R**2>=            292.6157
 Charge=             -0.0000 electrons
 Dipole moment (field-independent basis, Debye):
    X=             -0.0001    Y=             -0.9839    Z=              1.0118  Tot=              1.4113
 Quadrupole moment (field-independent basis, Debye-Ang):
   XX=            -25.9064   YY=            -27.7513   ZZ=            -27.7773
   XY=              1.9059   XZ=              1.8534   YZ=              0.4618
 Traceless Quadrupole moment (field-independent basis, Debye-Ang):
   XX=              1.2386   YY=             -0.6063   ZZ=             -0.6323
   XY=              1.9059   XZ=              1.8534   YZ=              0.4618
 Octapole moment (field-independent basis, Debye-Ang**2):
  XXX=             -0.0006  YYY=              0.6654  ZZZ=             -0.7391  XYY=             -5.4771
  XXY=             -1.7505  XXZ=              1.8007  XZZ=              5.4766  YZZ=              0.8890
  YYZ=             -0.8595  XYZ=              0.1536
 Hexadecapole moment (field-independent basis, Debye-Ang**3):
 XXXX=           -311.7987 YYYY=            -44.8889 ZZZZ=            -44.9133 XXXY=              1.4267
 XXXZ=              1.3888 YYYX=             -0.6856 YYYZ=              0.1738 ZZZX=             -0.6152
 ZZZY=              0.2789 XXYY=            -63.8649 XXZZ=            -63.9119 YYZZ=            -16.2156
 XXYZ=              0.8469 YYXZ=             -0.8473 ZZXY=             -0.8191
 N-N= 6.880955118863D+01 E-N=-2.034151290913D+03  KE= 7.963102171279D+02
                          Isotropic Fermi Contact Couplings
        Atom                 a.u.       MegaHertz       Gauss      10(-4) cm-1
     1  S(33)              0.00000       0.00000       0.00000       0.00000
     2  S(33)             -0.00000      -0.00000      -0.00000      -0.00000
     3  H(1)              -0.00000      -0.00000      -0.00000      -0.00000
     4  H(1)              -0.00000      -0.00000      -0.00000      -0.00000
 --------------------------------------------------------
       Center         ----  Spin Dipole Couplings  ----
                      3XX-RR        3YY-RR        3ZZ-RR
 --------------------------------------------------------
     1   Atom        0.000000      0.000000      0.000000
     2   Atom        0.000000      0.000000      0.000000
     3   Atom        0.000000      0.000000      0.000000
     4   Atom        0.000000      0.000000      0.000000
 --------------------------------------------------------
                        XY            XZ            YZ
 --------------------------------------------------------
     1   Atom        0.000000      0.000000      0.000000
     2   Atom        0.000000      0.000000      0.000000
     3   Atom        0.000000      0.000000      0.000000
     4   Atom        0.000000      0.000000      0.000000
 --------------------------------------------------------


 ---------------------------------------------------------------------------------
              Anisotropic Spin Dipole Couplings in Principal Axis System
 ---------------------------------------------------------------------------------

       Atom             a.u.   MegaHertz   Gauss  10(-4) cm-1        Axes

              Baa     0.0000     0.000     0.000     0.000  1.0000  0.0000  0.0000
     1 S(33)  Bbb     0.0000     0.000     0.000     0.000 -0.0000  1.0000  0.0000
              Bcc     0.0000     0.000     0.000     0.000  0.0000  0.0000  1.0000
 
              Baa     0.0000     0.000     0.000     0.000  1.0000  0.0000  0.0000
     2 S(33)  Bbb     0.0000     0.000     0.000     0.000 -0.0000  1.0000  0.0000
              Bcc     0.0000     0.000     0.000     0.000  0.0000  0.0000  1.0000
 
              Baa     0.0000     0.000     0.000     0.000  1.0000  0.0000  0.0000
     3 H(1)   Bbb     0.0000     0.000     0.000     0.000 -0.0000  1.0000  0.0000
              Bcc     0.0000     0.000     0.000     0.000  0.0000  0.0000  1.0000
 
              Baa     0.0000     0.000     0.000     0.000  1.0000  0.0000  0.0000
     4 H(1)   Bbb     0.0000     0.000     0.000     0.000 -0.0000  1.0000  0.0000
              Bcc     0.0000     0.000     0.000     0.000  0.0000  0.0000  1.0000
 

 ---------------------------------------------------------------------------------

 No NMR shielding tensors so no spin-rotation constants.
 Leave Link  601 at Mon Apr 21 21:15:55 2025, MaxMem=   536870912 cpu:               1.6 elap:               0.3
 (Enter /home/szhao/Apps/g16/l9999.exe)
 1\1\GINC-NODE05\FOpt\UM062X\6-311+G(d,p)\H2S2\SZHAO\21-Apr-2025\0\\#p 
 opt UM062X/6-311+G** nosymm int=superfine\\Title Card Required\\0,1\S,
 -1.34319129,0.,0.\S,1.34319129,0.,0.\H,-1.3488093022,-1.3431929913,-0.
 0560504279\H,1.3488905766,0.0936778398,1.341018421\\Version=ES64L-G16R
 evA.03\HF=-797.5066273\S2=0.\S2-1=0.\S2A=0.\RMSD=1.752e-09\RMSF=1.367e
 -05\Dipole=-0.0000519,-0.3870806,0.3980827\Quadrupole=0.9208622,-0.450
 7582,-0.470104,1.4169796,1.3779802,0.343314\PG=C01 [X(H2S2)]\\@


 THEORY:  SUPPOSITION WHICH HAS SCIENTIFIC BASIS,
          BUT NOT EXPERIMENTALLY PROVEN.
 FACT:    A THEORY WHICH HAS BEEN PROVEN BY ENOUGH 
          MONEY TO PAY FOR THE EXPERIMENTS.

                          --  THE WIZARD OF ID
 Job cpu time:       0 days  0 hours  7 minutes 15.1 seconds.
 Elapsed time:       0 days  0 hours  1 minutes  4.1 seconds.
 File lengths (MBytes):  RWF=     22 Int=      0 D2E=      0 Chk=      2 Scr=      2
 Normal termination of Gaussian 16 at Mon Apr 21 21:15:56 2025.
