 Entering Gaussian System, Link 0=g16
 Initial command:
 /home/szhao/Apps/g16/l1.exe "/home/szhao/tmp/Gau-166488.inp" -scrdir="/home/szhao/tmp/"
 Default is to use a total of  16 processors:
                               16 via shared-memory
                                1 via Linda
 Entering Link 1 = /home/szhao/Apps/g16/l1.exe PID=    166496.
  
 Copyright (c) 1988,1990,1992,1993,1995,1998,2003,2009,2016,
            Gaussian, Inc.  All Rights Reserved.
  
 This is part of the Gaussian(R) 16 program.  It is based on
 the Gaussian(R) 09 system (copyright 2009, Gaussian, Inc.),
 the Gaussian(R) 03 system (copyright 2003, Gaussian, Inc.),
 the Gaussian(R) 98 system (copyright 1998, Gaussian, Inc.),
 the Gaussian(R) 94 system (copyright 1995, Gaussian, Inc.),
 the Gaussian 92(TM) system (copyright 1992, Gaussian, Inc.),
 the Gaussian 90(TM) system (copyright 1990, Gaussian, Inc.),
 the Gaussian 88(TM) system (copyright 1988, Gaussian, Inc.),
 the Gaussian 86(TM) system (copyright 1986, Carnegie Mellon
 University), and the Gaussian 82(TM) system (copyright 1983,
 Carnegie Mellon University). Gaussian is a federally registered
 trademark of Gaussian, Inc.
  
 This software contains proprietary and confidential information,
 including trade secrets, belonging to Gaussian, Inc.
  
 This software is provided under written license and may be
 used, copied, transmitted, or stored only in accord with that
 written license.
  
 The following legend is applicable only to US Government
 contracts under FAR:
  
                    RESTRICTED RIGHTS LEGEND
  
 Use, reproduction and disclosure by the US Government is
 subject to restrictions as set forth in subparagraphs (a)
 and (c) of the Commercial Computer Software - Restricted
 Rights clause in FAR 52.227-19.
  
 Gaussian, Inc.
 340 Quinnipiac St., Bldg. 40, Wallingford CT 06492
  
  
 ---------------------------------------------------------------
 Warning -- This program may not be used in any manner that
 competes with the business of Gaussian, Inc. or will provide
 assistance to any competitor of Gaussian, Inc.  The licensee
 of this program is prohibited from giving any competitor of
 Gaussian, Inc. access to this program.  By using this program,
 the user acknowledges that Gaussian, Inc. is engaged in the
 business of creating and licensing software in the field of
 computational chemistry and represents and warrants to the
 licensee that it is not a competitor of Gaussian, Inc. and that
 it will not use this program in any manner prohibited above.
 ---------------------------------------------------------------
  

 Cite this work as:
 Gaussian 16, Revision A.03,
 M. J. Frisch, G. W. Trucks, H. B. Schlegel, G. E. Scuseria, 
 M. A. Robb, J. R. Cheeseman, G. Scalmani, V. Barone, 
 G. A. Petersson, H. Nakatsuji, X. Li, M. Caricato, A. V. Marenich, 
 J. Bloino, B. G. Janesko, R. Gomperts, B. Mennucci, H. P. Hratchian, 
 J. V. Ortiz, A. F. Izmaylov, J. L. Sonnenberg, D. Williams-Young, 
 F. Ding, F. Lipparini, F. Egidi, J. Goings, B. Peng, A. Petrone, 
 T. Henderson, D. Ranasinghe, V. G. Zakrzewski, J. Gao, N. Rega, 
 G. Zheng, W. Liang, M. Hada, M. Ehara, K. Toyota, R. Fukuda, 
 J. Hasegawa, M. Ishida, T. Nakajima, Y. Honda, O. Kitao, H. Nakai, 
 T. Vreven, K. Throssell, J. A. Montgomery, Jr., J. E. Peralta, 
 F. Ogliaro, M. J. Bearpark, J. J. Heyd, E. N. Brothers, K. N. Kudin, 
 V. N. Staroverov, T. A. Keith, R. Kobayashi, J. Normand, 
 K. Raghavachari, A. P. Rendell, J. C. Burant, S. S. Iyengar, 
 J. Tomasi, M. Cossi, J. M. Millam, M. Klene, C. Adamo, R. Cammi, 
 J. W. Ochterski, R. L. Martin, K. Morokuma, O. Farkas, 
 J. B. Foresman, and D. J. Fox, Gaussian, Inc., Wallingford CT, 2016.
 
 ******************************************
 Gaussian 16:  ES64L-G16RevA.03 25-Dec-2016
                21-Apr-2025 
 ******************************************
 %chk=opt.chk
 %mem=4GB
 %nprocshared=8
 Will use up to    8 processors via shared memory.
 --------------------------------------------
 #p opt UM062X/6-311+G** nosymm int=superfine
 --------------------------------------------
 1/18=20,19=15,26=5,38=1/1,3;
 2/9=110,12=2,15=1,17=6,18=5,40=1/2;
 3/5=4,6=6,7=111,11=2,25=1,30=1,71=1,74=-55,75=-7,116=2/1,2,3;
 4//1;
 5/5=2,38=5/2;
 6/7=2,8=2,9=2,10=2,28=1/1;
 7/30=1/1,2,3,16;
 1/18=20,19=15,26=5/3(2);
 2/9=110,15=1/2;
 99//99;
 2/9=110,15=1/2;
 3/5=4,6=6,7=111,11=2,25=1,30=1,71=1,74=-55,75=-7,116=2/1,2,3;
 4/5=5,16=3,69=1/1;
 5/5=2,38=5/2;
 7/30=1/1,2,3,16;
 1/18=20,19=15,26=5/3(-5);
 2/9=110,15=1/2;
 6/7=2,8=2,9=2,10=2,19=2,28=1/1;
 99/9=1/99;
 Leave Link    1 at Mon Apr 21 21:24:39 2025, MaxMem=   536870912 cpu:               4.1 elap:               0.6
 (Enter /home/szhao/Apps/g16/l101.exe)
 -------------------
 Title Card Required
 -------------------
 Symbolic Z-matrix:
 Charge =  0 Multiplicity = 1
 Si                   -1   -1.77871   0.        0. 
 Si                   -1    1.77871   0.        0. 
 H                    0    -3.23708  -0.00003   0. 
 H                    0     3.23708   0.00004   0. 
 
 Add virtual bond connecting atoms Si2        and Si1        Dist= 6.72D+00.
 ITRead=  2  2  0  0
 MicOpt= -2 -2 -1 -1
 NAtoms=      4 NQM=        2 NQMF=       2 NMMI=      0 NMMIF=      0
                NMic=       0 NMicF=      0.
                    Isotopes and Nuclear Properties:
 (Nuclear quadrupole moments (NQMom) in fm**2, nuclear magnetic moments (NMagM)
  in nuclear magnetons)

  Atom         1           2           3           4
 IAtWgt=          28          28           1           1
 AtmWgt=  27.9769284  27.9769284   1.0078250   1.0078250
 NucSpn=           0           0           1           1
 AtZEff=  -0.0000000  -0.0000000  -0.0000000  -0.0000000
 NQMom=    0.0000000   0.0000000   0.0000000   0.0000000
 NMagM=    0.0000000   0.0000000   2.7928460   2.7928460
 AtZNuc=  14.0000000  14.0000000   1.0000000   1.0000000
 Leave Link  101 at Mon Apr 21 21:24:40 2025, MaxMem=   536870912 cpu:               2.7 elap:               0.4
 (Enter /home/szhao/Apps/g16/l103.exe)

 GradGradGradGradGradGradGradGradGradGradGradGradGradGradGradGradGradGrad
 Berny optimization.
 Initialization pass.
                           ----------------------------
                           !    Initial Parameters    !
                           ! (Angstroms and Degrees)  !
 --------------------------                            --------------------------
 ! Name  Definition              Value          Derivative Info.                !
 --------------------------------------------------------------------------------
 ! X1    R(1,-1)                -1.7787         Frozen                          !
 ! Y1    R(1,-2)                 0.0            Frozen                          !
 ! Z1    R(1,-3)                 0.0            Frozen                          !
 ! X2    R(2,-1)                 1.7787         Frozen                          !
 ! Y2    R(2,-2)                 0.0            Frozen                          !
 ! Z2    R(2,-3)                 0.0            Frozen                          !
 ! R1    R(1,3)                  1.4584         estimate D2E/DX2                !
 ! R2    R(2,4)                  1.4584         estimate D2E/DX2                !
 ! A1    L(2,1,3,-3,-1)        179.9989         estimate D2E/DX2                !
 ! A2    L(1,2,4,-3,-1)        179.9985         estimate D2E/DX2                !
 ! A3    L(2,1,3,-2,-2)        180.0            estimate D2E/DX2                !
 ! A4    L(1,2,4,-2,-2)        180.0            estimate D2E/DX2                !
 --------------------------------------------------------------------------------
 Trust Radius=3.00D-01 FncErr=1.00D-07 GrdErr=1.00D-07 EigMax=2.50D+02 EigMin=1.00D-04
 Number of steps in this run=     22 maximum allowed number of steps=    100.
 GradGradGradGradGradGradGradGradGradGradGradGradGradGradGradGradGradGrad

 Leave Link  103 at Mon Apr 21 21:24:41 2025, MaxMem=   536870912 cpu:               0.1 elap:               0.1
 (Enter /home/szhao/Apps/g16/l202.exe)
                          Input orientation:                          
 ---------------------------------------------------------------------
 Center     Atomic      Atomic             Coordinates (Angstroms)
 Number     Number       Type             X           Y           Z
 ---------------------------------------------------------------------
      1         14           0       -1.778705    0.000000    0.000000
      2         14           0        1.778705    0.000000    0.000000
      3          1           0       -3.237080   -0.000027    0.000000
      4          1           0        3.237080    0.000038    0.000000
 ---------------------------------------------------------------------
                    Distance matrix (angstroms):
                    1          2          3          4
     1  Si   0.000000
     2  Si   3.557410   0.000000
     3  H    1.458375   5.015785   0.000000
     4  H    5.015785   1.458375   6.474160   0.000000
 Symmetry turned off by external request.
 Stoichiometry    H2Si2
 Framework group  C*V[C*(HSiSiH)]
 Deg. of freedom     3
 Full point group                 C*V     NOp   4
 Rotational constants (GHZ):           0.0000000           2.5505166           2.5505166
 Leave Link  202 at Mon Apr 21 21:24:41 2025, MaxMem=   536870912 cpu:               0.2 elap:               0.1
 (Enter /home/szhao/Apps/g16/l301.exe)
 Standard basis: 6-311+G(d,p) (5D, 7F)
 Ernie: Thresh=  0.10000D-02 Tol=  0.10000D-05 Strict=F.
    72 basis functions,   116 primitive gaussians,    74 cartesian basis functions
    15 alpha electrons       15 beta electrons
       nuclear repulsion energy        42.3514026101 Hartrees.
 IExCor= 4336 DFT=T Ex+Corr=M062X ExCW=0 ScaHFX=  0.540000
 ScaDFX=  1.000000  1.000000  1.000000  1.000000 ScalE2=  1.000000  1.000000
 IRadAn=      7 IRanWt=     -1 IRanGd=            0 ICorTp=0 IEmpDi=  4
 NAtoms=    4 NActive=    4 NUniq=    4 SFac= 1.00D+00 NAtFMM=   60 NAOKFM=F Big=F
 Integral buffers will be    131072 words long.
 Raffenetti 2 integral format.
 Two-electron integral symmetry is turned off.
 Leave Link  301 at Mon Apr 21 21:24:41 2025, MaxMem=   536870912 cpu:               1.1 elap:               0.2
 (Enter /home/szhao/Apps/g16/l302.exe)
 NPDir=0 NMtPBC=     1 NCelOv=     1 NCel=       1 NClECP=     1 NCelD=      1
         NCelK=      1 NCelE2=     1 NClLst=     1 CellRange=     0.0.
 One-electron integrals computed using PRISM.
 NBasis=    72 RedAO= T EigKep=  5.72D-03  NBF=    72
 NBsUse=    72 1.00D-06 EigRej= -1.00D+00 NBFU=    72
 Precomputing XC quadrature grid using
 IXCGrd= 4 IRadAn=           7 IRanWt=          -1 IRanGd=           0 AccXCQ= 0.00D+00.
 Generated NRdTot=       0 NPtTot=           0 NUsed=           0 NTot=          32
 NSgBfM=    67    67    67    67    67 MxSgAt=     4 MxSgA2=     4.
 Leave Link  302 at Mon Apr 21 21:24:42 2025, MaxMem=   536870912 cpu:               1.6 elap:               0.2
 (Enter /home/szhao/Apps/g16/l303.exe)
 DipDrv:  MaxL=1.
 Leave Link  303 at Mon Apr 21 21:24:42 2025, MaxMem=   536870912 cpu:               0.5 elap:               0.1
 (Enter /home/szhao/Apps/g16/l401.exe)
 ExpMin= 3.31D-02 ExpMax= 6.94D+04 ExpMxC= 2.33D+03 IAcc=3 IRadAn=         7 AccDes= 0.00D+00
 Harris functional with IExCor= 1009 and IRadAn=       7 diagonalized for initial guess.
 HarFok:  IExCor= 1009 AccDes= 0.00D+00 IRadAn=         7 IDoV= 1 UseB2=F ITyADJ=14
 ICtDFT=  3500011 ScaDFX=  1.000000  1.000000  1.000000  1.000000
 FoFCou: FMM=F IPFlag=           0 FMFlag=      100000 FMFlg1=           0
         NFxFlg=           0 DoJE=T BraDBF=F KetDBF=T FulRan=T
         wScrn=  0.000000 ICntrl=       500 IOpCl=  0 I1Cent=   200000004 NGrid=           0
         NMat0=    1 NMatS0=      1 NMatT0=    0 NMatD0=    1 NMtDS0=    0 NMtDT0=    0
 Symmetry not used in FoFCou.
 Harris En= -579.592235953299    
 JPrj=0 DoOrth=F DoCkMO=F.
 Initial guess <Sx>= 0.0000 <Sy>= 0.0000 <Sz>= 0.0000 <S**2>=-0.0000 S=-0.0000
 Leave Link  401 at Mon Apr 21 21:24:42 2025, MaxMem=   536870912 cpu:               2.8 elap:               0.4
 (Enter /home/szhao/Apps/g16/l502.exe)
 Keep R1 and R2 ints in memory in canonical form, NReq=14118010.
 FoFCou: FMM=F IPFlag=           0 FMFlag=           0 FMFlg1=           0
         NFxFlg=           0 DoJE=F BraDBF=F KetDBF=F FulRan=T
         wScrn=  0.000000 ICntrl=       600 IOpCl=  0 I1Cent=           0 NGrid=           0
         NMat0=    1 NMatS0=   2628 NMatT0=    0 NMatD0=    1 NMtDS0=    0 NMtDT0=    0
 Symmetry not used in FoFCou.
 Two-electron integral symmetry not used.
 UHF open shell SCF:
 Using DIIS extrapolation, IDIIS=  1040.
 NGot=   536870912 LenX=   529949706 LenY=   529943789
 Requested convergence on RMS density matrix=1.00D-08 within 128 cycles.
 Requested convergence on MAX density matrix=1.00D-06.
 Requested convergence on             energy=1.00D-06.
 No special actions if energy rises.

 Cycle   1  Pass 1  IDiag  1:
 E= -579.873406444262    
 DIIS: error= 3.08D-02 at cycle   1 NSaved=   1.
 NSaved= 1 IEnMin= 1 EnMin= -579.873406444262     IErMin= 1 ErrMin= 3.08D-02
 ErrMax= 3.08D-02  0.00D+00 EMaxC= 1.00D-01 BMatC= 1.75D-01 BMatP= 1.75D-01
 IDIUse=3 WtCom= 6.92D-01 WtEn= 3.08D-01
 Coeff-Com:  0.100D+01
 Coeff-En:   0.100D+01
 Coeff:      0.100D+01
 Gap=     0.092 Goal=   None    Shift=    0.000
 Gap=     0.092 Goal=   None    Shift=    0.000
 GapD=    0.092 DampG=0.500 DampE=0.500 DampFc=0.2500 IDamp=-1.
 Damping current iteration by 2.50D-01
 RMSDP=3.97D-03 MaxDP=9.45D-02              OVMax= 7.51D-02

 Cycle   2  Pass 1  IDiag  1:
 E= -579.879318317791     Delta-E=       -0.005911873529 Rises=F Damp=T
 DIIS: error= 2.32D-02 at cycle   2 NSaved=   2.
 NSaved= 2 IEnMin= 2 EnMin= -579.879318317791     IErMin= 2 ErrMin= 2.32D-02
 ErrMax= 2.32D-02  0.00D+00 EMaxC= 1.00D-01 BMatC= 9.05D-02 BMatP= 1.75D-01
 IDIUse=3 WtCom= 7.68D-01 WtEn= 2.32D-01
 Coeff-Com: -0.235D+01 0.335D+01
 Coeff-En:   0.000D+00 0.100D+01
 Coeff:     -0.180D+01 0.280D+01
 Gap=     0.091 Goal=   None    Shift=    0.000
 Gap=     0.091 Goal=   None    Shift=    0.000
 RMSDP=2.51D-03 MaxDP=5.57D-02 DE=-5.91D-03 OVMax= 2.06D-02

 Cycle   3  Pass 1  IDiag  1:
 E= -579.894723628284     Delta-E=       -0.015405310493 Rises=F Damp=F
 DIIS: error= 4.47D-04 at cycle   3 NSaved=   3.
 NSaved= 3 IEnMin= 3 EnMin= -579.894723628284     IErMin= 3 ErrMin= 4.47D-04
 ErrMax= 4.47D-04  0.00D+00 EMaxC= 1.00D-01 BMatC= 5.57D-05 BMatP= 9.05D-02
 IDIUse=3 WtCom= 9.96D-01 WtEn= 4.47D-03
 Coeff-Com: -0.317D-01 0.314D-01 0.100D+01
 Coeff-En:   0.000D+00 0.000D+00 0.100D+01
 Coeff:     -0.315D-01 0.312D-01 0.100D+01
 Gap=     0.091 Goal=   None    Shift=    0.000
 Gap=     0.091 Goal=   None    Shift=    0.000
 RMSDP=1.81D-04 MaxDP=3.30D-03 DE=-1.54D-02 OVMax= 2.86D-03

 Cycle   4  Pass 1  IDiag  1:
 E= -579.894752256221     Delta-E=       -0.000028627936 Rises=F Damp=F
 DIIS: error= 1.27D-04 at cycle   4 NSaved=   4.
 NSaved= 4 IEnMin= 4 EnMin= -579.894752256221     IErMin= 4 ErrMin= 1.27D-04
 ErrMax= 1.27D-04  0.00D+00 EMaxC= 1.00D-01 BMatC= 1.61D-06 BMatP= 5.57D-05
 IDIUse=3 WtCom= 9.99D-01 WtEn= 1.27D-03
 Coeff-Com:  0.995D-02-0.142D-01-0.417D-01 0.105D+01
 Coeff-En:   0.000D+00 0.000D+00 0.000D+00 0.100D+01
 Coeff:      0.994D-02-0.142D-01-0.417D-01 0.105D+01
 Gap=     0.091 Goal=   None    Shift=    0.000
 Gap=     0.091 Goal=   None    Shift=    0.000
 RMSDP=3.76D-05 MaxDP=3.15D-04 DE=-2.86D-05 OVMax= 1.12D-03

 Cycle   5  Pass 1  IDiag  1:
 E= -579.894753713252     Delta-E=       -0.000001457032 Rises=F Damp=F
 DIIS: error= 1.94D-05 at cycle   5 NSaved=   5.
 NSaved= 5 IEnMin= 5 EnMin= -579.894753713252     IErMin= 5 ErrMin= 1.94D-05
 ErrMax= 1.94D-05  0.00D+00 EMaxC= 1.00D-01 BMatC= 7.75D-08 BMatP= 1.61D-06
 IDIUse=1 WtCom= 1.00D+00 WtEn= 0.00D+00
 Coeff-Com: -0.288D-02 0.417D-02-0.242D-01-0.995D-01 0.112D+01
 Coeff:     -0.288D-02 0.417D-02-0.242D-01-0.995D-01 0.112D+01
 Gap=     0.091 Goal=   None    Shift=    0.000
 Gap=     0.091 Goal=   None    Shift=    0.000
 RMSDP=1.12D-05 MaxDP=1.45D-04 DE=-1.46D-06 OVMax= 2.35D-04

 Cycle   6  Pass 1  IDiag  1:
 E= -579.894753787999     Delta-E=       -0.000000074747 Rises=F Damp=F
 DIIS: error= 4.17D-06 at cycle   6 NSaved=   6.
 NSaved= 6 IEnMin= 6 EnMin= -579.894753787999     IErMin= 6 ErrMin= 4.17D-06
 ErrMax= 4.17D-06  0.00D+00 EMaxC= 1.00D-01 BMatC= 2.29D-09 BMatP= 7.75D-08
 IDIUse=1 WtCom= 1.00D+00 WtEn= 0.00D+00
 Coeff-Com:  0.446D-03-0.567D-03-0.137D-02-0.198D-01 0.961D-01 0.925D+00
 Coeff:      0.446D-03-0.567D-03-0.137D-02-0.198D-01 0.961D-01 0.925D+00
 Gap=     0.091 Goal=   None    Shift=    0.000
 Gap=     0.091 Goal=   None    Shift=    0.000
 RMSDP=9.83D-07 MaxDP=1.00D-05 DE=-7.47D-08 OVMax= 3.60D-05

 Cycle   7  Pass 1  IDiag  1:
 E= -579.894753789064     Delta-E=       -0.000000001065 Rises=F Damp=F
 DIIS: error= 7.07D-07 at cycle   7 NSaved=   7.
 NSaved= 7 IEnMin= 7 EnMin= -579.894753789064     IErMin= 7 ErrMin= 7.07D-07
 ErrMax= 7.07D-07  0.00D+00 EMaxC= 1.00D-01 BMatC= 7.98D-11 BMatP= 2.29D-09
 IDIUse=1 WtCom= 1.00D+00 WtEn= 0.00D+00
 Coeff-Com:  0.130D-03-0.177D-03 0.646D-03-0.140D-03-0.264D-01 0.991D-01
 Coeff-Com:  0.927D+00
 Coeff:      0.130D-03-0.177D-03 0.646D-03-0.140D-03-0.264D-01 0.991D-01
 Coeff:      0.927D+00
 Gap=     0.091 Goal=   None    Shift=    0.000
 Gap=     0.091 Goal=   None    Shift=    0.000
 RMSDP=2.37D-07 MaxDP=2.96D-06 DE=-1.06D-09 OVMax= 7.58D-06

 Cycle   8  Pass 1  IDiag  1:
 E= -579.894753789122     Delta-E=       -0.000000000057 Rises=F Damp=F
 DIIS: error= 1.64D-07 at cycle   8 NSaved=   8.
 NSaved= 8 IEnMin= 8 EnMin= -579.894753789122     IErMin= 8 ErrMin= 1.64D-07
 ErrMax= 1.64D-07  0.00D+00 EMaxC= 1.00D-01 BMatC= 3.38D-12 BMatP= 7.98D-11
 IDIUse=1 WtCom= 1.00D+00 WtEn= 0.00D+00
 Coeff-Com: -0.164D-04 0.198D-04 0.108D-03 0.136D-02-0.941D-02-0.287D-01
 Coeff-Com:  0.701D-01 0.967D+00
 Coeff:     -0.164D-04 0.198D-04 0.108D-03 0.136D-02-0.941D-02-0.287D-01
 Coeff:      0.701D-01 0.967D+00
 Gap=     0.091 Goal=   None    Shift=    0.000
 Gap=     0.091 Goal=   None    Shift=    0.000
 RMSDP=5.37D-08 MaxDP=8.07D-07 DE=-5.73D-11 OVMax= 1.31D-06

 Cycle   9  Pass 1  IDiag  1:
 E= -579.894753789124     Delta-E=       -0.000000000002 Rises=F Damp=F
 DIIS: error= 1.86D-08 at cycle   9 NSaved=   9.
 NSaved= 9 IEnMin= 9 EnMin= -579.894753789124     IErMin= 9 ErrMin= 1.86D-08
 ErrMax= 1.86D-08  0.00D+00 EMaxC= 1.00D-01 BMatC= 4.54D-14 BMatP= 3.38D-12
 IDIUse=1 WtCom= 1.00D+00 WtEn= 0.00D+00
 Coeff-Com: -0.286D-05 0.395D-05-0.149D-04 0.207D-04 0.530D-03-0.235D-02
 Coeff-Com: -0.153D-01 0.591D-02 0.101D+01
 Coeff:     -0.286D-05 0.395D-05-0.149D-04 0.207D-04 0.530D-03-0.235D-02
 Coeff:     -0.153D-01 0.591D-02 0.101D+01
 Gap=     0.091 Goal=   None    Shift=    0.000
 Gap=     0.091 Goal=   None    Shift=    0.000
 RMSDP=8.03D-09 MaxDP=1.56D-07 DE=-2.16D-12 OVMax= 5.27D-07

 SCF Done:  E(UM062X) =  -579.894753789     A.U. after    9 cycles
            NFock=  9  Conv=0.80D-08     -V/T= 2.0013
 <Sx>= 0.0000 <Sy>= 0.0000 <Sz>= 0.0000 <S**2>=-0.0000 S=-0.0000
 <L.S>=  0.00000000000    
 KE= 5.791263059721D+02 PE=-1.466279289417D+03 EE= 2.649068270453D+02
 Annihilation of the first spin contaminant:
 S**2 before annihilation    -0.0000,   after     0.0000
 Leave Link  502 at Mon Apr 21 21:24:47 2025, MaxMem=   536870912 cpu:              36.7 elap:               4.8
 (Enter /home/szhao/Apps/g16/l601.exe)
 Copying SCF densities to generalized density rwf, IOpCl= 1 IROHF=0.

 **********************************************************************

            Population analysis using the SCF density.

 **********************************************************************

 Alpha  occ. eigenvalues --  -67.03706 -67.03706  -5.58256  -5.58255  -3.89352
 Alpha  occ. eigenvalues --   -3.89351  -3.88904  -3.88903  -3.88782  -3.88782
 Alpha  occ. eigenvalues --   -0.55956  -0.55218  -0.35189  -0.29602  -0.18690
 Alpha virt. eigenvalues --   -0.09579  -0.09406  -0.07425   0.02314   0.02861
 Alpha virt. eigenvalues --    0.04632   0.05731   0.05829   0.06096   0.07155
 Alpha virt. eigenvalues --    0.09145   0.09728   0.21109   0.29381   0.29723
 Alpha virt. eigenvalues --    0.30311   0.30690   0.32417   0.32494   0.41618
 Alpha virt. eigenvalues --    0.42894   0.49073   0.55759   0.59818   0.60391
 Alpha virt. eigenvalues --    0.60601   0.61336   0.61951   0.62064   0.62569
 Alpha virt. eigenvalues --    0.62681   0.86779   0.90054   1.18894   1.21497
 Alpha virt. eigenvalues --    1.22572   1.22894   1.23950   1.26707   1.49168
 Alpha virt. eigenvalues --    1.49208   1.49558   1.49590   2.01619   2.02451
 Alpha virt. eigenvalues --    2.63177   2.65333   5.45866   5.50848  11.43032
 Alpha virt. eigenvalues --   11.43043  11.44299  11.44310  11.52352  11.58691
 Alpha virt. eigenvalues --  141.01505 141.08356
  Beta  occ. eigenvalues --  -67.03706 -67.03706  -5.58256  -5.58255  -3.89352
  Beta  occ. eigenvalues --   -3.89351  -3.88904  -3.88903  -3.88782  -3.88782
  Beta  occ. eigenvalues --   -0.55956  -0.55218  -0.35189  -0.29602  -0.18690
  Beta virt. eigenvalues --   -0.09579  -0.09406  -0.07425   0.02314   0.02861
  Beta virt. eigenvalues --    0.04632   0.05731   0.05829   0.06096   0.07155
  Beta virt. eigenvalues --    0.09145   0.09728   0.21109   0.29381   0.29723
  Beta virt. eigenvalues --    0.30311   0.30690   0.32417   0.32494   0.41618
  Beta virt. eigenvalues --    0.42894   0.49073   0.55759   0.59818   0.60391
  Beta virt. eigenvalues --    0.60601   0.61336   0.61951   0.62064   0.62569
  Beta virt. eigenvalues --    0.62681   0.86779   0.90054   1.18894   1.21497
  Beta virt. eigenvalues --    1.22572   1.22894   1.23950   1.26707   1.49168
  Beta virt. eigenvalues --    1.49208   1.49558   1.49590   2.01619   2.02451
  Beta virt. eigenvalues --    2.63177   2.65333   5.45866   5.50848  11.43032
  Beta virt. eigenvalues --   11.43043  11.44299  11.44310  11.52352  11.58691
  Beta virt. eigenvalues --  141.01505 141.08356
          Condensed to atoms (all electrons):
               1          2          3          4
     1  Si  13.747883  -0.092615   0.194703   0.008933
     2  Si  -0.092615  13.747884   0.008933   0.194703
     3  H    0.194703   0.008933   0.937465  -0.000006
     4  H    0.008933   0.194703  -0.000006   0.937465
          Atomic-Atomic Spin Densities.
               1          2          3          4
     1  Si  -0.000000  -0.000000   0.000000  -0.000000
     2  Si  -0.000000   0.000000   0.000000   0.000000
     3  H    0.000000   0.000000  -0.000000   0.000000
     4  H   -0.000000   0.000000   0.000000  -0.000000
 Mulliken charges and spin densities:
               1          2
     1  Si   0.141096  -0.000000
     2  Si   0.141094   0.000000
     3  H   -0.141095  -0.000000
     4  H   -0.141095   0.000000
 Sum of Mulliken charges =  -0.00000   0.00000
 Mulliken charges and spin densities with hydrogens summed into heavy atoms:
               1          2
     1  Si   0.000001  -0.000000
     2  Si  -0.000001   0.000000
 Electronic spatial extent (au):  <R**2>=            457.5684
 Charge=             -0.0000 electrons
 Dipole moment (field-independent basis, Debye):
    X=             -0.0000    Y=              0.0000    Z=              0.0000  Tot=              0.0000
 Quadrupole moment (field-independent basis, Debye-Ang):
   XX=            -29.6907   YY=            -24.1174   ZZ=            -35.4771
   XY=             -0.0001   XZ=             -0.0000   YZ=              0.0000
 Traceless Quadrupole moment (field-independent basis, Debye-Ang):
   XX=              0.0710   YY=              5.6443   ZZ=             -5.7154
   XY=             -0.0001   XZ=             -0.0000   YZ=              0.0000
 Octapole moment (field-independent basis, Debye-Ang**2):
  XXX=             -0.0001  YYY=             -0.0000  ZZZ=              0.0000  XYY=             -0.0000
  XXY=             -0.0002  XXZ=             -0.0000  XZZ=             -0.0000  YZZ=             -0.0000
  YYZ=              0.0000  XYZ=              0.0000
 Hexadecapole moment (field-independent basis, Debye-Ang**3):
 XXXX=           -781.6938 YYYY=            -38.7853 ZZZZ=            -95.8543 XXXY=             -0.0036
 XXXZ=             -0.0000 YYYX=             -0.0006 YYYZ=              0.0000 ZZZX=             -0.0000
 ZZZY=              0.0000 XXYY=           -100.2326 XXZZ=           -141.2798 YYZZ=            -22.4398
 XXYZ=              0.0000 YYXZ=             -0.0000 ZZXY=             -0.0002
 N-N= 4.235140261007D+01 E-N=-1.466279288715D+03  KE= 5.791263059721D+02
                          Isotropic Fermi Contact Couplings
        Atom                 a.u.       MegaHertz       Gauss      10(-4) cm-1
     1  Si(29)             0.00000      -0.00000      -0.00000      -0.00000
     2  Si(29)            -0.00000       0.00000       0.00000       0.00000
     3  H(1)               0.00000       0.00000       0.00000       0.00000
     4  H(1)               0.00000       0.00000       0.00000       0.00000
 --------------------------------------------------------
       Center         ----  Spin Dipole Couplings  ----
                      3XX-RR        3YY-RR        3ZZ-RR
 --------------------------------------------------------
     1   Atom        0.000000      0.000000      0.000000
     2   Atom        0.000000      0.000000      0.000000
     3   Atom        0.000000      0.000000      0.000000
     4   Atom        0.000000      0.000000      0.000000
 --------------------------------------------------------
                        XY            XZ            YZ
 --------------------------------------------------------
     1   Atom        0.000000      0.000000      0.000000
     2   Atom        0.000000      0.000000      0.000000
     3   Atom        0.000000      0.000000      0.000000
     4   Atom        0.000000      0.000000      0.000000
 --------------------------------------------------------


 ---------------------------------------------------------------------------------
              Anisotropic Spin Dipole Couplings in Principal Axis System
 ---------------------------------------------------------------------------------

       Atom             a.u.   MegaHertz   Gauss  10(-4) cm-1        Axes

              Baa     0.0000    -0.000    -0.000    -0.000  1.0000  0.0000  0.0000
     1 Si(29) Bbb     0.0000    -0.000    -0.000    -0.000 -0.0000  1.0000  0.0000
              Bcc     0.0000    -0.000    -0.000    -0.000  0.0000  0.0000  1.0000
 
              Baa     0.0000    -0.000    -0.000    -0.000  1.0000  0.0000  0.0000
     2 Si(29) Bbb     0.0000    -0.000    -0.000    -0.000 -0.0000  1.0000  0.0000
              Bcc     0.0000    -0.000    -0.000    -0.000  0.0000  0.0000  1.0000
 
              Baa     0.0000     0.000     0.000     0.000  1.0000  0.0000  0.0000
     3 H(1)   Bbb     0.0000     0.000     0.000     0.000 -0.0000  1.0000  0.0000
              Bcc     0.0000     0.000     0.000     0.000  0.0000  0.0000  1.0000
 
              Baa     0.0000     0.000     0.000     0.000  1.0000  0.0000  0.0000
     4 H(1)   Bbb     0.0000     0.000     0.000     0.000 -0.0000  1.0000  0.0000
              Bcc     0.0000     0.000     0.000     0.000  0.0000  0.0000  1.0000
 

 ---------------------------------------------------------------------------------

 No NMR shielding tensors so no spin-rotation constants.
 Leave Link  601 at Mon Apr 21 21:24:48 2025, MaxMem=   536870912 cpu:               1.2 elap:               0.2
 (Enter /home/szhao/Apps/g16/l701.exe)
 ... and contract with generalized density number  0.
 Compute integral first derivatives.
 Leave Link  701 at Mon Apr 21 21:24:49 2025, MaxMem=   536870912 cpu:               1.9 elap:               0.6
 (Enter /home/szhao/Apps/g16/l702.exe)
 L702 exits ... SP integral derivatives will be done elsewhere.
 Leave Link  702 at Mon Apr 21 21:24:49 2025, MaxMem=   536870912 cpu:               0.8 elap:               0.2
 (Enter /home/szhao/Apps/g16/l703.exe)
 Integral derivatives from FoFJK, PRISM(SPDF).
 Compute integral first derivatives, UseDBF=F ICtDFT=           0.
 Calling FoFJK, ICntrl=      2127 FMM=F ISym2X=0 I1Cent= 0 IOpClX= 1 NMat=1 NMatS=1 NMatT=0.
 FoFJK:  IHMeth= 1 ICntrl=    2127 DoSepK=F KAlg= 0 I1Cent=           0 FoldK=F
 IRaf=         0 NMat=       1 IRICut=       1 DoRegI=T DoRafI=F ISym2E= 0 IDoP0=0 IntGTp=1.
 FoFCou: FMM=F IPFlag=           0 FMFlag=      100000 FMFlg1=         800
         NFxFlg=           0 DoJE=F BraDBF=F KetDBF=F FulRan=T
         wScrn=  0.000000 ICntrl=      2127 IOpCl=  1 I1Cent=           0 NGrid=           0
         NMat0=    1 NMatS0=      1 NMatT0=    0 NMatD0=    1 NMtDS0=    0 NMtDT0=    0
 Symmetry not used in FoFCou.
 Leave Link  703 at Mon Apr 21 21:24:50 2025, MaxMem=   536870912 cpu:               5.3 elap:               0.7
 (Enter /home/szhao/Apps/g16/l716.exe)
 Dipole        =-5.27651476D-06 1.24044214D-06 9.57035898D-16
 -------------------------------------------------------------------
 Center     Atomic                   Forces (Hartrees/Bohr)
 Number     Number              X              Y              Z
 -------------------------------------------------------------------
      1       14          -0.000000000   -0.000000000   -0.000000000
      2       14          -0.000000000   -0.000000000   -0.000000000
      3        1          -0.025016910   -0.000000639    0.000000000
      4        1           0.025016960    0.000000853   -0.000000000
 -------------------------------------------------------------------
 Cartesian Forces:  Max     0.025016960 RMS     0.010213121
 Leave Link  716 at Mon Apr 21 21:24:51 2025, MaxMem=   536870912 cpu:               1.3 elap:               0.3
 (Enter /home/szhao/Apps/g16/l103.exe)

 GradGradGradGradGradGradGradGradGradGradGradGradGradGradGradGradGradGrad
 Berny optimization.
 FormGI is forming the generalized inverse of G from B-inverse, IUseBI=4.
 Internal  Forces:  Max     0.025016960 RMS     0.014443534
 Search for a local minimum.
 Step number   1 out of a maximum of   22
 All quantities printed in internal units (Hartrees-Bohrs-Radians)
 RMS Force = .14444D-01 SwitMx=.10000D-02 MixMth= 1
 Mixed Optimization -- RFO/linear search
 Second derivative matrix not updated -- first step.
 The second derivative matrix:
                          X1        Y1        Z1        X2        Y2
           X1           0.50000
           Y1           0.00000   0.50000
           Z1           0.00000   0.00000   0.50000
           X2           0.00000   0.00000   0.00000   0.50000
           Y2           0.00000   0.00000   0.00000   0.00000   0.50000
           Z2           0.00000   0.00000   0.00000   0.00000   0.00000
           R1           0.00000   0.00000   0.00000   0.00000   0.00000
           R2           0.00000   0.00000   0.00000   0.00000   0.00000
           A1           0.00000   0.00000   0.00000   0.00000   0.00000
           A2           0.00000   0.00000   0.00000   0.00000   0.00000
           A3           0.00000   0.00000   0.00000   0.00000   0.00000
           A4           0.00000   0.00000   0.00000   0.00000   0.00000
                          Z2        R1        R2        A1        A2
           Z2           0.50000
           R1           0.00000   0.18833
           R2           0.00000   0.00000   0.18833
           A1           0.00000   0.00000   0.00000   0.00655
           A2           0.00000   0.00000   0.00000   0.00000   0.00655
           A3           0.00000   0.00000   0.00000   0.00000   0.00000
           A4           0.00000   0.00000   0.00000   0.00000   0.00000
                          A3        A4
           A3           0.00655
           A4           0.00000   0.00655
 ITU=  0
     Eigenvalues ---    0.00655   0.00655   0.00655   0.18833   0.18833
     Eigenvalues --- 1000.000001000.000001000.000001000.000001000.00000
     Eigenvalues --- 1000.000001000.00000
 RFO step:  Lambda=-6.42695108D-03 EMin= 6.54940760D-03
 Linear search not attempted -- first point.
 Iteration  1 RMS(Cart)=  0.05244038 RMS(Int)=  0.00000007
 Iteration  2 RMS(Cart)=  0.00000021 RMS(Int)=  0.00000000
 ITry= 1 IFail=0 DXMaxC= 1.28D-01 DCOld= 1.00D+10 DXMaxT= 3.00D-01 DXLimC= 3.00D+00 Rises=F
 Variable       Old X    -DE/DX   Delta X   Delta X   Delta X     New X
                                 (Linear)    (Quad)   (Total)
    X1       -3.36127  -0.02502   0.00000   0.00000   0.00000  -3.36127
    Y1        0.00000  -0.00000   0.00000   0.00000   0.00000   0.00000
    Z1        0.00000  -0.00000   0.00000   0.00000   0.00000   0.00000
    X2        3.36127   0.02502   0.00000   0.00000   0.00000   3.36127
    Y2        0.00000   0.00000   0.00000   0.00000   0.00000   0.00000
    Z2        0.00000   0.00000   0.00000   0.00000   0.00000   0.00000
    R1        2.75593   0.02502   0.00000   0.12845   0.12845   2.88438
    R2        2.75593   0.02502   0.00000   0.12845   0.12845   2.88438
    A1        3.14157   0.00000   0.00000   0.00000   0.00000   3.14158
    A2        3.14157   0.00000   0.00000  -0.00000  -0.00000   3.14156
    A3        3.14159   0.00000   0.00000   0.00000   0.00000   3.14159
    A4        3.14159   0.00000   0.00000   0.00000   0.00000   3.14159
         Item               Value     Threshold  Converged?
 Maximum Force            0.025017     0.000450     NO 
 RMS     Force            0.014444     0.000300     NO 
 Maximum Displacement     0.128452     0.001800     NO 
 RMS     Displacement     0.052440     0.001200     NO 
 Predicted change in Energy=-3.319524D-03
 Lowest energy point so far.  Saving SCF results.
 GradGradGradGradGradGradGradGradGradGradGradGradGradGradGradGradGradGrad

 Leave Link  103 at Mon Apr 21 21:24:52 2025, MaxMem=   536870912 cpu:               1.4 elap:               0.4
 (Enter /home/szhao/Apps/g16/l202.exe)
                          Input orientation:                          
 ---------------------------------------------------------------------
 Center     Atomic      Atomic             Coordinates (Angstroms)
 Number     Number       Type             X           Y           Z
 ---------------------------------------------------------------------
      1         14           0       -1.778705    0.000000    0.000000
      2         14           0        1.778705    0.000000    0.000000
      3          1           0       -3.305054   -0.000025   -0.000000
      4          1           0        3.305054    0.000043    0.000000
 ---------------------------------------------------------------------
                    Distance matrix (angstroms):
                    1          2          3          4
     1  Si   0.000000
     2  Si   3.557410   0.000000
     3  H    1.526349   5.083759   0.000000
     4  H    5.083759   1.526349   6.610108   0.000000
 Symmetry turned off by external request.
 Stoichiometry    H2Si2
 Framework group  C*V[C*(HSiSiH)]
 Deg. of freedom     3
 Full point group                 C*V     NOp   4
 Rotational constants (GHZ):           0.0000000           2.5390310           2.5390310
 Leave Link  202 at Mon Apr 21 21:24:52 2025, MaxMem=   536870912 cpu:               0.2 elap:               0.1
 (Enter /home/szhao/Apps/g16/l301.exe)
 Standard basis: 6-311+G(d,p) (5D, 7F)
 Ernie: Thresh=  0.10000D-02 Tol=  0.10000D-05 Strict=F.
    72 basis functions,   116 primitive gaussians,    74 cartesian basis functions
    15 alpha electrons       15 beta electrons
       nuclear repulsion energy        41.8577648594 Hartrees.
 IExCor= 4336 DFT=T Ex+Corr=M062X ExCW=0 ScaHFX=  0.540000
 ScaDFX=  1.000000  1.000000  1.000000  1.000000 ScalE2=  1.000000  1.000000
 IRadAn=      7 IRanWt=     -1 IRanGd=            0 ICorTp=0 IEmpDi=  4
 NAtoms=    4 NActive=    4 NUniq=    4 SFac= 1.00D+00 NAtFMM=   60 NAOKFM=F Big=F
 Integral buffers will be    131072 words long.
 Raffenetti 2 integral format.
 Two-electron integral symmetry is turned off.
 Leave Link  301 at Mon Apr 21 21:24:53 2025, MaxMem=   536870912 cpu:               0.8 elap:               0.2
 (Enter /home/szhao/Apps/g16/l302.exe)
 NPDir=0 NMtPBC=     1 NCelOv=     1 NCel=       1 NClECP=     1 NCelD=      1
         NCelK=      1 NCelE2=     1 NClLst=     1 CellRange=     0.0.
 One-electron integrals computed using PRISM.
 NBasis=    72 RedAO= T EigKep=  6.36D-03  NBF=    72
 NBsUse=    72 1.00D-06 EigRej= -1.00D+00 NBFU=    72
 Precomputing XC quadrature grid using
 IXCGrd= 4 IRadAn=           7 IRanWt=          -1 IRanGd=           0 AccXCQ= 0.00D+00.
 Generated NRdTot=       0 NPtTot=           0 NUsed=           0 NTot=          32
 NSgBfM=    67    67    67    67    67 MxSgAt=     4 MxSgA2=     4.
 Leave Link  302 at Mon Apr 21 21:24:54 2025, MaxMem=   536870912 cpu:               2.5 elap:               0.4
 (Enter /home/szhao/Apps/g16/l303.exe)
 DipDrv:  MaxL=1.
 Leave Link  303 at Mon Apr 21 21:24:54 2025, MaxMem=   536870912 cpu:               0.6 elap:               0.3
 (Enter /home/szhao/Apps/g16/l401.exe)
 Initial guess from the checkpoint file:  "opt.chk"
 B after Tr=     0.000000    0.000000   -0.000000
         Rot=    1.000000   -0.000000    0.000000   -0.000000 Ang=  -0.00 deg.
 Guess basis will be translated and rotated to current coordinates.
 JPrj=2 DoOrth=T DoCkMO=T.
 Initial guess <Sx>= 0.0000 <Sy>= 0.0000 <Sz>= 0.0000 <S**2>=-0.0000 S=-0.0000
 Generating alternative initial guess.
 ExpMin= 3.31D-02 ExpMax= 6.94D+04 ExpMxC= 2.33D+03 IAcc=3 IRadAn=         5 AccDes= 0.00D+00
 Harris functional with IExCor= 1009 and IRadAn=       5 diagonalized for initial guess.
 HarFok:  IExCor= 1009 AccDes= 0.00D+00 IRadAn=         5 IDoV= 1 UseB2=F ITyADJ=14
 ICtDFT=  3500011 ScaDFX=  1.000000  1.000000  1.000000  1.000000
 FoFCou: FMM=F IPFlag=           0 FMFlag=      100000 FMFlg1=           0
         NFxFlg=           0 DoJE=T BraDBF=F KetDBF=T FulRan=T
         wScrn=  0.000000 ICntrl=       500 IOpCl=  0 I1Cent=   200000004 NGrid=           0
         NMat0=    1 NMatS0=      1 NMatT0=    0 NMatD0=    1 NMtDS0=    0 NMtDT0=    0
 Symmetry not used in FoFCou.
 Harris En= -579.594059625991    
 Leave Link  401 at Mon Apr 21 21:24:55 2025, MaxMem=   536870912 cpu:               3.5 elap:               0.6
 (Enter /home/szhao/Apps/g16/l502.exe)
 Keep R1 and R2 ints in memory in canonical form, NReq=14118010.
 FoFCou: FMM=F IPFlag=           0 FMFlag=           0 FMFlg1=           0
         NFxFlg=           0 DoJE=F BraDBF=F KetDBF=F FulRan=T
         wScrn=  0.000000 ICntrl=       600 IOpCl=  0 I1Cent=           0 NGrid=           0
         NMat0=    1 NMatS0=   2628 NMatT0=    0 NMatD0=    1 NMtDS0=    0 NMtDT0=    0
 Symmetry not used in FoFCou.
 Two-electron integral symmetry not used.
 UHF open shell SCF:
 Using DIIS extrapolation, IDIIS=  1040.
 NGot=   536870912 LenX=   529949706 LenY=   529943789
 Requested convergence on RMS density matrix=1.00D-08 within 128 cycles.
 Requested convergence on MAX density matrix=1.00D-06.
 Requested convergence on             energy=1.00D-06.
 No special actions if energy rises.

 Cycle   1  Pass 1  IDiag  1:
 E= -579.897276214854    
 DIIS: error= 3.61D-03 at cycle   1 NSaved=   1.
 NSaved= 1 IEnMin= 1 EnMin= -579.897276214854     IErMin= 1 ErrMin= 3.61D-03
 ErrMax= 3.61D-03  0.00D+00 EMaxC= 1.00D-01 BMatC= 2.26D-03 BMatP= 2.26D-03
 IDIUse=3 WtCom= 9.64D-01 WtEn= 3.61D-02
 Coeff-Com:  0.100D+01
 Coeff-En:   0.100D+01
 Coeff:      0.100D+01
 Gap=     0.381 Goal=   None    Shift=    0.000
 Gap=     0.381 Goal=   None    Shift=    0.000
 GapD=    0.381 DampG=1.000 DampE=1.000 DampFc=1.0000 IDamp=-1.
 RMSDP=5.12D-04 MaxDP=8.72D-03              OVMax= 9.65D-03

 Cycle   2  Pass 1  IDiag  1:
 E= -579.897938002917     Delta-E=       -0.000661788063 Rises=F Damp=F
 DIIS: error= 5.59D-04 at cycle   2 NSaved=   2.
 NSaved= 2 IEnMin= 2 EnMin= -579.897938002917     IErMin= 2 ErrMin= 5.59D-04
 ErrMax= 5.59D-04  0.00D+00 EMaxC= 1.00D-01 BMatC= 6.96D-05 BMatP= 2.26D-03
 IDIUse=3 WtCom= 9.94D-01 WtEn= 5.59D-03
 Coeff-Com:  0.509D-01 0.949D+00
 Coeff-En:   0.000D+00 0.100D+01
 Coeff:      0.507D-01 0.949D+00
 Gap=     0.091 Goal=   None    Shift=    0.000
 Gap=     0.091 Goal=   None    Shift=    0.000
 RMSDP=1.32D-04 MaxDP=1.80D-03 DE=-6.62D-04 OVMax= 3.83D-03

 Cycle   3  Pass 1  IDiag  1:
 E= -579.897969438074     Delta-E=       -0.000031435157 Rises=F Damp=F
 DIIS: error= 1.93D-04 at cycle   3 NSaved=   3.
 NSaved= 3 IEnMin= 3 EnMin= -579.897969438074     IErMin= 3 ErrMin= 1.93D-04
 ErrMax= 1.93D-04  0.00D+00 EMaxC= 1.00D-01 BMatC= 7.10D-06 BMatP= 6.96D-05
 IDIUse=3 WtCom= 9.98D-01 WtEn= 1.93D-03
 Coeff-Com: -0.206D-01 0.153D+00 0.867D+00
 Coeff-En:   0.000D+00 0.000D+00 0.100D+01
 Coeff:     -0.205D-01 0.153D+00 0.867D+00
 Gap=     0.091 Goal=   None    Shift=    0.000
 Gap=     0.091 Goal=   None    Shift=    0.000
 RMSDP=5.03D-05 MaxDP=6.81D-04 DE=-3.14D-05 OVMax= 1.06D-03

 Cycle   4  Pass 1  IDiag  1:
 E= -579.897972926601     Delta-E=       -0.000003488527 Rises=F Damp=F
 DIIS: error= 4.09D-05 at cycle   4 NSaved=   4.
 NSaved= 4 IEnMin= 4 EnMin= -579.897972926601     IErMin= 4 ErrMin= 4.09D-05
 ErrMax= 4.09D-05  0.00D+00 EMaxC= 1.00D-01 BMatC= 3.77D-07 BMatP= 7.10D-06
 IDIUse=1 WtCom= 1.00D+00 WtEn= 0.00D+00
 Coeff-Com: -0.250D-02-0.510D-01 0.643D-01 0.989D+00
 Coeff:     -0.250D-02-0.510D-01 0.643D-01 0.989D+00
 Gap=     0.091 Goal=   None    Shift=    0.000
 Gap=     0.091 Goal=   None    Shift=    0.000
 RMSDP=1.12D-05 MaxDP=1.51D-04 DE=-3.49D-06 OVMax= 2.95D-04

 Cycle   5  Pass 1  IDiag  1:
 E= -579.897973110026     Delta-E=       -0.000000183425 Rises=F Damp=F
 DIIS: error= 6.35D-06 at cycle   5 NSaved=   5.
 NSaved= 5 IEnMin= 5 EnMin= -579.897973110026     IErMin= 5 ErrMin= 6.35D-06
 ErrMax= 6.35D-06  0.00D+00 EMaxC= 1.00D-01 BMatC= 1.54D-08 BMatP= 3.77D-07
 IDIUse=1 WtCom= 1.00D+00 WtEn= 0.00D+00
 Coeff-Com:  0.333D-03-0.160D-01-0.125D-01 0.190D+00 0.838D+00
 Coeff:      0.333D-03-0.160D-01-0.125D-01 0.190D+00 0.838D+00
 Gap=     0.091 Goal=   None    Shift=    0.000
 Gap=     0.091 Goal=   None    Shift=    0.000
 RMSDP=1.96D-06 MaxDP=3.85D-05 DE=-1.83D-07 OVMax= 5.47D-05

 Cycle   6  Pass 1  IDiag  1:
 E= -579.897973114504     Delta-E=       -0.000000004479 Rises=F Damp=F
 DIIS: error= 3.45D-06 at cycle   6 NSaved=   6.
 NSaved= 6 IEnMin= 6 EnMin= -579.897973114504     IErMin= 6 ErrMin= 3.45D-06
 ErrMax= 3.45D-06  0.00D+00 EMaxC= 1.00D-01 BMatC= 1.14D-09 BMatP= 1.54D-08
 IDIUse=1 WtCom= 1.00D+00 WtEn= 0.00D+00
 Coeff-Com:  0.221D-03-0.195D-02-0.653D-02 0.485D-02 0.172D+00 0.831D+00
 Coeff:      0.221D-03-0.195D-02-0.653D-02 0.485D-02 0.172D+00 0.831D+00
 Gap=     0.091 Goal=   None    Shift=    0.000
 Gap=     0.091 Goal=   None    Shift=    0.000
 RMSDP=9.65D-07 MaxDP=2.26D-05 DE=-4.48D-09 OVMax= 7.80D-05

 Cycle   7  Pass 1  IDiag  1:
 E= -579.897973113124     Delta-E=        0.000000001380 Rises=F Damp=F
 DIIS: error= 6.81D-06 at cycle   7 NSaved=   7.
 NSaved= 7 IEnMin= 6 EnMin= -579.897973114504     IErMin= 6 ErrMin= 3.45D-06
 ErrMax= 6.81D-06  0.00D+00 EMaxC= 1.00D-01 BMatC= 3.06D-09 BMatP= 1.14D-09
 IDIUse=1 WtCom= 1.00D+00 WtEn= 0.00D+00
 Coeff-Com:  0.142D-03-0.338D-05-0.391D-02-0.147D-01 0.543D-01 0.638D+00
 Coeff-Com:  0.326D+00
 Coeff:      0.142D-03-0.338D-05-0.391D-02-0.147D-01 0.543D-01 0.638D+00
 Coeff:      0.326D+00
 Gap=     0.091 Goal=   None    Shift=    0.000
 Gap=     0.091 Goal=   None    Shift=    0.000
 RMSDP=6.00D-07 MaxDP=1.53D-05 DE= 1.38D-09 OVMax= 5.40D-05

 Cycle   8  Pass 1  IDiag  1:
 E= -579.897973115271     Delta-E=       -0.000000002148 Rises=F Damp=F
 DIIS: error= 3.27D-07 at cycle   8 NSaved=   8.
 NSaved= 8 IEnMin= 8 EnMin= -579.897973115271     IErMin= 8 ErrMin= 3.27D-07
 ErrMax= 3.27D-07  0.00D+00 EMaxC= 1.00D-01 BMatC= 1.06D-11 BMatP= 1.14D-09
 IDIUse=1 WtCom= 1.00D+00 WtEn= 0.00D+00
 Coeff-Com: -0.670D-06 0.225D-03 0.139D-03-0.399D-02-0.521D-02-0.318D-01
 Coeff-Com:  0.331D-01 0.101D+01
 Coeff:     -0.670D-06 0.225D-03 0.139D-03-0.399D-02-0.521D-02-0.318D-01
 Coeff:      0.331D-01 0.101D+01
 Gap=     0.091 Goal=   None    Shift=    0.000
 Gap=     0.091 Goal=   None    Shift=    0.000
 RMSDP=6.85D-08 MaxDP=1.24D-06 DE=-2.15D-09 OVMax= 2.72D-06

 Cycle   9  Pass 1  IDiag  1:
 E= -579.897973115279     Delta-E=       -0.000000000008 Rises=F Damp=F
 DIIS: error= 3.17D-08 at cycle   9 NSaved=   9.
 NSaved= 9 IEnMin= 9 EnMin= -579.897973115279     IErMin= 9 ErrMin= 3.17D-08
 ErrMax= 3.17D-08  0.00D+00 EMaxC= 1.00D-01 BMatC= 8.21D-14 BMatP= 1.06D-11
 IDIUse=1 WtCom= 1.00D+00 WtEn= 0.00D+00
 Coeff-Com: -0.265D-05 0.997D-05 0.379D-04 0.206D-03-0.180D-02-0.950D-02
 Coeff-Com: -0.271D-02 0.414D-01 0.972D+00
 Coeff:     -0.265D-05 0.997D-05 0.379D-04 0.206D-03-0.180D-02-0.950D-02
 Coeff:     -0.271D-02 0.414D-01 0.972D+00
 Gap=     0.091 Goal=   None    Shift=    0.000
 Gap=     0.091 Goal=   None    Shift=    0.000
 RMSDP=7.59D-09 MaxDP=7.79D-08 DE=-7.96D-12 OVMax= 2.61D-07

 SCF Done:  E(UM062X) =  -579.897973115     A.U. after    9 cycles
            NFock=  9  Conv=0.76D-08     -V/T= 2.0016
 <Sx>= 0.0000 <Sy>= 0.0000 <Sz>= 0.0000 <S**2>=-0.0000 S=-0.0000
 <L.S>=  0.00000000000    
 KE= 5.790001127800D+02 PE=-1.465099163072D+03 EE= 2.643433123171D+02
 Annihilation of the first spin contaminant:
 S**2 before annihilation    -0.0000,   after    -0.0000
 Leave Link  502 at Mon Apr 21 21:25:00 2025, MaxMem=   536870912 cpu:              34.5 elap:               4.7
 (Enter /home/szhao/Apps/g16/l701.exe)
 ... and contract with generalized density number  0.
 Compute integral first derivatives.
 Leave Link  701 at Mon Apr 21 21:25:01 2025, MaxMem=   536870912 cpu:               1.3 elap:               0.2
 (Enter /home/szhao/Apps/g16/l702.exe)
 L702 exits ... SP integral derivatives will be done elsewhere.
 Leave Link  702 at Mon Apr 21 21:25:01 2025, MaxMem=   536870912 cpu:               0.4 elap:               0.1
 (Enter /home/szhao/Apps/g16/l703.exe)
 Integral derivatives from FoFJK, PRISM(SPDF).
 Compute integral first derivatives, UseDBF=F ICtDFT=           0.
 Calling FoFJK, ICntrl=      2127 FMM=F ISym2X=0 I1Cent= 0 IOpClX= 1 NMat=1 NMatS=1 NMatT=0.
 FoFJK:  IHMeth= 1 ICntrl=    2127 DoSepK=F KAlg= 0 I1Cent=           0 FoldK=F
 IRaf=         0 NMat=       1 IRICut=       1 DoRegI=T DoRafI=F ISym2E= 0 IDoP0=0 IntGTp=1.
 FoFCou: FMM=F IPFlag=           0 FMFlag=      100000 FMFlg1=         800
         NFxFlg=           0 DoJE=F BraDBF=F KetDBF=F FulRan=T
         wScrn=  0.000000 ICntrl=      2127 IOpCl=  1 I1Cent=           0 NGrid=           0
         NMat0=    1 NMatS0=      1 NMatT0=    0 NMatD0=    1 NMtDS0=    0 NMtDT0=    0
 Symmetry not used in FoFCou.
 Leave Link  703 at Mon Apr 21 21:25:02 2025, MaxMem=   536870912 cpu:               6.2 elap:               0.8
 (Enter /home/szhao/Apps/g16/l716.exe)
 Dipole        =-1.49575952D-07 1.05200160D-06-6.93621148D-13
 -------------------------------------------------------------------
 Center     Atomic                   Forces (Hartrees/Bohr)
 Number     Number              X              Y              Z
 -------------------------------------------------------------------
      1       14          -0.000000000   -0.000000000   -0.000000000
      2       14          -0.000000000   -0.000000000   -0.000000000
      3        1          -0.001216283   -0.000000176   -0.000000000
      4        1           0.001216244    0.000000216    0.000000000
 -------------------------------------------------------------------
 Cartesian Forces:  Max     0.001216283 RMS     0.000496538
 Leave Link  716 at Mon Apr 21 21:25:02 2025, MaxMem=   536870912 cpu:               0.6 elap:               0.2
 (Enter /home/szhao/Apps/g16/l103.exe)

 GradGradGradGradGradGradGradGradGradGradGradGradGradGradGradGradGradGrad
 Berny optimization.
 Using GEDIIS/GDIIS optimizer.
 FormGI is forming the generalized inverse of G from B-inverse, IUseBI=4.
 Internal  Forces:  Max     0.001216283 RMS     0.000702210
 Search for a local minimum.
 Step number   2 out of a maximum of   22
 All quantities printed in internal units (Hartrees-Bohrs-Radians)
 RMS Force = .70221D-03 SwitMx=.10000D-02 MixMth= 2
 Mixed Optimization -- En-DIIS/RFO-DIIS
 Update second derivatives using D2CorX and points    1    2
 DE= -3.22D-03 DEPred=-3.32D-03 R= 9.70D-01
 TightC=F SS=  1.41D+00  RLast= 1.82D-01 DXNew= 5.0454D-01 5.4498D-01
 Trust test= 9.70D-01 RLast= 1.82D-01 DXMaxT set to 5.05D-01
 The second derivative matrix:
                          X1        Y1        Z1        X2        Y2
           X1           0.59264
           Y1           0.00000   0.50000
           Z1          -0.00000  -0.00000   0.50000
           X2          -0.09264  -0.00000   0.00000   0.59264
           Y2          -0.00000  -0.00000   0.00000   0.00000   0.50000
           Z2           0.00000   0.00000  -0.00000  -0.00000  -0.00000
           R1          -0.09264  -0.00000   0.00000   0.09264   0.00000
           R2          -0.09264  -0.00000   0.00000   0.09264   0.00000
           A1          -0.00000  -0.00000   0.00000   0.00000   0.00000
           A2          -0.00000  -0.00000   0.00000   0.00000   0.00000
           A3           0.00000   0.00000  -0.00000  -0.00000  -0.00000
           A4           0.00000   0.00000  -0.00000  -0.00000  -0.00000
                          Z2        R1        R2        A1        A2
           Z2           0.50000
           R1          -0.00000   0.18681
           R2          -0.00000  -0.00152   0.18681
           A1          -0.00000   0.00000   0.00000   0.00655
           A2          -0.00000   0.00000   0.00000   0.00000   0.00655
           A3           0.00000  -0.00000  -0.00000  -0.00000  -0.00000
           A4           0.00000  -0.00000  -0.00000  -0.00000  -0.00000
                          A3        A4
           A3           0.00655
           A4           0.00000   0.00655
 ITU=  1  0
 Use linear search instead of GDIIS.
     Eigenvalues ---    0.00655   0.00655   0.00655   0.18529   0.18833
     Eigenvalues --- 1000.000001000.000001000.000001000.000001000.00000
     Eigenvalues --- 1000.000001000.00000
 RFO step:  Lambda= 0.00000000D+00 EMin= 6.54940760D-03
 Quartic linear search produced a step of  0.06027.
 Iteration  1 RMS(Cart)=  0.00316070 RMS(Int)=  0.00000001
 Iteration  2 RMS(Cart)=  0.00000003 RMS(Int)=  0.00000001
 ITry= 1 IFail=0 DXMaxC= 7.74D-03 DCOld= 1.00D+10 DXMaxT= 5.05D-01 DXLimC= 3.00D+00 Rises=F
 Variable       Old X    -DE/DX   Delta X   Delta X   Delta X     New X
                                 (Linear)    (Quad)   (Total)
    X1       -3.36127  -0.00122   0.00000   0.00000   0.00000  -3.36127
    Y1        0.00000   0.00000   0.00000   0.00000   0.00000   0.00000
    Z1        0.00000  -0.00000   0.00000   0.00000   0.00000   0.00000
    X2        3.36127   0.00122   0.00000   0.00000   0.00000   3.36127
    Y2        0.00000   0.00000   0.00000   0.00000   0.00000   0.00000
    Z2        0.00000   0.00000   0.00000   0.00000   0.00000   0.00000
    R1        2.88438   0.00122   0.00774   0.00000   0.00774   2.89212
    R2        2.88438   0.00122   0.00774  -0.00000   0.00774   2.89212
    A1        3.14158   0.00000   0.00000   0.00001   0.00001   3.14158
    A2        3.14156  -0.00000  -0.00000  -0.00001  -0.00001   3.14156
    A3        3.14159   0.00000   0.00000   0.00000  -0.00000   3.14159
    A4        3.14159   0.00000   0.00000   0.00000   0.00000   3.14159
         Item               Value     Threshold  Converged?
 Maximum Force            0.001216     0.000450     NO 
 RMS     Force            0.000702     0.000300     NO 
 Maximum Displacement     0.007742     0.001800     NO 
 RMS     Displacement     0.003161     0.001200     NO 
 Predicted change in Energy=-7.726684D-06
 Lowest energy point so far.  Saving SCF results.
 GradGradGradGradGradGradGradGradGradGradGradGradGradGradGradGradGradGrad

 Leave Link  103 at Mon Apr 21 21:25:03 2025, MaxMem=   536870912 cpu:               1.2 elap:               0.3
 (Enter /home/szhao/Apps/g16/l202.exe)
                          Input orientation:                          
 ---------------------------------------------------------------------
 Center     Atomic      Atomic             Coordinates (Angstroms)
 Number     Number       Type             X           Y           Z
 ---------------------------------------------------------------------
      1         14           0       -1.778705    0.000000    0.000000
      2         14           0        1.778705    0.000000    0.000000
      3          1           0       -3.309151   -0.000015    0.000000
      4          1           0        3.309151    0.000053    0.000000
 ---------------------------------------------------------------------
                    Distance matrix (angstroms):
                    1          2          3          4
     1  Si   0.000000
     2  Si   3.557410   0.000000
     3  H    1.530446   5.087856   0.000000
     4  H    5.087856   1.530446   6.618302   0.000000
 Symmetry turned off by external request.
 Stoichiometry    H2Si2
 Framework group  C*V[C*(HSiSiH)]
 Deg. of freedom     3
 Full point group                 C*V     NOp   4
 Rotational constants (GHZ):           0.0000000           2.5383344           2.5383344
 Leave Link  202 at Mon Apr 21 21:25:03 2025, MaxMem=   536870912 cpu:               0.2 elap:               0.1
 (Enter /home/szhao/Apps/g16/l301.exe)
 Standard basis: 6-311+G(d,p) (5D, 7F)
 Ernie: Thresh=  0.10000D-02 Tol=  0.10000D-05 Strict=F.
    72 basis functions,   116 primitive gaussians,    74 cartesian basis functions
    15 alpha electrons       15 beta electrons
       nuclear repulsion energy        41.8293324253 Hartrees.
 IExCor= 4336 DFT=T Ex+Corr=M062X ExCW=0 ScaHFX=  0.540000
 ScaDFX=  1.000000  1.000000  1.000000  1.000000 ScalE2=  1.000000  1.000000
 IRadAn=      7 IRanWt=     -1 IRanGd=            0 ICorTp=0 IEmpDi=  4
 NAtoms=    4 NActive=    4 NUniq=    4 SFac= 1.00D+00 NAtFMM=   60 NAOKFM=F Big=F
 Integral buffers will be    131072 words long.
 Raffenetti 2 integral format.
 Two-electron integral symmetry is turned off.
 Leave Link  301 at Mon Apr 21 21:25:04 2025, MaxMem=   536870912 cpu:               0.6 elap:               0.2
 (Enter /home/szhao/Apps/g16/l302.exe)
 NPDir=0 NMtPBC=     1 NCelOv=     1 NCel=       1 NClECP=     1 NCelD=      1
         NCelK=      1 NCelE2=     1 NClLst=     1 CellRange=     0.0.
 One-electron integrals computed using PRISM.
 NBasis=    72 RedAO= T EigKep=  6.39D-03  NBF=    72
 NBsUse=    72 1.00D-06 EigRej= -1.00D+00 NBFU=    72
 Precomputing XC quadrature grid using
 IXCGrd= 4 IRadAn=           7 IRanWt=          -1 IRanGd=           0 AccXCQ= 0.00D+00.
 Generated NRdTot=       0 NPtTot=           0 NUsed=           0 NTot=          32
 NSgBfM=    67    67    67    67    67 MxSgAt=     4 MxSgA2=     4.
 Leave Link  302 at Mon Apr 21 21:25:04 2025, MaxMem=   536870912 cpu:               2.7 elap:               0.4
 (Enter /home/szhao/Apps/g16/l303.exe)
 DipDrv:  MaxL=1.
 Leave Link  303 at Mon Apr 21 21:25:05 2025, MaxMem=   536870912 cpu:               1.0 elap:               0.4
 (Enter /home/szhao/Apps/g16/l401.exe)
 Initial guess from the checkpoint file:  "opt.chk"
 B after Tr=    -0.000000    0.000001    0.000000
         Rot=    1.000000    0.000136   -0.000000   -0.000000 Ang=   0.02 deg.
 Guess basis will be translated and rotated to current coordinates.
 JPrj=2 DoOrth=T DoCkMO=T.
 Initial guess <Sx>= 0.0000 <Sy>= 0.0000 <Sz>= 0.0000 <S**2>= 0.0000 S= 0.0000
 Leave Link  401 at Mon Apr 21 21:25:07 2025, MaxMem=   536870912 cpu:               5.2 elap:               1.2
 (Enter /home/szhao/Apps/g16/l502.exe)
 Keep R1 and R2 ints in memory in canonical form, NReq=14118010.
 FoFCou: FMM=F IPFlag=           0 FMFlag=           0 FMFlg1=           0
         NFxFlg=           0 DoJE=F BraDBF=F KetDBF=F FulRan=T
         wScrn=  0.000000 ICntrl=       600 IOpCl=  0 I1Cent=           0 NGrid=           0
         NMat0=    1 NMatS0=   2628 NMatT0=    0 NMatD0=    1 NMtDS0=    0 NMtDT0=    0
 Symmetry not used in FoFCou.
 Two-electron integral symmetry not used.
 UHF open shell SCF:
 Using DIIS extrapolation, IDIIS=  1040.
 NGot=   536870912 LenX=   529949706 LenY=   529943789
 Requested convergence on RMS density matrix=1.00D-08 within 128 cycles.
 Requested convergence on MAX density matrix=1.00D-06.
 Requested convergence on             energy=1.00D-06.
 No special actions if energy rises.

 Cycle   1  Pass 1  IDiag  1:
 E= -579.897980029558    
 DIIS: error= 2.12D-04 at cycle   1 NSaved=   1.
 NSaved= 1 IEnMin= 1 EnMin= -579.897980029558     IErMin= 1 ErrMin= 2.12D-04
 ErrMax= 2.12D-04  0.00D+00 EMaxC= 1.00D-01 BMatC= 7.47D-06 BMatP= 7.47D-06
 IDIUse=3 WtCom= 9.98D-01 WtEn= 2.12D-03
 Coeff-Com:  0.100D+01
 Coeff-En:   0.100D+01
 Coeff:      0.100D+01
 Gap=     0.379 Goal=   None    Shift=    0.000
 Gap=     0.379 Goal=   None    Shift=    0.000
 RMSDP=2.95D-05 MaxDP=4.81D-04              OVMax= 5.73D-04

 Cycle   2  Pass 1  IDiag  1:
 E= -579.897982339076     Delta-E=       -0.000002309518 Rises=F Damp=F
 DIIS: error= 3.23D-05 at cycle   2 NSaved=   2.
 NSaved= 2 IEnMin= 2 EnMin= -579.897982339076     IErMin= 2 ErrMin= 3.23D-05
 ErrMax= 3.23D-05  0.00D+00 EMaxC= 1.00D-01 BMatC= 2.41D-07 BMatP= 7.47D-06
 IDIUse=1 WtCom= 1.00D+00 WtEn= 0.00D+00
 Coeff-Com:  0.514D-01 0.949D+00
 Coeff:      0.514D-01 0.949D+00
 Gap=     0.091 Goal=   None    Shift=    0.000
 Gap=     0.091 Goal=   None    Shift=    0.000
 RMSDP=7.85D-06 MaxDP=1.07D-04 DE=-2.31D-06 OVMax= 2.26D-04

 Cycle   3  Pass 1  IDiag  1:
 E= -579.897982451083     Delta-E=       -0.000000112008 Rises=F Damp=F
 DIIS: error= 1.14D-05 at cycle   3 NSaved=   3.
 NSaved= 3 IEnMin= 3 EnMin= -579.897982451083     IErMin= 3 ErrMin= 1.14D-05
 ErrMax= 1.14D-05  0.00D+00 EMaxC= 1.00D-01 BMatC= 2.35D-08 BMatP= 2.41D-07
 IDIUse=1 WtCom= 1.00D+00 WtEn= 0.00D+00
 Coeff-Com: -0.220D-01 0.139D+00 0.883D+00
 Coeff:     -0.220D-01 0.139D+00 0.883D+00
 Gap=     0.091 Goal=   None    Shift=    0.000
 Gap=     0.091 Goal=   None    Shift=    0.000
 RMSDP=2.98D-06 MaxDP=3.97D-05 DE=-1.12D-07 OVMax= 6.35D-05

 Cycle   4  Pass 1  IDiag  1:
 E= -579.897982463296     Delta-E=       -0.000000012212 Rises=F Damp=F
 DIIS: error= 2.52D-06 at cycle   4 NSaved=   4.
 NSaved= 4 IEnMin= 4 EnMin= -579.897982463296     IErMin= 4 ErrMin= 2.52D-06
 ErrMax= 2.52D-06  0.00D+00 EMaxC= 1.00D-01 BMatC= 1.38D-09 BMatP= 2.35D-08
 IDIUse=1 WtCom= 1.00D+00 WtEn= 0.00D+00
 Coeff-Com: -0.267D-02-0.521D-01 0.736D-01 0.981D+00
 Coeff:     -0.267D-02-0.521D-01 0.736D-01 0.981D+00
 Gap=     0.091 Goal=   None    Shift=    0.000
 Gap=     0.091 Goal=   None    Shift=    0.000
 RMSDP=6.69D-07 MaxDP=9.57D-06 DE=-1.22D-08 OVMax= 1.81D-05

 Cycle   5  Pass 1  IDiag  1:
 E= -579.897982463981     Delta-E=       -0.000000000685 Rises=F Damp=F
 DIIS: error= 3.85D-07 at cycle   5 NSaved=   5.
 NSaved= 5 IEnMin= 5 EnMin= -579.897982463981     IErMin= 5 ErrMin= 3.85D-07
 ErrMax= 3.85D-07  0.00D+00 EMaxC= 1.00D-01 BMatC= 5.53D-11 BMatP= 1.38D-09
 IDIUse=1 WtCom= 1.00D+00 WtEn= 0.00D+00
 Coeff-Com:  0.300D-03-0.157D-01-0.104D-01 0.191D+00 0.835D+00
 Coeff:      0.300D-03-0.157D-01-0.104D-01 0.191D+00 0.835D+00
 Gap=     0.091 Goal=   None    Shift=    0.000
 Gap=     0.091 Goal=   None    Shift=    0.000
 RMSDP=1.14D-07 MaxDP=2.06D-06 DE=-6.85D-10 OVMax= 2.40D-06

 Cycle   6  Pass 1  IDiag  1:
 E= -579.897982463998     Delta-E=       -0.000000000017 Rises=F Damp=F
 DIIS: error= 6.10D-08 at cycle   6 NSaved=   6.
 NSaved= 6 IEnMin= 6 EnMin= -579.897982463998     IErMin= 6 ErrMin= 6.10D-08
 ErrMax= 6.10D-08  0.00D+00 EMaxC= 1.00D-01 BMatC= 1.46D-12 BMatP= 5.53D-11
 IDIUse=1 WtCom= 1.00D+00 WtEn= 0.00D+00
 Coeff-Com:  0.209D-03-0.281D-03-0.588D-02-0.154D-01 0.916D-01 0.930D+00
 Coeff:      0.209D-03-0.281D-03-0.588D-02-0.154D-01 0.916D-01 0.930D+00
 Gap=     0.091 Goal=   None    Shift=    0.000
 Gap=     0.091 Goal=   None    Shift=    0.000
 RMSDP=3.00D-08 MaxDP=3.68D-07 DE=-1.67D-11 OVMax= 7.29D-07

 Cycle   7  Pass 1  IDiag  1:
 E= -579.897982463999     Delta-E=       -0.000000000001 Rises=F Damp=F
 DIIS: error= 4.10D-08 at cycle   7 NSaved=   7.
 NSaved= 7 IEnMin= 7 EnMin= -579.897982463999     IErMin= 7 ErrMin= 4.10D-08
 ErrMax= 4.10D-08  0.00D+00 EMaxC= 1.00D-01 BMatC= 1.38D-13 BMatP= 1.46D-12
 IDIUse=1 WtCom= 1.00D+00 WtEn= 0.00D+00
 Coeff-Com:  0.517D-04 0.199D-03-0.134D-02-0.845D-02 0.159D-01 0.194D+00
 Coeff-Com:  0.799D+00
 Coeff:      0.517D-04 0.199D-03-0.134D-02-0.845D-02 0.159D-01 0.194D+00
 Coeff:      0.799D+00
 Gap=     0.091 Goal=   None    Shift=    0.000
 Gap=     0.091 Goal=   None    Shift=    0.000
 RMSDP=1.08D-08 MaxDP=2.57D-07 DE=-1.14D-12 OVMax= 9.03D-07

 Cycle   8  Pass 1  IDiag  1:
 E= -579.897982463999     Delta-E=        0.000000000000 Rises=F Damp=F
 DIIS: error= 7.81D-08 at cycle   8 NSaved=   8.
 NSaved= 8 IEnMin= 7 EnMin= -579.897982463999     IErMin= 7 ErrMin= 4.10D-08
 ErrMax= 7.81D-08  0.00D+00 EMaxC= 1.00D-01 BMatC= 4.01D-13 BMatP= 1.38D-13
 IDIUse=1 WtCom= 1.00D+00 WtEn= 0.00D+00
 Coeff-Com:  0.267D-06 0.227D-03 0.761D-04-0.400D-02-0.510D-02-0.336D-01
 Coeff-Com:  0.673D+00 0.370D+00
 Coeff:      0.267D-06 0.227D-03 0.761D-04-0.400D-02-0.510D-02-0.336D-01
 Coeff:      0.673D+00 0.370D+00
 Gap=     0.091 Goal=   None    Shift=    0.000
 Gap=     0.091 Goal=   None    Shift=    0.000
 RMSDP=6.82D-09 MaxDP=1.72D-07 DE= 0.00D+00 OVMax= 6.06D-07

 SCF Done:  E(UM062X) =  -579.897982464     A.U. after    8 cycles
            NFock=  8  Conv=0.68D-08     -V/T= 2.0016
 <Sx>= 0.0000 <Sy>= 0.0000 <Sz>= 0.0000 <S**2>=-0.0000 S=-0.0000
 <L.S>=  0.00000000000    
 KE= 5.789931450060D+02 PE=-1.465030787494D+03 EE= 2.643103275985D+02
 Annihilation of the first spin contaminant:
 S**2 before annihilation    -0.0000,   after     0.0000
 Leave Link  502 at Mon Apr 21 21:25:12 2025, MaxMem=   536870912 cpu:              34.5 elap:               4.7
 (Enter /home/szhao/Apps/g16/l701.exe)
 ... and contract with generalized density number  0.
 Compute integral first derivatives.
 Leave Link  701 at Mon Apr 21 21:25:12 2025, MaxMem=   536870912 cpu:               1.3 elap:               0.5
 (Enter /home/szhao/Apps/g16/l702.exe)
 L702 exits ... SP integral derivatives will be done elsewhere.
 Leave Link  702 at Mon Apr 21 21:25:13 2025, MaxMem=   536870912 cpu:               0.4 elap:               0.1
 (Enter /home/szhao/Apps/g16/l703.exe)
 Integral derivatives from FoFJK, PRISM(SPDF).
 Compute integral first derivatives, UseDBF=F ICtDFT=           0.
 Calling FoFJK, ICntrl=      2127 FMM=F ISym2X=0 I1Cent= 0 IOpClX= 1 NMat=1 NMatS=1 NMatT=0.
 FoFJK:  IHMeth= 1 ICntrl=    2127 DoSepK=F KAlg= 0 I1Cent=           0 FoldK=F
 IRaf=         0 NMat=       1 IRICut=       1 DoRegI=T DoRafI=F ISym2E= 0 IDoP0=0 IntGTp=1.
 FoFCou: FMM=F IPFlag=           0 FMFlag=      100000 FMFlg1=         800
         NFxFlg=           0 DoJE=F BraDBF=F KetDBF=F FulRan=T
         wScrn=  0.000000 ICntrl=      2127 IOpCl=  1 I1Cent=           0 NGrid=           0
         NMat0=    1 NMatS0=      1 NMatT0=    0 NMatD0=    1 NMtDS0=    0 NMtDT0=    0
 Symmetry not used in FoFCou.
 Leave Link  703 at Mon Apr 21 21:25:14 2025, MaxMem=   536870912 cpu:               6.4 elap:               0.9
 (Enter /home/szhao/Apps/g16/l716.exe)
 Dipole        = 1.93728479D-07 2.07111732D-06 5.60348992D-09
 -------------------------------------------------------------------
 Center     Atomic                   Forces (Hartrees/Bohr)
 Number     Number              X              Y              Z
 -------------------------------------------------------------------
      1       14          -0.000000000   -0.000000000   -0.000000000
      2       14          -0.000000000   -0.000000000   -0.000000000
      3        1           0.000004972   -0.000000142    0.000000000
      4        1          -0.000004979    0.000000193    0.000000000
 -------------------------------------------------------------------
 Cartesian Forces:  Max     0.000004979 RMS     0.000002032
 Leave Link  716 at Mon Apr 21 21:25:14 2025, MaxMem=   536870912 cpu:               0.8 elap:               0.1
 (Enter /home/szhao/Apps/g16/l103.exe)

 GradGradGradGradGradGradGradGradGradGradGradGradGradGradGradGradGradGrad
 Berny optimization.
 Using GEDIIS/GDIIS optimizer.
 FormGI is forming the generalized inverse of G from B-inverse, IUseBI=4.
 Internal  Forces:  Max     0.000004979 RMS     0.000002873
 Search for a local minimum.
 Step number   3 out of a maximum of   22
 All quantities printed in internal units (Hartrees-Bohrs-Radians)
 RMS Force = .28729D-05 SwitMx=.10000D-02 MixMth= 2
 Mixed Optimization -- En-DIIS/RFO-DIIS
 Swapping is turned off.
 Update second derivatives using D2CorX and points    1    2    3
 DE= -9.35D-06 DEPred=-7.73D-06 R= 1.21D+00
 TightC=F SS=  1.41D+00  RLast= 1.09D-02 DXNew= 8.4853D-01 3.2847D-02
 Trust test= 1.21D+00 RLast= 1.09D-02 DXMaxT set to 5.05D-01
 The second derivative matrix:
                          X1        Y1        Z1        X2        Y2
           X1           0.57887
           Y1           0.00000   0.50000
           Z1           0.00000   0.00000   0.50000
           X2          -0.07887  -0.00000  -0.00000   0.57887
           Y2          -0.00000  -0.00000  -0.00000   0.00000   0.50000
           Z2           0.00000   0.00000   0.00000  -0.00000  -0.00000
           R1          -0.07887  -0.00000  -0.00000   0.07887   0.00000
           R2          -0.07887  -0.00000  -0.00000   0.07887   0.00000
           A1           0.00000   0.00000   0.00000  -0.00000  -0.00000
           A2          -0.00001  -0.00000  -0.00000   0.00001   0.00000
           A3          -0.00000  -0.00000  -0.00000   0.00000   0.00000
           A4           0.00000   0.00000   0.00000  -0.00000  -0.00000
                          Z2        R1        R2        A1        A2
           Z2           0.50000
           R1          -0.00000   0.17303
           R2          -0.00000  -0.01529   0.17304
           A1           0.00000  -0.00000  -0.00000   0.00655
           A2          -0.00000   0.00001   0.00001  -0.00000   0.00655
           A3          -0.00000   0.00000   0.00000  -0.00000   0.00000
           A4           0.00000  -0.00000  -0.00000   0.00000  -0.00000
                          A3        A4
           A3           0.00655
           A4          -0.00000   0.00655
 ITU=  1  1  0
     Eigenvalues ---    0.00655   0.00655   0.00655   0.15774   0.18833
     Eigenvalues --- 1000.000001000.000001000.000001000.000001000.00000
     Eigenvalues --- 1000.000001000.00000
 En-DIIS/RFO-DIIS/Sim-DIIS IScMMF=       -3 using points:     3    2
 RFO step:  Lambda=-2.46355855D-10.
 NNeg= 0 NGDIIS= 2 SimSw=  2.50D-03 Rises=F DC= -9.35D-06 SmlDif=  1.00D-05
 NRisDI= 0 DoIntr=F SqrtH=F CThrHd= 10.0 CDAdj=  3.0
 RMS Error=  0.1368963010D-04 NUsed= 2 OKEnD=F EnDIS=F
 InvSVX:  RCond= 1.35D-04 Info=           0 Equed=N FErr=  8.92D-16 BErr=  1.81D-17
 DidBck=F Rises=F RFO-DIIS coefs:    0.99593    0.00407
 Iteration  1 RMS(Cart)=  0.00001861 RMS(Int)=  0.00000000
 Iteration  2 RMS(Cart)=  0.00000000 RMS(Int)=  0.00000000
 ITry= 1 IFail=0 DXMaxC= 3.29D-05 DCOld= 1.00D+10 DXMaxT= 5.05D-01 DXLimC= 3.00D+00 Rises=F
 Variable       Old X    -DE/DX   Delta X   Delta X   Delta X     New X
                                 (Linear)    (Quad)   (Total)
    X1       -3.36127   0.00000  -0.00000   0.00000   0.00000  -3.36127
    Y1        0.00000   0.00000   0.00000   0.00000   0.00000   0.00000
    Z1        0.00000   0.00000   0.00000   0.00000   0.00000   0.00000
    X2        3.36127  -0.00000   0.00000   0.00000   0.00000   3.36127
    Y2        0.00000   0.00000   0.00000   0.00000   0.00000   0.00000
    Z2        0.00000   0.00000   0.00000   0.00000   0.00000   0.00000
    R1        2.89212  -0.00000  -0.00003   0.00000  -0.00003   2.89209
    R2        2.89212  -0.00000  -0.00003  -0.00000  -0.00003   2.89209
    A1        3.14158   0.00000  -0.00000   0.00001   0.00001   3.14159
    A2        3.14156  -0.00000   0.00000  -0.00001  -0.00001   3.14155
    A3        3.14159  -0.00000   0.00000  -0.00000  -0.00000   3.14159
    A4        3.14159   0.00000   0.00000   0.00000   0.00000   3.14159
         Item               Value     Threshold  Converged?
 Maximum Force            0.000005     0.000450     YES
 RMS     Force            0.000003     0.000300     YES
 Maximum Displacement     0.000033     0.001800     YES
 RMS     Displacement     0.000019     0.001200     YES
 Predicted change in Energy=-1.577832D-10
 Optimization completed.
    -- Stationary point found.
                           ----------------------------
                           !   Optimized Parameters   !
                           ! (Angstroms and Degrees)  !
 --------------------------                            --------------------------
 ! Name  Definition              Value          Derivative Info.                !
 --------------------------------------------------------------------------------
 ! X1    R(1,-1)                -1.7787         -DE/DX =    0.0                 !
 ! Y1    R(1,-2)                 0.0            -DE/DX =    0.0                 !
 ! Z1    R(1,-3)                 0.0            -DE/DX =    0.0                 !
 ! X2    R(2,-1)                 1.7787         -DE/DX =    0.0                 !
 ! Y2    R(2,-2)                 0.0            -DE/DX =    0.0                 !
 ! Z2    R(2,-3)                 0.0            -DE/DX =    0.0                 !
 ! R1    R(1,3)                  1.5304         -DE/DX =    0.0                 !
 ! R2    R(2,4)                  1.5304         -DE/DX =    0.0                 !
 ! A1    L(2,1,3,-3,-1)        179.9995         -DE/DX =    0.0                 !
 ! A2    L(1,2,4,-3,-1)        179.998          -DE/DX =    0.0                 !
 ! A3    L(2,1,3,-2,-2)        180.0            -DE/DX =    0.0                 !
 ! A4    L(1,2,4,-2,-2)        180.0            -DE/DX =    0.0                 !
 --------------------------------------------------------------------------------
 Lowest energy point so far.  Saving SCF results.
 Largest change from initial coordinates is atom    4       0.072 Angstoms.
 GradGradGradGradGradGradGradGradGradGradGradGradGradGradGradGradGradGrad

 Leave Link  103 at Mon Apr 21 21:25:14 2025, MaxMem=   536870912 cpu:               0.6 elap:               0.1
 (Enter /home/szhao/Apps/g16/l202.exe)
                          Input orientation:                          
 ---------------------------------------------------------------------
 Center     Atomic      Atomic             Coordinates (Angstroms)
 Number     Number       Type             X           Y           Z
 ---------------------------------------------------------------------
      1         14           0       -1.778705    0.000000    0.000000
      2         14           0        1.778705    0.000000    0.000000
      3          1           0       -3.309151   -0.000015    0.000000
      4          1           0        3.309151    0.000053    0.000000
 ---------------------------------------------------------------------
                    Distance matrix (angstroms):
                    1          2          3          4
     1  Si   0.000000
     2  Si   3.557410   0.000000
     3  H    1.530446   5.087856   0.000000
     4  H    5.087856   1.530446   6.618302   0.000000
 Symmetry turned off by external request.
 Stoichiometry    H2Si2
 Framework group  C*V[C*(HSiSiH)]
 Deg. of freedom     3
 Full point group                 C*V     NOp   4
 Rotational constants (GHZ):           0.0000000           2.5383344           2.5383344
 Leave Link  202 at Mon Apr 21 21:25:14 2025, MaxMem=   536870912 cpu:               0.4 elap:               0.1
 (Enter /home/szhao/Apps/g16/l601.exe)
 Copying SCF densities to generalized density rwf, IOpCl= 1 IROHF=0.

 **********************************************************************

            Population analysis using the SCF density.

 **********************************************************************

 Alpha  occ. eigenvalues --  -67.04416 -67.04416  -5.58833  -5.58832  -3.89925
 Alpha  occ. eigenvalues --   -3.89925  -3.89479  -3.89479  -3.89352  -3.89351
 Alpha  occ. eigenvalues --   -0.55132  -0.54258  -0.35139  -0.29759  -0.18898
 Alpha virt. eigenvalues --   -0.09798  -0.09576  -0.07621   0.02291   0.02976
 Alpha virt. eigenvalues --    0.04539   0.05322   0.05739   0.06048   0.07099
 Alpha virt. eigenvalues --    0.08346   0.09541   0.19531   0.29218   0.29559
 Alpha virt. eigenvalues --    0.30971   0.30977   0.32251   0.32334   0.41507
 Alpha virt. eigenvalues --    0.42560   0.47747   0.54664   0.59736   0.60365
 Alpha virt. eigenvalues --    0.60528   0.61328   0.61633   0.61746   0.62288
 Alpha virt. eigenvalues --    0.62399   0.82954   0.86316   1.19573   1.21200
 Alpha virt. eigenvalues --    1.22113   1.22559   1.23457   1.27999   1.47063
 Alpha virt. eigenvalues --    1.47127   1.47440   1.47497   1.94302   1.94936
 Alpha virt. eigenvalues --    2.59941   2.62046   5.44093   5.49426  11.42501
 Alpha virt. eigenvalues --   11.42523  11.43763  11.43786  11.48282  11.54832
 Alpha virt. eigenvalues --  140.98790 141.06016
  Beta  occ. eigenvalues --  -67.04416 -67.04416  -5.58833  -5.58832  -3.89925
  Beta  occ. eigenvalues --   -3.89925  -3.89479  -3.89479  -3.89352  -3.89351
  Beta  occ. eigenvalues --   -0.55132  -0.54258  -0.35139  -0.29759  -0.18898
  Beta virt. eigenvalues --   -0.09798  -0.09576  -0.07621   0.02291   0.02976
  Beta virt. eigenvalues --    0.04539   0.05322   0.05739   0.06048   0.07099
  Beta virt. eigenvalues --    0.08346   0.09541   0.19531   0.29218   0.29559
  Beta virt. eigenvalues --    0.30971   0.30977   0.32251   0.32334   0.41507
  Beta virt. eigenvalues --    0.42560   0.47747   0.54664   0.59736   0.60365
  Beta virt. eigenvalues --    0.60528   0.61328   0.61633   0.61746   0.62288
  Beta virt. eigenvalues --    0.62399   0.82954   0.86316   1.19573   1.21200
  Beta virt. eigenvalues --    1.22113   1.22559   1.23457   1.27999   1.47063
  Beta virt. eigenvalues --    1.47127   1.47440   1.47497   1.94302   1.94936
  Beta virt. eigenvalues --    2.59941   2.62046   5.44093   5.49426  11.42501
  Beta virt. eigenvalues --   11.42523  11.43763  11.43786  11.48282  11.54832
  Beta virt. eigenvalues --  140.98790 141.06016
          Condensed to atoms (all electrons):
               1          2          3          4
     1  Si  13.728371  -0.091080   0.210888   0.008569
     2  Si  -0.091080  13.728371   0.008569   0.210888
     3  H    0.210888   0.008569   0.923799  -0.000004
     4  H    0.008569   0.210888  -0.000004   0.923799
          Atomic-Atomic Spin Densities.
               1          2          3          4
     1  Si  -0.000000  -0.000000  -0.000000  -0.000000
     2  Si  -0.000000   0.000000   0.000000   0.000000
     3  H   -0.000000   0.000000   0.000000  -0.000000
     4  H   -0.000000   0.000000  -0.000000  -0.000000
 Mulliken charges and spin densities:
               1          2
     1  Si   0.143252  -0.000000
     2  Si   0.143252   0.000000
     3  H   -0.143252   0.000000
     4  H   -0.143252  -0.000000
 Sum of Mulliken charges =  -0.00000   0.00000
 Mulliken charges and spin densities with hydrogens summed into heavy atoms:
               1          2
     1  Si  -0.000000  -0.000000
     2  Si   0.000000   0.000000
 Electronic spatial extent (au):  <R**2>=            462.3339
 Charge=              0.0000 electrons
 Dipole moment (field-independent basis, Debye):
    X=              0.0000    Y=              0.0000    Z=              0.0000  Tot=              0.0000
 Quadrupole moment (field-independent basis, Debye-Ang):
   XX=            -31.4240   YY=            -24.2147   ZZ=            -35.5240
   XY=             -0.0002   XZ=              0.0000   YZ=             -0.0031
 Traceless Quadrupole moment (field-independent basis, Debye-Ang):
   XX=             -1.0365   YY=              6.1729   ZZ=             -5.1364
   XY=             -0.0002   XZ=              0.0000   YZ=             -0.0031
 Octapole moment (field-independent basis, Debye-Ang**2):
  XXX=              0.0000  YYY=             -0.0001  ZZZ=             -0.0000  XYY=              0.0000
  XXY=             -0.0005  XXZ=              0.0000  XZZ=              0.0000  YZZ=             -0.0000
  YYZ=             -0.0000  XYZ=              0.0000
 Hexadecapole moment (field-independent basis, Debye-Ang**3):
 XXXX=           -819.9890 YYYY=            -38.7202 ZZZZ=            -95.1869 XXXY=             -0.0039
 XXXZ=              0.0000 YYYX=             -0.0008 YYYZ=             -0.0076 ZZZX=              0.0000
 ZZZY=             -0.0076 XXYY=           -103.6539 XXZZ=           -144.4574 YYZZ=            -22.3177
 XXYZ=             -0.0110 YYXZ=              0.0000 ZZXY=             -0.0003
 N-N= 4.182933242530D+01 E-N=-1.465030787275D+03  KE= 5.789931450060D+02
                          Isotropic Fermi Contact Couplings
        Atom                 a.u.       MegaHertz       Gauss      10(-4) cm-1
     1  Si(29)             0.00000      -0.00000      -0.00000      -0.00000
     2  Si(29)            -0.00000       0.00000       0.00000       0.00000
     3  H(1)               0.00000       0.00000       0.00000       0.00000
     4  H(1)              -0.00000      -0.00000      -0.00000      -0.00000
 --------------------------------------------------------
       Center         ----  Spin Dipole Couplings  ----
                      3XX-RR        3YY-RR        3ZZ-RR
 --------------------------------------------------------
     1   Atom        0.000000      0.000000     -0.000000
     2   Atom       -0.000000     -0.000000      0.000000
     3   Atom       -0.000000      0.000000     -0.000000
     4   Atom        0.000000     -0.000000      0.000000
 --------------------------------------------------------
                        XY            XZ            YZ
 --------------------------------------------------------
     1   Atom        0.000000      0.000000     -0.000000
     2   Atom        0.000000     -0.000000      0.000000
     3   Atom       -0.000000      0.000000     -0.000000
     4   Atom        0.000000      0.000000      0.000000
 --------------------------------------------------------


 ---------------------------------------------------------------------------------
              Anisotropic Spin Dipole Couplings in Principal Axis System
 ---------------------------------------------------------------------------------

       Atom             a.u.   MegaHertz   Gauss  10(-4) cm-1        Axes

              Baa    -0.0000     0.000     0.000     0.000 -0.0000  0.0002  1.0000
     1 Si(29) Bbb     0.0000    -0.000    -0.000    -0.000  1.0000 -0.0000  0.0000
              Bcc     0.0000    -0.000    -0.000    -0.000  0.0000  1.0000 -0.0002
 
              Baa    -0.0000     0.000     0.000     0.000 -0.0000  1.0000 -0.0003
     2 Si(29) Bbb    -0.0000     0.000     0.000     0.000  1.0000  0.0000  0.0000
              Bcc     0.0000    -0.000    -0.000    -0.000 -0.0000  0.0003  1.0000
 
              Baa    -0.0000    -0.000    -0.000    -0.000  1.0000  0.0000 -0.0000
     3 H(1)   Bbb    -0.0000    -0.000    -0.000    -0.000  0.0000  0.0002  1.0000
              Bcc     0.0000     0.000     0.000     0.000 -0.0000  1.0000 -0.0002
 
              Baa    -0.0000    -0.000    -0.000    -0.000 -0.0000  1.0000 -0.0003
     4 H(1)   Bbb     0.0000     0.000     0.000     0.000 -0.0000  0.0003  1.0000
              Bcc     0.0000     0.000     0.000     0.000  1.0000  0.0000  0.0000
 

 ---------------------------------------------------------------------------------

 No NMR shielding tensors so no spin-rotation constants.
 Leave Link  601 at Mon Apr 21 21:25:15 2025, MaxMem=   536870912 cpu:               1.9 elap:               0.3
 (Enter /home/szhao/Apps/g16/l9999.exe)
 1\1\GINC-NODE05\FOpt\UM062X\6-311+G(d,p)\H2Si2\SZHAO\21-Apr-2025\0\\#p
  opt UM062X/6-311+G** nosymm int=superfine\\Title Card Required\\0,1\S
 i,-1.778705,0.,0.\Si,1.778705,0.,0.\H,-3.3091508852,-0.000014682,0.000
 0000317\H,3.3091509016,0.0000530205,0.0000000003\\Version=ES64L-G16Rev
 A.03\HF=-579.8979825\S2=0.\S2-1=0.\S2A=0.\RMSD=6.818e-09\RMSF=2.032e-0
 6\Dipole=0.0000002,0.0000021,0.\Quadrupole=-0.7705798,4.5893862,-3.818
 8064,-0.0001236,0.,-0.0022742\PG=C*V [C*(H1Si1Si1H1)]\\@


 You never know when you're making a memory.
                        -- Rickie Lee Jones
 Job cpu time:       0 days  0 hours  2 minutes 51.2 seconds.
 Elapsed time:       0 days  0 hours  0 minutes 26.7 seconds.
 File lengths (MBytes):  RWF=     22 Int=      0 D2E=      0 Chk=      2 Scr=      2
 Normal termination of Gaussian 16 at Mon Apr 21 21:25:16 2025.
