Title Card Required                                                     
FOpt      UM062X                                                      6-311+G(d,p)        
Number of atoms                            I                6
Info1-9                                    I   N=           9
          15          15           0           0           0         110
           2          18        -502
Full Title                                 C   N=           2
Title Card Required     
Route                                      C   N=           4
#p opt UM062X/6-311+G** nosymm int=superfine    
Charge                                     I                1
Multiplicity                               I                2
Number of electrons                        I               15
Number of alpha electrons                  I                8
Number of beta electrons                   I                7
Number of basis functions                  I               68
Number of independent functions            I               68
Number of point charges in /Mol/           I                0
Number of translation vectors              I                0
Atomic numbers                             I   N=           6
           6           6           1           1           1           1
Nuclear charges                            R   N=           6
  6.00000000E+00  6.00000000E+00  1.00000000E+00  1.00000000E+00  1.00000000E+00
  1.00000000E+00
Current cartesian coordinates              R   N=          18
 -1.83009022E+00  0.00000000E+00  0.00000000E+00  1.83009022E+00  0.00000000E+00
  0.00000000E+00 -2.72372705E+00 -1.84426147E+00  1.46747420E-07 -2.72381582E+00
  1.84407034E+00  1.45783208E-07  2.72372703E+00  1.84426166E+00  1.36621720E-07
  2.72381580E+00 -1.84407053E+00  1.35654260E-07
Number of symbols in /Mol/                 I                0
Force Field                                I                0
Atom Types                                 C   N=           6
                                                            
            
Int Atom Types                             I   N=           6
           0           0           0           0           0           0
MM charges                                 R   N=           6
  0.00000000E+00  0.00000000E+00  0.00000000E+00  0.00000000E+00  0.00000000E+00
  0.00000000E+00
Integer atomic weights                     I   N=           6
          12          12           1           1           1           1
Real atomic weights                        R   N=           6
  1.20000000E+01  1.20000000E+01  1.00782504E+00  1.00782504E+00  1.00782504E+00
  1.00782504E+00
Atom fragment info                         I   N=           6
           0           0           0           0           0           0
Atom residue num                           I   N=           6
           0           0           0           0           0           0
Nuclear spins                              I   N=           6
           0           0           1           1           1           1
Nuclear ZEff                               R   N=           6
 -3.60000000E+00 -3.60000000E+00 -1.00000000E+00 -1.00000000E+00 -1.00000000E+00
 -1.00000000E+00
Nuclear ZNuc                               R   N=           6
  6.00000000E+00  6.00000000E+00  1.00000000E+00  1.00000000E+00  1.00000000E+00
  1.00000000E+00
Nuclear QMom                               R   N=           6
  0.00000000E+00  0.00000000E+00  0.00000000E+00  0.00000000E+00  0.00000000E+00
  0.00000000E+00
Nuclear GFac                               R   N=           6
  0.00000000E+00  0.00000000E+00  2.79284600E+00  2.79284600E+00  2.79284600E+00
  2.79284600E+00
MicOpt                                     I   N=           6
          -2          -2          -1          -1          -1          -1
Number of residues                         I                0
Number of secondary structures             I                0
Redundant internal dimensions              I   N=           4
          20          10           6           4
Redundant internal coordinate indices      I   N=          80
           1          -1           0           0           1          -2
           0           0           1          -3           0           0
           2          -1           0           0           2          -2
           0           0           2          -3           0           0
           1           3           0           0           1           4
           0           0           2           5           0           0
           2           6           0           0           2           1
           3           0           2           1           4           0
           3           1           4           0           1           2
           5           0           1           2           6           0
           5           2           6           0           3           1
           2           5           3           1           2           6
           4           1           2           5           4           1
           2           6
Redundant internal coordinates             R   N=          20
 -1.83009022E+00  0.00000000E+00  0.00000000E+00  1.83009022E+00  0.00000000E+00
  0.00000000E+00  2.04936262E+00  2.04922933E+00  2.04936278E+00  2.04922949E+00
  2.02200769E+00  2.02208734E+00  2.23909028E+00  2.02200764E+00  2.02208729E+00
  2.23909038E+00 -3.14159250E+00  0.00000000E+00 -0.00000000E+00  3.14159250E+00
ZRed-IntVec                                I   N=          20
          -1          -1          -1          -1          -1          -1
           0           0           0           0           0           0
           0           0           0           0           0           0
           0           0
ZRed-FPVec                                 R   N=          20
  0.00000000E+00  0.00000000E+00  0.00000000E+00  0.00000000E+00  0.00000000E+00
  0.00000000E+00  0.00000000E+00  0.00000000E+00  0.00000000E+00  0.00000000E+00
  0.00000000E+00  0.00000000E+00  0.00000000E+00  0.00000000E+00  0.00000000E+00
  0.00000000E+00  0.00000000E+00  0.00000000E+00  0.00000000E+00  0.00000000E+00
ZRed-Constraint1                           R   N=          20
 -1.83009022E+00  0.00000000E+00  0.00000000E+00  1.83009022E+00  0.00000000E+00
  0.00000000E+00  2.27477187E+00  2.27580356E+00  2.27477187E+00  2.27580356E+00
  2.25568561E+00  2.25049974E+00  1.77699996E+00  2.25568561E+00  2.25049974E+00
  1.77699996E+00  3.14159265E+00  0.00000000E+00  0.00000000E+00  3.14159265E+00
ZRed-Constraint2                           R   N=          20
 -1.83009022E+00  0.00000000E+00  0.00000000E+00  1.83009022E+00  0.00000000E+00
  0.00000000E+00  0.00000000E+00  0.00000000E+00  0.00000000E+00  0.00000000E+00
  0.00000000E+00  0.00000000E+00  0.00000000E+00  0.00000000E+00  0.00000000E+00
  0.00000000E+00  0.00000000E+00  0.00000000E+00  0.00000000E+00  0.00000000E+00
Number of contracted shells                I               28
Number of primitive shells                 I               50
Pure/Cartesian d shells                    I                0
Pure/Cartesian f shells                    I                0
Highest angular momentum                   I                2
Largest degree of contraction              I                6
Shell types                                I   N=          28
           0          -1          -1          -1          -1          -2
           0          -1          -1          -1          -1          -2
           0           0           0           1           0           0
           0           1           0           0           0           1
           0           0           0           1
Number of primitives per shell             I   N=          28
           6           3           1           1           1           1
           6           3           1           1           1           1
           3           1           1           1           3           1
           1           1           3           1           1           1
           3           1           1           1
Shell to atom map                          I   N=          28
           1           1           1           1           1           1
           2           2           2           2           2           2
           3           3           3           3           4           4
           4           4           5           5           5           5
           6           6           6           6
Primitive exponents                        R   N=          50
  4.56324000E+03  6.82024000E+02  1.54973000E+02  4.44553000E+01  1.30290000E+01
  1.82773000E+00  2.09642000E+01  4.80331000E+00  1.45933000E+00  4.83456000E-01
  1.45585000E-01  4.38000000E-02  6.26000000E-01  4.56324000E+03  6.82024000E+02
  1.54973000E+02  4.44553000E+01  1.30290000E+01  1.82773000E+00  2.09642000E+01
  4.80331000E+00  1.45933000E+00  4.83456000E-01  1.45585000E-01  4.38000000E-02
  6.26000000E-01  3.38650000E+01  5.09479000E+00  1.15879000E+00  3.25840000E-01
  1.02741000E-01  7.50000000E-01  3.38650000E+01  5.09479000E+00  1.15879000E+00
  3.25840000E-01  1.02741000E-01  7.50000000E-01  3.38650000E+01  5.09479000E+00
  1.15879000E+00  3.25840000E-01  1.02741000E-01  7.50000000E-01  3.38650000E+01
  5.09479000E+00  1.15879000E+00  3.25840000E-01  1.02741000E-01  7.50000000E-01
Contraction coefficients                   R   N=          50
  1.96665025E-03  1.52306019E-02  7.61269097E-02  2.60801033E-01  6.16462078E-01
  2.21006028E-01  1.14660081E-01  9.19999648E-01 -3.03068213E-03  1.00000000E+00
  1.00000000E+00  1.00000000E+00  1.00000000E+00  1.96665025E-03  1.52306019E-02
  7.61269097E-02  2.60801033E-01  6.16462078E-01  2.21006028E-01  1.14660081E-01
  9.19999648E-01 -3.03068213E-03  1.00000000E+00  1.00000000E+00  1.00000000E+00
  1.00000000E+00  2.54938145E-02  1.90373109E-01  8.52161486E-01  1.00000000E+00
  1.00000000E+00  1.00000000E+00  2.54938145E-02  1.90373109E-01  8.52161486E-01
  1.00000000E+00  1.00000000E+00  1.00000000E+00  2.54938145E-02  1.90373109E-01
  8.52161486E-01  1.00000000E+00  1.00000000E+00  1.00000000E+00  2.54938145E-02
  1.90373109E-01  8.52161486E-01  1.00000000E+00  1.00000000E+00  1.00000000E+00
P(S=P) Contraction coefficients            R   N=          50
  0.00000000E+00  0.00000000E+00  0.00000000E+00  0.00000000E+00  0.00000000E+00
  0.00000000E+00  4.02486927E-02  2.37593957E-01  8.15853851E-01  1.00000000E+00
  1.00000000E+00  1.00000000E+00  0.00000000E+00  0.00000000E+00  0.00000000E+00
  0.00000000E+00  0.00000000E+00  0.00000000E+00  0.00000000E+00  4.02486927E-02
  2.37593957E-01  8.15853851E-01  1.00000000E+00  1.00000000E+00  1.00000000E+00
  0.00000000E+00  0.00000000E+00  0.00000000E+00  0.00000000E+00  0.00000000E+00
  0.00000000E+00  0.00000000E+00  0.00000000E+00  0.00000000E+00  0.00000000E+00
  0.00000000E+00  0.00000000E+00  0.00000000E+00  0.00000000E+00  0.00000000E+00
  0.00000000E+00  0.00000000E+00  0.00000000E+00  0.00000000E+00  0.00000000E+00
  0.00000000E+00  0.00000000E+00  0.00000000E+00  0.00000000E+00  0.00000000E+00
Coordinates of each shell                  R   N=          84
 -1.83009022E+00  0.00000000E+00  0.00000000E+00 -1.83009022E+00  0.00000000E+00
  0.00000000E+00 -1.83009022E+00  0.00000000E+00  0.00000000E+00 -1.83009022E+00
  0.00000000E+00  0.00000000E+00 -1.83009022E+00  0.00000000E+00  0.00000000E+00
 -1.83009022E+00  0.00000000E+00  0.00000000E+00  1.83009022E+00  0.00000000E+00
  0.00000000E+00  1.83009022E+00  0.00000000E+00  0.00000000E+00  1.83009022E+00
  0.00000000E+00  0.00000000E+00  1.83009022E+00  0.00000000E+00  0.00000000E+00
  1.83009022E+00  0.00000000E+00  0.00000000E+00  1.83009022E+00  0.00000000E+00
  0.00000000E+00 -2.72372705E+00 -1.84426147E+00  1.46747420E-07 -2.72372705E+00
 -1.84426147E+00  1.46747420E-07 -2.72372705E+00 -1.84426147E+00  1.46747420E-07
 -2.72372705E+00 -1.84426147E+00  1.46747420E-07 -2.72381582E+00  1.84407034E+00
  1.45783208E-07 -2.72381582E+00  1.84407034E+00  1.45783208E-07 -2.72381582E+00
  1.84407034E+00  1.45783208E-07 -2.72381582E+00  1.84407034E+00  1.45783208E-07
  2.72372703E+00  1.84426166E+00  1.36621720E-07  2.72372703E+00  1.84426166E+00
  1.36621720E-07  2.72372703E+00  1.84426166E+00  1.36621720E-07  2.72372703E+00
  1.84426166E+00  1.36621720E-07  2.72381580E+00 -1.84407053E+00  1.35654260E-07
  2.72381580E+00 -1.84407053E+00  1.35654260E-07  2.72381580E+00 -1.84407053E+00
  1.35654260E-07  2.72381580E+00 -1.84407053E+00  1.35654260E-07
Num ILSW                                   I              100
ILSW                                       I   N=         100
           1           0           0           0           2           0
           0           0           0           0        4336          -1
           7           0           0           0           2           0
           0           0           0           0           1           0
           1           1           0           0           0           0
           0           0      100000           0          -1           0
           0           0           0           0           0           0
           0           0           0           1           0           0
           0 -2000000000           1           0           0           0
           0           0           4          52           0           0
           0           0          55           0           0           0
           0           0           0           6           0           1
           0           0           0           0           0           0
           0           0           0           0           0           0
           0           0           0           0           0           0
           0           0           0           0           0           0
           0           0           0           0
Num RLSW                                   I               52
RLSW                                       R   N=          52
  1.00000000E+00  1.00000000E+00  1.00000000E+00  1.00000000E+00  5.40000000E-01
  0.00000000E+00  0.00000000E+00  1.00000000E+00  0.00000000E+00  0.00000000E+00
  0.00000000E+00  0.00000000E+00  1.00000000E+00  0.00000000E+00  0.00000000E+00
  0.00000000E+00  0.00000000E+00  1.00000000E+00  0.00000000E+00  0.00000000E+00
  0.00000000E+00  0.00000000E+00  1.00000000E+00  0.00000000E+00  0.00000000E+00
  0.00000000E+00  0.00000000E+00  1.00000000E+00  0.00000000E+00  0.00000000E+00
  0.00000000E+00  0.00000000E+00  1.00000000E+00  0.00000000E+00  0.00000000E+00
  0.00000000E+00  0.00000000E+00  0.00000000E+00  1.00000000E+00  1.00000000E+00
  0.00000000E+00  1.00000000E+00  0.00000000E+00  0.00000000E+00  0.00000000E+00
  0.00000000E+00  0.00000000E+00  0.00000000E+00  0.00000000E+00  0.00000000E+00
  0.00000000E+00  0.00000000E+00
MxBond                                     I                3
NBond                                      I   N=           6
           3           3           1           1           1           1
IBond                                      I   N=          18
           2           3           4           1           5           6
           1           0           0           1           0           0
           2           0           0           2           0           0
RBond                                      R   N=          18
  1.00000000E-01  1.00000000E+00  1.00000000E+00  1.00000000E-01  1.00000000E+00
  1.00000000E+00  1.00000000E+00  0.00000000E+00  0.00000000E+00  1.00000000E+00
  0.00000000E+00  0.00000000E+00  1.00000000E+00  0.00000000E+00  0.00000000E+00
  1.00000000E+00  0.00000000E+00  0.00000000E+00
Virial Ratio                               R      2.010106510949538E+00
SCF Energy                                 R     -7.808369315190069E+01
Total Energy                               R     -7.808369315190069E+01
S**2                                       R      7.522271494497694E-01
S**2 after annihilation                    R      7.500037782986022E-01
RMS Force                                  R      1.011687925600646E-04
RMS Density                                R      5.491341168663220E-09
Job Status                                 I                1
Nuclear derivative order                   I                1
External E-field                           R   N=          35
  0.00000000E+00  0.00000000E+00  0.00000000E+00  0.00000000E+00  0.00000000E+00
  0.00000000E+00  0.00000000E+00  0.00000000E+00  0.00000000E+00  0.00000000E+00
  0.00000000E+00  0.00000000E+00  0.00000000E+00  0.00000000E+00  0.00000000E+00
  0.00000000E+00  0.00000000E+00  0.00000000E+00  0.00000000E+00  0.00000000E+00
  0.00000000E+00  0.00000000E+00  0.00000000E+00  0.00000000E+00  0.00000000E+00
  0.00000000E+00  0.00000000E+00  0.00000000E+00  0.00000000E+00  0.00000000E+00
  0.00000000E+00  0.00000000E+00  0.00000000E+00  0.00000000E+00  0.00000000E+00
IOpCl                                      I                1
IROHF                                      I                0
Alpha Orbital Energies                     R   N=          68
 -1.09202712E+01 -1.09200929E+01 -1.07832381E+00 -9.98225985E-01 -8.10556549E-01
 -7.70896009E-01 -6.89618680E-01 -5.74126898E-01 -3.57989233E-01 -2.16907393E-01
 -1.42300258E-01 -1.11122916E-01 -9.78645109E-02 -8.53486775E-02 -7.41486920E-02
 -7.26108906E-02 -4.74401702E-02 -4.26797606E-02 -2.38375626E-02 -8.52565137E-03
  2.27519985E-02  9.47503022E-02  1.81060002E-01  2.30669691E-01  2.45821983E-01
  3.26334663E-01  3.74104515E-01  3.75662903E-01  4.11828656E-01  4.49034670E-01
  4.55535629E-01  4.78362611E-01  5.34262696E-01  5.61617801E-01  7.93999170E-01
  8.20882364E-01  8.32590742E-01  9.53502909E-01  1.14585911E+00  1.17254716E+00
  1.21357088E+00  1.22827953E+00  1.26526013E+00  1.37616551E+00  1.46868911E+00
  1.53286419E+00  1.58857876E+00  1.63907650E+00  1.69637715E+00  1.70053953E+00
  1.78050752E+00  1.78877318E+00  2.11613961E+00  2.25998732E+00  2.30999277E+00
  2.31949550E+00  2.36647990E+00  2.37865700E+00  2.43142623E+00  2.43678203E+00
  2.44771204E+00  2.48308765E+00  2.48853320E+00  3.22481747E+00  3.42809601E+00
  3.47140129E+00  2.34866126E+01  2.35240302E+01
Beta Orbital Energies                      R   N=          68
 -1.09179479E+01 -1.09178334E+01 -1.04658200E+00 -9.76311641E-01 -8.04633883E-01
 -7.67380485E-01 -6.75134317E-01 -3.61612029E-01 -2.72876161E-01 -1.92786525E-01
 -1.56386150E-01 -1.14714755E-01 -9.68114369E-02 -8.12443903E-02 -7.75478706E-02
 -7.36090940E-02 -4.30726707E-02 -3.96461611E-02 -1.94981032E-02 -2.51234275E-03
  1.52999787E-02  1.01389581E-01  1.80331402E-01  2.30724845E-01  2.50662122E-01
  3.37352205E-01  3.61184394E-01  3.88297462E-01  4.22140285E-01  4.48875073E-01
  4.63963058E-01  4.92009000E-01  5.28344377E-01  5.60384198E-01  8.25904612E-01
  8.49071759E-01  8.65961073E-01  9.87316050E-01  1.15558421E+00  1.18841027E+00
  1.23296689E+00  1.26549691E+00  1.29206866E+00  1.39358338E+00  1.48333628E+00
  1.55167685E+00  1.62415939E+00  1.65192707E+00  1.70835498E+00  1.71904261E+00
  1.79814964E+00  1.80857243E+00  2.15357919E+00  2.27523313E+00  2.32771222E+00
  2.34002620E+00  2.40998230E+00  2.41761975E+00  2.46167404E+00  2.46638403E+00
  2.47744883E+00  2.49648944E+00  2.52540234E+00  3.27997240E+00  3.47559944E+00
  3.51898130E+00  2.34990225E+01  2.35367103E+01
Alpha MO coefficients                      R   N=        4624
  3.99005162E-01  3.28024920E-01  5.86321216E-04 -1.35636884E-08 -1.35546921E-10
  7.98571231E-03 -1.35592760E-03  7.02154677E-07  2.98525348E-10 -2.00208975E-03
  1.33401945E-05  4.24907125E-08 -3.84005880E-11 -5.32807238E-04  4.06109468E-04
 -3.22105758E-07 -3.59399410E-11 -8.11095703E-04 -8.92741435E-11 -5.72064469E-13
 -9.09135314E-04 -3.55953831E-07  3.99056092E-01  3.28066795E-01 -5.86401989E-04
  1.35652641E-08 -1.30085401E-10  7.98673698E-03  1.35616185E-03 -7.02237451E-07
  2.79115512E-10 -2.00253291E-03 -1.32770578E-05 -4.24874489E-08 -3.69476494E-11
 -5.32650611E-04 -4.06242225E-04  3.22117164E-07 -3.05535037E-11 -8.11186669E-04
  8.46605554E-11  5.77268951E-13 -9.09276954E-04 -3.55996410E-07  1.45196369E-04
 -2.25562580E-03  1.46590324E-03 -6.61851260E-04 -1.25890775E-03  1.03968031E-10
  1.45048744E-04 -2.25694070E-03  1.46683758E-03 -6.62208189E-04  1.25939301E-03
  1.03361067E-10  1.45210143E-04 -2.25589476E-03  1.46610976E-03  6.61928509E-04
  1.25907151E-03  9.64935697E-11  1.45062497E-04 -2.25720981E-03  1.46704419E-03
  6.62285481E-04 -1.25955682E-03  9.58805136E-11  3.99073054E-01  3.28118515E-01
  6.33151760E-04 -1.35064671E-08 -1.38189598E-10  8.03942293E-03 -1.84231367E-03
  6.74447104E-07  3.00041319E-10 -3.46829675E-03 -4.91969968E-04 -2.75678149E-08
 -6.05686263E-11  1.20513508E-03  1.03488123E-03 -9.32248621E-08 -7.84857897E-11
 -7.15400552E-04 -8.77229113E-11 -5.28698534E-13 -1.11192851E-03 -3.41132183E-07
 -3.99022127E-01 -3.28076647E-01  6.33076938E-04 -1.35045617E-08  1.32917388E-10
 -8.03840231E-03 -1.84213989E-03  6.74354090E-07 -2.80069062E-10  3.46804122E-03
 -4.91971693E-04 -2.75732406E-08  5.67590937E-11 -1.20520346E-03  1.03482930E-03
 -9.31827393E-08  7.57880029E-11  7.15296736E-04 -8.24680714E-11 -5.33091297E-13
  1.11181231E-03  3.41085831E-07  1.07060381E-04 -2.11656965E-03  1.62475101E-03
 -6.07557104E-04 -1.28629225E-03  1.08039835E-10  1.06885041E-04 -2.11770754E-03
  1.62546612E-03 -6.07905947E-04  1.28675885E-03  1.07411384E-10 -1.07041972E-04
  2.11628082E-03 -1.62456339E-03 -6.07472388E-04 -1.28613121E-03 -1.00292269E-10
 -1.06866652E-04  2.11741854E-03 -1.62527838E-03 -6.07821185E-04  1.28659775E-03
 -9.96569369E-11 -8.10167313E-02 -1.31950866E-01 -2.07694712E-04  6.18118708E-06
  3.23321527E-09  3.63505482E-01  1.02525783E-02  6.10059162E-06  3.81162596E-09
  2.41215665E-01  8.73579345E-03  1.89613625E-06  2.29179601E-09  7.20084119E-04
 -6.49093450E-03  1.58068304E-06  3.43810253E-10 -5.70207432E-03 -8.74459181E-11
 -1.96637622E-12  1.99725657E-03 -9.96668810E-07 -8.10167118E-02 -1.31950834E-01
  2.07677425E-04 -6.18114825E-06  3.08257933E-09  3.63505400E-01 -1.02525997E-02
 -6.10054972E-06  3.61054223E-09  2.41215617E-01 -8.73580156E-03 -1.89611638E-06
  2.21542408E-09  7.20076072E-04  6.49093538E-03 -1.58068124E-06  2.71083732E-10
 -5.70207390E-03  9.20523629E-11  1.97525993E-12  1.99725856E-03 -9.96668953E-07
  6.61561292E-02  7.30225680E-02 -8.21599985E-03  5.29351664E-03  1.15721705E-02
 -7.75985856E-10  6.61681753E-02  7.30344654E-02 -8.21995948E-03  5.29548708E-03
 -1.15731811E-02 -7.70036521E-10  6.61561024E-02  7.30225415E-02 -8.21599477E-03
 -5.29351480E-03 -1.15721669E-02 -7.23617558E-10  6.61681484E-02  7.30344388E-02
 -8.21995438E-03 -5.29548524E-03  1.15731775E-02 -7.17640557E-10 -7.75449281E-02
 -1.26732666E-01 -5.04552170E-02  1.14377647E-05  4.39006778E-09  3.55517570E-01
 -7.52727433E-02  1.37762663E-05  5.83256128E-09  2.55326846E-01 -2.06343810E-02
  5.13176046E-06  2.60967271E-09 -3.32802791E-02 -1.45695278E-02  1.81072455E-07
  7.74662730E-10 -3.18665256E-03 -5.50423485E-10 -4.08954494E-12 -1.07073715E-02
 -1.77829632E-06  7.75449487E-02  1.26732700E-01 -5.04552031E-02  1.14377176E-05
 -4.05613505E-09 -3.55517670E-01 -7.52727233E-02  1.37762119E-05 -5.35581934E-09
 -2.55326924E-01 -2.06343720E-02  5.13173546E-06 -2.40365919E-09  3.32802800E-02
 -1.45695296E-02  1.81069874E-07 -7.51704002E-10  3.18665389E-03 -5.41534410E-10
 -4.12318633E-12  1.07073707E-02  1.77829284E-06  8.21117355E-02  9.46058884E-02
 -3.01096816E-03  3.73607534E-03  1.28527645E-02 -8.31810648E-10  8.21325068E-02
  9.46257007E-02 -3.01271145E-03  3.73826404E-03 -1.28545882E-02 -8.24856006E-10
 -8.21117418E-02 -9.46059011E-02  3.01096862E-03  3.73607637E-03  1.28527665E-02
  7.81935134E-10 -8.21325130E-02 -9.46257133E-02  3.01271190E-03  3.73826507E-03
 -1.28545903E-02  7.74931702E-10  4.83729127E-06  8.15983315E-06 -1.61705167E-06
  1.58543279E-01 -3.20602410E-11 -2.39046903E-05  1.23195775E-08  2.32279464E-01
 -4.57837231E-11 -2.92146127E-05 -2.28035657E-06  1.40770366E-01 -2.81166861E-11
  5.48179422E-07  5.43075417E-07  3.78363062E-03 -2.22128725E-12 -4.06510361E-08
  4.05850153E-12  2.44458392E-09  1.49169985E-06 -8.39039206E-03 -4.83727607E-06
 -8.15980722E-06 -1.61703223E-06  1.58543208E-01  3.22312109E-11  2.39046130E-05
  1.23465247E-08  2.32279368E-01  4.60177610E-11  2.92145122E-05 -2.28034669E-06
  1.40770315E-01  2.82438262E-11 -5.48183337E-07  5.43069379E-07  3.78362866E-03
  2.22445412E-12  4.06494040E-08  4.07082244E-12  2.28087330E-09 -1.49170942E-06
  8.39038195E-03 -1.02457698E-01 -1.30505221E-01 -5.52201517E-03 -7.71250984E-03
 -9.72236999E-03  1.20892272E-09  1.02449231E-01  1.30488004E-01  5.51957870E-03
  7.71321173E-03 -9.71979200E-03 -1.20269347E-09  1.02457648E-01  1.30505164E-01
  5.52201128E-03 -7.71250531E-03 -9.72236655E-03 -1.12486007E-09 -1.02449182E-01
 -1.30487947E-01 -5.51957480E-03  7.71320720E-03 -9.71978856E-03  1.11862278E-09
  2.50593573E-06  4.36555905E-06 -2.90550124E-05  1.63021445E-01 -4.81551983E-11
 -1.26577969E-05 -4.39710493E-05  2.34487070E-01 -7.23832907E-11 -2.14404305E-05
 -2.53052954E-05  1.48537836E-01 -4.57141238E-11 -5.76577154E-08  1.04763833E-06
  1.28020620E-02 -5.51145924E-13  7.50617196E-08  1.50663431E-12  2.36582387E-09
 -2.04743567E-06 -2.01023370E-02  2.50592223E-06  4.36553593E-06  2.90550319E-05
 -1.63021504E-01 -4.84529821E-11 -1.26577266E-05  4.39710840E-05 -2.34487164E-01
 -7.27906176E-11 -2.14403378E-05  2.53053186E-05 -1.48537901E-01 -4.59744309E-11
 -5.76691023E-08 -1.04762919E-06 -1.28020658E-02 -5.61954464E-13  7.50627971E-08
 -1.54328446E-12 -2.17971145E-09 -2.04743135E-06 -2.01023374E-02 -1.09809417E-01
 -1.47809347E-01 -1.14663758E-02 -8.62750003E-03 -9.81944235E-03  1.21505698E-09
  1.09824229E-01  1.47823918E-01  1.14670665E-02  8.62733104E-03 -9.81966936E-03
 -1.21056437E-09 -1.09809454E-01 -1.47809403E-01 -1.14663787E-02  8.62750203E-03
  9.81944743E-03  1.12924580E-09  1.09824266E-01  1.47823974E-01  1.14670694E-02
 -8.62733304E-03  9.81967445E-03 -1.12472274E-09 -7.21767791E-03 -1.23940319E-02
  1.81024934E-01  2.49672749E-05 -1.24950776E-08  3.25260621E-02  2.93050136E-01
  3.85876406E-05 -1.94696049E-08  6.96672784E-02  1.88826729E-01  2.57587559E-05
 -1.28278795E-08 -6.48004541E-04 -8.71958690E-03  1.04815939E-06 -2.55372430E-11
 -1.26748818E-03  1.45053023E-10  4.31412612E-12  2.00626709E-02 -1.79647100E-06
 -7.21767222E-03 -1.23940222E-02 -1.81024935E-01 -2.49672828E-05 -1.16225802E-08
  3.25260327E-02 -2.93050137E-01 -3.85876455E-05 -1.82278711E-08  6.96672349E-02
 -1.88826730E-01 -2.57587501E-05 -1.19017505E-08 -6.48003230E-04  8.71958538E-03
 -1.04815761E-06 -1.10592635E-11 -1.26748937E-03 -6.83179266E-11 -4.30991702E-12
  2.00626734E-02 -1.79647079E-06 -5.93284419E-02 -9.06335522E-02 -2.25854833E-02
  4.93984884E-03 -8.55942191E-03 -1.06765089E-11 -5.93022685E-02 -9.05902187E-02
 -2.25754226E-02  4.94218527E-03  8.55768749E-03 -1.56696047E-11 -5.93284429E-02
 -9.06335588E-02 -2.25854847E-02 -4.93984829E-03  8.55942210E-03 -4.83425847E-12
 -5.93022695E-02 -9.05902253E-02 -2.25754239E-02 -4.94218472E-03 -8.55768767E-03
 -9.81205604E-12  2.86796602E-09  4.91183732E-09  1.51378292E-08  6.05790609E-11
  1.86988307E-01 -1.65008733E-08  2.42653514E-08  9.31856005E-11  3.03345737E-01
 -1.43770497E-08  1.86863304E-08  5.07686884E-11  2.87609135E-01  2.49005164E-09
  1.19505240E-09 -5.98322365E-12  6.17226887E-03 -8.99809738E-10  1.49289605E-02
  6.07303159E-07  4.31688537E-11 -3.02946313E-12  2.49022832E-09  4.26207715E-09
 -1.53098952E-08 -6.07668357E-11  1.86988312E-01 -1.44093672E-08 -2.43992236E-08
 -9.35129336E-11  3.03345742E-01 -1.20410869E-08 -1.90587052E-08 -5.11197451E-11
  2.87609141E-01  7.24887975E-10 -6.19454225E-10  5.95970612E-12  6.17226910E-03
 -8.19875326E-10 -1.49289618E-02 -6.07299191E-07  5.63456623E-11 -3.01645562E-12
  2.40608605E-09  9.49691536E-10 -1.06191590E-09  1.14258105E-09  5.30811516E-11
  1.17878569E-02  2.42659470E-09  1.01152046E-09 -1.01670326E-09  1.14530004E-09
 -5.04598149E-11  1.17888440E-02  1.96698298E-09  3.52693579E-10 -1.02248354E-09
 -1.11300387E-09  1.42060369E-11  1.17878563E-02  1.98747873E-09  4.14508148E-10
 -9.77301353E-10 -1.11571358E-09 -1.68728052E-11  1.17888435E-02  5.71522475E-09
  9.75416760E-09  1.66279282E-10  4.49065748E-11  2.07841257E-01 -3.04725089E-08
  1.23705683E-09  7.03048081E-11  3.30326783E-01 -4.82621003E-08  3.16104050E-09
  9.78768895E-11  3.65708364E-01  1.88232316E-08  7.50781146E-09  1.84092799E-11
  5.88250654E-02 -1.52560284E-09 -1.51783391E-02  6.18624189E-07 -5.68358370E-10
  3.29171472E-12 -5.50250232E-09 -9.38035092E-09 -8.61341616E-10  4.50728131E-11
 -2.07841257E-01  2.92446700E-08 -5.53811945E-10  7.06033265E-11 -3.30326779E-01
  4.61786398E-08  1.42440722E-09  9.80161707E-11 -3.65708360E-01 -1.90558611E-08
  7.26930561E-09  1.80713133E-11 -5.88250654E-02  1.45748642E-09 -1.51783380E-02
  6.18620636E-07  5.28396830E-10 -3.27570314E-12  8.75570082E-09  1.53643824E-08
  7.46419963E-09  4.24317732E-10  1.09199838E-09  1.68876630E-02  8.73352928E-09
  1.53215958E-08  7.40628573E-09  4.24768273E-10 -1.08231315E-09  1.68891035E-02
 -8.37837254E-09 -1.46901684E-08 -7.07201174E-09  3.32357544E-10  1.04130965E-09
 -1.68876619E-02 -8.35620410E-09 -1.46473991E-08 -7.01475866E-09  3.32802770E-10
 -1.03159228E-09 -1.68891024E-02 -5.29386112E-02 -8.98902424E-02  1.85386048E-01
  1.84532778E-06  7.61570880E-09  2.66970391E-01  2.84029267E-01  6.17782835E-06
  1.35487882E-08  7.01601441E-01  5.00193959E-01  1.12105361E-05  2.18773697E-08
  8.17238413E-01  4.48670153E-01  7.60761624E-06 -9.37146639E-10  1.80756182E-02
  9.20172394E-11  2.06339791E-12 -2.26480263E-02  1.19356663E-06  5.29386146E-02
  8.98902480E-02  1.85386047E-01  1.84536519E-06 -7.29104908E-09 -2.66970409E-01
  2.84029267E-01  6.17787298E-06 -1.28351437E-08 -7.01601494E-01  5.00193949E-01