Title Card Required                                                     
FOpt      UM062X                                                      6-311+G(d,p)        
Number of atoms                            I                6
Info1-9                                    I   N=           9
          15          15           0           0           0         110
           2          18        -502
Full Title                                 C   N=           2
Title Card Required     
Route                                      C   N=           5
#p opt UM062X/6-311+G** nosymm int=superfine SCF=NoVarAcc   
Charge                                     I                0
Multiplicity                               I                1
Number of electrons                        I               16
Number of alpha electrons                  I                8
Number of beta electrons                   I                8
Number of basis functions                  I               68
Number of independent functions            I               68
Number of point charges in /Mol/           I                0
Number of translation vectors              I                0
Atomic numbers                             I   N=           6
           6           6           1           1           1           1
Nuclear charges                            R   N=           6
  6.00000000E+00  6.00000000E+00  1.00000000E+00  1.00000000E+00  1.00000000E+00
  1.00000000E+00
Current cartesian coordinates              R   N=          18
 -1.04607585E+01  0.00000000E+00  0.00000000E+00  1.04607585E+01  0.00000000E+00
  0.00000000E+00 -1.17809093E+01 -1.62711966E+00 -5.69281079E-10 -1.17808547E+01
  1.62715111E+00 -1.09236241E-10  1.17809093E+01  1.62711966E+00  2.68463205E-10
  1.17808547E+01 -1.62715111E+00  7.28413431E-10
Number of symbols in /Mol/                 I                0
Force Field                                I                0
Atom Types                                 C   N=           6
                                                            
            
Int Atom Types                             I   N=           6
           0           0           0           0           0           0
MM charges                                 R   N=           6
  0.00000000E+00  0.00000000E+00  0.00000000E+00  0.00000000E+00  0.00000000E+00
  0.00000000E+00
Integer atomic weights                     I   N=           6
          12          12           1           1           1           1
Real atomic weights                        R   N=           6
  1.20000000E+01  1.20000000E+01  1.00782504E+00  1.00782504E+00  1.00782504E+00
  1.00782504E+00
Atom fragment info                         I   N=           6
           0           0           0           0           0           0
Atom residue num                           I   N=           6
           0           0           0           0           0           0
Nuclear spins                              I   N=           6
           0           0           1           1           1           1
Nuclear ZEff                               R   N=           6
 -3.60000000E+00 -3.60000000E+00 -1.00000000E+00 -1.00000000E+00 -1.00000000E+00
 -1.00000000E+00
Nuclear ZNuc                               R   N=           6
  6.00000000E+00  6.00000000E+00  1.00000000E+00  1.00000000E+00  1.00000000E+00
  1.00000000E+00
Nuclear QMom                               R   N=           6
  0.00000000E+00  0.00000000E+00  0.00000000E+00  0.00000000E+00  0.00000000E+00
  0.00000000E+00
Nuclear GFac                               R   N=           6
  0.00000000E+00  0.00000000E+00  2.79284600E+00  2.79284600E+00  2.79284600E+00
  2.79284600E+00
MicOpt                                     I   N=           6
          -2          -2          -1          -1          -1          -1
Number of residues                         I                0
Number of secondary structures             I                0
Redundant internal dimensions              I   N=           4
          20          10           6           4
Redundant internal coordinate indices      I   N=          80
           1          -1           0           0           1          -2
           0           0           1          -3           0           0
           2          -1           0           0           2          -2
           0           0           2          -3           0           0
           1           3           0           0           1           4
           0           0           2           5           0           0
           2           6           0           0           2           1
           3           0           2           1           4           0
           3           1           4           0           1           2
           5           0           1           2           6           0
           5           2           6           0           3           1
           2           5           3           1           2           6
           4           1           2           5           4           1
           2           6
Redundant internal coordinates             R   N=          20
 -1.04607585E+01  0.00000000E+00  0.00000000E+00  1.04607585E+01  0.00000000E+00
  0.00000000E+00  2.09530825E+00  2.09529828E+00  2.09530825E+00  2.09529828E+00
  2.25241508E+00  2.25238540E+00  1.77838483E+00  2.25241508E+00  2.25238540E+00
  1.77838483E+00  3.14159265E+00 -0.00000000E+00  0.00000000E+00  3.14159265E+00
ZRed-IntVec                                I   N=          20
          -1          -1          -1          -1          -1          -1
           0           0           0           0           0           0
           0           0           0           0           0           0
           0           0
ZRed-FPVec                                 R   N=          20
  0.00000000E+00  0.00000000E+00  0.00000000E+00  0.00000000E+00  0.00000000E+00
  0.00000000E+00  0.00000000E+00  0.00000000E+00  0.00000000E+00  0.00000000E+00
  0.00000000E+00  0.00000000E+00  0.00000000E+00  0.00000000E+00  0.00000000E+00
  0.00000000E+00  0.00000000E+00  0.00000000E+00  0.00000000E+00  0.00000000E+00
ZRed-Constraint1                           R   N=          20
 -1.04607585E+01  0.00000000E+00  0.00000000E+00  1.04607585E+01  0.00000000E+00
  0.00000000E+00  2.03694512E+00  2.03669844E+00  2.03694512E+00  2.03669844E+00
  2.00316847E+00  2.00313852E+00  2.27687832E+00  2.00316847E+00  2.00313852E+00
  2.27687832E+00  3.14159265E+00  0.00000000E+00  0.00000000E+00  3.14159265E+00
ZRed-Constraint2                           R   N=          20
 -1.04607585E+01  0.00000000E+00  0.00000000E+00  1.04607585E+01  0.00000000E+00
  0.00000000E+00  0.00000000E+00  0.00000000E+00  0.00000000E+00  0.00000000E+00
  0.00000000E+00  0.00000000E+00  0.00000000E+00  0.00000000E+00  0.00000000E+00
  0.00000000E+00  0.00000000E+00  0.00000000E+00  0.00000000E+00  0.00000000E+00
Number of contracted shells                I               28
Number of primitive shells                 I               50
Pure/Cartesian d shells                    I                0
Pure/Cartesian f shells                    I                0
Highest angular momentum                   I                2
Largest degree of contraction              I                6
Shell types                                I   N=          28
           0          -1          -1          -1          -1          -2
           0          -1          -1          -1          -1          -2
           0           0           0           1           0           0
           0           1           0           0           0           1
           0           0           0           1
Number of primitives per shell             I   N=          28
           6           3           1           1           1           1
           6           3           1           1           1           1
           3           1           1           1           3           1
           1           1           3           1           1           1
           3           1           1           1
Shell to atom map                          I   N=          28
           1           1           1           1           1           1
           2           2           2           2           2           2
           3           3           3           3           4           4
           4           4           5           5           5           5
           6           6           6           6
Primitive exponents                        R   N=          50
  4.56324000E+03  6.82024000E+02  1.54973000E+02  4.44553000E+01  1.30290000E+01
  1.82773000E+00  2.09642000E+01  4.80331000E+00  1.45933000E+00  4.83456000E-01
  1.45585000E-01  4.38000000E-02  6.26000000E-01  4.56324000E+03  6.82024000E+02
  1.54973000E+02  4.44553000E+01  1.30290000E+01  1.82773000E+00  2.09642000E+01
  4.80331000E+00  1.45933000E+00  4.83456000E-01  1.45585000E-01  4.38000000E-02
  6.26000000E-01  3.38650000E+01  5.09479000E+00  1.15879000E+00  3.25840000E-01
  1.02741000E-01  7.50000000E-01  3.38650000E+01  5.09479000E+00  1.15879000E+00
  3.25840000E-01  1.02741000E-01  7.50000000E-01  3.38650000E+01  5.09479000E+00
  1.15879000E+00  3.25840000E-01  1.02741000E-01  7.50000000E-01  3.38650000E+01
  5.09479000E+00  1.15879000E+00  3.25840000E-01  1.02741000E-01  7.50000000E-01
Contraction coefficients                   R   N=          50
  1.96665025E-03  1.52306019E-02  7.61269097E-02  2.60801033E-01  6.16462078E-01
  2.21006028E-01  1.14660081E-01  9.19999648E-01 -3.03068213E-03  1.00000000E+00
  1.00000000E+00  1.00000000E+00  1.00000000E+00  1.96665025E-03  1.52306019E-02
  7.61269097E-02  2.60801033E-01  6.16462078E-01  2.21006028E-01  1.14660081E-01
  9.19999648E-01 -3.03068213E-03  1.00000000E+00  1.00000000E+00  1.00000000E+00
  1.00000000E+00  2.54938145E-02  1.90373109E-01  8.52161486E-01  1.00000000E+00
  1.00000000E+00  1.00000000E+00  2.54938145E-02  1.90373109E-01  8.52161486E-01
  1.00000000E+00  1.00000000E+00  1.00000000E+00  2.54938145E-02  1.90373109E-01
  8.52161486E-01  1.00000000E+00  1.00000000E+00  1.00000000E+00  2.54938145E-02
  1.90373109E-01  8.52161486E-01  1.00000000E+00  1.00000000E+00  1.00000000E+00
P(S=P) Contraction coefficients            R   N=          50
  0.00000000E+00  0.00000000E+00  0.00000000E+00  0.00000000E+00  0.00000000E+00
  0.00000000E+00  4.02486927E-02  2.37593957E-01  8.15853851E-01  1.00000000E+00
  1.00000000E+00  1.00000000E+00  0.00000000E+00  0.00000000E+00  0.00000000E+00
  0.00000000E+00  0.00000000E+00  0.00000000E+00  0.00000000E+00  4.02486927E-02
  2.37593957E-01  8.15853851E-01  1.00000000E+00  1.00000000E+00  1.00000000E+00
  0.00000000E+00  0.00000000E+00  0.00000000E+00  0.00000000E+00  0.00000000E+00
  0.00000000E+00  0.00000000E+00  0.00000000E+00  0.00000000E+00  0.00000000E+00
  0.00000000E+00  0.00000000E+00  0.00000000E+00  0.00000000E+00  0.00000000E+00
  0.00000000E+00  0.00000000E+00  0.00000000E+00  0.00000000E+00  0.00000000E+00
  0.00000000E+00  0.00000000E+00  0.00000000E+00  0.00000000E+00  0.00000000E+00
Coordinates of each shell                  R   N=          84
 -1.04607585E+01  0.00000000E+00  0.00000000E+00 -1.04607585E+01  0.00000000E+00
  0.00000000E+00 -1.04607585E+01  0.00000000E+00  0.00000000E+00 -1.04607585E+01
  0.00000000E+00  0.00000000E+00 -1.04607585E+01  0.00000000E+00  0.00000000E+00
 -1.04607585E+01  0.00000000E+00  0.00000000E+00  1.04607585E+01  0.00000000E+00
  0.00000000E+00  1.04607585E+01  0.00000000E+00  0.00000000E+00  1.04607585E+01
  0.00000000E+00  0.00000000E+00  1.04607585E+01  0.00000000E+00  0.00000000E+00
  1.04607585E+01  0.00000000E+00  0.00000000E+00  1.04607585E+01  0.00000000E+00
  0.00000000E+00 -1.17809093E+01 -1.62711966E+00 -5.69281079E-10 -1.17809093E+01
 -1.62711966E+00 -5.69281079E-10 -1.17809093E+01 -1.62711966E+00 -5.69281079E-10
 -1.17809093E+01 -1.62711966E+00 -5.69281079E-10 -1.17808547E+01  1.62715111E+00
 -1.09236241E-10 -1.17808547E+01  1.62715111E+00 -1.09236241E-10 -1.17808547E+01
  1.62715111E+00 -1.09236241E-10 -1.17808547E+01  1.62715111E+00 -1.09236241E-10
  1.17809093E+01  1.62711966E+00  2.68463205E-10  1.17809093E+01  1.62711966E+00
  2.68463205E-10  1.17809093E+01  1.62711966E+00  2.68463205E-10  1.17809093E+01
  1.62711966E+00  2.68463205E-10  1.17808547E+01 -1.62715111E+00  7.28413431E-10
  1.17808547E+01 -1.62715111E+00  7.28413431E-10  1.17808547E+01 -1.62715111E+00
  7.28413431E-10  1.17808547E+01 -1.62715111E+00  7.28413431E-10
Num ILSW                                   I              100
ILSW                                       I   N=         100
           1           0           0           0           2           0
           0           0           0           0        4336          -1
           7           0           0           0           2           0
           0           0           0           0           1           0
           1           1           0           0           0           0
           0           0      100000           0          -1           0
           0           0           0           0           0           0
           0           0           0           1           0           0
           0 -2000000000           1           0           0           0
           0           0           4          52           0           0
           0           0          55           0           0           0
           0           0           0           6           0           1
           0           0           0           0           0           0
           0           0           0           0           0           0
           0           0           0           0           0           0
           0           0           0           0           0           0
           0           0           0           0
Num RLSW                                   I               52
RLSW                                       R   N=          52
  1.00000000E+00  1.00000000E+00  1.00000000E+00  1.00000000E+00  5.40000000E-01
  0.00000000E+00  0.00000000E+00  1.00000000E+00  0.00000000E+00  0.00000000E+00
  0.00000000E+00  0.00000000E+00  1.00000000E+00  0.00000000E+00  0.00000000E+00
  0.00000000E+00  0.00000000E+00  1.00000000E+00  0.00000000E+00  0.00000000E+00
  0.00000000E+00  0.00000000E+00  1.00000000E+00  0.00000000E+00  0.00000000E+00
  0.00000000E+00  0.00000000E+00  1.00000000E+00  0.00000000E+00  0.00000000E+00
  0.00000000E+00  0.00000000E+00  1.00000000E+00  0.00000000E+00  0.00000000E+00
  0.00000000E+00  0.00000000E+00  0.00000000E+00  1.00000000E+00  1.00000000E+00
  0.00000000E+00  1.00000000E+00  0.00000000E+00  0.00000000E+00  0.00000000E+00
  0.00000000E+00  0.00000000E+00  0.00000000E+00  0.00000000E+00  0.00000000E+00
  0.00000000E+00  0.00000000E+00
MxBond                                     I                3
NBond                                      I   N=           6
           3           3           1           1           1           1
IBond                                      I   N=          18
           2           3           4           1           5           6
           1           0           0           1           0           0
           2           0           0           2           0           0
RBond                                      R   N=          18
  1.00000000E-01  1.00000000E+00  1.00000000E+00  1.00000000E-01  1.00000000E+00
  1.00000000E+00  1.00000000E+00  0.00000000E+00  0.00000000E+00  1.00000000E+00
  0.00000000E+00  0.00000000E+00  1.00000000E+00  0.00000000E+00  0.00000000E+00
  1.00000000E+00  0.00000000E+00  0.00000000E+00
Virial Ratio                               R      2.003515283883481E+00
SCF Energy                                 R     -7.823756810898378E+01
Total Energy                               R     -7.823756810898378E+01
S**2                                       R     -3.552713678800501E-14
S**2 after annihilation                    R     -3.002043058586378E-13
RMS Force                                  R      1.524907350967308E-04
RMS Density                                R      1.726386521465695E-09
Job Status                                 I                1
Nuclear derivative order                   I                1
External E-field                           R   N=          35
  0.00000000E+00  0.00000000E+00  0.00000000E+00  0.00000000E+00  0.00000000E+00
  0.00000000E+00  0.00000000E+00  0.00000000E+00  0.00000000E+00  0.00000000E+00
  0.00000000E+00  0.00000000E+00  0.00000000E+00  0.00000000E+00  0.00000000E+00
  0.00000000E+00  0.00000000E+00  0.00000000E+00  0.00000000E+00  0.00000000E+00
  0.00000000E+00  0.00000000E+00  0.00000000E+00  0.00000000E+00  0.00000000E+00
  0.00000000E+00  0.00000000E+00  0.00000000E+00  0.00000000E+00  0.00000000E+00
  0.00000000E+00  0.00000000E+00  0.00000000E+00  0.00000000E+00  0.00000000E+00
IOpCl                                      I                1
IROHF                                      I                0
Alpha Orbital Energies                     R   N=          68
 -1.06073694E+01 -1.06073693E+01 -7.56639090E-01 -7.56639083E-01 -4.75436293E-01
 -4.75436293E-01 -3.13566865E-01 -3.13565876E-01 -8.17989197E-02 -8.17967928E-02
  2.42228746E-02  2.42524387E-02  6.67542071E-02  6.68536627E-02  8.61589979E-02
  8.62376622E-02  9.23536645E-02  9.38403578E-02  1.76894565E-01  1.76932443E-01
  1.95593865E-01  1.95605259E-01  4.41943435E-01  4.42061331E-01  4.85494272E-01
  4.85869762E-01  5.88372492E-01  5.88424571E-01  6.23971983E-01  6.23974123E-01
  6.35766453E-01  6.36133501E-01  7.30487939E-01  7.30921061E-01  1.09229314E+00
  1.09230635E+00  1.10460943E+00  1.10460943E+00  1.19311483E+00  1.19311537E+00
  1.55400700E+00  1.55406092E+00  1.56794879E+00  1.56796587E+00  1.62979585E+00
  1.62982848E+00  1.86665293E+00  1.86665293E+00  1.87943667E+00  1.87944036E+00
  2.13573233E+00  2.13576292E+00  2.36661018E+00  2.36664571E+00  2.45346609E+00
  2.45352340E+00  2.50210644E+00  2.50211524E+00  2.55760424E+00  2.55772914E+00
  2.75131543E+00  2.75134259E+00  3.06784497E+00  3.06820741E+00  3.59218038E+00
  3.59218039E+00  2.37702843E+01  2.37703641E+01
Beta Orbital Energies                      R   N=          68
 -1.06073694E+01 -1.06073693E+01 -7.56639090E-01 -7.56639083E-01 -4.75436293E-01
 -4.75436293E-01 -3.13566865E-01 -3.13565876E-01 -8.17989197E-02 -8.17967928E-02
  2.42228746E-02  2.42524387E-02  6.67542071E-02  6.68536627E-02  8.61589979E-02
  8.62376622E-02  9.23536645E-02  9.38403578E-02  1.76894565E-01  1.76932443E-01
  1.95593865E-01  1.95605259E-01  4.41943435E-01  4.42061331E-01  4.85494272E-01
  4.85869762E-01  5.88372492E-01  5.88424571E-01  6.23971983E-01  6.23974123E-01
  6.35766453E-01  6.36133501E-01  7.30487939E-01  7.30921061E-01  1.09229314E+00
  1.09230635E+00  1.10460943E+00  1.10460943E+00  1.19311483E+00  1.19311537E+00
  1.55400700E+00  1.55406092E+00  1.56794879E+00  1.56796587E+00  1.62979585E+00
  1.62982848E+00  1.86665293E+00  1.86665293E+00  1.87943667E+00  1.87944036E+00
  2.13573233E+00  2.13576292E+00  2.36661018E+00  2.36664571E+00  2.45346609E+00
  2.45352340E+00  2.50210644E+00  2.50211524E+00  2.55760424E+00  2.55772914E+00
  2.75131543E+00  2.75134259E+00  3.06784497E+00  3.06820741E+00  3.59218038E+00
  3.59218039E+00  2.37702843E+01  2.37703641E+01
Alpha MO coefficients                      R   N=        4624
  3.98868504E-01  3.28257716E-01 -1.50740792E-03  1.94526658E-08 -3.11089490E-13
  7.74611334E-03 -1.18455211E-03  6.34416033E-08 -3.32645068E-13 -2.71094950E-03
 -3.72901442E-05 -1.36172738E-09  2.39026406E-15 -4.98134175E-04  5.91325606E-04
 -1.52777925E-08  1.46468879E-13 -7.01447754E-04  2.75548523E-13  2.47789967E-13
 -2.53262809E-04 -1.66655978E-08 -3.98868409E-01 -3.28257638E-01 -1.50740756E-03
  1.94526613E-08 -5.30739445E-13 -7.74611151E-03 -1.18455182E-03  6.34415799E-08
 -4.48787031E-13  2.71094886E-03 -3.72901358E-05 -1.36173880E-09 -9.57320779E-15
  4.98134057E-04  5.91325466E-04 -1.52777943E-08  2.21599920E-13  7.01447588E-04
 -3.60206153E-13  2.47996561E-13  2.53262749E-04  1.66655864E-08  2.44149122E-04
 -1.93607039E-03  1.63832750E-03 -7.84217854E-04 -1.01248786E-03 -3.23580752E-13
  2.44139011E-04 -1.93614766E-03  1.63837359E-03 -7.84217255E-04  1.01254434E-03
 -6.13017995E-14 -2.44149064E-04  1.93606993E-03 -1.63832711E-03 -7.84217668E-04
 -1.01248762E-03 -1.66455776E-13 -2.44138953E-04  1.93614720E-03 -1.63837320E-03
 -7.84217069E-04  1.01254410E-03 -4.29201710E-13  3.98868404E-01  3.28257727E-01
 -1.50718384E-03  1.94481957E-08 -3.11099442E-13  7.74544267E-03 -1.18530884E-03
  6.34668704E-08 -3.32028476E-13 -2.70906478E-03 -3.55090203E-05 -1.37188275E-09
  8.75422578E-16 -4.97506737E-04  5.88466435E-04 -1.53124727E-08  1.47908060E-13
 -7.01412114E-04  2.75967732E-13  2.48149090E-13 -2.53308868E-04 -1.66778713E-08
  3.98868499E-01  3.28257805E-01  1.50718420E-03 -1.94481990E-08  5.30954246E-13
  7.74544451E-03  1.18530912E-03 -6.34668840E-08  4.48632630E-13 -2.70906543E-03
  3.55090292E-05  1.37189958E-09  1.03563665E-14 -4.97506855E-04 -5.88466575E-04
  1.53124876E-08 -2.21783724E-13 -7.01412280E-04  3.60445785E-13 -2.47768291E-13
 -2.53308928E-04 -1.66778694E-08  2.43938010E-04 -1.93520412E-03  1.63651632E-03
 -7.84333324E-04 -1.01250450E-03 -3.22962920E-13  2.43927915E-04 -1.93528150E-03
  1.63656261E-03 -7.84332738E-04  1.01256100E-03 -6.13088460E-14  2.43938068E-04
 -1.93520458E-03  1.63651671E-03  7.84333511E-04  1.01250475E-03  1.66411123E-13
  2.43927972E-04 -1.93528196E-03  1.63656299E-03  7.84332924E-04 -1.01256124E-03
  4.28474476E-13 -7.40952617E-02 -1.19249712E-01 -4.81220205E-02  1.27829019E-06
 -1.19231658E-11  3.25422286E-01 -7.17881331E-02  1.71717832E-06 -1.76839971E-11
  2.22361355E-01 -3.19549147E-02  6.90783229E-07 -7.45410099E-12  4.29239500E-03
 -2.16054311E-03  2.71931092E-08 -1.60239629E-13 -5.16245486E-03  2.31152724E-12
  1.18679190E-12 -7.87074775E-05 -1.19709652E-07  7.40953047E-02  1.19249782E-01
 -4.81220484E-02  1.27829092E-06 -1.80731258E-11 -3.25422475E-01 -7.17881748E-02
  1.71717930E-06 -2.64659891E-11 -2.22361484E-01 -3.19549333E-02  6.90783639E-07
 -1.21472261E-11 -4.29239749E-03 -2.16054436E-03  2.71931469E-08 -4.00407303E-13
  5.16245786E-03 -3.39706830E-12  1.19107693E-12  7.87075232E-05  1.19709722E-07
  8.08172911E-02  9.78460573E-02  5.90006929E-03  6.69832561E-03  1.18045839E-02
  3.34037092E-12  8.08183783E-02  9.78471082E-02  5.90015367E-03  6.69805451E-03
 -1.18048565E-02  7.30018567E-14 -8.08173380E-02 -9.78461140E-02 -5.90007272E-03
  6.69832950E-03  1.18045908E-02  9.15838978E-13 -8.08184252E-02 -9.78471650E-02
 -5.90015709E-03  6.69805840E-03 -1.18048634E-02  4.17967041E-12 -7.40953131E-02
 -1.19249850E-01 -4.81222095E-02  1.27829406E-06 -1.19233304E-11  3.25423330E-01
 -7.17874274E-02  1.71715746E-06 -1.76845908E-11  2.22358179E-01 -3.19575456E-02
  6.90802077E-07 -7.45397475E-12  4.29067092E-03 -2.15473524E-03  2.72478938E-08
 -1.59182764E-13 -5.16252265E-03  2.31133609E-12  1.18780650E-12 -7.86771491E-05
 -1.19698495E-07 -7.40952701E-02 -1.19249780E-01  4.81221816E-02 -1.27829331E-06
  1.80729626E-11  3.25423141E-01  7.17873857E-02 -1.71715645E-06  2.64652781E-11
  2.22358050E-01  3.19575271E-02 -6.90801690E-07  1.21469977E-11  4.29066843E-03
  2.15473399E-03 -2.72478992E-08  3.99712227E-13 -5.16251966E-03  3.39719092E-12
 -1.19161878E-12 -7.86771034E-05 -1.19698429E-07  8.08175273E-02  9.78448250E-02
  5.90370350E-03  6.69844376E-03  1.18045916E-02  3.34026053E-12  8.08186145E-02
  9.78458760E-02  5.90378758E-03  6.69817268E-03 -1.18048642E-02  7.22567545E-14
  8.08174804E-02  9.78447682E-02  5.90370007E-03 -6.69843988E-03 -1.18045848E-02
 -9.15329471E-13  8.08185676E-02  9.78458193E-02  5.90378415E-03 -6.69816879E-03
  1.18048574E-02 -4.18000444E-12 -2.10914174E-07 -3.52729175E-07 -1.96710887E-06
 -1.46279161E-01 -2.06511203E-11  9.95373016E-07 -3.10927586E-06 -2.18115445E-01
 -3.07174125E-11  1.89225308E-06 -1.91640609E-06 -1.18620031E-01 -1.71359316E-11
  2.47954016E-07 -1.26361722E-08  1.17997103E-03  7.04725226E-13  2.71897004E-08
  4.56516948E-12  7.86916228E-12  9.78636082E-07  3.23836402E-02 -2.11000861E-07
 -3.52874147E-07  1.96791733E-06  1.46339283E-01 -2.06605186E-11  9.95782127E-07
  3.11055374E-06  2.18205091E-01 -3.07185997E-11  1.89303079E-06  1.91719374E-06
  1.18668784E-01 -1.71397221E-11  2.48055909E-07  1.26413269E-08 -1.18045585E-03
  7.18626754E-13  2.72008742E-08 -4.55806400E-12  1.19161641E-11  9.79038294E-07
  3.23969501E-02  1.03831114E-01  1.59774213E-01  8.07974871E-02  8.20835275E-03
  3.20741857E-03  2.56010273E-12 -1.03830868E-01 -1.59773639E-01 -8.07974860E-02
 -8.20824332E-03  3.20758086E-03 -1.52518669E-12  1.03873790E-01  1.59839881E-01
  8.08306953E-02 -8.21172644E-03 -3.20873685E-03 -2.58565762E-12 -1.03873543E-01
 -1.59839307E-01 -8.08306941E-02  8.21161697E-03 -3.20889920E-03  3.56314298E-12
  2.11001143E-07  3.52875496E-07  1.96791875E-06  1.46339284E-01  2.06594664E-11
 -9.95797018E-07  3.11054445E-06  2.18205066E-01  3.07294849E-11 -1.89297071E-06
  1.91722683E-06  1.18668735E-01  1.71430576E-11 -2.47994897E-07  1.25384738E-08
 -1.18006001E-03 -7.05714819E-13 -2.71994506E-08 -4.56799474E-12 -7.87229843E-12
 -9.79037629E-07 -3.23969223E-02 -2.10914457E-07 -3.52730519E-07  1.96711022E-06
  1.46279163E-01 -2.06519033E-11  9.95387912E-07  3.10926647E-06  2.18115419E-01
 -3.07053128E-11  1.89219298E-06  1.91643914E-06  1.18619981E-01 -1.71332071E-11
  2.47892995E-07  1.25332834E-08 -1.17957503E-03  7.18293574E-13  2.71882750E-08
 -4.55638284E-12  1.19108579E-11  9.78635388E-07  3.23836125E-02 -1.03873774E-01
 -1.59840027E-01 -8.08302910E-02 -8.21173756E-03 -3.20874471E-03 -2.56107587E-12
  1.03873528E-01  1.59839452E-01  8.08302897E-02  8.21162808E-03 -3.20890706E-03
  1.52609801E-12  1.03831099E-01  1.59774359E-01  8.07970827E-02 -8.20836387E-03
 -3.20742644E-03 -2.58448602E-12 -1.03830852E-01 -1.59773784E-01 -8.07970814E-02
  8.20825443E-03 -3.20758872E-03  3.56111535E-12 -3.90408220E-02 -6.48449406E-02
  1.62019550E-01 -2.42700520E-06  3.89436441E-11  1.88726967E-01  2.33583790E-01
 -3.35082689E-06  5.57400713E-11  2.95525689E-01  2.12830838E-01 -2.99353911E-06
  5.09744602E-11  4.22001036E-02  3.72056990E-02 -5.12881225E-07  8.79360243E-12
  1.76385230E-02 -1.10327503E-11 -1.93583803E-12 -1.66211369E-02  4.95714825E-07
 -3.90408214E-02 -6.48449396E-02 -1.62019548E-01  2.42700513E-06 -5.97983502E-11
  1.88726965E-01 -2.33583787E-01  3.35082679E-06 -8.58447655E-11  2.95525685E-01
 -2.12830835E-01  2.99353899E-06 -7.80877376E-11  4.22001030E-02 -3.72056985E-02
  5.12881176E-07 -1.38765943E-11  1.76385227E-02 -1.71761352E-11  1.98869504E-12
 -1.66211366E-02  4.95714808E-07 -4.88283009E-02 -9.03563881E-02 -6.07878610E-02
  7.28121912E-03 -9.89243543E-03  2.34935643E-13 -4.88281387E-02 -9.03560298E-02
 -6.07874660E-02  7.28153514E-03  9.89224759E-03  3.04902037E-12 -4.88283002E-02
 -9.03563868E-02 -6.07878602E-02 -7.28121901E-03  9.89243529E-03 -4.02744100E-12
 -4.88281380E-02 -9.03560285E-02 -6.07874651E-02 -7.28153504E-03 -9.89224745E-03
 -1.22514681E-12 -3.90412424E-02 -6.48455588E-02  1.62021658E-01 -2.42703871E-06
  3.89441636E-11  1.88727234E-01  2.33582503E-01 -3.35075678E-06  5.57406127E-11
  2.95535453E-01  2.12844759E-01 -2.99373067E-06  5.09763586E-11  4.21821152E-02
  3.71906682E-02 -5.13198572E-07  8.79333373E-12  1.76385672E-02 -1.10328129E-11
 -1.93582995E-12 -1.66214830E-02  4.95688627E-07  3.90412429E-02  6.48455598E-02
  1.62021661E-01 -2.42703871E-06  5.97991142E-11 -1.88727236E-01  2.33582506E-01
 -3.35075678E-06  8.58451083E-11 -2.95535457E-01  2.12844762E-01 -2.99373063E-06
  7.80894452E-11 -4.21821158E-02  3.71906687E-02 -5.13198535E-07  1.38780843E-11
 -1.76385675E-02  1.71763271E-11 -1.98847638E-12  1.66214833E-02 -4.95688624E-07
 -4.88286893E-02 -9.03575222E-02 -6.07833568E-02  7.28085153E-03 -9.89271705E-03
  2.34941632E-13 -4.88285271E-02 -9.03571642E-02 -6.07829606E-02  7.28116753E-03
  9.89252926E-03  3.04853343E-12  4.88286900E-02  9.03575235E-02  6.07833577E-02
  7.28085163E-03 -9.89271719E-03  4.02738910E-12  4.88285278E-02  9.03571655E-02
  6.07829615E-02  7.28116763E-03  9.89252940E-03  1.22495639E-12 -3.25151666E-13
 -5.23349192E-13 -3.99804161E-11 -2.27233611E-11  1.62089181E-01  4.16154961E-13
 -6.36978582E-11 -3.69377587E-11  2.56294545E-01  1.67495124E-11 -8.13667644E-11
 -4.17974843E-11  3.02382306E-01  2.66253597E-11 -5.50043511E-11 -3.09194621E-11
  1.80639927E-01 -7.68295137E-12 -1.72732656E-02  2.99826065E-07  4.20745112E-12
  2.69465677E-12  1.46733497E-13  1.94648026E-13 -6.00519626E-11  2.27655769E-11
  1.62089181E-01 -1.19198611E-13 -9.57078437E-11  3.67049940E-11  2.56294545E-01
 -4.14064867E-12 -1.13689367E-10  4.19506340E-11  3.02382305E-01 -4.18136291E-12
 -6.80320113E-11  3.10564762E-11  1.80639926E-01  1.13522923E-11  1.72732656E-02
 -2.99826060E-07 -6.36001531E-12  2.56387663E-12 -1.41711027E-12 -1.04566845E-12
 -2.58145834E-11 -4.66878279E-12 -3.24161651E-12  1.63202952E-02 -1.04234198E-12
 -1.71484310E-12 -1.82900816E-11 -4.27169058E-12 -1.91892041E-12  1.63203616E-02
  2.41169603E-13  1.67494927E-12 -1.14402999E-12 -6.14106764E-12  2.26012057E-12
  1.63202952E-02  6.35876573E-13  4.74920456E-13  7.35718942E-12 -6.35143210E-12
  2.68133789E-12  1.63203616E-02 -3.28613115E-13 -5.27951720E-13 -3.99602843E-11
 -2.27234616E-11  1.62095213E-01  4.06963961E-13 -6.37026155E-11 -3.69365079E-11
  2.56295816E-01  1.69258824E-11 -8.12283566E-11 -4.18014696E-11  3.02418466E-01
  2.66780094E-11 -5.53710788E-11 -3.09418436E-11  1.80587091E-01 -7.67918235E-12
 -1.72739796E-02  2.99840121E-07  4.20553303E-12  2.69322709E-12 -1.49270561E-13
 -1.97829955E-13  6.00377978E-11 -2.27658474E-11 -1.62095213E-01  1.11823957E-13
  9.57124389E-11 -3.67032637E-11 -2.56295816E-01  4.27420673E-12  1.13594612E-10