Title Card Required                                                     
FOpt      UM062X                                                      6-311+G(d,p)        
Number of atoms                            I                6
Info1-9                                    I   N=           9
          15          15           0           0           0         110
           2          18        -502
Full Title                                 C   N=           2
Title Card Required     
Route                                      C   N=           4
#p opt UM062X/6-311+G** nosymm int=superfine    
Charge                                     I                0
Multiplicity                               I                1
Number of electrons                        I               16
Number of alpha electrons                  I                8
Number of beta electrons                   I                8
Number of basis functions                  I               68
Number of independent functions            I               68
Number of point charges in /Mol/           I                0
Number of translation vectors              I                0
Atomic numbers                             I   N=           6
           6           6           1           1           1           1
Nuclear charges                            R   N=           6
  6.00000000E+00  6.00000000E+00  1.00000000E+00  1.00000000E+00  1.00000000E+00
  1.00000000E+00
Current cartesian coordinates              R   N=          18
 -1.47812291E+00  0.00000000E+00  0.00000000E+00  1.47812291E+00  0.00000000E+00
  0.00000000E+00 -2.47602200E+00 -1.78157336E+00 -8.28177605E-09 -2.47625634E+00
  1.78147702E+00  8.55093365E-09  2.47602200E+00  1.78157336E+00 -7.45451998E-09
  2.47625634E+00 -1.78147702E+00  9.37956553E-09
Number of symbols in /Mol/                 I                0
Force Field                                I                0
Atom Types                                 C   N=           6
                                                            
            
Int Atom Types                             I   N=           6
           0           0           0           0           0           0
MM charges                                 R   N=           6
  0.00000000E+00  0.00000000E+00  0.00000000E+00  0.00000000E+00  0.00000000E+00
  0.00000000E+00
Integer atomic weights                     I   N=           6
          12          12           1           1           1           1
Real atomic weights                        R   N=           6
  1.20000000E+01  1.20000000E+01  1.00782504E+00  1.00782504E+00  1.00782504E+00
  1.00782504E+00
Atom fragment info                         I   N=           6
           0           0           0           0           0           0
Atom residue num                           I   N=           6
           0           0           0           0           0           0
Nuclear spins                              I   N=           6
           0           0           1           1           1           1
Nuclear ZEff                               R   N=           6
 -3.60000000E+00 -3.60000000E+00 -1.00000000E+00 -1.00000000E+00 -1.00000000E+00
 -1.00000000E+00
Nuclear ZNuc                               R   N=           6
  6.00000000E+00  6.00000000E+00  1.00000000E+00  1.00000000E+00  1.00000000E+00
  1.00000000E+00
Nuclear QMom                               R   N=           6
  0.00000000E+00  0.00000000E+00  0.00000000E+00  0.00000000E+00  0.00000000E+00
  0.00000000E+00
Nuclear GFac                               R   N=           6
  0.00000000E+00  0.00000000E+00  2.79284600E+00  2.79284600E+00  2.79284600E+00
  2.79284600E+00
MicOpt                                     I   N=           6
          -2          -2          -1          -1          -1          -1
Number of residues                         I                0
Number of secondary structures             I                0
Redundant internal dimensions              I   N=           4
          20          10           6           4
Redundant internal coordinate indices      I   N=          80
           1          -1           0           0           1          -2
           0           0           1          -3           0           0
           2          -1           0           0           2          -2
           0           0           2          -3           0           0
           1           3           0           0           1           4
           0           0           2           5           0           0
           2           6           0           0           2           1
           3           0           2           1           4           0
           3           1           4           0           1           2
           5           0           1           2           6           0
           5           2           6           0           3           1
           2           5           3           1           2           6
           4           1           2           5           4           1
           2           6
Redundant internal coordinates             R   N=          20
 -1.47812291E+00  0.00000000E+00  0.00000000E+00  1.47812291E+00  0.00000000E+00
  0.00000000E+00  2.04201034E+00  2.04204082E+00  2.04201034E+00  2.04204082E+00
  2.08137780E+00  2.08150098E+00  2.12030653E+00  2.08137780E+00  2.08150098E+00
  2.12030653E+00  3.14159265E+00 -0.00000000E+00 -0.00000000E+00  3.14159265E+00
ZRed-IntVec                                I   N=          20
          -1          -1          -1          -1          -1          -1
           0           0           0           0           0           0
           0           0           0           0           0           0
           0           0
ZRed-FPVec                                 R   N=          20
  0.00000000E+00  0.00000000E+00  0.00000000E+00  0.00000000E+00  0.00000000E+00
  0.00000000E+00  0.00000000E+00  0.00000000E+00  0.00000000E+00  0.00000000E+00
  0.00000000E+00  0.00000000E+00  0.00000000E+00  0.00000000E+00  0.00000000E+00
  0.00000000E+00  0.00000000E+00  0.00000000E+00  0.00000000E+00  0.00000000E+00
ZRed-Constraint1                           R   N=          20
 -1.47812291E+00  0.00000000E+00  0.00000000E+00  1.47812291E+00  0.00000000E+00
  0.00000000E+00  2.15516451E+00  2.15754459E+00  2.15516451E+00  2.15754459E+00
  2.20101097E+00  2.19608308E+00  1.88609126E+00  2.20101097E+00  2.19608308E+00
  1.88609126E+00  3.14159265E+00  0.00000000E+00  0.00000000E+00  3.14159265E+00
ZRed-Constraint2                           R   N=          20
 -1.47812291E+00  0.00000000E+00  0.00000000E+00  1.47812291E+00  0.00000000E+00
  0.00000000E+00  0.00000000E+00  0.00000000E+00  0.00000000E+00  0.00000000E+00
  0.00000000E+00  0.00000000E+00  0.00000000E+00  0.00000000E+00  0.00000000E+00
  0.00000000E+00  0.00000000E+00  0.00000000E+00  0.00000000E+00  0.00000000E+00
Number of contracted shells                I               28
Number of primitive shells                 I               50
Pure/Cartesian d shells                    I                0
Pure/Cartesian f shells                    I                0
Highest angular momentum                   I                2
Largest degree of contraction              I                6
Shell types                                I   N=          28
           0          -1          -1          -1          -1          -2
           0          -1          -1          -1          -1          -2
           0           0           0           1           0           0
           0           1           0           0           0           1
           0           0           0           1
Number of primitives per shell             I   N=          28
           6           3           1           1           1           1
           6           3           1           1           1           1
           3           1           1           1           3           1
           1           1           3           1           1           1
           3           1           1           1
Shell to atom map                          I   N=          28
           1           1           1           1           1           1
           2           2           2           2           2           2
           3           3           3           3           4           4
           4           4           5           5           5           5
           6           6           6           6
Primitive exponents                        R   N=          50
  4.56324000E+03  6.82024000E+02  1.54973000E+02  4.44553000E+01  1.30290000E+01
  1.82773000E+00  2.09642000E+01  4.80331000E+00  1.45933000E+00  4.83456000E-01
  1.45585000E-01  4.38000000E-02  6.26000000E-01  4.56324000E+03  6.82024000E+02
  1.54973000E+02  4.44553000E+01  1.30290000E+01  1.82773000E+00  2.09642000E+01
  4.80331000E+00  1.45933000E+00  4.83456000E-01  1.45585000E-01  4.38000000E-02
  6.26000000E-01  3.38650000E+01  5.09479000E+00  1.15879000E+00  3.25840000E-01
  1.02741000E-01  7.50000000E-01  3.38650000E+01  5.09479000E+00  1.15879000E+00
  3.25840000E-01  1.02741000E-01  7.50000000E-01  3.38650000E+01  5.09479000E+00
  1.15879000E+00  3.25840000E-01  1.02741000E-01  7.50000000E-01  3.38650000E+01
  5.09479000E+00  1.15879000E+00  3.25840000E-01  1.02741000E-01  7.50000000E-01
Contraction coefficients                   R   N=          50
  1.96665025E-03  1.52306019E-02  7.61269097E-02  2.60801033E-01  6.16462078E-01
  2.21006028E-01  1.14660081E-01  9.19999648E-01 -3.03068213E-03  1.00000000E+00
  1.00000000E+00  1.00000000E+00  1.00000000E+00  1.96665025E-03  1.52306019E-02
  7.61269097E-02  2.60801033E-01  6.16462078E-01  2.21006028E-01  1.14660081E-01
  9.19999648E-01 -3.03068213E-03  1.00000000E+00  1.00000000E+00  1.00000000E+00
  1.00000000E+00  2.54938145E-02  1.90373109E-01  8.52161486E-01  1.00000000E+00
  1.00000000E+00  1.00000000E+00  2.54938145E-02  1.90373109E-01  8.52161486E-01
  1.00000000E+00  1.00000000E+00  1.00000000E+00  2.54938145E-02  1.90373109E-01
  8.52161486E-01  1.00000000E+00  1.00000000E+00  1.00000000E+00  2.54938145E-02
  1.90373109E-01  8.52161486E-01  1.00000000E+00  1.00000000E+00  1.00000000E+00
P(S=P) Contraction coefficients            R   N=          50
  0.00000000E+00  0.00000000E+00  0.00000000E+00  0.00000000E+00  0.00000000E+00
  0.00000000E+00  4.02486927E-02  2.37593957E-01  8.15853851E-01  1.00000000E+00
  1.00000000E+00  1.00000000E+00  0.00000000E+00  0.00000000E+00  0.00000000E+00
  0.00000000E+00  0.00000000E+00  0.00000000E+00  0.00000000E+00  4.02486927E-02
  2.37593957E-01  8.15853851E-01  1.00000000E+00  1.00000000E+00  1.00000000E+00
  0.00000000E+00  0.00000000E+00  0.00000000E+00  0.00000000E+00  0.00000000E+00
  0.00000000E+00  0.00000000E+00  0.00000000E+00  0.00000000E+00  0.00000000E+00
  0.00000000E+00  0.00000000E+00  0.00000000E+00  0.00000000E+00  0.00000000E+00
  0.00000000E+00  0.00000000E+00  0.00000000E+00  0.00000000E+00  0.00000000E+00
  0.00000000E+00  0.00000000E+00  0.00000000E+00  0.00000000E+00  0.00000000E+00
Coordinates of each shell                  R   N=          84
 -1.47812291E+00  0.00000000E+00  0.00000000E+00 -1.47812291E+00  0.00000000E+00
  0.00000000E+00 -1.47812291E+00  0.00000000E+00  0.00000000E+00 -1.47812291E+00
  0.00000000E+00  0.00000000E+00 -1.47812291E+00  0.00000000E+00  0.00000000E+00
 -1.47812291E+00  0.00000000E+00  0.00000000E+00  1.47812291E+00  0.00000000E+00
  0.00000000E+00  1.47812291E+00  0.00000000E+00  0.00000000E+00  1.47812291E+00
  0.00000000E+00  0.00000000E+00  1.47812291E+00  0.00000000E+00  0.00000000E+00
  1.47812291E+00  0.00000000E+00  0.00000000E+00  1.47812291E+00  0.00000000E+00
  0.00000000E+00 -2.47602200E+00 -1.78157336E+00 -8.28177605E-09 -2.47602200E+00
 -1.78157336E+00 -8.28177605E-09 -2.47602200E+00 -1.78157336E+00 -8.28177605E-09
 -2.47602200E+00 -1.78157336E+00 -8.28177605E-09 -2.47625634E+00  1.78147702E+00
  8.55093365E-09 -2.47625634E+00  1.78147702E+00  8.55093365E-09 -2.47625634E+00
  1.78147702E+00  8.55093365E-09 -2.47625634E+00  1.78147702E+00  8.55093365E-09
  2.47602200E+00  1.78157336E+00 -7.45451998E-09  2.47602200E+00  1.78157336E+00
 -7.45451998E-09  2.47602200E+00  1.78157336E+00 -7.45451998E-09  2.47602200E+00
  1.78157336E+00 -7.45451998E-09  2.47625634E+00 -1.78147702E+00  9.37956553E-09
  2.47625634E+00 -1.78147702E+00  9.37956553E-09  2.47625634E+00 -1.78147702E+00
  9.37956553E-09  2.47625634E+00 -1.78147702E+00  9.37956553E-09
Num ILSW                                   I              100
ILSW                                       I   N=         100
           1           0           0           0           2           0
           0           0           0           0        4336          -1
           7           0           0           0           2           0
           0           0           0           0           1           0
           1           1           0           0           0           0
           0           0      100000           0          -1           0
           0           0           0           0           0           0
           0           0           0           1           0           0
           0 -2000000000           1           0           0           0
           0           0           4          52           0           0
           0           0          55           0           0           0
           0           0           0           6           0           1
           0           0           0           0           0           0
           0           0           0           0           0           0
           0           0           0           0           0           0
           0           0           0           0           0           0
           0           0           0           0
Num RLSW                                   I               52
RLSW                                       R   N=          52
  1.00000000E+00  1.00000000E+00  1.00000000E+00  1.00000000E+00  5.40000000E-01
  0.00000000E+00  0.00000000E+00  1.00000000E+00  0.00000000E+00  0.00000000E+00
  0.00000000E+00  0.00000000E+00  1.00000000E+00  0.00000000E+00  0.00000000E+00
  0.00000000E+00  0.00000000E+00  1.00000000E+00  0.00000000E+00  0.00000000E+00
  0.00000000E+00  0.00000000E+00  1.00000000E+00  0.00000000E+00  0.00000000E+00
  0.00000000E+00  0.00000000E+00  1.00000000E+00  0.00000000E+00  0.00000000E+00
  0.00000000E+00  0.00000000E+00  1.00000000E+00  0.00000000E+00  0.00000000E+00
  0.00000000E+00  0.00000000E+00  0.00000000E+00  1.00000000E+00  1.00000000E+00
  0.00000000E+00  1.00000000E+00  0.00000000E+00  0.00000000E+00  0.00000000E+00
  0.00000000E+00  0.00000000E+00  0.00000000E+00  0.00000000E+00  0.00000000E+00
  0.00000000E+00  0.00000000E+00
MxBond                                     I                3
NBond                                      I   N=           6
           3           3           1           1           1           1
IBond                                      I   N=          18
           2           3           4           1           5           6
           1           0           0           1           0           0
           2           0           0           2           0           0
RBond                                      R   N=          18
  1.00000000E+00  1.00000000E+00  1.00000000E+00  1.00000000E+00  1.00000000E+00
  1.00000000E+00  1.00000000E+00  0.00000000E+00  0.00000000E+00  1.00000000E+00
  0.00000000E+00  0.00000000E+00  1.00000000E+00  0.00000000E+00  0.00000000E+00
  1.00000000E+00  0.00000000E+00  0.00000000E+00
Virial Ratio                               R      2.010254791245299E+00
SCF Energy                                 R     -7.852014309694432E+01
Total Energy                               R     -7.852014309694432E+01
S**2                                       R     -4.263256414560601E-14
S**2 after annihilation                    R      1.669775429036209E-13
RMS Force                                  R      9.541362731461865E-06
RMS Density                                R      1.823467478059788E-09
Job Status                                 I                1
Nuclear derivative order                   I                1
External E-field                           R   N=          35
  0.00000000E+00  0.00000000E+00  0.00000000E+00  0.00000000E+00  0.00000000E+00
  0.00000000E+00  0.00000000E+00  0.00000000E+00  0.00000000E+00  0.00000000E+00
  0.00000000E+00  0.00000000E+00  0.00000000E+00  0.00000000E+00  0.00000000E+00
  0.00000000E+00  0.00000000E+00  0.00000000E+00  0.00000000E+00  0.00000000E+00
  0.00000000E+00  0.00000000E+00  0.00000000E+00  0.00000000E+00  0.00000000E+00
  0.00000000E+00  0.00000000E+00  0.00000000E+00  0.00000000E+00  0.00000000E+00
  0.00000000E+00  0.00000000E+00  0.00000000E+00  0.00000000E+00  0.00000000E+00
IOpCl                                      I                1
IROHF                                      I                0
Alpha Orbital Energies                     R   N=          68
 -1.05723817E+01 -1.05719841E+01 -8.16434522E-01 -6.84175711E-01 -5.32918334E-01
 -4.54244221E-01 -4.48752921E-01 -3.00441563E-01 -1.07550757E-02  3.38224548E-02
  3.78547481E-02  5.31955344E-02  7.83155839E-02  8.30581359E-02  9.72208562E-02
  1.21635100E-01  1.58740260E-01  1.69370500E-01  2.06640174E-01  2.13192231E-01
  2.78049270E-01  2.98738171E-01  4.20098216E-01  4.45370035E-01  5.02609833E-01
  5.80690349E-01  5.96070966E-01  6.26344321E-01  6.82151912E-01  6.87614234E-01
  7.29722117E-01  7.36680877E-01  7.84596985E-01  8.52142012E-01  1.06832304E+00
  1.10184047E+00  1.13811689E+00  1.44148585E+00  1.44470091E+00  1.45365737E+00
  1.52118363E+00  1.57090281E+00  1.59743392E+00  1.60708381E+00  1.75910325E+00
  1.89139391E+00  1.94895220E+00  1.98530616E+00  1.99846894E+00  2.09554445E+00
  2.12095575E+00  2.16075873E+00  2.41095508E+00  2.48182114E+00  2.53754557E+00
  2.58050661E+00  2.64505904E+00  2.65834371E+00  2.76189944E+00  2.79033243E+00
  2.88530582E+00  2.94444501E+00  3.07256530E+00  3.73209047E+00  3.82092082E+00
  4.11034683E+00  2.38522399E+01  2.38926150E+01
Beta Orbital Energies                      R   N=          68
 -1.05723817E+01 -1.05719841E+01 -8.16434522E-01 -6.84175711E-01 -5.32918334E-01
 -4.54244221E-01 -4.48752921E-01 -3.00441563E-01 -1.07550757E-02  3.38224548E-02
  3.78547481E-02  5.31955344E-02  7.83155839E-02  8.30581359E-02  9.72208562E-02
  1.21635100E-01  1.58740260E-01  1.69370500E-01  2.06640174E-01  2.13192231E-01
  2.78049270E-01  2.98738171E-01  4.20098216E-01  4.45370035E-01  5.02609833E-01
  5.80690349E-01  5.96070966E-01  6.26344321E-01  6.82151912E-01  6.87614234E-01
  7.29722117E-01  7.36680877E-01  7.84596985E-01  8.52142012E-01  1.06832304E+00
  1.10184047E+00  1.13811689E+00  1.44148585E+00  1.44470091E+00  1.45365737E+00
  1.52118363E+00  1.57090281E+00  1.59743392E+00  1.60708381E+00  1.75910325E+00
  1.89139391E+00  1.94895220E+00  1.98530616E+00  1.99846894E+00  2.09554445E+00
  2.12095575E+00  2.16075873E+00  2.41095508E+00  2.48182114E+00  2.53754557E+00
  2.58050661E+00  2.64505904E+00  2.65834371E+00  2.76189944E+00  2.79033243E+00
  2.88530582E+00  2.94444501E+00  3.07256530E+00  3.73209047E+00  3.82092082E+00
  4.11034683E+00  2.38522399E+01  2.38926150E+01
Alpha MO coefficients                      R   N=        4624
  3.98936509E-01  3.28004969E-01  3.27154446E-04  5.89431789E-08 -3.05015671E-13
  8.57694551E-03 -1.56768127E-03 -2.92206922E-07  4.00123894E-13 -2.11081531E-03
 -1.47034805E-04  7.17602956E-08 -1.34923066E-13 -6.11657884E-04  6.08679080E-04
  1.07649390E-08  1.71307365E-13 -7.69131079E-04 -9.72622320E-14  1.24097046E-11
 -9.45619002E-04 -1.00624841E-07  3.98934342E-01  3.28003187E-01 -3.27155483E-04
 -5.89429780E-08 -2.47093997E-13  8.57690181E-03  1.56767753E-03  2.92205697E-07
  1.73615790E-12 -2.11079447E-03  1.47029589E-04 -7.17601729E-08 -1.47863983E-14
 -6.11672263E-04 -6.08671785E-04 -1.07646689E-08 -4.98753274E-13 -7.69125962E-04
  7.72554542E-13 -1.24099982E-11 -9.45617581E-04 -1.00624764E-07  1.41691403E-04
 -2.45217653E-03  1.57811551E-03 -7.51802170E-04 -1.30589806E-03 -5.65434720E-12
  1.41741824E-04 -2.45204210E-03  1.57800571E-03 -7.51909068E-04  1.30571908E-03
  5.83825809E-12  1.41690315E-04 -2.45216642E-03  1.57810790E-03  7.51799293E-04
  1.30589210E-03 -5.06616736E-12  1.41740735E-04 -2.45203199E-03  1.57799810E-03
  7.51906190E-04 -1.30571312E-03  6.42777974E-12 -3.98963847E-01 -3.28096120E-01
  1.90272726E-04 -3.68372831E-08  3.14890898E-13 -8.04706700E-03  6.88216016E-04
  2.25030427E-07 -3.17850918E-13  3.83705423E-03  9.60117550E-04 -2.14056683E-08
  9.78154234E-14 -2.64769323E-03 -1.34327463E-03 -4.91224384E-08  1.98036121E-13
  9.42307395E-04  9.14094377E-14 -8.07198559E-12  2.61553442E-04  1.39233730E-08
  3.98966014E-01  3.28097902E-01  1.90270946E-04 -3.68376055E-08 -1.90470615E-13
  8.04711360E-03  6.88224533E-04  2.25032025E-07  1.41817702E-12 -3.83706570E-03
  9.60118349E-04 -2.14060169E-08 -2.06380866E-13  2.64768991E-03 -1.34327793E-03
 -4.91224902E-08 -4.36677132E-13 -9.42311574E-04  6.21907958E-13 -8.07307077E-12
 -2.61558579E-04 -1.39239144E-08 -2.00405000E-04  1.86146613E-03 -1.40109793E-03
  5.29722237E-04  1.09721575E-03  5.12244641E-12 -2.00423641E-04  1.86124579E-03
 -1.40092468E-03  5.29763848E-04 -1.09706183E-03 -5.27208708E-12  2.00405770E-04
 -1.86147945E-03  1.40110650E-03  5.29726321E-04  1.09722285E-03 -4.60941374E-12
  2.00424411E-04 -1.86125911E-03  1.40093325E-03  5.29767933E-04 -1.09706892E-03
  5.78515633E-12 -8.12368102E-02 -1.30658146E-01  2.03729279E-02 -2.36343724E-06
  4.64934460E-12  3.45250920E-01  3.48157638E-02 -2.02929036E-06  4.98562892E-12
  2.14492638E-01  9.21965755E-03  4.90116578E-07  3.56094359E-12  1.53742704E-03
 -6.23615376E-03  6.64012626E-07 -1.97039230E-12 -9.96603415E-03 -1.20191224E-12
  5.90286323E-11  4.40928685E-03 -6.49078374E-07 -8.12368097E-02 -1.30658145E-01
 -2.03729282E-02  2.36343723E-06  2.04680865E-11  3.45250917E-01 -3.48157643E-02
  2.02929035E-06  2.65199743E-11  2.14492637E-01 -9.21965780E-03 -4.90116597E-07
  1.10073852E-11  1.53742728E-03  6.23615367E-03 -6.64012642E-07  3.14722940E-12
 -9.96603413E-03  2.90223291E-12 -5.90271249E-11  4.40928691E-03 -6.49078366E-07
  6.20815533E-02  6.96908984E-02  1.48017403E-03  5.52843561E-03  9.21504225E-03
  4.15199466E-11  6.20777504E-02  6.96869780E-02  1.47855787E-03  5.52894883E-03
 -9.21357876E-03 -4.23251386E-11  6.20815528E-02  6.96908978E-02  1.48017399E-03
 -5.52843558E-03 -9.21504216E-03  3.80338589E-11  6.20777499E-02  6.96869774E-02
  1.47855783E-03 -5.52894880E-03  9.21357868E-03 -4.58130664E-11 -6.97714358E-02
 -1.12885672E-01 -6.51970879E-02 -3.97346178E-06  2.78467903E-13  3.02867361E-01
 -9.52046948E-02 -4.81026890E-06 -2.37537749E-12  2.23753708E-01 -4.50216001E-02
 -1.91112842E-06  1.71959614E-12 -4.63201941E-02 -1.71324959E-02  6.48543604E-08
  2.60266727E-12 -5.66309362E-03 -3.55537360E-12  9.38970417E-11 -9.52743599E-03
 -1.05951564E-06  6.97714363E-02  1.12885673E-01 -6.51970873E-02 -3.97346183E-06
 -3.88155006E-11 -3.02867363E-01 -9.52046939E-02 -4.81026897E-06 -5.18392188E-11
 -2.23753710E-01 -4.50215996E-02 -1.91112836E-06 -2.42496316E-11  4.63201941E-02
 -1.71324959E-02  6.48545139E-08 -4.01135341E-12  5.66309370E-03 -7.55471556E-12
  9.39020433E-11  9.52743593E-03  1.05951564E-06  8.89258494E-02  1.09015702E-01
  1.51082185E-02  3.75488976E-03  1.26070070E-02  5.95898978E-11  8.89253082E-02
  1.09016426E-01  1.51079648E-02  3.75644838E-03 -1.26064878E-02 -6.18944764E-11
 -8.89258497E-02 -1.09015702E-01 -1.51082185E-02  3.75488980E-03  1.26070071E-02
 -5.54208663E-11 -8.89253085E-02 -1.09016427E-01 -1.51079648E-02  3.75644842E-03
 -1.26064878E-02  6.60787169E-11 -6.82456943E-07 -1.12323463E-06 -4.58282675E-06
  1.46884808E-01  4.69825965E-10  3.20838712E-06 -5.48441217E-06  2.09230292E-01
  6.24599812E-10  3.20339889E-06 -3.38900644E-06  1.25174732E-01  3.81897604E-10
 -1.09407845E-05 -3.72342164E-06  5.24898899E-03  3.93412325E-11  1.62327529E-07
 -7.85504484E-11  1.78358903E-12  2.15788519E-06 -2.72671898E-03  6.82456944E-07
  1.12323464E-06 -4.58282640E-06  1.46884806E-01 -4.69870911E-10 -3.20838713E-06
 -5.48441167E-06  2.09230290E-01 -6.24442100E-10 -3.20339883E-06 -3.38900617E-06
  1.25174730E-01 -3.82029697E-10  1.09407845E-05 -3.72342163E-06  5.24898885E-03
 -3.92882359E-11 -1.62327528E-07 -7.86031041E-11  1.51863654E-11 -2.15788518E-06
  2.72671867E-03 -1.01404615E-01 -1.37882245E-01 -3.64709150E-02 -8.19676859E-03
 -9.09740095E-03 -5.62831886E-11  1.01402612E-01  1.37882871E-01  3.64719039E-02
  8.19857106E-03 -9.09692854E-03 -5.82432492E-11  1.01404614E-01  1.37882244E-01
  3.64709145E-02 -8.19676851E-03 -9.09740086E-03  4.81335576E-11 -1.01402611E-01
 -1.37882870E-01 -3.64719034E-02  8.19857098E-03 -9.09692845E-03  6.64064068E-11
  1.33645449E-05  2.21772857E-05 -2.85341171E-04  1.46743235E-01  1.12605682E-09
 -7.04248796E-05 -4.23850814E-04  2.06687788E-01  1.69540750E-09 -3.37244447E-05
 -2.62337682E-04  1.45506590E-01  1.11842246E-09  6.89690482E-06 -8.24397309E-06
  1.61888917E-02  5.49506378E-11  1.35078821E-06 -1.15415465E-13  5.60451232E-13
 -2.11671836E-05 -2.65951489E-02  1.33645445E-05  2.21772852E-05  2.85341171E-04
 -1.46743237E-01  1.12616876E-09 -7.04248781E-05  4.23850813E-04 -2.06687790E-01
  1.69582356E-09 -3.37244429E-05  2.62337682E-04 -1.45506592E-01  1.11839911E-09
  6.89690152E-06  8.24397410E-06 -1.61888918E-02  5.50981441E-11  1.35078823E-06
  6.57403229E-14 -1.87594739E-11 -2.11671837E-05 -2.65951488E-02 -1.15066221E-01
 -1.66043708E-01 -6.57026733E-02 -7.85177224E-03 -7.02816853E-03 -2.08378344E-12
  1.15278095E-01  1.66356445E-01  6.58290334E-02  7.83943563E-03 -7.05740911E-03
 -3.97136017E-12 -1.15066222E-01 -1.66043710E-01 -6.57026737E-02  7.85177233E-03
  7.02816861E-03  4.93615821E-12  1.15278096E-01  1.66356446E-01  6.58290339E-02
 -7.83943572E-03  7.05740918E-03 -1.10006056E-11 -9.66397648E-03 -1.60590396E-02
  1.84206502E-01  2.31413065E-04 -2.16983684E-11  5.05851314E-02  2.73854300E-01
  3.27065688E-04 -3.79163403E-11  2.92224738E-02  1.71260324E-01  2.31432292E-04
 -1.83422096E-11 -3.89836958E-03  5.24812396E-03  2.39633258E-05 -3.02488768E-13
 -7.91910129E-04 -4.66106289E-12 -6.55412330E-11  1.53253507E-02 -4.12734990E-05
 -9.66397628E-03 -1.60590393E-02 -1.84206502E-01 -2.31413068E-04 -6.58170682E-11
  5.05851305E-02 -2.73854299E-01 -3.27065691E-04 -9.50815660E-11  2.92224727E-02
 -1.71260324E-01 -2.31432295E-04 -6.73090057E-11 -3.89836944E-03 -5.24812402E-03
 -2.39633260E-05 -4.37734036E-12 -7.91910141E-04 -6.94970456E-12  6.55189720E-11
  1.53253508E-02 -4.12734990E-05 -6.97037639E-02 -1.02471707E-01 -4.26171626E-02
  4.51449874E-03 -1.00058126E-02 -5.08055613E-11 -6.93527267E-02 -1.01965022E-01
 -4.24076179E-02  4.53617931E-03  9.98590650E-03  4.90188214E-11 -6.97037641E-02
 -1.02471707E-01 -4.26171628E-02 -4.51449872E-03  1.00058126E-02 -4.78960718E-11
 -6.93527269E-02 -1.01965022E-01 -4.24076181E-02 -4.53617930E-03 -9.98590652E-03
  5.19181609E-11 -4.56005513E-12 -7.58590442E-12  4.87837208E-11 -1.18345626E-09
  1.72114090E-01  2.46323689E-11  6.75946585E-11 -1.77747584E-09  2.75253766E-01
 -1.10375889E-12  5.67358524E-11 -1.46604237E-09  2.70004374E-01 -2.93923179E-10
 -7.27364314E-11 -3.46096763E-10  3.97932572E-02 -9.75920013E-13  1.70452652E-02
 -2.12709896E-07 -8.55521147E-14  1.83299715E-10  2.11658613E-11  3.55992285E-11
 -6.83896850E-11  1.18347801E-09  1.72114090E-01 -1.05135697E-10 -1.11243822E-10
  1.77749780E-09  2.75253765E-01 -1.36214913E-10 -9.74600012E-11  1.46609558E-09
  2.70004373E-01  2.79088336E-10 -1.07075892E-10  3.46021201E-10  3.97932571E-02
  3.53035926E-12 -1.70452653E-02  2.12709897E-07  2.94768338E-12  1.83285472E-10
  4.45180137E-10  8.41175283E-10  7.03782699E-10  1.31915218E-11 -4.58537944E-11
  1.32656234E-02 -4.59700799E-10 -8.70761205E-10 -6.98467913E-10 -7.84753285E-12
 -4.26278681E-11  1.32655772E-02  4.65627270E-10  8.69239019E-10  6.83334045E-10
 -1.82978319E-11  4.06323050E-11  1.32656234E-02 -4.39491327E-10 -8.42319586E-10
 -7.19239473E-10  2.72932994E-12  4.78557813E-11  1.32655772E-02  1.24266009E-11
  2.11588380E-11 -1.51748761E-11 -6.68975415E-10  1.71485279E-01 -6.45602053E-11
 -2.32858356E-11 -1.04125536E-09  2.67180833E-01 -9.27526002E-11 -2.23417447E-11
 -1.87319084E-09  3.99649520E-01  8.74998421E-10  1.50618571E-10 -1.36989239E-09
  5.36688131E-01  1.22740160E-14 -2.40877505E-02 -2.42252961E-07  1.03606087E-12
 -1.51804355E-10 -2.65034607E-11 -4.42121074E-11  4.52884871E-11 -6.69061324E-10
 -1.71485279E-01  1.19093138E-10  7.81544712E-11 -1.04139818E-09 -2.67180833E-01
  3.23906778E-10  1.04393289E-10 -1.87317152E-09 -3.99649520E-01 -6.58767855E-10
  3.44971914E-10 -1.37057537E-09 -5.36688132E-01 -1.02883604E-12 -2.40877503E-02
 -2.42252963E-07  6.18538771E-12  1.51780097E-10 -3.31143694E-10 -6.48744717E-10
 -1.23093282E-09  3.34295990E-11 -8.67708309E-11  1.98583879E-02  3.50515078E-10
  7.07696563E-10  1.15583126E-09 -3.64636324E-11 -8.86428776E-11  1.98594431E-02
  2.93129637E-10  5.84291033E-10  1.12327735E-09  3.98638018E-11 -8.34168412E-11
 -1.98583879E-02 -3.88754497E-10 -7.71667925E-10 -1.26383121E-09 -3.00467114E-11
 -9.20129274E-11 -1.98594431E-02  1.92510912E-02  3.27234877E-02  3.78682619E-02
 -1.70937130E-07 -1.77876246E-11 -8.97247498E-02  5.71376460E-02 -2.52355445E-06
 -2.98600134E-11 -3.33312623E-01  1.33033044E-01  3.85269717E-05 -4.93346000E-11
  1.19145982E+00 -5.96901175E-01  1.40970475E-04 -1.15222715E-10  1.35224848E-02
  3.06988602E-12 -1.44204786E-10  7.70260561E-03  1.64181669E-06  1.92510901E-02
  3.27234858E-02 -3.78682616E-02  1.70936920E-07 -8.36183774E-12 -8.97247433E-02
 -5.71376459E-02  2.52355400E-06 -3.01821866E-11 -3.33312618E-01 -1.33033038E-01