 running on   28 total cores
 distrk:  each k-point on   28 cores,    1 groups
 distr:  one band on   14 cores,    2 groups
 vasp.6.3.1 04May22 (build Aug 04 2022 13:02:54) complex                        
  
 POSCAR found type information on POSCAR C 
 POSCAR found :  1 types and       2 ions
 scaLAPACK will be used
 -----------------------------------------------------------------------------
|                                                                             |
|           W    W    AA    RRRRR   N    N  II  N    N   GGGG   !!!           |
|           W    W   A  A   R    R  NN   N  II  NN   N  G    G  !!!           |
|           W    W  A    A  R    R  N N  N  II  N N  N  G       !!!           |
|           W WW W  AAAAAA  RRRRR   N  N N  II  N  N N  G  GGG   !            |
|           WW  WW  A    A  R   R   N   NN  II  N   NN  G    G                |
|           W    W  A    A  R    R  N    N  II  N    N   GGGG   !!!           |
|                                                                             |
|     For optimal performance we recommend to set                             |
|       NCORE = 2 up to number-of-cores-per-socket                            |
|     NCORE specifies how many cores store one orbital (NPAR=cpu/NCORE).      |
|     This setting can greatly improve the performance of VASP for DFT.       |
|     The default, NCORE=1 might be grossly inefficient on modern             |
|     multi-core architectures or massively parallel machines. Do your        |
|     own testing! More info at https://www.vasp.at/wiki/index.php/NCORE      |
|     Unfortunately you need to use the default for GW and RPA                |
|     calculations (for HF NCORE is supported but not extensively tested      |
|     yet).                                                                   |
|                                                                             |
 -----------------------------------------------------------------------------

 LDA part: xc-table for Pade appr. of Perdew
 POSCAR, INCAR and KPOINTS ok, starting setup
 FFT: planning ... GRIDC
 FFT: planning ... GRID_SOFT
 FFT: planning ... GRID
 WAVECAR not read
 WARNING: random wavefunctions but no delay for mixing, default for NELMDL
 entering main loop
       N       E                     dE             d eps       ncg     rms          rms(c)
DAV:   1     0.410675154989E+02    0.41068E+02   -0.23910E+03  1184   0.638E+02
DAV:   2    -0.268168255909E+01   -0.43749E+02   -0.42572E+02  2208   0.871E+01
DAV:   3    -0.633549545617E+01   -0.36538E+01   -0.35024E+01  1696   0.371E+01
DAV:   4    -0.643565543967E+01   -0.10016E+00   -0.98874E-01  1904   0.597E+00
DAV:   5    -0.643699443484E+01   -0.13390E-02   -0.13376E-02  1792   0.452E-01    0.158E+00
DAV:   6    -0.641310166296E+01    0.23893E-01   -0.36707E-02  1592   0.125E+00    0.844E-01
DAV:   7    -0.640863062850E+01    0.44710E-02   -0.30151E-02  1336   0.130E+00    0.193E-01
DAV:   8    -0.640909007520E+01   -0.45945E-03   -0.12081E-03  2128   0.259E-01    0.637E-02
DAV:   9    -0.640916749755E+01   -0.77422E-04   -0.95840E-05  1328   0.990E-02    0.163E-02
DAV:  10    -0.640920224385E+01   -0.34746E-04   -0.15914E-05  1984   0.256E-02    0.708E-03
DAV:  11    -0.640921155453E+01   -0.93107E-05   -0.10638E-05  1768   0.114E-02    0.552E-03
DAV:  12    -0.640923077197E+01   -0.19217E-04   -0.52936E-06  1184   0.125E-02    0.368E-03
DAV:  13    -0.640924591679E+01   -0.15145E-04   -0.41615E-06  1184   0.936E-03    0.399E-03
DAV:  14    -0.640925747963E+01   -0.11563E-04   -0.17316E-06  1576   0.721E-03    0.108E-03
DAV:  15    -0.640926115591E+01   -0.36763E-05   -0.12435E-07  1840   0.190E-03    0.603E-04
DAV:  16    -0.640927019117E+01   -0.90353E-05   -0.41594E-07  1184   0.245E-03    0.307E-04
DAV:  17    -0.640927270054E+01   -0.25094E-05   -0.13454E-07  1304   0.116E-03    0.235E-04
DAV:  18    -0.640927340058E+01   -0.70005E-06   -0.28871E-08  1480   0.578E-04    0.707E-05
DAV:  19    -0.640927346957E+01   -0.68988E-07   -0.11453E-09   592   0.144E-04    0.243E-05
DAV:  20    -0.640927348432E+01   -0.14745E-07   -0.50894E-10   592   0.736E-05    0.769E-06
DAV:  21    -0.640927348568E+01   -0.13626E-08   -0.72665E-11   592   0.429E-05
   1 F= -.65181773E+01 E0= -.65148015E+01  d E =-.675161E-02
