 Entering Gaussian System, Link 0=g16
 Initial command:
 /home/szhao/Apps/g16/l1.exe "/home/szhao/tmp/Gau-68097.inp" -scrdir="/home/szhao/tmp/"
 Default is to use a total of  16 processors:
                               16 via shared-memory
                                1 via Linda
 Entering Link 1 = /home/szhao/Apps/g16/l1.exe PID=     68099.
  
 Copyright (c) 1988,1990,1992,1993,1995,1998,2003,2009,2016,
            Gaussian, Inc.  All Rights Reserved.
  
 This is part of the Gaussian(R) 16 program.  It is based on
 the Gaussian(R) 09 system (copyright 2009, Gaussian, Inc.),
 the Gaussian(R) 03 system (copyright 2003, Gaussian, Inc.),
 the Gaussian(R) 98 system (copyright 1998, Gaussian, Inc.),
 the Gaussian(R) 94 system (copyright 1995, Gaussian, Inc.),
 the Gaussian 92(TM) system (copyright 1992, Gaussian, Inc.),
 the Gaussian 90(TM) system (copyright 1990, Gaussian, Inc.),
 the Gaussian 88(TM) system (copyright 1988, Gaussian, Inc.),
 the Gaussian 86(TM) system (copyright 1986, Carnegie Mellon
 University), and the Gaussian 82(TM) system (copyright 1983,
 Carnegie Mellon University). Gaussian is a federally registered
 trademark of Gaussian, Inc.
  
 This software contains proprietary and confidential information,
 including trade secrets, belonging to Gaussian, Inc.
  
 This software is provided under written license and may be
 used, copied, transmitted, or stored only in accord with that
 written license.
  
 The following legend is applicable only to US Government
 contracts under FAR:
  
                    RESTRICTED RIGHTS LEGEND
  
 Use, reproduction and disclosure by the US Government is
 subject to restrictions as set forth in subparagraphs (a)
 and (c) of the Commercial Computer Software - Restricted
 Rights clause in FAR 52.227-19.
  
 Gaussian, Inc.
 340 Quinnipiac St., Bldg. 40, Wallingford CT 06492
  
  
 ---------------------------------------------------------------
 Warning -- This program may not be used in any manner that
 competes with the business of Gaussian, Inc. or will provide
 assistance to any competitor of Gaussian, Inc.  The licensee
 of this program is prohibited from giving any competitor of
 Gaussian, Inc. access to this program.  By using this program,
 the user acknowledges that Gaussian, Inc. is engaged in the
 business of creating and licensing software in the field of
 computational chemistry and represents and warrants to the
 licensee that it is not a competitor of Gaussian, Inc. and that
 it will not use this program in any manner prohibited above.
 ---------------------------------------------------------------
  

 Cite this work as:
 Gaussian 16, Revision A.03,
 M. J. Frisch, G. W. Trucks, H. B. Schlegel, G. E. Scuseria, 
 M. A. Robb, J. R. Cheeseman, G. Scalmani, V. Barone, 
 G. A. Petersson, H. Nakatsuji, X. Li, M. Caricato, A. V. Marenich, 
 J. Bloino, B. G. Janesko, R. Gomperts, B. Mennucci, H. P. Hratchian, 
 J. V. Ortiz, A. F. Izmaylov, J. L. Sonnenberg, D. Williams-Young, 
 F. Ding, F. Lipparini, F. Egidi, J. Goings, B. Peng, A. Petrone, 
 T. Henderson, D. Ranasinghe, V. G. Zakrzewski, J. Gao, N. Rega, 
 G. Zheng, W. Liang, M. Hada, M. Ehara, K. Toyota, R. Fukuda, 
 J. Hasegawa, M. Ishida, T. Nakajima, Y. Honda, O. Kitao, H. Nakai, 
 T. Vreven, K. Throssell, J. A. Montgomery, Jr., J. E. Peralta, 
 F. Ogliaro, M. J. Bearpark, J. J. Heyd, E. N. Brothers, K. N. Kudin, 
 V. N. Staroverov, T. A. Keith, R. Kobayashi, J. Normand, 
 K. Raghavachari, A. P. Rendell, J. C. Burant, S. S. Iyengar, 
 J. Tomasi, M. Cossi, J. M. Millam, M. Klene, C. Adamo, R. Cammi, 
 J. W. Ochterski, R. L. Martin, K. Morokuma, O. Farkas, 
 J. B. Foresman, and D. J. Fox, Gaussian, Inc., Wallingford CT, 2016.
 
 ******************************************
 Gaussian 16:  ES64L-G16RevA.03 25-Dec-2016
                19-Nov-2024 
 ******************************************
 %chk=opt.chk
 %mem=4GB
 %nprocshared=8
 Will use up to    8 processors via shared memory.
 ---------------------------------------
 #p UM062X/6-311+G** force int=superfine
 ---------------------------------------
 1/10=7,30=1,38=1/1,3;
 2/12=2,17=6,18=5,40=1/2;
 3/5=4,6=6,7=111,11=2,25=1,30=1,71=1,74=-55,75=-7,116=2/1,2,3;
 4//1;
 5/5=2,38=5/2;
 6/7=2,8=2,9=2,10=2,28=1/1;
 7/29=1/1,2,3,16;
 1/10=7,30=1/3;
 99//99;
 Leave Link    1 at Tue Nov 19 11:53:52 2024, MaxMem=   536870912 cpu:               0.3 elap:               0.0
 (Enter /home/szhao/Apps/g16/l101.exe)
 -------------------
 Title Card Required
 -------------------
 Symbolic Z-matrix:
 Charge =  1 Multiplicity = 2
 C                    -0.68569   0.        0. 
 C                     0.68569   0.        0. 
 H                    -1.24652  -0.93136   0. 
 H                    -1.24666   0.9312    0. 
 H                     1.24652   0.93136   0. 
 H                     1.24666  -0.9312    0. 
 
 ITRead=  0  0  0  0  0  0
 MicOpt= -1 -1 -1 -1 -1 -1
 NAtoms=      6 NQM=        6 NQMF=       0 NMMI=      0 NMMIF=      0
                NMic=       0 NMicF=      0.
                    Isotopes and Nuclear Properties:
 (Nuclear quadrupole moments (NQMom) in fm**2, nuclear magnetic moments (NMagM)
  in nuclear magnetons)

  Atom         1           2           3           4           5           6
 IAtWgt=          12          12           1           1           1           1
 AtmWgt=  12.0000000  12.0000000   1.0078250   1.0078250   1.0078250   1.0078250
 NucSpn=           0           0           1           1           1           1
 AtZEff=  -0.0000000  -0.0000000  -0.0000000  -0.0000000  -0.0000000  -0.0000000
 NQMom=    0.0000000   0.0000000   0.0000000   0.0000000   0.0000000   0.0000000
 NMagM=    0.0000000   0.0000000   2.7928460   2.7928460   2.7928460   2.7928460
 AtZNuc=   6.0000000   6.0000000   1.0000000   1.0000000   1.0000000   1.0000000
 Leave Link  101 at Tue Nov 19 11:53:52 2024, MaxMem=   536870912 cpu:               1.2 elap:               0.2
 (Enter /home/szhao/Apps/g16/l103.exe)

 GradGradGradGradGradGradGradGradGradGradGradGradGradGradGradGradGradGrad
 Berny optimization.
 Initialization pass.
 Trust Radius=3.00D-01 FncErr=1.00D-07 GrdErr=1.00D-07 EigMax=2.50D+02 EigMin=1.00D-04
 Number of steps in this run=      2 maximum allowed number of steps=      2.
 GradGradGradGradGradGradGradGradGradGradGradGradGradGradGradGradGradGrad

 Leave Link  103 at Tue Nov 19 11:53:52 2024, MaxMem=   536870912 cpu:               0.1 elap:               0.0
 (Enter /home/szhao/Apps/g16/l202.exe)
                          Input orientation:                          
 ---------------------------------------------------------------------
 Center     Atomic      Atomic             Coordinates (Angstroms)
 Number     Number       Type             X           Y           Z
 ---------------------------------------------------------------------
      1          6           0       -0.685685    0.000000    0.000000
      2          6           0        0.685685    0.000000    0.000000
      3          1           0       -1.246522   -0.931364    0.000000
      4          1           0       -1.246662    0.931198    0.000000
      5          1           0        1.246522    0.931364    0.000000
      6          1           0        1.246662   -0.931198    0.000000
 ---------------------------------------------------------------------
                    Distance matrix (angstroms):
                    1          2          3          4          5
     1  C    0.000000
     2  C    1.371370   0.000000
     3  H    1.087188   2.144962   0.000000
     4  H    1.087118   2.145016   1.862562   0.000000
     5  H    2.144962   1.087188   3.112077   2.493184   0.000000
     6  H    2.145016   1.087118   2.493184   3.112103   1.862562
                    6
     6  H    0.000000
 Stoichiometry    C2H4(1+,2)
 Framework group  C2H[SGH(C2H4)]
 Deg. of freedom     5
 Full point group                 C2H     NOp   4
 Largest Abelian subgroup         C2H     NOp   4
 Largest concise Abelian subgroup C2      NOp   2
                         Standard orientation:                         
 ---------------------------------------------------------------------
 Center     Atomic      Atomic             Coordinates (Angstroms)
 Number     Number       Type             X           Y           Z
 ---------------------------------------------------------------------
      1          6           0       -0.000000    0.685685    0.000000
      2          6           0       -0.000000   -0.685685    0.000000
      3          1           0        0.931364    1.246522    0.000000
      4          1           0       -0.931198    1.246662    0.000000
      5          1           0       -0.931364   -1.246522   -0.000000
      6          1           0        0.931198   -1.246662    0.000000
 ---------------------------------------------------------------------
 Rotational constants (GHZ):         144.5474973          28.7989194          24.0144088
 Leave Link  202 at Tue Nov 19 11:53:52 2024, MaxMem=   536870912 cpu:               0.0 elap:               0.0
 (Enter /home/szhao/Apps/g16/l301.exe)
 Standard basis: 6-311+G(d,p) (5D, 7F)
 Ernie: Thresh=  0.10000D-02 Tol=  0.10000D-05 Strict=F.
 There are    27 symmetry adapted cartesian basis functions of AG  symmetry.
 There are     8 symmetry adapted cartesian basis functions of BG  symmetry.
 There are     8 symmetry adapted cartesian basis functions of AU  symmetry.
 There are    27 symmetry adapted cartesian basis functions of BU  symmetry.
 There are    26 symmetry adapted basis functions of AG  symmetry.
 There are     8 symmetry adapted basis functions of BG  symmetry.
 There are     8 symmetry adapted basis functions of AU  symmetry.
 There are    26 symmetry adapted basis functions of BU  symmetry.
    68 basis functions,   104 primitive gaussians,    70 cartesian basis functions
     8 alpha electrons        7 beta electrons
       nuclear repulsion energy        32.8273157799 Hartrees.
 IExCor= 4336 DFT=T Ex+Corr=M062X ExCW=0 ScaHFX=  0.540000
 ScaDFX=  1.000000  1.000000  1.000000  1.000000 ScalE2=  1.000000  1.000000
 IRadAn=      7 IRanWt=     -1 IRanGd=            0 ICorTp=0 IEmpDi=  4
 NAtoms=    6 NActive=    6 NUniq=    3 SFac= 4.00D+00 NAtFMM=   60 NAOKFM=F Big=F
 Integral buffers will be    131072 words long.
 Raffenetti 2 integral format.
 Two-electron integral symmetry is turned on.
 Leave Link  301 at Tue Nov 19 11:53:52 2024, MaxMem=   536870912 cpu:               0.4 elap:               0.0
 (Enter /home/szhao/Apps/g16/l302.exe)
 NPDir=0 NMtPBC=     1 NCelOv=     1 NCel=       1 NClECP=     1 NCelD=      1
         NCelK=      1 NCelE2=     1 NClLst=     1 CellRange=     0.0.
 One-electron integrals computed using PRISM.
 One-electron integral symmetry used in STVInt
 NBasis=    68 RedAO= T EigKep=  1.73D-04  NBF=    26     8     8    26
 NBsUse=    68 1.00D-06 EigRej= -1.00D+00 NBFU=    26     8     8    26
 Precomputing XC quadrature grid using
 IXCGrd= 4 IRadAn=           7 IRanWt=          -1 IRanGd=           0 AccXCQ= 0.00D+00.
 Generated NRdTot=       0 NPtTot=           0 NUsed=           0 NTot=          32
 NSgBfM=    70    70    70    70    70 MxSgAt=     6 MxSgA2=     6.
 Leave Link  302 at Tue Nov 19 11:53:53 2024, MaxMem=   536870912 cpu:               1.3 elap:               0.2
 (Enter /home/szhao/Apps/g16/l303.exe)
 DipDrv:  MaxL=1.
 Leave Link  303 at Tue Nov 19 11:53:53 2024, MaxMem=   536870912 cpu:               0.3 elap:               0.0
 (Enter /home/szhao/Apps/g16/l401.exe)
 ExpMin= 4.38D-02 ExpMax= 4.56D+03 ExpMxC= 6.82D+02 IAcc=3 IRadAn=         7 AccDes= 0.00D+00
 Harris functional with IExCor= 1009 and IRadAn=       7 diagonalized for initial guess.
 HarFok:  IExCor= 1009 AccDes= 0.00D+00 IRadAn=         7 IDoV= 1 UseB2=F ITyADJ=14
 ICtDFT=  3500011 ScaDFX=  1.000000  1.000000  1.000000  1.000000
 FoFCou: FMM=F IPFlag=           0 FMFlag=      100000 FMFlg1=           0
         NFxFlg=           0 DoJE=T BraDBF=F KetDBF=T FulRan=T
         wScrn=  0.000000 ICntrl=       500 IOpCl=  0 I1Cent=   200000004 NGrid=           0
         NMat0=    1 NMatS0=      1 NMatT0=    0 NMatD0=    1 NMtDS0=    0 NMtDT0=    0
 Petite list used in FoFCou.
 Harris En= -78.1936544502457    
 JPrj=0 DoOrth=F DoCkMO=F.
 Initial guess orbital symmetries:
 Alpha Orbitals:
       Occupied  (AG) (BU) (AG) (BU) (BU) (AG) (AG) (AU)
       Virtual   (BG) (AG) (BU) (BU) (AU) (AG) (AG) (AG) (BG) (BU)
                 (BU) (BU) (BU) (AG) (BU) (AG) (AG) (BU) (AU) (BG)
                 (BU) (BU) (AG) (AG) (AG) (BU) (BG) (AU) (AU) (AG)
                 (BU) (AG) (BU) (AG) (BU) (BG) (AU) (BG) (BU) (AG)
                 (BG) (AG) (AU) (BU) (AG) (BU) (BU) (AG) (AG) (AU)
                 (BU) (BU) (BG) (AG) (AG) (BU) (AG) (BU) (AG) (BU)
 Beta  Orbitals:
       Occupied  (AG) (BU) (AG) (BU) (BU) (AG) (AG)
       Virtual   (AU) (BG) (AG) (BU) (BU) (AU) (AG) (AG) (AG) (BG)
                 (BU) (BU) (BU) (BU) (AG) (BU) (AG) (AG) (BU) (AU)
                 (BG) (BU) (BU) (AG) (AG) (AG) (BU) (BG) (AU) (AU)
                 (AG) (BU) (AG) (BU) (AG) (BU) (BG) (AU) (BG) (BU)
                 (AG) (BG) (AG) (AU) (BU) (AG) (BU) (BU) (AG) (AG)
                 (AU) (BU) (BU) (BG) (AG) (AG) (BU) (AG) (BU) (AG)
                 (BU)
 The electronic state of the initial guess is 2-AU.
 Initial guess <Sx>= 0.0000 <Sy>= 0.0000 <Sz>= 0.5000 <S**2>= 0.7500 S= 0.5000
 Leave Link  401 at Tue Nov 19 11:53:53 2024, MaxMem=   536870912 cpu:               1.5 elap:               0.2
 (Enter /home/szhao/Apps/g16/l502.exe)
 Keep R1 and R2 ints in memory in symmetry-blocked form, NReq=9935231.
 FoFCou: FMM=F IPFlag=           0 FMFlag=           0 FMFlg1=           0
         NFxFlg=           0 DoJE=F BraDBF=F KetDBF=F FulRan=T
         wScrn=  0.000000 ICntrl=       600 IOpCl=  0 I1Cent=           0 NGrid=           0
         NMat0=    1 NMatS0=   2346 NMatT0=    0 NMatD0=    1 NMtDS0=    0 NMtDT0=    0
 Petite list used in FoFCou.
 UHF open shell SCF:
 Using DIIS extrapolation, IDIIS=  1040.
 NGot=   536870912 LenX=   535358062 LenY=   535352721
 Requested convergence on RMS density matrix=1.00D-08 within 128 cycles.
 Requested convergence on MAX density matrix=1.00D-06.
 Requested convergence on             energy=1.00D-06.
 No special actions if energy rises.

 Cycle   1  Pass 1  IDiag  1:
 E= -78.1724368402980    
 DIIS: error= 2.56D-02 at cycle   1 NSaved=   1.
 NSaved= 1 IEnMin= 1 EnMin= -78.1724368402980     IErMin= 1 ErrMin= 2.56D-02
 ErrMax= 2.56D-02  0.00D+00 EMaxC= 1.00D-01 BMatC= 7.69D-02 BMatP= 7.69D-02
 IDIUse=3 WtCom= 7.44D-01 WtEn= 2.56D-01
 Coeff-Com:  0.100D+01
 Coeff-En:   0.100D+01
 Coeff:      0.100D+01
 Gap=     0.392 Goal=   None    Shift=    0.000
 Gap=     0.301 Goal=   None    Shift=    0.000
 GapD=    0.301 DampG=1.000 DampE=0.500 DampFc=0.5000 IDamp=-1.
 Damping current iteration by 5.00D-01
 RMSDP=2.28D-03 MaxDP=3.54D-02              OVMax= 3.25D-02

 Cycle   2  Pass 1  IDiag  1:
 E= -78.1775768719915     Delta-E=       -0.005140031694 Rises=F Damp=T
 DIIS: error= 1.14D-02 at cycle   2 NSaved=   2.
 NSaved= 2 IEnMin= 2 EnMin= -78.1775768719915     IErMin= 2 ErrMin= 1.14D-02
 ErrMax= 1.14D-02  0.00D+00 EMaxC= 1.00D-01 BMatC= 1.62D-02 BMatP= 7.69D-02
 IDIUse=3 WtCom= 8.86D-01 WtEn= 1.14D-01
 Coeff-Com: -0.734D+00 0.173D+01
 Coeff-En:   0.000D+00 0.100D+01
 Coeff:     -0.650D+00 0.165D+01
 Gap=     0.392 Goal=   None    Shift=    0.000
 Gap=     0.288 Goal=   None    Shift=    0.000
 RMSDP=1.17D-03 MaxDP=1.70D-02 DE=-5.14D-03 OVMax= 1.40D-02

 Cycle   3  Pass 1  IDiag  1:
 E= -78.1824079198889     Delta-E=       -0.004831047897 Rises=F Damp=F
 DIIS: error= 2.61D-03 at cycle   3 NSaved=   3.
 NSaved= 3 IEnMin= 3 EnMin= -78.1824079198889     IErMin= 3 ErrMin= 2.61D-03
 ErrMax= 2.61D-03  0.00D+00 EMaxC= 1.00D-01 BMatC= 5.09D-04 BMatP= 1.62D-02
 IDIUse=3 WtCom= 9.74D-01 WtEn= 2.61D-02
 Coeff-Com: -0.231D+00 0.455D+00 0.776D+00
 Coeff-En:   0.000D+00 0.000D+00 0.100D+01
 Coeff:     -0.225D+00 0.443D+00 0.782D+00
 Gap=     0.391 Goal=   None    Shift=    0.000
 Gap=     0.292 Goal=   None    Shift=    0.000
 RMSDP=1.18D-04 MaxDP=3.44D-03 DE=-4.83D-03 OVMax= 4.96D-03

 Cycle   4  Pass 1  IDiag  1:
 E= -78.1825436631535     Delta-E=       -0.000135743265 Rises=F Damp=F
 DIIS: error= 4.33D-04 at cycle   4 NSaved=   4.
 NSaved= 4 IEnMin= 4 EnMin= -78.1825436631535     IErMin= 4 ErrMin= 4.33D-04
 ErrMax= 4.33D-04  0.00D+00 EMaxC= 1.00D-01 BMatC= 1.22D-05 BMatP= 5.09D-04
 IDIUse=3 WtCom= 9.96D-01 WtEn= 4.33D-03
 Coeff-Com:  0.280D-01-0.615D-01-0.881D-02 0.104D+01
 Coeff-En:   0.000D+00 0.000D+00 0.000D+00 0.100D+01
 Coeff:      0.279D-01-0.612D-01-0.878D-02 0.104D+01
 Gap=     0.391 Goal=   None    Shift=    0.000
 Gap=     0.292 Goal=   None    Shift=    0.000
 RMSDP=3.08D-05 MaxDP=4.71D-04 DE=-1.36D-04 OVMax= 9.59D-04

 Cycle   5  Pass 1  IDiag  1:
 E= -78.1825498101127     Delta-E=       -0.000006146959 Rises=F Damp=F
 DIIS: error= 1.24D-04 at cycle   5 NSaved=   5.
 NSaved= 5 IEnMin= 5 EnMin= -78.1825498101127     IErMin= 5 ErrMin= 1.24D-04
 ErrMax= 1.24D-04  0.00D+00 EMaxC= 1.00D-01 BMatC= 1.40D-06 BMatP= 1.22D-05
 IDIUse=3 WtCom= 9.99D-01 WtEn= 1.24D-03
 Coeff-Com:  0.202D-01-0.391D-01-0.786D-01-0.150D+00 0.125D+01
 Coeff-En:   0.000D+00 0.000D+00 0.000D+00 0.000D+00 0.100D+01
 Coeff:      0.202D-01-0.391D-01-0.785D-01-0.149D+00 0.125D+01
 Gap=     0.391 Goal=   None    Shift=    0.000
 Gap=     0.292 Goal=   None    Shift=    0.000
 RMSDP=1.45D-05 MaxDP=2.46D-04 DE=-6.15D-06 OVMax= 5.09D-04

 Cycle   6  Pass 1  IDiag  1:
 E= -78.1825507451611     Delta-E=       -0.000000935048 Rises=F Damp=F
 DIIS: error= 2.59D-05 at cycle   6 NSaved=   6.
 NSaved= 6 IEnMin= 6 EnMin= -78.1825507451611     IErMin= 6 ErrMin= 2.59D-05
 ErrMax= 2.59D-05  0.00D+00 EMaxC= 1.00D-01 BMatC= 3.53D-08 BMatP= 1.40D-06
 IDIUse=1 WtCom= 1.00D+00 WtEn= 0.00D+00
 Coeff-Com: -0.518D-02 0.104D-01 0.148D-01-0.181D-01-0.238D+00 0.124D+01
 Coeff:     -0.518D-02 0.104D-01 0.148D-01-0.181D-01-0.238D+00 0.124D+01
 Gap=     0.391 Goal=   None    Shift=    0.000
 Gap=     0.292 Goal=   None    Shift=    0.000
 RMSDP=2.44D-06 MaxDP=3.31D-05 DE=-9.35D-07 OVMax= 8.07D-05

 Cycle   7  Pass 1  IDiag  1:
 E= -78.1825507672130     Delta-E=       -0.000000022052 Rises=F Damp=F
 DIIS: error= 1.96D-06 at cycle   7 NSaved=   7.
 NSaved= 7 IEnMin= 7 EnMin= -78.1825507672130     IErMin= 7 ErrMin= 1.96D-06
 ErrMax= 1.96D-06  0.00D+00 EMaxC= 1.00D-01 BMatC= 1.68D-10 BMatP= 3.53D-08
 IDIUse=1 WtCom= 1.00D+00 WtEn= 0.00D+00
 Coeff-Com:  0.170D-03-0.333D-03-0.436D-03 0.231D-02 0.766D-02-0.110D+00
 Coeff-Com:  0.110D+01
 Coeff:      0.170D-03-0.333D-03-0.436D-03 0.231D-02 0.766D-02-0.110D+00
 Coeff:      0.110D+01
 Gap=     0.391 Goal=   None    Shift=    0.000
 Gap=     0.292 Goal=   None    Shift=    0.000
 RMSDP=1.28D-07 MaxDP=2.20D-06 DE=-2.21D-08 OVMax= 5.50D-06

 Cycle   8  Pass 1  IDiag  1:
 E= -78.1825507673015     Delta-E=       -0.000000000089 Rises=F Damp=F
 DIIS: error= 1.53D-07 at cycle   8 NSaved=   8.
 NSaved= 8 IEnMin= 8 EnMin= -78.1825507673015     IErMin= 8 ErrMin= 1.53D-07
 ErrMax= 1.53D-07  0.00D+00 EMaxC= 1.00D-01 BMatC= 1.80D-12 BMatP= 1.68D-10
 IDIUse=1 WtCom= 1.00D+00 WtEn= 0.00D+00
 Coeff-Com:  0.256D-04-0.528D-04-0.578D-04-0.126D-03 0.109D-02 0.130D-02
 Coeff-Com: -0.130D+00 0.113D+01
 Coeff:      0.256D-04-0.528D-04-0.578D-04-0.126D-03 0.109D-02 0.130D-02
 Coeff:     -0.130D+00 0.113D+01
 Gap=     0.391 Goal=   None    Shift=    0.000
 Gap=     0.292 Goal=   None    Shift=    0.000
 RMSDP=2.05D-08 MaxDP=2.80D-07 DE=-8.86D-11 OVMax= 4.87D-07

 Cycle   9  Pass 1  IDiag  1:
 E= -78.1825507673025     Delta-E=       -0.000000000001 Rises=F Damp=F
 DIIS: error= 1.31D-08 at cycle   9 NSaved=   9.
 NSaved= 9 IEnMin= 9 EnMin= -78.1825507673025     IErMin= 9 ErrMin= 1.31D-08
 ErrMax= 1.31D-08  0.00D+00 EMaxC= 1.00D-01 BMatC= 1.80D-14 BMatP= 1.80D-12
 IDIUse=1 WtCom= 1.00D+00 WtEn= 0.00D+00
 Coeff-Com: -0.444D-05 0.880D-05 0.770D-05-0.510D-05-0.174D-03 0.623D-03
 Coeff-Com:  0.493D-02-0.125D+00 0.112D+01
 Coeff:     -0.444D-05 0.880D-05 0.770D-05-0.510D-05-0.174D-03 0.623D-03
 Coeff:      0.493D-02-0.125D+00 0.112D+01
 Gap=     0.391 Goal=   None    Shift=    0.000
 Gap=     0.292 Goal=   None    Shift=    0.000
 RMSDP=1.64D-09 MaxDP=2.49D-08 DE=-9.66D-13 OVMax= 4.79D-08

 SCF Done:  E(UM062X) =  -78.1825507673     A.U. after    9 cycles
            NFock=  9  Conv=0.16D-08     -V/T= 2.0028
 <Sx>= 0.0000 <Sy>= 0.0000 <Sz>= 0.5000 <S**2>= 0.7525 S= 0.5013
 <L.S>=  0.00000000000    
 KE= 7.796534082568D+01 PE=-2.419951030218D+02 EE= 5.301989564892D+01
 Annihilation of the first spin contaminant:
 S**2 before annihilation     0.7525,   after     0.7500
 Leave Link  502 at Tue Nov 19 11:53:55 2024, MaxMem=   536870912 cpu:              14.4 elap:               1.8
 (Enter /home/szhao/Apps/g16/l601.exe)
 Copying SCF densities to generalized density rwf, IOpCl= 1 IROHF=0.

 **********************************************************************

            Population analysis using the SCF density.

 **********************************************************************

 Orbital symmetries:
 Alpha Orbitals:
       Occupied  (AG) (BU) (AG) (BU) (BU) (AG) (AG) (AU)
       Virtual   (BG) (AG) (BU) (BU) (AU) (AG) (AG) (AG) (BG) (BU)
                 (BU) (BU) (BU) (AG) (BU) (AG) (AG) (BU) (AU) (BG)
                 (BU) (AG) (BU) (AG) (AG) (BU) (BG) (AU) (AU) (AG)
                 (BU) (AG) (AG) (BU) (BU) (BG) (AU) (BG) (BU) (AG)
                 (BG) (AU) (AG) (BU) (AG) (BU) (BU) (AG) (AG) (BU)
                 (AU) (BU) (BG) (AG) (AG) (BU) (AG) (BU) (AG) (BU)
 Beta  Orbitals:
       Occupied  (AG) (BU) (AG) (BU) (BU) (AG) (AG)
       Virtual   (AU) (BG) (AG) (BU) (BU) (AU) (AG) (AG) (AG) (BG)
                 (BU) (BU) (BU) (BU) (AG) (BU) (AG) (AG) (AU) (BU)
                 (BG) (BU) (AG) (BU) (AG) (AG) (BU) (BG) (AU) (AU)
                 (AG) (BU) (AG) (AG) (BU) (BU) (BG) (AU) (BG) (BU)
                 (AG) (BG) (AU) (AG) (BU) (AG) (BU) (BU) (AG) (AG)
                 (BU) (AU) (BU) (BG) (AG) (AG) (BU) (AG) (BU) (AG)
                 (BU)
 The electronic state is 2-AU.
 Alpha  occ. eigenvalues --  -10.89297 -10.89200  -1.19857  -0.97521  -0.85280
 Alpha  occ. eigenvalues --   -0.80331  -0.72303  -0.67811
 Alpha virt. eigenvalues --   -0.28684  -0.14722  -0.12676  -0.12552  -0.09848
 Alpha virt. eigenvalues --   -0.07826  -0.06822  -0.04855  -0.04423  -0.02647
 Alpha virt. eigenvalues --   -0.00427   0.02330   0.09163   0.10985   0.20614
 Alpha virt. eigenvalues --    0.22645   0.27632   0.30099   0.30994   0.37962
 Alpha virt. eigenvalues --    0.39572   0.46064   0.46446   0.48984   0.56534
 Alpha virt. eigenvalues --    0.60914   0.73892   0.80637   0.86472   1.11931
 Alpha virt. eigenvalues --    1.16620   1.19803   1.32011   1.32134   1.36376
 Alpha virt. eigenvalues --    1.37391   1.50251   1.53766   1.70182   1.77174
 Alpha virt. eigenvalues --    1.77573   1.86086   1.88100   1.93704   2.11772
 Alpha virt. eigenvalues --    2.18324   2.28517   2.32134   2.40356   2.43326
 Alpha virt. eigenvalues --    2.43342   2.53183   2.58157   2.81498   3.06396
 Alpha virt. eigenvalues --    3.38909   3.54930   3.83586  23.50019  23.85752
  Beta  occ. eigenvalues --  -10.89063 -10.88981  -1.15777  -0.95614  -0.84112
  Beta  occ. eigenvalues --   -0.79403  -0.71993
  Beta virt. eigenvalues --   -0.42812  -0.21777  -0.16468  -0.12752  -0.12520
  Beta virt. eigenvalues --   -0.10404  -0.08716  -0.06882  -0.04796  -0.03557
  Beta virt. eigenvalues --   -0.02176  -0.00719   0.02493   0.10437   0.11442
  Beta virt. eigenvalues --    0.19904   0.22045   0.29101   0.29419   0.30955
  Beta virt. eigenvalues --    0.37244   0.40670   0.47075   0.48268   0.50381
  Beta virt. eigenvalues --    0.53465   0.60171   0.77420   0.84361   0.88818
  Beta virt. eigenvalues --    1.16067   1.18263   1.20656   1.34890   1.35074
  Beta virt. eigenvalues --    1.37698   1.38195   1.51825   1.55926   1.72615
  Beta virt. eigenvalues --    1.78663   1.80691   1.88245   1.89719   1.97671
  Beta virt. eigenvalues --    2.15027   2.21288   2.29451   2.32716   2.41379
  Beta virt. eigenvalues --    2.44908   2.47157   2.55594   2.62803   2.85293
  Beta virt. eigenvalues --    3.09408   3.43583   3.59571   3.88925  23.51223
  Beta virt. eigenvalues --   23.87435
          Condensed to atoms (all electrons):
               1          2          3          4          5          6
     1  C    4.864875   0.459220   0.386162   0.386165  -0.023008  -0.022992
     2  C    0.459220   4.864875  -0.023008  -0.022992   0.386162   0.386165
     3  H    0.386162  -0.023008   0.368359  -0.006484   0.001712  -0.001945
     4  H    0.386165  -0.022992  -0.006484   0.368331  -0.001945   0.001710
     5  H   -0.023008   0.386162   0.001712  -0.001945   0.368359  -0.006484
     6  H   -0.022992   0.386165  -0.001945   0.001710  -0.006484   0.368331
          Atomic-Atomic Spin Densities.
               1          2          3          4          5          6
     1  C    0.415981   0.132047  -0.006376  -0.006375   0.001092   0.001091
     2  C    0.132047   0.415981   0.001092   0.001091  -0.006376  -0.006375
     3  H   -0.006376   0.001092  -0.012623  -0.000612   0.000044  -0.000255
     4  H   -0.006375   0.001091  -0.000612  -0.012620  -0.000255   0.000044
     5  H    0.001092  -0.006376   0.000044  -0.000255  -0.012623  -0.000612
     6  H    0.001091  -0.006375  -0.000255   0.000044  -0.000612  -0.012620
 Mulliken charges and spin densities:
               1          2
     1  C   -0.050421   0.537460
     2  C   -0.050421   0.537460
     3  H    0.275205  -0.018732
     4  H    0.275215  -0.018728
     5  H    0.275205  -0.018732
     6  H    0.275215  -0.018728
 Sum of Mulliken charges =   1.00000   1.00000
 Mulliken charges and spin densities with hydrogens summed into heavy atoms:
               1          2
     1  C    0.500000   0.500000
     2  C    0.500000   0.500000
 Electronic spatial extent (au):  <R**2>=             73.7669
 Charge=              1.0000 electrons
 Dipole moment (field-independent basis, Debye):
    X=             -0.0000    Y=              0.0000    Z=             -0.0000  Tot=              0.0000
 Quadrupole moment (field-independent basis, Debye-Ang):
   XX=             -8.4728   YY=             -5.7236   ZZ=            -11.4036
   XY=             -0.0001   XZ=             -0.0000   YZ=             -0.0000
 Traceless Quadrupole moment (field-independent basis, Debye-Ang):
   XX=              0.0605   YY=              2.8097   ZZ=             -2.8703
   XY=             -0.0001   XZ=             -0.0000   YZ=             -0.0000
 Octapole moment (field-independent basis, Debye-Ang**2):
  XXX=              0.0000  YYY=             -0.0000  ZZZ=              0.0000  XYY=              0.0000
  XXY=              0.0000  XXZ=             -0.0000  XZZ=              0.0000  YZZ=             -0.0000
  YYZ=              0.0000  XYZ=             -0.0000
 Hexadecapole moment (field-independent basis, Debye-Ang**3):
 XXXX=            -18.0061 YYYY=            -50.1717 ZZZZ=            -10.2117 XXXY=              0.0005
 XXXZ=             -0.0000 YYYX=             -0.0023 YYYZ=             -0.0000 ZZZX=             -0.0000
 ZZZY=             -0.0000 XXYY=             -6.3273 XXZZ=             -5.7741 YYZZ=            -11.5516
 XXYZ=              0.0000 YYXZ=             -0.0000 ZZXY=             -0.0003
 N-N= 3.282731577988D+01 E-N=-2.419951027676D+02  KE= 7.796534082568D+01
 Symmetry AG   KE= 4.006321192562D+01
 Symmetry BG   KE= 1.696283299659D-32
 Symmetry AU   KE= 1.138813183339D+00
 Symmetry BU   KE= 3.676331571672D+01
 Symmetry AG   SP= 3.003455804234D-15
 Symmetry BG   SP= 6.795729173506D-33
 Symmetry AU   SP= 1.000000000000D+00
 Symmetry BU   SP= 8.877063259269D-15
                          Isotropic Fermi Contact Couplings
        Atom                 a.u.       MegaHertz       Gauss      10(-4) cm-1
     1  C(13)              0.08386      94.27517      33.63973      31.44681
     2  C(13)              0.08386      94.27517      33.63973      31.44681
     3  H(1)              -0.00914     -40.86867     -14.58296     -13.63232
     4  H(1)              -0.00914     -40.86659     -14.58222     -13.63163
     5  H(1)              -0.00914     -40.86867     -14.58296     -13.63232
     6  H(1)              -0.00914     -40.86659     -14.58222     -13.63163
 --------------------------------------------------------
       Center         ----  Spin Dipole Couplings  ----
                      3XX-RR        3YY-RR        3ZZ-RR
 --------------------------------------------------------
     1   Atom       -0.305830     -0.280919      0.586749
     2   Atom       -0.305830     -0.280919      0.586749
     3   Atom        0.013250     -0.001181     -0.012069
     4   Atom        0.013235     -0.001168     -0.012067
     5   Atom        0.013250     -0.001181     -0.012069
     6   Atom        0.013235     -0.001168     -0.012067
 --------------------------------------------------------
                        XY            XZ            YZ
 --------------------------------------------------------
     1   Atom        0.000003     -0.000000      0.000000
     2   Atom        0.000003      0.000000     -0.000000
     3   Atom        0.045352     -0.000000      0.000000
     4   Atom       -0.045358     -0.000000     -0.000000
     5   Atom        0.045352     -0.000000     -0.000000
     6   Atom       -0.045358     -0.000000      0.000000
 --------------------------------------------------------


 ---------------------------------------------------------------------------------
              Anisotropic Spin Dipole Couplings in Principal Axis System
 ---------------------------------------------------------------------------------

       Atom             a.u.   MegaHertz   Gauss  10(-4) cm-1        Axes

              Baa    -0.3058   -41.039   -14.644   -13.689  1.0000 -0.0001  0.0000
     1 C(13)  Bbb    -0.2809   -37.697   -13.451   -12.574  0.0001  1.0000  0.0000
              Bcc     0.5867    78.736    28.095    26.264  0.0000  0.0000  1.0000
 
              Baa    -0.3058   -41.039   -14.644   -13.689  1.0000 -0.0001  0.0000
     2 C(13)  Bbb    -0.2809   -37.697   -13.451   -12.574  0.0001  1.0000 -0.0000
              Bcc     0.5867    78.736    28.095    26.264  0.0000  0.0000  1.0000
 
              Baa    -0.0399   -21.282    -7.594    -7.099 -0.6492  0.7606 -0.0000
     3 H(1)   Bbb    -0.0121    -6.440    -2.298    -2.148  0.0000  0.0000  1.0000
              Bcc     0.0520    27.722     9.892     9.247  0.7606  0.6492 -0.0000
 
              Baa    -0.0399   -21.285    -7.595    -7.100  0.6493  0.7605  0.0000
     4 H(1)   Bbb    -0.0121    -6.439    -2.297    -2.148  0.0000  0.0000  1.0000
              Bcc     0.0520    27.723     9.892     9.247  0.7605 -0.6493  0.0000
 
              Baa    -0.0399   -21.282    -7.594    -7.099 -0.6492  0.7606  0.0000
     5 H(1)   Bbb    -0.0121    -6.440    -2.298    -2.148  0.0000  0.0000  1.0000
              Bcc     0.0520    27.722     9.892     9.247  0.7606  0.6492 -0.0000
 
              Baa    -0.0399   -21.285    -7.595    -7.100  0.6493  0.7605  0.0000
     6 H(1)   Bbb    -0.0121    -6.439    -2.297    -2.148  0.0000  0.0000  1.0000
              Bcc     0.0520    27.723     9.892     9.247  0.7605 -0.6493  0.0000
 

 ---------------------------------------------------------------------------------

 No NMR shielding tensors so no spin-rotation constants.
 Leave Link  601 at Tue Nov 19 11:53:55 2024, MaxMem=   536870912 cpu:               1.5 elap:               0.2
 (Enter /home/szhao/Apps/g16/l701.exe)
 ... and contract with generalized density number  0.
 Compute integral first derivatives.
 Leave Link  701 at Tue Nov 19 11:53:55 2024, MaxMem=   536870912 cpu:               0.9 elap:               0.1
 (Enter /home/szhao/Apps/g16/l702.exe)
 L702 exits ... SP integral derivatives will be done elsewhere.
 Leave Link  702 at Tue Nov 19 11:53:55 2024, MaxMem=   536870912 cpu:               0.3 elap:               0.0
 (Enter /home/szhao/Apps/g16/l703.exe)
 Integral derivatives from FoFJK, PRISM(SPDF).
 Compute integral first derivatives, UseDBF=F ICtDFT=           0.
 Calling FoFJK, ICntrl=      2127 FMM=F ISym2X=1 I1Cent= 0 IOpClX= 1 NMat=1 NMatS=1 NMatT=0.
 FoFJK:  IHMeth= 1 ICntrl=    2127 DoSepK=F KAlg= 0 I1Cent=           0 FoldK=F
 IRaf=         0 NMat=       1 IRICut=       1 DoRegI=T DoRafI=F ISym2E= 1 IDoP0=0 IntGTp=1.
 FoFCou: FMM=F IPFlag=           0 FMFlag=      100000 FMFlg1=         800
         NFxFlg=           0 DoJE=F BraDBF=F KetDBF=F FulRan=T
         wScrn=  0.000000 ICntrl=      2127 IOpCl=  1 I1Cent=           0 NGrid=           0
         NMat0=    1 NMatS0=      1 NMatT0=    0 NMatD0=    1 NMtDS0=    0 NMtDT0=    0
 Petite list used in FoFCou.
 Leave Link  703 at Tue Nov 19 11:53:56 2024, MaxMem=   536870912 cpu:               3.5 elap:               0.4
 (Enter /home/szhao/Apps/g16/l716.exe)
 Dipole        = 0.00000000D+00 0.00000000D+00-1.43958602D-41
 ***** Axes restored to original set *****
 -------------------------------------------------------------------
 Center     Atomic                   Forces (Hartrees/Bohr)
 Number     Number              X              Y              Z
 -------------------------------------------------------------------
      1        6          -0.041987063   -0.000066820   -0.000000000
      2        6           0.041987063    0.000066820    0.000000000
      3        1           0.000021744    0.000165760    0.000000000
      4        1           0.000009954   -0.000120198    0.000000000
      5        1          -0.000021744   -0.000165760   -0.000000000
      6        1          -0.000009954    0.000120198   -0.000000000
 -------------------------------------------------------------------
 Cartesian Forces:  Max     0.041987063 RMS     0.013995874
 Z-matrix is all fixed cartesians, so copy forces.
 Force constants in Cartesian coordinates: 
                1             2             3             4             5 
      1  0.861151D+00
      2 -0.503545D-04  0.693272D+00
      3  0.000000D+00  0.000000D+00  0.158456D+00
      4 -0.507142D+00  0.127512D-05  0.000000D+00  0.861151D+00
      5  0.127512D-05 -0.157316D+00  0.000000D+00 -0.503545D-04  0.693272D+00
      6  0.000000D+00  0.000000D+00 -0.839409D-01  0.000000D+00  0.000000D+00
      7 -0.176967D+00 -0.112801D+00  0.000000D+00  0.000000D+00 -0.257441D-01
      8 -0.105036D+00 -0.283472D+00  0.000000D+00  0.000000D+00  0.155023D-01
      9  0.000000D+00  0.000000D+00 -0.522227D-01  0.000000D+00  0.000000D+00
     10 -0.177042D+00  0.112851D+00  0.000000D+00  0.000000D+00  0.257428D-01
     11  0.105085D+00 -0.283494D+00  0.000000D+00  0.000000D+00  0.155081D-01
     12  0.000000D+00  0.000000D+00 -0.522315D-01  0.000000D+00  0.000000D+00
     13  0.000000D+00 -0.257441D-01  0.000000D+00 -0.176967D+00 -0.112801D+00
     14  0.000000D+00  0.155023D-01  0.000000D+00 -0.105036D+00 -0.283472D+00
     15  0.000000D+00  0.000000D+00  0.149699D-01  0.000000D+00  0.000000D+00
     16  0.000000D+00  0.257428D-01  0.000000D+00 -0.177042D+00  0.112851D+00
     17  0.000000D+00  0.155081D-01  0.000000D+00  0.105085D+00 -0.283494D+00
     18  0.000000D+00  0.000000D+00  0.149688D-01  0.000000D+00  0.000000D+00
                6             7             8             9            10 
      6  0.158456D+00
      7  0.000000D+00  0.149149D+00
      8  0.000000D+00  0.121787D+00  0.278061D+00
      9  0.149699D-01  0.000000D+00  0.000000D+00  0.265923D-01
     10  0.000000D+00  0.278177D-01 -0.167509D-01  0.000000D+00  0.149224D+00
     11  0.000000D+00  0.167581D-01 -0.100912D-01  0.000000D+00 -0.121843D+00
     12  0.149688D-01  0.000000D+00  0.000000D+00  0.106619D-01  0.000000D+00
     13  0.000000D+00  0.000000D+00  0.000000D+00  0.000000D+00  0.000000D+00
     14  0.000000D+00  0.000000D+00  0.000000D+00  0.000000D+00  0.000000D+00
     15 -0.522227D-01  0.000000D+00  0.000000D+00  0.796556D-02  0.000000D+00
     16  0.000000D+00  0.000000D+00  0.000000D+00  0.000000D+00  0.000000D+00
     17  0.000000D+00  0.000000D+00  0.000000D+00  0.000000D+00  0.000000D+00
     18 -0.522315D-01  0.000000D+00  0.000000D+00 -0.796698D-02  0.000000D+00
               11            12            13            14            15 
     11  0.278077D+00
     12  0.000000D+00  0.265994D-01
     13  0.000000D+00  0.000000D+00  0.149149D+00
     14  0.000000D+00  0.000000D+00  0.121787D+00  0.278061D+00
     15  0.000000D+00 -0.796698D-02  0.000000D+00  0.000000D+00  0.265923D-01
     16  0.000000D+00  0.000000D+00  0.278177D-01 -0.167509D-01  0.000000D+00
     17  0.000000D+00  0.000000D+00  0.167581D-01 -0.100912D-01  0.000000D+00
     18  0.000000D+00  0.796840D-02  0.000000D+00  0.000000D+00  0.106619D-01
               16            17            18 
     16  0.149224D+00
     17 -0.121843D+00  0.278077D+00
     18  0.000000D+00  0.000000D+00  0.265994D-01
 Leave Link  716 at Tue Nov 19 11:53:56 2024, MaxMem=   536870912 cpu:               0.4 elap:               0.1
 (Enter /home/szhao/Apps/g16/l103.exe)

 GradGradGradGradGradGradGradGradGradGradGradGradGradGradGradGradGradGrad
 Berny optimization.
 Search for a local minimum.
 Step number   1 out of a maximum of    2
 All quantities printed in internal units (Hartrees-Bohrs-Radians)
 Second derivative matrix not updated -- first step.
 The second derivative matrix:
                          X1        Y1        Z1        X2        Y2
           X1           0.86115
           Y1          -0.00005   0.69327
           Z1           0.00000  -0.00000   0.15846
           X2          -0.50714   0.00000  -0.00000   0.86115
           Y2           0.00000  -0.15732  -0.00000  -0.00005   0.69327
           Z2          -0.00000  -0.00000  -0.08394   0.00000  -0.00000
           X3          -0.17697  -0.11280  -0.00000  -0.00000  -0.02574
           Y3          -0.10504  -0.28347  -0.00000   0.00000   0.01550
           Z3          -0.00000  -0.00000  -0.05222  -0.00000  -0.00000
           X4          -0.17704   0.11285  -0.00000   0.00000   0.02574
           Y4           0.10509  -0.28349   0.00000   0.00000   0.01551
           Z4          -0.00000   0.00000  -0.05223  -0.00000   0.00000
           X5          -0.00000  -0.02574  -0.00000  -0.17697  -0.11280
           Y5           0.00000   0.01550   0.00000  -0.10504  -0.28347
           Z5          -0.00000  -0.00000   0.01497  -0.00000  -0.00000
           X6           0.00000   0.02574  -0.00000  -0.17704   0.11285
           Y6           0.00000   0.01551   0.00000   0.10509  -0.28349
           Z6          -0.00000   0.00000   0.01497  -0.00000   0.00000
                          Z2        X3        Y3        Z3        X4
           Z2           0.15846
           X3          -0.00000   0.14915
           Y3           0.00000   0.12179   0.27806
           Z3           0.01497   0.00000   0.00000   0.02659
           X4          -0.00000   0.02782  -0.01675   0.00000   0.14922
           Y4           0.00000   0.01676  -0.01009   0.00000  -0.12184
           Z4           0.01497   0.00000  -0.00000   0.01066   0.00000
           X5          -0.00000   0.00000   0.00000  -0.00000  -0.00000
           Y5          -0.00000   0.00000   0.00000  -0.00000  -0.00000
           Z5          -0.05222  -0.00000  -0.00000   0.00797   0.00000
           X6          -0.00000  -0.00000  -0.00000   0.00000   0.00000
           Y6           0.00000  -0.00000  -0.00000   0.00000   0.00000
           Z6          -0.05223   0.00000   0.00000  -0.00797  -0.00000
                          Y4        Z4        X5        Y5        Z5
           Y4           0.27808
           Z4          -0.00000   0.02660
           X5          -0.00000   0.00000   0.14915
           Y5          -0.00000   0.00000   0.12179   0.27806
           Z5           0.00000  -0.00797   0.00000   0.00000   0.02659
           X6           0.00000  -0.00000   0.02782  -0.01675   0.00000
           Y6           0.00000  -0.00000   0.01676  -0.01009   0.00000
           Z6          -0.00000   0.00797   0.00000  -0.00000   0.01066
                          X6        Y6        Z6
           X6           0.14922
           Y6          -0.12184   0.27808
           Z6           0.00000  -0.00000   0.02660
 ITU=  0
     Eigenvalues ---    0.03187   0.04455   0.09220   0.09506   0.13325
     Eigenvalues ---    0.18163   0.23971   0.29558   0.54457   0.73999
     Eigenvalues ---    0.99705   1.44282
 Angle between quadratic step and forces=  54.94 degrees.
 ClnCor:  largest displacement from symmetrization is 3.51D-14 for atom     6.
 Linear search not attempted -- first point.
 ClnCor:  largest displacement from symmetrization is 2.47D-32 for atom     1.
 B after Tr=    -0.000000   -0.000000   -0.000000
         Rot=    1.000000    0.000000    0.000000   -0.000003 Ang=  -0.00 deg.
 Variable       Old X    -DE/DX   Delta X   Delta X   Delta X     New X
                                 (Linear)    (Quad)   (Total)
    X1       -1.29576  -0.04199   0.00000  -0.04136  -0.04136  -1.33712
    Y1        0.00000  -0.00007   0.00000  -0.00007  -0.00008  -0.00008
    Z1       -0.00000  -0.00000   0.00000  -0.00000  -0.00000  -0.00000
    X2        1.29576   0.04199   0.00000   0.04136   0.04136   1.33712
    Y2        0.00000   0.00007   0.00000   0.00007   0.00008   0.00008
    Z2        0.00000   0.00000   0.00000   0.00000   0.00000   0.00000
    X3       -2.35559   0.00002   0.00000  -0.04165  -0.04164  -2.39723
    Y3       -1.76002   0.00017   0.00000   0.00061   0.00060  -1.75942
    Z3       -0.00000   0.00000   0.00000  -0.00000  -0.00000  -0.00000
    X4       -2.35585   0.00001   0.00000  -0.04160  -0.04161  -2.39746
    Y4        1.75971  -0.00012   0.00000  -0.00057  -0.00058   1.75912
    Z4       -0.00000   0.00000   0.00000  -0.00000  -0.00000  -0.00000
    X5        2.35559  -0.00002   0.00000   0.04165   0.04164   2.39723
    Y5        1.76002  -0.00017   0.00000  -0.00061  -0.00060   1.75942
    Z5        0.00000  -0.00000   0.00000   0.00000   0.00000   0.00000
    X6        2.35585  -0.00001   0.00000   0.04160   0.04161   2.39746
    Y6       -1.75971   0.00012   0.00000   0.00057   0.00058  -1.75912
    Z6        0.00000  -0.00000   0.00000   0.00000   0.00000   0.00000
         Item               Value     Threshold  Converged?
 Maximum Force            0.041987     0.000450     NO 
 RMS     Force            0.013996     0.000300     NO 
 Maximum Displacement     0.041641     0.001800     NO 
 RMS     Displacement     0.023984     0.001200     NO 
 Predicted change in Energy=-1.735628D-03
 GradGradGradGradGradGradGradGradGradGradGradGradGradGradGradGradGradGrad

 Leave Link  103 at Tue Nov 19 11:53:56 2024, MaxMem=   536870912 cpu:               0.1 elap:               0.0
 (Enter /home/szhao/Apps/g16/l9999.exe)
 1\1\GINC-NODE01\Force\UM062X\6-311+G(d,p)\C2H4(1+,2)\SZHAO\19-Nov-2024
 \0\\#p UM062X/6-311+G** force int=superfine\\Title Card Required\\1,2\
 C,-0.685685,0.,0.\C,0.685685,0.,0.\H,-1.246522,-0.931364,0.\H,-1.24666
 2,0.931198,0.\H,1.246522,0.931364,0.\H,1.246662,-0.931198,0.\\Version=
 ES64L-G16RevA.03\State=2-AU\HF=-78.1825508\S2=0.752547\S2-1=0.\S2A=0.7
 50005\RMSD=1.640e-09\RMSF=1.400e-02\Dipole=0.,0.,0.\Quadrupole=2.08896
 41,0.0449997,-2.1339637,-0.0001099,0.,0.\PG=C02H [SGH(C2H4)]\\@


 A MAN IS NEVER SO BRILLIANT AS WHEN HE TAKES THE WORDS RIGHT OUT
 OF YOUR MOUTH. -- ARNOT SHEPPARD, JR.
 Job cpu time:       0 days  0 hours  0 minutes 26.6 seconds.
 Elapsed time:       0 days  0 hours  0 minutes  3.4 seconds.
 File lengths (MBytes):  RWF=      6 Int=      0 D2E=      0 Chk=      1 Scr=      1
 Normal termination of Gaussian 16 at Tue Nov 19 11:53:56 2024.
