 Entering Gaussian System, Link 0=g16
 Initial command:
 /home/szhao/Apps/g16/l1.exe "/home/szhao/tmp/Gau-84528.inp" -scrdir="/home/szhao/tmp/"
 Default is to use a total of  16 processors:
                               16 via shared-memory
                                1 via Linda
 Entering Link 1 = /home/szhao/Apps/g16/l1.exe PID=     84534.
  
 Copyright (c) 1988,1990,1992,1993,1995,1998,2003,2009,2016,
            Gaussian, Inc.  All Rights Reserved.
  
 This is part of the Gaussian(R) 16 program.  It is based on
 the Gaussian(R) 09 system (copyright 2009, Gaussian, Inc.),
 the Gaussian(R) 03 system (copyright 2003, Gaussian, Inc.),
 the Gaussian(R) 98 system (copyright 1998, Gaussian, Inc.),
 the Gaussian(R) 94 system (copyright 1995, Gaussian, Inc.),
 the Gaussian 92(TM) system (copyright 1992, Gaussian, Inc.),
 the Gaussian 90(TM) system (copyright 1990, Gaussian, Inc.),
 the Gaussian 88(TM) system (copyright 1988, Gaussian, Inc.),
 the Gaussian 86(TM) system (copyright 1986, Carnegie Mellon
 University), and the Gaussian 82(TM) system (copyright 1983,
 Carnegie Mellon University). Gaussian is a federally registered
 trademark of Gaussian, Inc.
  
 This software contains proprietary and confidential information,
 including trade secrets, belonging to Gaussian, Inc.
  
 This software is provided under written license and may be
 used, copied, transmitted, or stored only in accord with that
 written license.
  
 The following legend is applicable only to US Government
 contracts under FAR:
  
                    RESTRICTED RIGHTS LEGEND
  
 Use, reproduction and disclosure by the US Government is
 subject to restrictions as set forth in subparagraphs (a)
 and (c) of the Commercial Computer Software - Restricted
 Rights clause in FAR 52.227-19.
  
 Gaussian, Inc.
 340 Quinnipiac St., Bldg. 40, Wallingford CT 06492
  
  
 ---------------------------------------------------------------
 Warning -- This program may not be used in any manner that
 competes with the business of Gaussian, Inc. or will provide
 assistance to any competitor of Gaussian, Inc.  The licensee
 of this program is prohibited from giving any competitor of
 Gaussian, Inc. access to this program.  By using this program,
 the user acknowledges that Gaussian, Inc. is engaged in the
 business of creating and licensing software in the field of
 computational chemistry and represents and warrants to the
 licensee that it is not a competitor of Gaussian, Inc. and that
 it will not use this program in any manner prohibited above.
 ---------------------------------------------------------------
  

 Cite this work as:
 Gaussian 16, Revision A.03,
 M. J. Frisch, G. W. Trucks, H. B. Schlegel, G. E. Scuseria, 
 M. A. Robb, J. R. Cheeseman, G. Scalmani, V. Barone, 
 G. A. Petersson, H. Nakatsuji, X. Li, M. Caricato, A. V. Marenich, 
 J. Bloino, B. G. Janesko, R. Gomperts, B. Mennucci, H. P. Hratchian, 
 J. V. Ortiz, A. F. Izmaylov, J. L. Sonnenberg, D. Williams-Young, 
 F. Ding, F. Lipparini, F. Egidi, J. Goings, B. Peng, A. Petrone, 
 T. Henderson, D. Ranasinghe, V. G. Zakrzewski, J. Gao, N. Rega, 
 G. Zheng, W. Liang, M. Hada, M. Ehara, K. Toyota, R. Fukuda, 
 J. Hasegawa, M. Ishida, T. Nakajima, Y. Honda, O. Kitao, H. Nakai, 
 T. Vreven, K. Throssell, J. A. Montgomery, Jr., J. E. Peralta, 
 F. Ogliaro, M. J. Bearpark, J. J. Heyd, E. N. Brothers, K. N. Kudin, 
 V. N. Staroverov, T. A. Keith, R. Kobayashi, J. Normand, 
 K. Raghavachari, A. P. Rendell, J. C. Burant, S. S. Iyengar, 
 J. Tomasi, M. Cossi, J. M. Millam, M. Klene, C. Adamo, R. Cammi, 
 J. W. Ochterski, R. L. Martin, K. Morokuma, O. Farkas, 
 J. B. Foresman, and D. J. Fox, Gaussian, Inc., Wallingford CT, 2016.
 
 ******************************************
 Gaussian 16:  ES64L-G16RevA.03 25-Dec-2016
                21-Apr-2025 
 ******************************************
 %chk=opt.chk
 %mem=4GB
 %nprocshared=8
 Will use up to    8 processors via shared memory.
 --------------------------------------------
 #p opt UM062X/6-311+G** nosymm int=superfine
 --------------------------------------------
 1/18=20,19=15,26=5,38=1/1,3;
 2/9=110,12=2,15=1,17=6,18=5,40=1/2;
 3/5=4,6=6,7=111,11=2,25=1,30=1,71=1,74=-55,75=-7,116=2/1,2,3;
 4//1;
 5/5=2,38=5/2;
 6/7=2,8=2,9=2,10=2,28=1/1;
 7/30=1/1,2,3,16;
 1/18=20,19=15,26=5/3(2);
 2/9=110,15=1/2;
 99//99;
 2/9=110,15=1/2;
 3/5=4,6=6,7=111,11=2,25=1,30=1,71=1,74=-55,75=-7,116=2/1,2,3;
 4/5=5,16=3,69=1/1;
 5/5=2,38=5/2;
 7/30=1/1,2,3,16;
 1/18=20,19=15,26=5/3(-5);
 2/9=110,15=1/2;
 6/7=2,8=2,9=2,10=2,19=2,28=1/1;
 99/9=1/99;
 Leave Link    1 at Mon Apr 21 19:37:14 2025, MaxMem=   536870912 cpu:               0.8 elap:               0.1
 (Enter /home/szhao/Apps/g16/l101.exe)
 -------------------
 Title Card Required
 -------------------
 Symbolic Z-matrix:
 Charge =  0 Multiplicity = 1
 C                    -1   -2.01022   0.        0. 
 S                    -1    2.01022   0.        0. 
 H                    0     2.16477  -1.33223   0. 
 H                    0    -2.31439   1.04536   0.00292 
 H                    0    -2.40523  -0.47662  -0.89491 
 H                    0    -2.40515  -0.48142   0.89237 
 
 Add virtual bond connecting atoms S2         and C1         Dist= 7.60D+00.
 ITRead=  2  2  0  0  0  0
 MicOpt= -2 -2 -1 -1 -1 -1
 NAtoms=      6 NQM=        4 NQMF=       2 NMMI=      0 NMMIF=      0
                NMic=       0 NMicF=      0.
                    Isotopes and Nuclear Properties:
 (Nuclear quadrupole moments (NQMom) in fm**2, nuclear magnetic moments (NMagM)
  in nuclear magnetons)

  Atom         1           2           3           4           5           6
 IAtWgt=          12          32           1           1           1           1
 AtmWgt=  12.0000000  31.9720718   1.0078250   1.0078250   1.0078250   1.0078250
 NucSpn=           0           0           1           1           1           1
 AtZEff=  -0.0000000  -0.0000000  -0.0000000  -0.0000000  -0.0000000  -0.0000000
 NQMom=    0.0000000   0.0000000   0.0000000   0.0000000   0.0000000   0.0000000
 NMagM=    0.0000000   0.0000000   2.7928460   2.7928460   2.7928460   2.7928460
 AtZNuc=   6.0000000  16.0000000   1.0000000   1.0000000   1.0000000   1.0000000
 Leave Link  101 at Mon Apr 21 19:37:15 2025, MaxMem=   536870912 cpu:               3.0 elap:               0.4
 (Enter /home/szhao/Apps/g16/l103.exe)

 GradGradGradGradGradGradGradGradGradGradGradGradGradGradGradGradGradGrad
 Berny optimization.
 Initialization pass.
                           ----------------------------
                           !    Initial Parameters    !
                           ! (Angstroms and Degrees)  !
 --------------------------                            --------------------------
 ! Name  Definition              Value          Derivative Info.                !
 --------------------------------------------------------------------------------
 ! X1    R(1,-1)                -2.0102         Frozen                          !
 ! Y1    R(1,-2)                 0.0            Frozen                          !
 ! Z1    R(1,-3)                 0.0            Frozen                          !
 ! X2    R(2,-1)                 2.0102         Frozen                          !
 ! Y2    R(2,-2)                 0.0            Frozen                          !
 ! Z2    R(2,-3)                 0.0            Frozen                          !
 ! R1    R(1,4)                  1.0887         estimate D2E/DX2                !
 ! R2    R(1,5)                  1.0881         estimate D2E/DX2                !
 ! R3    R(1,6)                  1.0881         estimate D2E/DX2                !
 ! R4    R(2,3)                  1.3412         estimate D2E/DX2                !
 ! A1    A(2,1,4)              106.2234         estimate D2E/DX2                !
 ! A2    A(2,1,5)              111.2854         estimate D2E/DX2                !
 ! A3    A(2,1,6)              111.2806         estimate D2E/DX2                !
 ! A4    A(4,1,5)              108.7444         estimate D2E/DX2                !
 ! A5    A(4,1,6)              108.7362         estimate D2E/DX2                !
 ! A6    A(5,1,6)              110.4209         estimate D2E/DX2                !
 ! A7    A(1,2,3)               96.6171         estimate D2E/DX2                !
 ! D1    D(4,1,2,3)            179.8401         estimate D2E/DX2                !
 ! D2    D(5,1,2,3)            -61.9609         estimate D2E/DX2                !
 ! D3    D(6,1,2,3)             61.6537         estimate D2E/DX2                !
 --------------------------------------------------------------------------------
 Trust Radius=3.00D-01 FncErr=1.00D-07 GrdErr=1.00D-07 EigMax=2.50D+02 EigMin=1.00D-04
 Number of steps in this run=     30 maximum allowed number of steps=    100.
 GradGradGradGradGradGradGradGradGradGradGradGradGradGradGradGradGradGrad

 Leave Link  103 at Mon Apr 21 19:37:15 2025, MaxMem=   536870912 cpu:               0.3 elap:               0.1
 (Enter /home/szhao/Apps/g16/l202.exe)
                          Input orientation:                          
 ---------------------------------------------------------------------
 Center     Atomic      Atomic             Coordinates (Angstroms)
 Number     Number       Type             X           Y           Z
 ---------------------------------------------------------------------
      1          6           0       -2.010220    0.000000    0.000000
      2         16           0        2.010220    0.000000    0.000000
      3          1           0        2.164766   -1.332230    0.000000
      4          1           0       -2.314389    1.045359    0.002916
      5          1           0       -2.405230   -0.476615   -0.894907
      6          1           0       -2.405145   -0.481421    0.892366
 ---------------------------------------------------------------------
                    Distance matrix (angstroms):
                    1          2          3          4          5
     1  C    0.000000
     2  S    4.020439   0.000000
     3  H    4.382390   1.341164   0.000000
     4  H    1.088716   4.449160   5.071072   0.000000
     5  H    1.088142   4.530366   4.734744   1.769391   0.000000
     6  H    1.088140   4.530290   4.733316   1.769298   1.787279
                    6
     6  H    0.000000
 Symmetry turned off by external request.
 Stoichiometry    CH4S
 Framework group  C1[X(CH4S)]
 Deg. of freedom    12
 Full point group                 C1      NOp   1
 Rotational constants (GHZ):         103.0651748           2.8817841           2.8543728
 Leave Link  202 at Mon Apr 21 19:37:15 2025, MaxMem=   536870912 cpu:               0.2 elap:               0.0
 (Enter /home/szhao/Apps/g16/l301.exe)
 Standard basis: 6-311+G(d,p) (5D, 7F)
 Ernie: Thresh=  0.10000D-02 Tol=  0.10000D-05 Strict=F.
    76 basis functions,   118 primitive gaussians,    78 cartesian basis functions
    13 alpha electrons       13 beta electrons
       nuclear repulsion energy        35.2883581838 Hartrees.
 IExCor= 4336 DFT=T Ex+Corr=M062X ExCW=0 ScaHFX=  0.540000
 ScaDFX=  1.000000  1.000000  1.000000  1.000000 ScalE2=  1.000000  1.000000
 IRadAn=      7 IRanWt=     -1 IRanGd=            0 ICorTp=0 IEmpDi=  4
 NAtoms=    6 NActive=    6 NUniq=    6 SFac= 1.00D+00 NAtFMM=   60 NAOKFM=F Big=F
 Integral buffers will be    131072 words long.
 Raffenetti 2 integral format.
 Two-electron integral symmetry is turned off.
 Leave Link  301 at Mon Apr 21 19:37:15 2025, MaxMem=   536870912 cpu:               0.7 elap:               0.2
 (Enter /home/szhao/Apps/g16/l302.exe)
 NPDir=0 NMtPBC=     1 NCelOv=     1 NCel=       1 NClECP=     1 NCelD=      1
         NCelK=      1 NCelE2=     1 NClLst=     1 CellRange=     0.0.
 One-electron integrals computed using PRISM.
 NBasis=    76 RedAO= T EigKep=  9.19D-03  NBF=    76
 NBsUse=    76 1.00D-06 EigRej= -1.00D+00 NBFU=    76
 Precomputing XC quadrature grid using
 IXCGrd= 4 IRadAn=           7 IRanWt=          -1 IRanGd=           0 AccXCQ= 0.00D+00.
 Generated NRdTot=       0 NPtTot=           0 NUsed=           0 NTot=          32
 NSgBfM=    77    77    77    77    77 MxSgAt=     6 MxSgA2=     6.
 Leave Link  302 at Mon Apr 21 19:37:16 2025, MaxMem=   536870912 cpu:               2.2 elap:               0.4
 (Enter /home/szhao/Apps/g16/l303.exe)
 DipDrv:  MaxL=1.
 Leave Link  303 at Mon Apr 21 19:37:16 2025, MaxMem=   536870912 cpu:               0.6 elap:               0.1
 (Enter /home/szhao/Apps/g16/l401.exe)
 ExpMin= 4.05D-02 ExpMax= 9.34D+04 ExpMxC= 3.17D+03 IAcc=3 IRadAn=         7 AccDes= 0.00D+00
 Harris functional with IExCor= 1009 and IRadAn=       7 diagonalized for initial guess.
 HarFok:  IExCor= 1009 AccDes= 0.00D+00 IRadAn=         7 IDoV= 1 UseB2=F ITyADJ=14
 ICtDFT=  3500011 ScaDFX=  1.000000  1.000000  1.000000  1.000000
 FoFCou: FMM=F IPFlag=           0 FMFlag=      100000 FMFlg1=           0
         NFxFlg=           0 DoJE=T BraDBF=F KetDBF=T FulRan=T
         wScrn=  0.000000 ICntrl=       500 IOpCl=  0 I1Cent=   200000004 NGrid=           0
         NMat0=    1 NMatS0=      1 NMatT0=    0 NMatD0=    1 NMtDS0=    0 NMtDT0=    0
 Symmetry not used in FoFCou.
 Harris En= -438.340536352543    
 JPrj=0 DoOrth=F DoCkMO=F.
 Initial guess <Sx>= 0.0000 <Sy>= 0.0000 <Sz>= 0.0000 <S**2>=-0.0000 S=-0.0000
 Leave Link  401 at Mon Apr 21 19:37:17 2025, MaxMem=   536870912 cpu:               4.5 elap:               0.7
 (Enter /home/szhao/Apps/g16/l502.exe)
 Keep R1 and R2 ints in memory in canonical form, NReq=15806772.
 FoFCou: FMM=F IPFlag=           0 FMFlag=           0 FMFlg1=           0
         NFxFlg=           0 DoJE=F BraDBF=F KetDBF=F FulRan=T
         wScrn=  0.000000 ICntrl=       600 IOpCl=  0 I1Cent=           0 NGrid=           0
         NMat0=    1 NMatS0=   2926 NMatT0=    0 NMatD0=    1 NMtDS0=    0 NMtDT0=    0
 Symmetry not used in FoFCou.
 Two-electron integral symmetry not used.
 UHF open shell SCF:
 Using DIIS extrapolation, IDIIS=  1040.
 NGot=   536870912 LenX=   528292970 LenY=   528286445
 Requested convergence on RMS density matrix=1.00D-08 within 128 cycles.
 Requested convergence on MAX density matrix=1.00D-06.
 Requested convergence on             energy=1.00D-06.
 No special actions if energy rises.

 Cycle   1  Pass 1  IDiag  1:
 E= -438.060118071530    
 DIIS: error= 7.60D-02 at cycle   1 NSaved=   1.
 NSaved= 1 IEnMin= 1 EnMin= -438.060118071530     IErMin= 1 ErrMin= 7.60D-02
 ErrMax= 7.60D-02  0.00D+00 EMaxC= 1.00D-01 BMatC= 1.06D+00 BMatP= 1.06D+00
 IDIUse=3 WtCom= 2.40D-01 WtEn= 7.60D-01
 Coeff-Com:  0.100D+01
 Coeff-En:   0.100D+01
 Coeff:      0.100D+01
 Gap=     0.198 Goal=   None    Shift=    0.000
 Gap=     0.198 Goal=   None    Shift=    0.000
 GapD=    0.198 DampG=1.000 DampE=0.500 DampFc=0.5000 IDamp=-1.
 Damping current iteration by 5.00D-01
 RMSDP=1.22D-02 MaxDP=3.91D-01              OVMax= 9.39D-01

 Cycle   2  Pass 1  IDiag  1:
 E= -438.288355199427     Delta-E=       -0.228237127897 Rises=F Damp=T
 DIIS: error= 2.76D-02 at cycle   2 NSaved=   2.
 NSaved= 2 IEnMin= 2 EnMin= -438.288355199427     IErMin= 2 ErrMin= 2.76D-02
 ErrMax= 2.76D-02  0.00D+00 EMaxC= 1.00D-01 BMatC= 1.38D-01 BMatP= 1.06D+00
 IDIUse=3 WtCom= 7.24D-01 WtEn= 2.76D-01
 Coeff-Com:  0.201D+00 0.799D+00
 Coeff-En:   0.239D+00 0.761D+00
 Coeff:      0.211D+00 0.789D+00
 Gap=     0.475 Goal=   None    Shift=    0.000
 Gap=     0.475 Goal=   None    Shift=    0.000
 RMSDP=4.70D-03 MaxDP=1.03D-01 DE=-2.28D-01 OVMax= 3.42D-01

 Cycle   3  Pass 1  IDiag  1:
 E= -438.373055727909     Delta-E=       -0.084700528482 Rises=F Damp=F
 DIIS: error= 3.84D-02 at cycle   3 NSaved=   3.
 NSaved= 3 IEnMin= 3 EnMin= -438.373055727909     IErMin= 2 ErrMin= 2.76D-02
 ErrMax= 3.84D-02  0.00D+00 EMaxC= 1.00D-01 BMatC= 1.93D-01 BMatP= 1.38D-01
 IDIUse=2 WtCom= 0.00D+00 WtEn= 1.00D+00
 Coeff-En:   0.286D+00 0.000D+00 0.714D+00
 Coeff:      0.286D+00 0.000D+00 0.714D+00
 Gap=     0.037 Goal=   None    Shift=    0.000
 Gap=     0.037 Goal=   None    Shift=    0.000
 RMSDP=5.33D-03 MaxDP=1.81D-01 DE=-8.47D-02 OVMax= 5.06D-01

 Cycle   4  Pass 1  IDiag  1:
 E= -438.424534491420     Delta-E=       -0.051478763511 Rises=F Damp=F
 DIIS: error= 3.31D-02 at cycle   4 NSaved=   4.
 NSaved= 4 IEnMin= 4 EnMin= -438.424534491420     IErMin= 2 ErrMin= 2.76D-02
 ErrMax= 3.31D-02  0.00D+00 EMaxC= 1.00D-01 BMatC= 1.21D-01 BMatP= 1.38D-01
 IDIUse=3 WtCom= 6.69D-01 WtEn= 3.31D-01
 Coeff-Com:  0.160D-01-0.341D-01 0.476D+00 0.542D+00
 Coeff-En:   0.000D+00 0.000D+00 0.393D+00 0.607D+00
 Coeff:      0.107D-01-0.228D-01 0.448D+00 0.564D+00
 Gap=     0.083 Goal=   None    Shift=    0.000
 Gap=     0.083 Goal=   None    Shift=    0.000
 RMSDP=2.38D-03 MaxDP=7.78D-02 DE=-5.15D-02 OVMax= 2.24D-01

 Cycle   5  Pass 1  IDiag  1:
 E= -438.477278057312     Delta-E=       -0.052743565892 Rises=F Damp=F
 DIIS: error= 2.18D-03 at cycle   5 NSaved=   5.
 NSaved= 5 IEnMin= 5 EnMin= -438.477278057312     IErMin= 5 ErrMin= 2.18D-03
 ErrMax= 2.18D-03  0.00D+00 EMaxC= 1.00D-01 BMatC= 1.93D-03 BMatP= 1.21D-01
 IDIUse=3 WtCom= 9.78D-01 WtEn= 2.18D-02
 Coeff-Com: -0.530D-02-0.308D-01 0.129D+00 0.184D+00 0.723D+00
 Coeff-En:   0.000D+00 0.000D+00 0.000D+00 0.000D+00 0.100D+01
 Coeff:     -0.519D-02-0.301D-01 0.126D+00 0.180D+00 0.729D+00
 Gap=     0.099 Goal=   None    Shift=    0.000
 Gap=     0.099 Goal=   None    Shift=    0.000
 RMSDP=5.79D-04 MaxDP=1.80D-02 DE=-5.27D-02 OVMax= 4.93D-02

 Cycle   6  Pass 1  IDiag  1:
 E= -438.476552525874     Delta-E=        0.000725531438 Rises=F Damp=F
 DIIS: error= 5.26D-03 at cycle   6 NSaved=   6.
 NSaved= 6 IEnMin= 5 EnMin= -438.477278057312     IErMin= 5 ErrMin= 2.18D-03
 ErrMax= 5.26D-03  0.00D+00 EMaxC= 1.00D-01 BMatC= 3.34D-03 BMatP= 1.93D-03
 IDIUse=3 WtCom= 9.78D-01 WtEn= 2.18D-02
 Coeff-Com: -0.294D-02-0.260D-02 0.392D-01-0.996D-01 0.113D+00 0.953D+00
 Coeff-En:   0.000D+00 0.000D+00 0.000D+00 0.000D+00 0.658D+00 0.342D+00
 Coeff:     -0.287D-02-0.255D-02 0.383D-01-0.975D-01 0.125D+00 0.939D+00
 Gap=     0.102 Goal=   None    Shift=    0.000
 Gap=     0.102 Goal=   None    Shift=    0.000
 RMSDP=2.08D-04 MaxDP=6.62D-03 DE= 7.26D-04 OVMax= 1.79D-02

 Cycle   7  Pass 1  IDiag  1:
 E= -438.477657196772     Delta-E=       -0.001104670897 Rises=F Damp=F
 DIIS: error= 2.25D-03 at cycle   7 NSaved=   7.
 NSaved= 7 IEnMin= 7 EnMin= -438.477657196772     IErMin= 5 ErrMin= 2.18D-03
 ErrMax= 2.25D-03  0.00D+00 EMaxC= 1.00D-01 BMatC= 5.83D-04 BMatP= 1.93D-03
 IDIUse=3 WtCom= 9.78D-01 WtEn= 2.18D-02
 Coeff-Com:  0.103D-02-0.239D-02 0.216D-01-0.498D-01 0.785D-02 0.102D-01
 Coeff-Com:  0.101D+01
 Coeff-En:   0.000D+00 0.000D+00 0.000D+00 0.000D+00 0.278D+00 0.000D+00
 Coeff-En:   0.722D+00
 Coeff:      0.101D-02-0.233D-02 0.212D-01-0.487D-01 0.137D-01 0.100D-01
 Coeff:      0.101D+01
 Gap=     0.102 Goal=   None    Shift=    0.000
 Gap=     0.102 Goal=   None    Shift=    0.000
 RMSDP=9.99D-05 MaxDP=3.19D-03 DE=-1.10D-03 OVMax= 9.28D-03

 Cycle   8  Pass 1  IDiag  1:
 E= -438.477876551471     Delta-E=       -0.000219354699 Rises=F Damp=F
 DIIS: error= 7.12D-04 at cycle   8 NSaved=   8.
 NSaved= 8 IEnMin= 8 EnMin= -438.477876551471     IErMin= 8 ErrMin= 7.12D-04
 ErrMax= 7.12D-04  0.00D+00 EMaxC= 1.00D-01 BMatC= 5.92D-05 BMatP= 5.83D-04
 IDIUse=3 WtCom= 9.93D-01 WtEn= 7.12D-03
 Coeff-Com:  0.545D-03-0.209D-03 0.528D-02-0.114D-01 0.620D-02-0.841D-01
 Coeff-Com:  0.140D+00 0.944D+00
 Coeff-En:   0.000D+00 0.000D+00 0.000D+00 0.000D+00 0.000D+00 0.000D+00
 Coeff-En:   0.000D+00 0.100D+01
 Coeff:      0.541D-03-0.207D-03 0.524D-02-0.114D-01 0.616D-02-0.835D-01
 Coeff:      0.139D+00 0.944D+00
 Gap=     0.102 Goal=   None    Shift=    0.000
 Gap=     0.102 Goal=   None    Shift=    0.000
 RMSDP=3.97D-05 MaxDP=1.25D-03 DE=-2.19D-04 OVMax= 3.54D-03

 Cycle   9  Pass 1  IDiag  1:
 E= -438.477900608777     Delta-E=       -0.000024057306 Rises=F Damp=F
 DIIS: error= 1.23D-04 at cycle   9 NSaved=   9.
 NSaved= 9 IEnMin= 9 EnMin= -438.477900608777     IErMin= 9 ErrMin= 1.23D-04
 ErrMax= 1.23D-04  0.00D+00 EMaxC= 1.00D-01 BMatC= 1.88D-06 BMatP= 5.92D-05
 IDIUse=3 WtCom= 9.99D-01 WtEn= 1.23D-03
 Coeff-Com:  0.500D-04 0.248D-05 0.186D-03 0.468D-03-0.449D-03-0.636D-02
 Coeff-Com: -0.484D-01-0.496D-02 0.106D+01
 Coeff-En:   0.000D+00 0.000D+00 0.000D+00 0.000D+00 0.000D+00 0.000D+00
 Coeff-En:   0.000D+00 0.000D+00 0.100D+01
 Coeff:      0.500D-04 0.248D-05 0.186D-03 0.468D-03-0.448D-03-0.635D-02
 Coeff:     -0.484D-01-0.496D-02 0.106D+01
 Gap=     0.102 Goal=   None    Shift=    0.000
 Gap=     0.102 Goal=   None    Shift=    0.000
 RMSDP=9.02D-06 MaxDP=2.67D-04 DE=-2.41D-05 OVMax= 7.65D-04

 Cycle  10  Pass 1  IDiag  1:
 E= -438.477901391010     Delta-E=       -0.000000782233 Rises=F Damp=F
 DIIS: error= 3.50D-06 at cycle  10 NSaved=  10.
 NSaved=10 IEnMin=10 EnMin= -438.477901391010     IErMin=10 ErrMin= 3.50D-06
 ErrMax= 3.50D-06  0.00D+00 EMaxC= 1.00D-01 BMatC= 1.98D-09 BMatP= 1.88D-06
 IDIUse=1 WtCom= 1.00D+00 WtEn= 0.00D+00
 Coeff-Com: -0.674D-05-0.445D-04 0.684D-04 0.131D-03-0.730D-03 0.351D-02
 Coeff-Com:  0.144D-02-0.505D-01 0.936D-01 0.952D+00
 Coeff:     -0.674D-05-0.445D-04 0.684D-04 0.131D-03-0.730D-03 0.351D-02
 Coeff:      0.144D-02-0.505D-01 0.936D-01 0.952D+00
 Gap=     0.102 Goal=   None    Shift=    0.000
 Gap=     0.102 Goal=   None    Shift=    0.000
 RMSDP=4.81D-07 MaxDP=8.18D-06 DE=-7.82D-07 OVMax= 2.51D-05

 Cycle  11  Pass 1  IDiag  1:
 E= -438.477901391344     Delta-E=       -0.000000000334 Rises=F Damp=F
 DIIS: error= 2.56D-06 at cycle  11 NSaved=  11.
 NSaved=11 IEnMin=11 EnMin= -438.477901391344     IErMin=11 ErrMin= 2.56D-06
 ErrMax= 2.56D-06  0.00D+00 EMaxC= 1.00D-01 BMatC= 9.30D-10 BMatP= 1.98D-09
 IDIUse=1 WtCom= 1.00D+00 WtEn= 0.00D+00
 Coeff-Com: -0.796D-06-0.323D-05 0.155D-04 0.606D-06-0.769D-04 0.271D-03
 Coeff-Com:  0.568D-03-0.482D-02-0.937D-02 0.119D+00 0.894D+00
 Coeff:     -0.796D-06-0.323D-05 0.155D-04 0.606D-06-0.769D-04 0.271D-03
 Coeff:      0.568D-03-0.482D-02-0.937D-02 0.119D+00 0.894D+00
 Gap=     0.102 Goal=   None    Shift=    0.000
 Gap=     0.102 Goal=   None    Shift=    0.000
 RMSDP=1.51D-07 MaxDP=4.72D-06 DE=-3.34D-10 OVMax= 1.19D-05

 Cycle  12  Pass 1  IDiag  1:
 E= -438.477901391697     Delta-E=       -0.000000000353 Rises=F Damp=F
 DIIS: error= 6.58D-07 at cycle  12 NSaved=  12.
 NSaved=12 IEnMin=12 EnMin= -438.477901391697     IErMin=12 ErrMin= 6.58D-07
 ErrMax= 6.58D-07  0.00D+00 EMaxC= 1.00D-01 BMatC= 6.28D-11 BMatP= 9.30D-10
 IDIUse=1 WtCom= 1.00D+00 WtEn= 0.00D+00
 Coeff-Com:  0.630D-06 0.138D-05 0.208D-05-0.509D-05 0.254D-04-0.234D-03
 Coeff-Com: -0.134D-03 0.232D-02-0.703D-02-0.358D-01 0.127D+00 0.914D+00
 Coeff:      0.630D-06 0.138D-05 0.208D-05-0.509D-05 0.254D-04-0.234D-03
 Coeff:     -0.134D-03 0.232D-02-0.703D-02-0.358D-01 0.127D+00 0.914D+00
 Gap=     0.102 Goal=   None    Shift=    0.000
 Gap=     0.102 Goal=   None    Shift=    0.000
 RMSDP=4.60D-08 MaxDP=1.47D-06 DE=-3.53D-10 OVMax= 3.87D-06

 Cycle  13  Pass 1  IDiag  1:
 E= -438.477901391722     Delta-E=       -0.000000000026 Rises=F Damp=F
 DIIS: error= 3.85D-08 at cycle  13 NSaved=  13.
 NSaved=13 IEnMin=13 EnMin= -438.477901391722     IErMin=13 ErrMin= 3.85D-08
 ErrMax= 3.85D-08  0.00D+00 EMaxC= 1.00D-01 BMatC= 2.97D-13 BMatP= 6.28D-11
 IDIUse=1 WtCom= 1.00D+00 WtEn= 0.00D+00
 Coeff-Com: -0.445D-07-0.170D-06-0.513D-06 0.133D-05 0.183D-06 0.135D-04
 Coeff-Com: -0.501D-04-0.107D-03 0.107D-02-0.103D-02-0.301D-01-0.704D-01
 Coeff-Com:  0.110D+01
 Coeff:     -0.445D-07-0.170D-06-0.513D-06 0.133D-05 0.183D-06 0.135D-04
 Coeff:     -0.501D-04-0.107D-03 0.107D-02-0.103D-02-0.301D-01-0.704D-01
 Coeff:      0.110D+01
 Gap=     0.102 Goal=   None    Shift=    0.000
 Gap=     0.102 Goal=   None    Shift=    0.000
 RMSDP=7.37D-09 MaxDP=1.76D-07 DE=-2.55D-11 OVMax= 4.95D-07

 SCF Done:  E(UM062X) =  -438.477901392     A.U. after   13 cycles
            NFock= 13  Conv=0.74D-08     -V/T= 2.0018
 <Sx>= 0.0000 <Sy>= 0.0000 <Sz>= 0.0000 <S**2>=-0.0000 S=-0.0000
 <L.S>=  0.00000000000    
 KE= 4.376990112704D+02 PE=-1.110864536727D+03 EE= 1.993992658811D+02
 Annihilation of the first spin contaminant:
 S**2 before annihilation    -0.0000,   after     0.0000
 Leave Link  502 at Mon Apr 21 19:37:26 2025, MaxMem=   536870912 cpu:              67.3 elap:               9.0
 (Enter /home/szhao/Apps/g16/l601.exe)
 Copying SCF densities to generalized density rwf, IOpCl= 1 IROHF=0.

 **********************************************************************

            Population analysis using the SCF density.

 **********************************************************************

 Alpha  occ. eigenvalues --  -89.89634 -10.62988  -8.25919  -6.17999  -6.17869
 Alpha  occ. eigenvalues --   -6.17312  -0.81931  -0.77195  -0.51876  -0.51455
 Alpha  occ. eigenvalues --   -0.43547  -0.29461  -0.27827
 Alpha virt. eigenvalues --   -0.17603   0.01010   0.04377   0.04988   0.05065
 Alpha virt. eigenvalues --    0.07379   0.08221   0.08509   0.10659   0.13695
 Alpha virt. eigenvalues --    0.15978   0.16337   0.22431   0.34041   0.35890
 Alpha virt. eigenvalues --    0.37263   0.41253   0.42057   0.43963   0.49480
 Alpha virt. eigenvalues --    0.60437   0.60855   0.60951   0.65939   0.76591
 Alpha virt. eigenvalues --    0.77552   0.77921   0.85879   0.86534   1.02142
 Alpha virt. eigenvalues --    1.02805   1.03436   1.33721   1.45753   1.50805
 Alpha virt. eigenvalues --    1.50857   1.51979   1.52358   1.67398   1.67996
 Alpha virt. eigenvalues --    1.70308   1.72358   1.72596   1.95237   2.14327
 Alpha virt. eigenvalues --    2.14506   2.15200   2.35958   2.44040   2.45262
 Alpha virt. eigenvalues --    2.50897   2.51237   2.58022   2.68277   2.90734
 Alpha virt. eigenvalues --    3.70587   3.72634   7.89178  17.48555  17.49672
 Alpha virt. eigenvalues --   17.53381  23.90604 189.15517
  Beta  occ. eigenvalues --  -89.89634 -10.62988  -8.25919  -6.17999  -6.17869
  Beta  occ. eigenvalues --   -6.17312  -0.81931  -0.77195  -0.51876  -0.51455
  Beta  occ. eigenvalues --   -0.43547  -0.29461  -0.27827
  Beta virt. eigenvalues --   -0.17603   0.01010   0.04377   0.04988   0.05065
  Beta virt. eigenvalues --    0.07379   0.08221   0.08509   0.10659   0.13695
  Beta virt. eigenvalues --    0.15978   0.16337   0.22431   0.34041   0.35890
  Beta virt. eigenvalues --    0.37263   0.41253   0.42057   0.43963   0.49480
  Beta virt. eigenvalues --    0.60437   0.60855   0.60951   0.65939   0.76591
  Beta virt. eigenvalues --    0.77552   0.77921   0.85879   0.86534   1.02142
  Beta virt. eigenvalues --    1.02805   1.03436   1.33721   1.45753   1.50805
  Beta virt. eigenvalues --    1.50857   1.51979   1.52358   1.67398   1.67996
  Beta virt. eigenvalues --    1.70308   1.72358   1.72596   1.95237   2.14327
  Beta virt. eigenvalues --    2.14506   2.15200   2.35958   2.44040   2.45262
  Beta virt. eigenvalues --    2.50897   2.51237   2.58022   2.68277   2.90734
  Beta virt. eigenvalues --    3.70587   3.72634   7.89178  17.48555  17.49672
  Beta virt. eigenvalues --   17.53381  23.90604 189.15517
          Condensed to atoms (all electrons):
               1          2          3          4          5          6
     1  C    5.169896   0.083129   0.000034   0.382567   0.378570   0.378555
     2  S    0.083129  15.887710   0.249616  -0.001035  -0.001539  -0.001541
     3  H    0.000034   0.249616   0.690111   0.000015  -0.000000  -0.000000
     4  H    0.382567  -0.001035   0.000015   0.493646  -0.029135  -0.029141
     5  H    0.378570  -0.001539  -0.000000  -0.029135   0.497114  -0.027907
     6  H    0.378555  -0.001541  -0.000000  -0.029141  -0.027907   0.497146
          Atomic-Atomic Spin Densities.
               1          2          3          4          5          6
     1  C   -0.000000  -0.000000  -0.000000   0.000000   0.000000   0.000000
     2  S   -0.000000   0.000000   0.000000   0.000000  -0.000000  -0.000000
     3  H   -0.000000   0.000000  -0.000000   0.000000   0.000000   0.000000
     4  H    0.000000   0.000000   0.000000   0.000000  -0.000000  -0.000000
     5  H    0.000000  -0.000000   0.000000  -0.000000   0.000000  -0.000000
     6  H    0.000000  -0.000000   0.000000  -0.000000  -0.000000   0.000000
 Mulliken charges and spin densities:
               1          2
     1  C   -0.392751  -0.000000
     2  S   -0.216340   0.000000
     3  H    0.060224  -0.000000
     4  H    0.183082   0.000000
     5  H    0.182897   0.000000
     6  H    0.182887   0.000000
 Sum of Mulliken charges =  -0.00000   0.00000
 Mulliken charges and spin densities with hydrogens summed into heavy atoms:
               1          2
     1  C    0.156115  -0.000000
     2  S   -0.156115   0.000000
 Electronic spatial extent (au):  <R**2>=            457.3053
 Charge=             -0.0000 electrons
 Dipole moment (field-independent basis, Debye):
    X=             -3.9074    Y=             -0.9134    Z=              0.0003  Tot=              4.0128
 Quadrupole moment (field-independent basis, Debye-Ang):
   XX=            -16.7396   YY=            -19.9837   ZZ=            -23.8966
   XY=             -2.4521   XZ=             -0.0003   YZ=             -0.0000
 Traceless Quadrupole moment (field-independent basis, Debye-Ang):
   XX=              3.4670   YY=              0.2230   ZZ=             -3.6900
   XY=             -2.4521   XZ=             -0.0003   YZ=             -0.0000
 Octapole moment (field-independent basis, Debye-Ang**2):
  XXX=            -56.8922  YYY=              2.0563  ZZZ=             -0.0070  XYY=            -11.0863
  XXY=             -4.5328  XXZ=              0.0003  XZZ=            -19.5649  YZZ=             -0.0186
  YYZ=              0.0068  XYZ=              0.0003
 Hexadecapole moment (field-independent basis, Debye-Ang**3):
 XXXX=           -544.3345 YYYY=            -37.5238 ZZZZ=            -41.3989 XXXY=             -6.3057
 XXXZ=              0.0036 YYYX=             -0.1437 YYYZ=              0.0011 ZZZX=              0.0178
 ZZZY=             -0.0008 XXYY=            -91.0924 XXZZ=           -106.9941 YYZZ=            -13.7877
 XXYZ=             -0.0012 YYXZ=             -0.0174 ZZXY=              3.7755
 N-N= 3.528835818384D+01 E-N=-1.110864539671D+03  KE= 4.376990112704D+02
                          Isotropic Fermi Contact Couplings
        Atom                 a.u.       MegaHertz       Gauss      10(-4) cm-1
     1  C(13)             -0.00000      -0.00000      -0.00000      -0.00000
     2  S(33)             -0.00000      -0.00000      -0.00000      -0.00000
     3  H(1)              -0.00000      -0.00000      -0.00000      -0.00000
     4  H(1)              -0.00000      -0.00000      -0.00000      -0.00000
     5  H(1)              -0.00000      -0.00000      -0.00000      -0.00000
     6  H(1)              -0.00000      -0.00000      -0.00000      -0.00000
 --------------------------------------------------------
       Center         ----  Spin Dipole Couplings  ----
                      3XX-RR        3YY-RR        3ZZ-RR
 --------------------------------------------------------
     1   Atom       -0.000000      0.000000      0.000000
     2   Atom        0.000000     -0.000000     -0.000000
     3   Atom       -0.000000      0.000000     -0.000000
     4   Atom        0.000000     -0.000000      0.000000
     5   Atom       -0.000000      0.000000     -0.000000
     6   Atom       -0.000000      0.000000     -0.000000
 --------------------------------------------------------
                        XY            XZ            YZ
 --------------------------------------------------------
     1   Atom        0.000000     -0.000000      0.000000
     2   Atom        0.000000     -0.000000     -0.000000
     3   Atom       -0.000000     -0.000000      0.000000
     4   Atom        0.000000      0.000000     -0.000000
     5   Atom       -0.000000     -0.000000     -0.000000
     6   Atom       -0.000000      0.000000      0.000000
 --------------------------------------------------------


 ---------------------------------------------------------------------------------
              Anisotropic Spin Dipole Couplings in Principal Axis System
 ---------------------------------------------------------------------------------

       Atom             a.u.   MegaHertz   Gauss  10(-4) cm-1        Axes

              Baa    -0.0000    -0.000    -0.000    -0.000  0.9983 -0.0579  0.0000
     1 C(13)  Bbb     0.0000     0.000     0.000     0.000  0.0565  0.9741 -0.2187
              Bcc     0.0000     0.000     0.000     0.000  0.0127  0.2184  0.9758
 
              Baa    -0.0000    -0.000    -0.000    -0.000 -0.0982  0.8725  0.4786
     2 S(33)  Bbb    -0.0000    -0.000    -0.000    -0.000  0.0536 -0.4756  0.8780
              Bcc     0.0000     0.000     0.000     0.000  0.9937  0.1119 -0.0001
 
              Baa    -0.0000    -0.000    -0.000    -0.000  0.0008 -0.0004  1.0000
     3 H(1)   Bbb    -0.0000    -0.000    -0.000    -0.000  0.9997  0.0238 -0.0008
              Bcc     0.0000     0.000     0.000     0.000 -0.0238  0.9997  0.0004
 
              Baa    -0.0000    -0.000    -0.000    -0.000 -0.2512  0.9679  0.0029
     4 H(1)   Bbb     0.0000     0.000     0.000     0.000  0.9679  0.2512  0.0010
              Bcc     0.0000     0.000     0.000     0.000 -0.0002 -0.0030  1.0000
 
              Baa    -0.0000    -0.000    -0.000    -0.000  0.3287  0.4444  0.8333
     5 H(1)   Bbb     0.0000     0.000     0.000     0.000  0.9428 -0.2064 -0.2618
              Bcc     0.0000     0.000     0.000     0.000  0.0557  0.8717 -0.4869
 
              Baa    -0.0000    -0.000    -0.000    -0.000 -0.3297 -0.4485  0.8308
     6 H(1)   Bbb     0.0000     0.000     0.000     0.000  0.9425 -0.2074  0.2621
              Bcc     0.0000     0.000     0.000     0.000  0.0547  0.8694  0.4910
 

 ---------------------------------------------------------------------------------

 No NMR shielding tensors so no spin-rotation constants.
 Leave Link  601 at Mon Apr 21 19:37:27 2025, MaxMem=   536870912 cpu:               2.1 elap:               0.3
 (Enter /home/szhao/Apps/g16/l701.exe)
 ... and contract with generalized density number  0.
 Compute integral first derivatives.
 Leave Link  701 at Mon Apr 21 19:37:27 2025, MaxMem=   536870912 cpu:               1.0 elap:               0.2
 (Enter /home/szhao/Apps/g16/l702.exe)
 L702 exits ... SP integral derivatives will be done elsewhere.
 Leave Link  702 at Mon Apr 21 19:37:27 2025, MaxMem=   536870912 cpu:               0.4 elap:               0.1
 (Enter /home/szhao/Apps/g16/l703.exe)
 Integral derivatives from FoFJK, PRISM(SPDF).
 Compute integral first derivatives, UseDBF=F ICtDFT=           0.
 Calling FoFJK, ICntrl=      2127 FMM=F ISym2X=0 I1Cent= 0 IOpClX= 1 NMat=1 NMatS=1 NMatT=0.
 FoFJK:  IHMeth= 1 ICntrl=    2127 DoSepK=F KAlg= 0 I1Cent=           0 FoldK=F
 IRaf=         0 NMat=       1 IRICut=       1 DoRegI=T DoRafI=F ISym2E= 0 IDoP0=0 IntGTp=1.
 FoFCou: FMM=F IPFlag=           0 FMFlag=      100000 FMFlg1=         800
         NFxFlg=           0 DoJE=F BraDBF=F KetDBF=F FulRan=T
         wScrn=  0.000000 ICntrl=      2127 IOpCl=  1 I1Cent=           0 NGrid=           0
         NMat0=    1 NMatS0=      1 NMatT0=    0 NMatD0=    1 NMtDS0=    0 NMtDT0=    0
 Symmetry not used in FoFCou.
 Leave Link  703 at Mon Apr 21 19:37:29 2025, MaxMem=   536870912 cpu:               9.0 elap:               1.2
 (Enter /home/szhao/Apps/g16/l716.exe)
 Dipole        =-1.53730290D+00-3.59375989D-01 1.09232835D-04
 -------------------------------------------------------------------
 Center     Atomic                   Forces (Hartrees/Bohr)
 Number     Number              X              Y              Z
 -------------------------------------------------------------------
      1        6          -0.000000000   -0.000000000   -0.000000000
      2       16          -0.000000000   -0.000000000   -0.000000000
      3        1          -0.001294701   -0.002225112   -0.000000094
      4        1           0.021538111    0.006708844    0.000009688
      5        1           0.020421639   -0.006429117   -0.006180856
      6        1           0.020420644   -0.006471060    0.006143930
 -------------------------------------------------------------------
 Cartesian Forces:  Max     0.021538111 RMS     0.009155239
 Leave Link  716 at Mon Apr 21 19:37:29 2025, MaxMem=   536870912 cpu:               0.7 elap:               0.1
 (Enter /home/szhao/Apps/g16/l103.exe)

 GradGradGradGradGradGradGradGradGradGradGradGradGradGradGradGradGradGrad
 Berny optimization.
 FormGI is forming the generalized inverse of G from B-inverse, IUseBI=4.
 Internal  Forces:  Max     0.062380395 RMS     0.018847222
 Search for a local minimum.
 Step number   1 out of a maximum of   30
 All quantities printed in internal units (Hartrees-Bohrs-Radians)
 RMS Force = .15051D-01 SwitMx=.10000D-02 MixMth= 1
 Mixed Optimization -- RFO/linear search
 Second derivative matrix not updated -- first step.
 The second derivative matrix:
                          X1        Y1        Z1        X2        Y2
           X1           0.50000
           Y1           0.00000   0.50000
           Z1           0.00000   0.00000   0.50000
           X2           0.00000   0.00000   0.00000   0.50000
           Y2           0.00000   0.00000   0.00000   0.00000   0.50000
           Z2           0.00000   0.00000   0.00000   0.00000   0.00000
           R1           0.00000   0.00000   0.00000   0.00000   0.00000
           R2           0.00000   0.00000   0.00000   0.00000   0.00000
           R3           0.00000   0.00000   0.00000   0.00000   0.00000
           R4           0.00000   0.00000   0.00000   0.00000   0.00000
           A1           0.00000   0.00000   0.00000   0.00000   0.00000
           A2           0.00000   0.00000   0.00000   0.00000   0.00000
           A3           0.00000   0.00000   0.00000   0.00000   0.00000
           A4           0.00000   0.00000   0.00000   0.00000   0.00000
           A5           0.00000   0.00000   0.00000   0.00000   0.00000
           A6           0.00000   0.00000   0.00000   0.00000   0.00000
           A7           0.00000   0.00000   0.00000   0.00000   0.00000
           D1           0.00000   0.00000   0.00000   0.00000   0.00000
           D2           0.00000   0.00000   0.00000   0.00000   0.00000
           D3           0.00000   0.00000   0.00000   0.00000   0.00000
                          Z2        R1        R2        R3        R4
           Z2           0.50000
           R1           0.00000   0.34961
           R2           0.00000   0.00000   0.35028
           R3           0.00000   0.00000   0.00000   0.35028
           R4           0.00000   0.00000   0.00000   0.00000   0.26329
           A1           0.00000   0.00000   0.00000   0.00000   0.00000
           A2           0.00000   0.00000   0.00000   0.00000   0.00000
           A3           0.00000   0.00000   0.00000   0.00000   0.00000
           A4           0.00000   0.00000   0.00000   0.00000   0.00000
           A5           0.00000   0.00000   0.00000   0.00000   0.00000
           A6           0.00000   0.00000   0.00000   0.00000   0.00000
           A7           0.00000   0.00000   0.00000   0.00000   0.00000
           D1           0.00000   0.00000   0.00000   0.00000   0.00000
           D2           0.00000   0.00000   0.00000   0.00000   0.00000
           D3           0.00000   0.00000   0.00000   0.00000   0.00000
                          A1        A2        A3        A4        A5
           A1           0.16000
           A2           0.00000   0.16000
           A3           0.00000   0.00000   0.16000
           A4           0.00000   0.00000   0.00000   0.16000
           A5           0.00000   0.00000   0.00000   0.00000   0.16000
           A6           0.00000   0.00000   0.00000   0.00000   0.00000
           A7           0.00000   0.00000   0.00000   0.00000   0.00000
           D1           0.00000   0.00000   0.00000   0.00000   0.00000
           D2           0.00000   0.00000   0.00000   0.00000   0.00000
           D3           0.00000   0.00000   0.00000   0.00000   0.00000
                          A6        A7        D1        D2        D3
           A6           0.16000
           A7           0.00000   0.16000
           D1           0.00000   0.00000   0.00230
           D2           0.00000   0.00000   0.00000   0.00230
           D3           0.00000   0.00000   0.00000   0.00000   0.00230
 ITU=  0
     Eigenvalues ---    0.00230   0.09535   0.10226   0.16000   0.16000
     Eigenvalues ---    0.16000   0.16000   0.26329   0.34961   0.35028
     Eigenvalues ---    0.350281000.000001000.000001000.000001000.00000
     Eigenvalues --- 1000.000001000.000001000.000001000.000001000.00000
 RFO step:  Lambda=-1.79073628D-02 EMin= 2.30000000D-03
 Linear search not attempted -- first point.
 Maximum step size (   0.300) exceeded in Quadratic search.
    -- Step size scaled by   0.946
 Iteration  1 RMS(Cart)=  0.09802596 RMS(Int)=  0.00911286
 Iteration  2 RMS(Cart)=  0.00925345 RMS(Int)=  0.00551986
 Iteration  3 RMS(Cart)=  0.00016897 RMS(Int)=  0.00551893
 Iteration  4 RMS(Cart)=  0.00000371 RMS(Int)=  0.00551893
 Iteration  5 RMS(Cart)=  0.00000008 RMS(Int)=  0.00551893
 ITry= 1 IFail=0 DXMaxC= 2.57D-01 DCOld= 1.00D+10 DXMaxT= 3.00D-01 DXLimC= 3.00D+00 Rises=F
 Variable       Old X    -DE/DX   Delta X   Delta X   Delta X     New X
                                 (Linear)    (Quad)   (Total)
    X1       -3.79876   0.06238   0.00000   0.00000   0.00000  -3.79876
    Y1        0.00000  -0.00570   0.00000   0.00000   0.00000   0.00000
    Z1        0.00000  -0.00003   0.00000   0.00000   0.00000   0.00000
    X2        3.79876  -0.00129   0.00000   0.00000   0.00000   3.79876
    Y2        0.00000  -0.00271   0.00000   0.00000   0.00000   0.00000
    Z2        0.00000   0.00000   0.00000   0.00000   0.00000   0.00000
    R1        2.05738   0.00042   0.00000   0.00109   0.00109   2.05847
    R2        2.05629   0.00049   0.00000   0.00125   0.00125   2.05754
    R3        2.05629   0.00049   0.00000   0.00126   0.00126   2.05755
    R4        2.53443   0.00206   0.00000   0.00694   0.00694   2.54137
    A1        1.85395  -0.02290   0.00000  -0.11698  -0.12461   1.72934
    A2        1.94230  -0.02269   0.00000  -0.12325  -0.13155   1.81075
    A3        1.94221  -0.02269   0.00000  -0.12322  -0.13152   1.81070
    A4        1.89795   0.02359   0.00000   0.13032   0.11920   2.01715
    A5        1.89780   0.02360   0.00000   0.13041   0.11930   2.01711
    A6        1.92721   0.02171   0.00000   0.10704   0.09424   2.02145
    A7        1.68629  -0.00391   0.00000  -0.02079  -0.02079   1.66549
    D1        3.13880   0.00001   0.00000   0.00006   0.00006   3.13886
    D2       -1.08142   0.00241   0.00000   0.02017   0.01904  -1.06238
    D3        1.07606  -0.00242   0.00000  -0.02022  -0.01908   1.05698
         Item               Value     Threshold  Converged?
 Maximum Force            0.023604     0.000450     NO 
 RMS     Force            0.015051     0.000300     NO 
 Maximum Displacement     0.257481     0.001800     NO 
 RMS     Displacement     0.104278     0.001200     NO 
 Predicted change in Energy=-9.648532D-03
 Lowest energy point so far.  Saving SCF results.
 GradGradGradGradGradGradGradGradGradGradGradGradGradGradGradGradGradGrad

 Leave Link  103 at Mon Apr 21 19:37:29 2025, MaxMem=   536870912 cpu:               1.0 elap:               0.2
 (Enter /home/szhao/Apps/g16/l202.exe)
                          Input orientation:                          
 ---------------------------------------------------------------------
 Center     Atomic      Atomic             Coordinates (Angstroms)
 Number     Number       Type             X           Y           Z
 ---------------------------------------------------------------------
      1          6           0       -2.010220    0.000000    0.000000
      2         16           0        2.010220    0.000000    0.000000
      3          1           0        2.137383   -1.338808    0.000008
      4          1           0       -2.182198    1.075628    0.002935
      5          1           0       -2.268977   -0.514839   -0.923838
      6          1           0       -2.268926   -0.519819    0.921064
 ---------------------------------------------------------------------
                    Distance matrix (angstroms):
                    1          2          3          4          5
     1  C    0.000000
     2  S    4.020439   0.000000
     3  H    4.358327   1.344834   0.000000
     4  H    1.089294   4.328204   4.948564   0.000000
     5  H    1.088803   4.407954   4.576945   1.842831   0.000000
     6  H    1.088807   4.407909   4.575439   1.842807   1.844909
                    6
     6  H    0.000000
 Symmetry turned off by external request.
 Stoichiometry    CH4S
 Framework group  C1[X(CH4S)]
 Deg. of freedom    12
 Full point group                 C1      NOp   1
 Rotational constants (GHZ):          97.7603710           2.9227797           2.8936733
 Leave Link  202 at Mon Apr 21 19:37:30 2025, MaxMem=   536870912 cpu:               0.7 elap:               0.1
 (Enter /home/szhao/Apps/g16/l301.exe)
 Standard basis: 6-311+G(d,p) (5D, 7F)
 Ernie: Thresh=  0.10000D-02 Tol=  0.10000D-05 Strict=F.
    76 basis functions,   118 primitive gaussians,    78 cartesian basis functions
    13 alpha electrons       13 beta electrons
       nuclear repulsion energy        35.4041938280 Hartrees.
 IExCor= 4336 DFT=T Ex+Corr=M062X ExCW=0 ScaHFX=  0.540000
 ScaDFX=  1.000000  1.000000  1.000000  1.000000 ScalE2=  1.000000  1.000000
 IRadAn=      7 IRanWt=     -1 IRanGd=            0 ICorTp=0 IEmpDi=  4
 NAtoms=    6 NActive=    6 NUniq=    6 SFac= 1.00D+00 NAtFMM=   60 NAOKFM=F Big=F
 Integral buffers will be    131072 words long.
 Raffenetti 2 integral format.
 Two-electron integral symmetry is turned off.
 Leave Link  301 at Mon Apr 21 19:37:30 2025, MaxMem=   536870912 cpu:               0.8 elap:               0.2
 (Enter /home/szhao/Apps/g16/l302.exe)
 NPDir=0 NMtPBC=     1 NCelOv=     1 NCel=       1 NClECP=     1 NCelD=      1
         NCelK=      1 NCelE2=     1 NClLst=     1 CellRange=     0.0.
 One-electron integrals computed using PRISM.
 NBasis=    76 RedAO= T EigKep=  8.93D-03  NBF=    76
 NBsUse=    76 1.00D-06 EigRej= -1.00D+00 NBFU=    76
 Precomputing XC quadrature grid using
 IXCGrd= 4 IRadAn=           7 IRanWt=          -1 IRanGd=           0 AccXCQ= 0.00D+00.
 Generated NRdTot=       0 NPtTot=           0 NUsed=           0 NTot=          32
 NSgBfM=    77    77    77    77    77 MxSgAt=     6 MxSgA2=     6.
 Leave Link  302 at Mon Apr 21 19:37:30 2025, MaxMem=   536870912 cpu:               1.9 elap:               0.3
 (Enter /home/szhao/Apps/g16/l303.exe)
 DipDrv:  MaxL=1.
 Leave Link  303 at Mon Apr 21 19:37:30 2025, MaxMem=   536870912 cpu:               0.8 elap:               0.1
 (Enter /home/szhao/Apps/g16/l401.exe)
 Initial guess from the checkpoint file:  "opt.chk"
 B after Tr=     0.027362   -0.004575   -0.000023
         Rot=    1.000000    0.000005    0.000003   -0.000330 Ang=   0.04 deg.
 Guess basis will be translated and rotated to current coordinates.
 JPrj=2 DoOrth=T DoCkMO=T.
 Initial guess <Sx>= 0.0000 <Sy>= 0.0000 <Sz>= 0.0000 <S**2>=-0.0000 S=-0.0000
 Generating alternative initial guess.
 ExpMin= 4.05D-02 ExpMax= 9.34D+04 ExpMxC= 3.17D+03 IAcc=3 IRadAn=         5 AccDes= 0.00D+00
 Harris functional with IExCor= 1009 and IRadAn=       5 diagonalized for initial guess.
 HarFok:  IExCor= 1009 AccDes= 0.00D+00 IRadAn=         5 IDoV= 1 UseB2=F ITyADJ=14
 ICtDFT=  3500011 ScaDFX=  1.000000  1.000000  1.000000  1.000000
 FoFCou: FMM=F IPFlag=           0 FMFlag=      100000 FMFlg1=           0
         NFxFlg=           0 DoJE=T BraDBF=F KetDBF=T FulRan=T
         wScrn=  0.000000 ICntrl=       500 IOpCl=  0 I1Cent=   200000004 NGrid=           0
         NMat0=    1 NMatS0=      1 NMatT0=    0 NMatD0=    1 NMtDS0=    0 NMtDT0=    0
 Symmetry not used in FoFCou.
 Harris En= -438.339249756077    
 Leave Link  401 at Mon Apr 21 19:37:31 2025, MaxMem=   536870912 cpu:               3.3 elap:               0.5
 (Enter /home/szhao/Apps/g16/l502.exe)
 Keep R1 and R2 ints in memory in canonical form, NReq=15806772.
 FoFCou: FMM=F IPFlag=           0 FMFlag=           0 FMFlg1=           0
         NFxFlg=           0 DoJE=F BraDBF=F KetDBF=F FulRan=T
         wScrn=  0.000000 ICntrl=       600 IOpCl=  0 I1Cent=           0 NGrid=           0
         NMat0=    1 NMatS0=   2926 NMatT0=    0 NMatD0=    1 NMtDS0=    0 NMtDT0=    0
 Symmetry not used in FoFCou.
 Two-electron integral symmetry not used.
 UHF open shell SCF:
 Using DIIS extrapolation, IDIIS=  1040.
 NGot=   536870912 LenX=   528292970 LenY=   528286445
 Requested convergence on RMS density matrix=1.00D-08 within 128 cycles.
 Requested convergence on MAX density matrix=1.00D-06.
 Requested convergence on             energy=1.00D-06.
 No special actions if energy rises.

 Cycle   1  Pass 1  IDiag  1:
 E= -438.488643096917    
 DIIS: error= 5.76D-03 at cycle   1 NSaved=   1.
 NSaved= 1 IEnMin= 1 EnMin= -438.488643096917     IErMin= 1 ErrMin= 5.76D-03
 ErrMax= 5.76D-03  0.00D+00 EMaxC= 1.00D-01 BMatC= 7.57D-03 BMatP= 7.57D-03
 IDIUse=3 WtCom= 9.42D-01 WtEn= 5.76D-02
 Coeff-Com:  0.100D+01
 Coeff-En:   0.100D+01
 Coeff:      0.100D+01
 Gap=     0.444 Goal=   None    Shift=    0.000
 Gap=     0.444 Goal=   None    Shift=    0.000
 GapD=    0.444 DampG=2.000 DampE=1.000 DampFc=2.0000 IDamp=-1.
 RMSDP=6.55D-04 MaxDP=1.01D-02              OVMax= 3.76D-02

 Cycle   2  Pass 1  IDiag  1:
 E= -438.491258077729     Delta-E=       -0.002614980812 Rises=F Damp=F
 DIIS: error= 2.38D-03 at cycle   2 NSaved=   2.
 NSaved= 2 IEnMin= 2 EnMin= -438.491258077729     IErMin= 2 ErrMin= 2.38D-03
 ErrMax= 2.38D-03  0.00D+00 EMaxC= 1.00D-01 BMatC= 8.00D-04 BMatP= 7.57D-03
 IDIUse=3 WtCom= 9.76D-01 WtEn= 2.38D-02
 Coeff-Com:  0.222D-01 0.978D+00
 Coeff-En:   0.000D+00 0.100D+01
 Coeff:      0.217D-01 0.978D+00
 Gap=     0.098 Goal=   None    Shift=    0.000
 Gap=     0.098 Goal=   None    Shift=    0.000
 RMSDP=7.72D-04 MaxDP=2.51D-02 DE=-2.61D-03 OVMax= 7.06D-02

 Cycle   3  Pass 1  IDiag  1:
 E= -438.487333103801     Delta-E=        0.003924973928 Rises=F Damp=F
 DIIS: error= 9.58D-03 at cycle   3 NSaved=   3.
 NSaved= 3 IEnMin= 2 EnMin= -438.491258077729     IErMin= 2 ErrMin= 2.38D-03
 ErrMax= 9.58D-03  0.00D+00 EMaxC= 1.00D-01 BMatC= 1.04D-02 BMatP= 8.00D-04
 IDIUse=3 WtCom= 9.27D-02 WtEn= 9.07D-01
 Coeff-Com: -0.308D-01 0.827D+00 0.203D+00
 Coeff-En:   0.000D+00 0.871D+00 0.129D+00
 Coeff:     -0.286D-02 0.867D+00 0.136D+00
 Gap=     0.101 Goal=   None    Shift=    0.000
 Gap=     0.101 Goal=   None    Shift=    0.000
 RMSDP=4.33D-04 MaxDP=1.43D-02 DE= 3.92D-03 OVMax= 4.16D-02

 Cycle   4  Pass 1  IDiag  1:
 E= -438.491263776338     Delta-E=       -0.003930672537 Rises=F Damp=F
 DIIS: error= 2.68D-03 at cycle   4 NSaved=   4.
 NSaved= 4 IEnMin= 4 EnMin= -438.491263776338     IErMin= 2 ErrMin= 2.38D-03
 ErrMax= 2.68D-03  0.00D+00 EMaxC= 1.00D-01 BMatC= 7.95D-04 BMatP= 8.00D-04
 IDIUse=3 WtCom= 9.73D-01 WtEn= 2.68D-02
 Coeff-Com: -0.242D-01 0.147D+00-0.288D+00 0.117D+01
 Coeff-En:   0.000D+00 0.497D+00 0.000D+00 0.503D+00
 Coeff:     -0.236D-01 0.156D+00-0.281D+00 0.115D+01
 Gap=     0.102 Goal=   None    Shift=    0.000
 Gap=     0.102 Goal=   None    Shift=    0.000
 RMSDP=1.87D-04 MaxDP=5.99D-03 DE=-3.93D-03 OVMax= 1.75D-02

 Cycle   5  Pass 1  IDiag  1:
 E= -438.491606831984     Delta-E=       -0.000343055645 Rises=F Damp=F
 DIIS: error= 1.09D-04 at cycle   5 NSaved=   5.
 NSaved= 5 IEnMin= 5 EnMin= -438.491606831984     IErMin= 5 ErrMin= 1.09D-04
 ErrMax= 1.09D-04  0.00D+00 EMaxC= 1.00D-01 BMatC= 3.03D-06 BMatP= 7.95D-04
 IDIUse=3 WtCom= 9.99D-01 WtEn= 1.09D-03
 Coeff-Com: -0.450D-02-0.249D-02-0.608D-01 0.254D+00 0.813D+00
 Coeff-En:   0.000D+00 0.000D+00 0.000D+00 0.000D+00 0.100D+01
 Coeff:     -0.449D-02-0.249D-02-0.607D-01 0.254D+00 0.814D+00
 Gap=     0.102 Goal=   None    Shift=    0.000
 Gap=     0.102 Goal=   None    Shift=    0.000
 RMSDP=1.47D-05 MaxDP=3.05D-04 DE=-3.43D-04 OVMax= 4.48D-04

 Cycle   6  Pass 1  IDiag  1:
 E= -438.491607463129     Delta-E=       -0.000000631145 Rises=F Damp=F
 DIIS: error= 9.68D-05 at cycle   6 NSaved=   6.
 NSaved= 6 IEnMin= 6 EnMin= -438.491607463129     IErMin= 6 ErrMin= 9.68D-05
 ErrMax= 9.68D-05  0.00D+00 EMaxC= 1.00D-01 BMatC= 1.18D-06 BMatP= 3.03D-06
 IDIUse=1 WtCom= 1.00D+00 WtEn= 0.00D+00
 Coeff-Com:  0.734D-03-0.177D-01 0.161D-01-0.342D-01 0.195D+00 0.840D+00
 Coeff:      0.734D-03-0.177D-01 0.161D-01-0.342D-01 0.195D+00 0.840D+00
 Gap=     0.102 Goal=   None    Shift=    0.000
 Gap=     0.102 Goal=   None    Shift=    0.000
 RMSDP=6.01D-06 MaxDP=1.11D-04 DE=-6.31D-07 OVMax= 3.22D-04

 Cycle   7  Pass 1  IDiag  1:
 E= -438.491607875292     Delta-E=       -0.000000412163 Rises=F Damp=F
 DIIS: error= 3.15D-05 at cycle   7 NSaved=   7.
 NSaved= 7 IEnMin= 7 EnMin= -438.491607875292     IErMin= 7 ErrMin= 3.15D-05
 ErrMax= 3.15D-05  0.00D+00 EMaxC= 1.00D-01 BMatC= 9.98D-08 BMatP= 1.18D-06
 IDIUse=1 WtCom= 1.00D+00 WtEn= 0.00D+00
 Coeff-Com:  0.221D-03-0.199D-02 0.702D-02-0.158D-01-0.181D-01 0.330D-01
 Coeff-Com:  0.996D+00
 Coeff:      0.221D-03-0.199D-02 0.702D-02-0.158D-01-0.181D-01 0.330D-01
 Coeff:      0.996D+00
 Gap=     0.102 Goal=   None    Shift=    0.000
 Gap=     0.102 Goal=   None    Shift=    0.000
 RMSDP=2.48D-06 MaxDP=7.61D-05 DE=-4.12D-07 OVMax= 2.08D-04

 Cycle   8  Pass 1  IDiag  1:
 E= -438.491607919779     Delta-E=       -0.000000044487 Rises=F Damp=F
 DIIS: error= 4.06D-06 at cycle   8 NSaved=   8.
 NSaved= 8 IEnMin= 8 EnMin= -438.491607919779     IErMin= 8 ErrMin= 4.06D-06
 ErrMax= 4.06D-06  0.00D+00 EMaxC= 1.00D-01 BMatC= 3.03D-09 BMatP= 9.98D-08
 IDIUse=1 WtCom= 1.00D+00 WtEn= 0.00D+00
 Coeff-Com:  0.775D-04-0.204D-03 0.444D-04-0.222D-02 0.437D-02 0.355D-02
 Coeff-Com: -0.318D-01 0.103D+01
 Coeff:      0.775D-04-0.204D-03 0.444D-04-0.222D-02 0.437D-02 0.355D-02
 Coeff:     -0.318D-01 0.103D+01
 Gap=     0.102 Goal=   None    Shift=    0.000
 Gap=     0.102 Goal=   None    Shift=    0.000
 RMSDP=4.95D-07 MaxDP=1.28D-05 DE=-4.45D-08 OVMax= 3.60D-05

 Cycle   9  Pass 1  IDiag  1:
 E= -438.491607921263     Delta-E=       -0.000000001484 Rises=F Damp=F
 DIIS: error= 1.07D-06 at cycle   9 NSaved=   9.
 NSaved= 9 IEnMin= 9 EnMin= -438.491607921263     IErMin= 9 ErrMin= 1.07D-06
 ErrMax= 1.07D-06  0.00D+00 EMaxC= 1.00D-01 BMatC= 1.15D-10 BMatP= 3.03D-09
 IDIUse=1 WtCom= 1.00D+00 WtEn= 0.00D+00
 Coeff-Com: -0.296D-04 0.320D-03-0.503D-03 0.130D-02-0.939D-03-0.466D-02
 Coeff-Com: -0.877D-01-0.286D-01 0.112D+01
 Coeff:     -0.296D-04 0.320D-03-0.503D-03 0.130D-02-0.939D-03-0.466D-02
 Coeff:     -0.877D-01-0.286D-01 0.112D+01
 Gap=     0.102 Goal=   None    Shift=    0.000
 Gap=     0.102 Goal=   None    Shift=    0.000
 RMSDP=1.55D-07 MaxDP=2.13D-06 DE=-1.48D-09 OVMax= 1.02D-05

 Cycle  10  Pass 1  IDiag  1:
 E= -438.491607921351     Delta-E=       -0.000000000089 Rises=F Damp=F
 DIIS: error= 8.90D-08 at cycle  10 NSaved=  10.
 NSaved=10 IEnMin=10 EnMin= -438.491607921351     IErMin=10 ErrMin= 8.90D-08
 ErrMax= 8.90D-08  0.00D+00 EMaxC= 1.00D-01 BMatC= 2.10D-12 BMatP= 1.15D-10
 IDIUse=1 WtCom= 1.00D+00 WtEn= 0.00D+00
 Coeff-Com: -0.685D-05 0.631D-04-0.507D-04 0.212D-03-0.747D-03-0.306D-02
 Coeff-Com:  0.502D-02-0.326D-01 0.644D-01 0.967D+00
 Coeff:     -0.685D-05 0.631D-04-0.507D-04 0.212D-03-0.747D-03-0.306D-02
 Coeff:      0.502D-02-0.326D-01 0.644D-01 0.967D+00
 Gap=     0.102 Goal=   None    Shift=    0.000
 Gap=     0.102 Goal=   None    Shift=    0.000
 RMSDP=1.99D-08 MaxDP=2.24D-07 DE=-8.86D-11 OVMax= 1.45D-06

 Cycle  11  Pass 1  IDiag  1:
 E= -438.491607921352     Delta-E=       -0.000000000001 Rises=F Damp=F
 DIIS: error= 9.42D-08 at cycle  11 NSaved=  11.
 NSaved=11 IEnMin=11 EnMin= -438.491607921352     IErMin=10 ErrMin= 8.90D-08
 ErrMax= 9.42D-08  0.00D+00 EMaxC= 1.00D-01 BMatC= 1.36D-12 BMatP= 2.10D-12
 IDIUse=1 WtCom= 1.00D+00 WtEn= 0.00D+00
 Coeff-Com:  0.107D-05-0.108D-04 0.166D-04-0.488D-04-0.142D-03-0.182D-03
 Coeff-Com:  0.767D-02-0.641D-02-0.794D-01 0.107D+00 0.972D+00
 Coeff:      0.107D-05-0.108D-04 0.166D-04-0.488D-04-0.142D-03-0.182D-03
 Coeff:      0.767D-02-0.641D-02-0.794D-01 0.107D+00 0.972D+00
 Gap=     0.102 Goal=   None    Shift=    0.000
 Gap=     0.102 Goal=   None    Shift=    0.000
 RMSDP=8.64D-09 MaxDP=1.67D-07 DE=-8.53D-13 OVMax= 5.49D-07

 SCF Done:  E(UM062X) =  -438.491607921     A.U. after   11 cycles
            NFock= 11  Conv=0.86D-08     -V/T= 2.0018
 <Sx>= 0.0000 <Sy>= 0.0000 <Sz>= 0.0000 <S**2>=-0.0000 S=-0.0000
 <L.S>=  0.00000000000    
 KE= 4.376850764992D+02 PE=-1.111187327580D+03 EE= 1.996064493314D+02
 Annihilation of the first spin contaminant:
 S**2 before annihilation    -0.0000,   after    -0.0000
 Leave Link  502 at Mon Apr 21 19:37:38 2025, MaxMem=   536870912 cpu:              55.3 elap:               7.2
 (Enter /home/szhao/Apps/g16/l701.exe)
 ... and contract with generalized density number  0.
 Compute integral first derivatives.
 Leave Link  701 at Mon Apr 21 19:37:39 2025, MaxMem=   536870912 cpu:               1.5 elap:               0.3
 (Enter /home/szhao/Apps/g16/l702.exe)
 L702 exits ... SP integral derivatives will be done elsewhere.
 Leave Link  702 at Mon Apr 21 19:37:39 2025, MaxMem=   536870912 cpu:               0.7 elap:               0.1
 (Enter /home/szhao/Apps/g16/l703.exe)
 Integral derivatives from FoFJK, PRISM(SPDF).
 Compute integral first derivatives, UseDBF=F ICtDFT=           0.
 Calling FoFJK, ICntrl=      2127 FMM=F ISym2X=0 I1Cent= 0 IOpClX= 1 NMat=1 NMatS=1 NMatT=0.
 FoFJK:  IHMeth= 1 ICntrl=    2127 DoSepK=F KAlg= 0 I1Cent=           0 FoldK=F
 IRaf=         0 NMat=       1 IRICut=       1 DoRegI=T DoRafI=F ISym2E= 0 IDoP0=0 IntGTp=1.
 FoFCou: FMM=F IPFlag=           0 FMFlag=      100000 FMFlg1=         800
         NFxFlg=           0 DoJE=F BraDBF=F KetDBF=F FulRan=T
         wScrn=  0.000000 ICntrl=      2127 IOpCl=  1 I1Cent=           0 NGrid=           0
         NMat0=    1 NMatS0=      1 NMatT0=    0 NMatD0=    1 NMtDS0=    0 NMtDT0=    0
 Symmetry not used in FoFCou.
 Leave Link  703 at Mon Apr 21 19:37:41 2025, MaxMem=   536870912 cpu:               9.1 elap:               1.2
 (Enter /home/szhao/Apps/g16/l716.exe)
 Dipole        =-1.85550165D+00-3.62205714D-01 6.16761049D-05
 -------------------------------------------------------------------
 Center     Atomic                   Forces (Hartrees/Bohr)
 Number     Number              X              Y              Z
 -------------------------------------------------------------------
      1        6          -0.000000000   -0.000000000   -0.000000000
      2       16          -0.000000000   -0.000000000   -0.000000000
      3        1          -0.001218919   -0.000099172   -0.000000083
      4        1           0.012418876   -0.001836966   -0.000007128
      5        1           0.012491887   -0.000373358    0.000674138
      6        1           0.012490817   -0.000370225   -0.000679620
 -------------------------------------------------------------------
 Cartesian Forces:  Max     0.012491887 RMS     0.005122712
 Leave Link  716 at Mon Apr 21 19:37:41 2025, MaxMem=   536870912 cpu:               0.5 elap:               0.1
 (Enter /home/szhao/Apps/g16/l103.exe)

 GradGradGradGradGradGradGradGradGradGradGradGradGradGradGradGradGradGrad
 Berny optimization.
 Using GEDIIS/GDIIS optimizer.
 FormGI is forming the generalized inverse of G from B-inverse, IUseBI=4.
 Internal  Forces:  Max     0.037401581 RMS     0.011617975
 Search for a local minimum.
 Step number   2 out of a maximum of   30
 All quantities printed in internal units (Hartrees-Bohrs-Radians)
 RMS Force = .96145D-02 SwitMx=.10000D-02 MixMth= 1
 Mixed Optimization -- RFO/linear search
 Update second derivatives using D2CorX and points    1    2
 DE= -1.37D-02 DEPred=-9.65D-03 R= 1.42D+00
 TightC=F SS=  1.41D+00  RLast= 2.98D-01 DXNew= 5.0454D-01 8.9330D-01
 Trust test= 1.42D+00 RLast= 2.98D-01 DXMaxT set to 5.05D-01
 The second derivative matrix:
                          X1        Y1        Z1        X2        Y2
           X1           0.59987
           Y1          -0.01404   0.50197
           Z1          -0.00006   0.00001   0.50000
           X2          -0.00030   0.00004   0.00000   0.50000
           Y2          -0.00889   0.00125   0.00001   0.00003   0.50079
           Z2          -0.00000   0.00000   0.00000   0.00000   0.00000
           R1           0.01679  -0.00236  -0.00001  -0.00005  -0.00149
           R2           0.01539  -0.00216  -0.00001  -0.00005  -0.00137
           R3           0.01542  -0.00217  -0.00001  -0.00005  -0.00137
           R4           0.00831  -0.00117  -0.00000  -0.00003  -0.00074
           A1          -0.02478   0.00349   0.00001   0.00008   0.00221
           A2          -0.02344   0.00330   0.00001   0.00007   0.00209
           A3          -0.02344   0.00330   0.00001   0.00007   0.00209
           A4           0.04809  -0.00676  -0.00003  -0.00015  -0.00428
           A5           0.04813  -0.00677  -0.00003  -0.00015  -0.00429
           A6           0.04072  -0.00573  -0.00002  -0.00012  -0.00363
           A7          -0.00321   0.00045   0.00000   0.00001   0.00029
           D1           0.00002  -0.00000  -0.00000  -0.00000  -0.00000
           D2           0.00608  -0.00085  -0.00000  -0.00002  -0.00054
           D3          -0.00610   0.00086   0.00000   0.00002   0.00054
                          Z2        R1        R2        R3        R4
           Z2           0.50000
           R1          -0.00000   0.35243
           R2          -0.00000   0.00258   0.35264
           R3          -0.00000   0.00258   0.00236   0.35265
           R4          -0.00000   0.00135   0.00122   0.00123   0.26375
           A1           0.00000  -0.00363  -0.00320  -0.00320   0.00052
           A2           0.00000  -0.00337  -0.00296  -0.00296   0.00078
           A3           0.00000  -0.00337  -0.00296  -0.00296   0.00078
           A4          -0.00000   0.00757   0.00682   0.00683   0.00153
           A5          -0.00000   0.00757   0.00682   0.00683   0.00153
           A6          -0.00000   0.00644   0.00581   0.00581   0.00143
           A7           0.00000  -0.00045  -0.00039  -0.00039   0.00016
           D1          -0.00000   0.00000   0.00000   0.00000   0.00000
           D2          -0.00000   0.00102   0.00094   0.00094   0.00050
           D3           0.00000  -0.00102  -0.00094  -0.00094  -0.00050
                          A1        A2        A3        A4        A5
           A1           0.13791
           A2          -0.02399   0.13403
           A3          -0.02399  -0.02596   0.13405
           A4           0.01508   0.01723   0.01722   0.15732
           A5           0.01509   0.01725   0.01724  -0.00269   0.15731
           A6           0.01125   0.01299   0.01298  -0.00082  -0.00082
           A7          -0.00392  -0.00422  -0.00422   0.00296   0.00297
           D1          -0.00001  -0.00000  -0.00000   0.00001   0.00001
           D2          -0.00145  -0.00136  -0.00136   0.00287   0.00287
           D3           0.00145   0.00137   0.00137  -0.00288  -0.00288
                          A6        A7        D1        D2        D3
           A6           0.16045
           A7           0.00226   0.15932
           D1           0.00001  -0.00000   0.00230
           D2           0.00243  -0.00018   0.00000   0.00267
           D3          -0.00244   0.00019  -0.00000  -0.00037   0.00267
 ITU=  1  0
 Use linear search instead of GDIIS.
     Eigenvalues ---    0.00230   0.06397   0.11045   0.11322   0.16000
     Eigenvalues ---    0.16000   0.16020   0.26370   0.34985   0.35028
     Eigenvalues ---    0.358941000.000001000.000001000.000001000.00000
     Eigenvalues --- 1000.000001000.000001000.000001000.000001000.00000
 RFO step:  Lambda=-8.57365245D-04 EMin= 2.30000000D-03
 Quartic linear search produced a step of  1.25292.
 Iteration  1 RMS(Cart)=  0.15678157 RMS(Int)=  0.03380172
 Iteration  2 RMS(Cart)=  0.01626080 RMS(Int)=  0.03012603
 Iteration  3 RMS(Cart)=  0.00169838 RMS(Int)=  0.03011745
 Iteration  4 RMS(Cart)=  0.00045016 RMS(Int)=  0.03011685
 Iteration  5 RMS(Cart)=  0.00011953 RMS(Int)=  0.03011681
 Iteration  6 RMS(Cart)=  0.00003173 RMS(Int)=  0.03011680
 Iteration  7 RMS(Cart)=  0.00000843 RMS(Int)=  0.03011680
 Iteration  8 RMS(Cart)=  0.00000224 RMS(Int)=  0.03011680
 Iteration  9 RMS(Cart)=  0.00000059 RMS(Int)=  0.03011680
 ITry= 1 IFail=0 DXMaxC= 3.89D-01 DCOld= 1.00D+10 DXMaxT= 5.05D-01 DXLimC= 3.00D+00 Rises=F
 Variable       Old X    -DE/DX   Delta X   Delta X   Delta X     New X
                                 (Linear)    (Quad)   (Total)
    X1       -3.79876   0.03740   0.00000   0.00000   0.00000  -3.79876
    Y1        0.00000  -0.00219   0.00000   0.00000   0.00000   0.00000
    Z1        0.00000  -0.00001   0.00000   0.00000   0.00000   0.00000
    X2        3.79876  -0.00122   0.00000   0.00000   0.00000   3.79876
    Y2        0.00000  -0.00049   0.00000   0.00000   0.00000   0.00000
    Z2        0.00000   0.00000   0.00000   0.00000   0.00000   0.00000
    R1        2.05847  -0.00377   0.00137  -0.02656  -0.02519   2.03328
    R2        2.05754  -0.00336   0.00156  -0.02402  -0.02245   2.03509
    R3        2.05755  -0.00337   0.00158  -0.02404  -0.02247   2.03508
    R4        2.54137  -0.00002   0.00869  -0.01033  -0.00164   2.53972
    A1        1.72934  -0.01670  -0.15612  -0.02083  -0.18347   1.54587
    A2        1.81075  -0.01683  -0.16482  -0.01899  -0.19057   1.62017
    A3        1.81070  -0.01683  -0.16478  -0.01898  -0.19052   1.62018
    A4        2.01715   0.01157   0.14935   0.00359   0.07651   2.09366
    A5        2.01711   0.01157   0.14948   0.00349   0.07654   2.09365
    A6        2.02145   0.01153   0.11808   0.03263   0.07128   2.09273
    A7        1.66549  -0.00311  -0.02605  -0.01161  -0.03766   1.62783
    D1        3.13886   0.00000   0.00007  -0.00010  -0.00004   3.13882
    D2       -1.06238   0.00089   0.02385  -0.01001   0.01114  -1.05124
    D3        1.05698  -0.00090  -0.02390   0.00992  -0.01127   1.04571
         Item               Value     Threshold  Converged?
 Maximum Force            0.016830     0.000450     NO 
 RMS     Force            0.009615     0.000300     NO 
 Maximum Displacement     0.388536     0.001800     NO 
 RMS     Displacement     0.150906     0.001200     NO 
 Predicted change in Energy=-8.416924D-03
 Lowest energy point so far.  Saving SCF results.
 GradGradGradGradGradGradGradGradGradGradGradGradGradGradGradGradGradGrad

 Leave Link  103 at Mon Apr 21 19:37:41 2025, MaxMem=   536870912 cpu:               1.3 elap:               0.3
 (Enter /home/szhao/Apps/g16/l202.exe)
                          Input orientation:                          
 ---------------------------------------------------------------------
 Center     Atomic      Atomic             Coordinates (Angstroms)
 Number     Number       Type             X           Y           Z
 ---------------------------------------------------------------------
      1          6           0       -2.010220    0.000000    0.000000
      2         16           0        2.010220    0.000000    0.000000
      3          1           0        2.086834   -1.341778    0.000078
      4          1           0       -1.983406    1.075627    0.002920
      5          1           0       -2.063373   -0.534085   -0.933643
      6          1           0       -2.063377   -0.539132    0.930733
 ---------------------------------------------------------------------
                    Distance matrix (angstroms):
                    1          2          3          4          5
     1  C    0.000000
     2  S    4.020439   0.000000
     3  H    4.311174   1.343964   0.000000
     4  H    1.075965   4.135943   4.733995   0.000000
     5  H    1.076922   4.213204   4.329945   1.864060   0.000000
     6  H    1.076919   4.213207   4.328350   1.864050   1.864383
                    6
     6  H    0.000000
 Symmetry turned off by external request.
 Stoichiometry    CH4S
 Framework group  C1[X(CH4S)]
 Deg. of freedom    12
 Full point group                 C1      NOp   1
 Rotational constants (GHZ):          96.1463588           2.9858687           2.9552570
 Leave Link  202 at Mon Apr 21 19:37:42 2025, MaxMem=   536870912 cpu:               0.1 elap:               0.1
 (Enter /home/szhao/Apps/g16/l301.exe)
 Standard basis: 6-311+G(d,p) (5D, 7F)
 Ernie: Thresh=  0.10000D-02 Tol=  0.10000D-05 Strict=F.
    76 basis functions,   118 primitive gaussians,    78 cartesian basis functions
    13 alpha electrons       13 beta electrons
       nuclear repulsion energy        35.7937024368 Hartrees.
 IExCor= 4336 DFT=T Ex+Corr=M062X ExCW=0 ScaHFX=  0.540000
 ScaDFX=  1.000000  1.000000  1.000000  1.000000 ScalE2=  1.000000  1.000000
 IRadAn=      7 IRanWt=     -1 IRanGd=            0 ICorTp=0 IEmpDi=  4
 NAtoms=    6 NActive=    6 NUniq=    6 SFac= 1.00D+00 NAtFMM=   60 NAOKFM=F Big=F
 Integral buffers will be    131072 words long.
 Raffenetti 2 integral format.
 Two-electron integral symmetry is turned off.
 Leave Link  301 at Mon Apr 21 19:37:42 2025, MaxMem=   536870912 cpu:               0.7 elap:               0.1
 (Enter /home/szhao/Apps/g16/l302.exe)
 NPDir=0 NMtPBC=     1 NCelOv=     1 NCel=       1 NClECP=     1 NCelD=      1
         NCelK=      1 NCelE2=     1 NClLst=     1 CellRange=     0.0.
 One-electron integrals computed using PRISM.
 NBasis=    76 RedAO= T EigKep=  8.00D-03  NBF=    76
 NBsUse=    76 1.00D-06 EigRej= -1.00D+00 NBFU=    76
 Precomputing XC quadrature grid using
 IXCGrd= 4 IRadAn=           7 IRanWt=          -1 IRanGd=           0 AccXCQ= 0.00D+00.
 Generated NRdTot=       0 NPtTot=           0 NUsed=           0 NTot=          32
 NSgBfM=    77    77    77    77    77 MxSgAt=     6 MxSgA2=     6.
 Leave Link  302 at Mon Apr 21 19:37:42 2025, MaxMem=   536870912 cpu:               1.6 elap:               0.2
 (Enter /home/szhao/Apps/g16/l303.exe)
 DipDrv:  MaxL=1.
 Leave Link  303 at Mon Apr 21 19:37:42 2025, MaxMem=   536870912 cpu:               0.5 elap:               0.1
 (Enter /home/szhao/Apps/g16/l401.exe)
 Initial guess from the checkpoint file:  "opt.chk"
 B after Tr=     0.040649   -0.003121   -0.000013
         Rot=    1.000000    0.000007    0.000003   -0.000046 Ang=   0.01 deg.
 Guess basis will be translated and rotated to current coordinates.
 JPrj=2 DoOrth=T DoCkMO=T.
 Initial guess <Sx>= 0.0000 <Sy>= 0.0000 <Sz>= 0.0000 <S**2>=-0.0000 S=-0.0000
 Generating alternative initial guess.
 ExpMin= 4.05D-02 ExpMax= 9.34D+04 ExpMxC= 3.17D+03 IAcc=3 IRadAn=         5 AccDes= 0.00D+00
 Harris functional with IExCor= 1009 and IRadAn=       5 diagonalized for initial guess.
 HarFok:  IExCor= 1009 AccDes= 0.00D+00 IRadAn=         5 IDoV= 1 UseB2=F ITyADJ=14
 ICtDFT=  3500011 ScaDFX=  1.000000  1.000000  1.000000  1.000000
 FoFCou: FMM=F IPFlag=           0 FMFlag=      100000 FMFlg1=           0
         NFxFlg=           0 DoJE=T BraDBF=F KetDBF=T FulRan=T
         wScrn=  0.000000 ICntrl=       500 IOpCl=  0 I1Cent=   200000004 NGrid=           0
         NMat0=    1 NMatS0=      1 NMatT0=    0 NMatD0=    1 NMtDS0=    0 NMtDT0=    0
 Symmetry not used in FoFCou.
 Harris En= -438.341579269762    
 Leave Link  401 at Mon Apr 21 19:37:43 2025, MaxMem=   536870912 cpu:               3.2 elap:               0.5
 (Enter /home/szhao/Apps/g16/l502.exe)
 Keep R1 and R2 ints in memory in canonical form, NReq=15806772.
 FoFCou: FMM=F IPFlag=           0 FMFlag=           0 FMFlg1=           0
         NFxFlg=           0 DoJE=F BraDBF=F KetDBF=F FulRan=T
         wScrn=  0.000000 ICntrl=       600 IOpCl=  0 I1Cent=           0 NGrid=           0
         NMat0=    1 NMatS0=   2926 NMatT0=    0 NMatD0=    1 NMtDS0=    0 NMtDT0=    0
 Symmetry not used in FoFCou.
 Two-electron integral symmetry not used.
 UHF open shell SCF:
 Using DIIS extrapolation, IDIIS=  1040.
 NGot=   536870912 LenX=   528292970 LenY=   528286445
 Requested convergence on RMS density matrix=1.00D-08 within 128 cycles.
 Requested convergence on MAX density matrix=1.00D-06.
 Requested convergence on             energy=1.00D-06.
 No special actions if energy rises.

 Cycle   1  Pass 1  IDiag  1:
 E= -438.492077370278    
 DIIS: error= 9.01D-03 at cycle   1 NSaved=   1.
 NSaved= 1 IEnMin= 1 EnMin= -438.492077370278     IErMin= 1 ErrMin= 9.01D-03
 ErrMax= 9.01D-03  0.00D+00 EMaxC= 1.00D-01 BMatC= 1.70D-02 BMatP= 1.70D-02
 IDIUse=3 WtCom= 9.10D-01 WtEn= 9.01D-02
 Coeff-Com:  0.100D+01
 Coeff-En:   0.100D+01
 Coeff:      0.100D+01
 Gap=     0.429 Goal=   None    Shift=    0.000
 Gap=     0.429 Goal=   None    Shift=    0.000
 GapD=    0.429 DampG=2.000 DampE=1.000 DampFc=2.0000 IDamp=-1.
 RMSDP=9.51D-04 MaxDP=1.84D-02              OVMax= 3.80D-02

 Cycle   2  Pass 1  IDiag  1:
 E= -438.498432806186     Delta-E=       -0.006355435907 Rises=F Damp=F
 DIIS: error= 2.19D-03 at cycle   2 NSaved=   2.
 NSaved= 2 IEnMin= 2 EnMin= -438.498432806186     IErMin= 2 ErrMin= 2.19D-03
 ErrMax= 2.19D-03  0.00D+00 EMaxC= 1.00D-01 BMatC= 6.59D-04 BMatP= 1.70D-02
 IDIUse=3 WtCom= 9.78D-01 WtEn= 2.19D-02
 Coeff-Com: -0.169D-01 0.102D+01
 Coeff-En:   0.000D+00 0.100D+01
 Coeff:     -0.165D-01 0.102D+01
 Gap=     0.102 Goal=   None    Shift=    0.000
 Gap=     0.102 Goal=   None    Shift=    0.000
 RMSDP=5.61D-04 MaxDP=1.23D-02 DE=-6.36D-03 OVMax= 3.99D-02

 Cycle   3  Pass 1  IDiag  1:
 E= -438.497709586394     Delta-E=        0.000723219792 Rises=F Damp=F
 DIIS: error= 4.39D-03 at cycle   3 NSaved=   3.
 NSaved= 3 IEnMin= 2 EnMin= -438.498432806186     IErMin= 2 ErrMin= 2.19D-03
 ErrMax= 4.39D-03  0.00D+00 EMaxC= 1.00D-01 BMatC= 2.65D-03 BMatP= 6.59D-04
 IDIUse=3 WtCom= 1.31D-01 WtEn= 8.69D-01
 Coeff-Com: -0.471D-01 0.748D+00 0.299D+00
 Coeff-En:   0.000D+00 0.783D+00 0.217D+00
 Coeff:     -0.618D-02 0.779D+00 0.227D+00
 Gap=     0.099 Goal=   None    Shift=    0.000
 Gap=     0.099 Goal=   None    Shift=    0.000
 RMSDP=3.50D-04 MaxDP=1.15D-02 DE= 7.23D-04 OVMax= 3.37D-02

 Cycle   4  Pass 1  IDiag  1:
 E= -438.498733507832     Delta-E=       -0.001023921438 Rises=F Damp=F
 DIIS: error= 7.79D-04 at cycle   4 NSaved=   4.
 NSaved= 4 IEnMin= 4 EnMin= -438.498733507832     IErMin= 4 ErrMin= 7.79D-04
 ErrMax= 7.79D-04  0.00D+00 EMaxC= 1.00D-01 BMatC= 7.61D-05 BMatP= 6.59D-04
 IDIUse=3 WtCom= 9.92D-01 WtEn= 7.79D-03
 Coeff-Com: -0.277D-01 0.120D+00 0.141D+00 0.767D+00
 Coeff-En:   0.000D+00 0.000D+00 0.411D-01 0.959D+00
 Coeff:     -0.275D-01 0.119D+00 0.140D+00 0.769D+00
 Gap=     0.100 Goal=   None    Shift=    0.000
 Gap=     0.100 Goal=   None    Shift=    0.000
 RMSDP=8.92D-05 MaxDP=2.17D-03 DE=-1.02D-03 OVMax= 6.77D-03

 Cycle   5  Pass 1  IDiag  1:
 E= -438.498769033998     Delta-E=       -0.000035526166 Rises=F Damp=F
 DIIS: error= 2.24D-04 at cycle   5 NSaved=   5.
 NSaved= 5 IEnMin= 5 EnMin= -438.498769033998     IErMin= 5 ErrMin= 2.24D-04
 ErrMax= 2.24D-04  0.00D+00 EMaxC= 1.00D-01 BMatC= 6.68D-06 BMatP= 7.61D-05
 IDIUse=3 WtCom= 9.98D-01 WtEn= 2.24D-03
 Coeff-Com:  0.705D-03-0.307D-01-0.417D-01 0.810D-01 0.991D+00
 Coeff-En:   0.000D+00 0.000D+00 0.000D+00 0.000D+00 0.100D+01
 Coeff:      0.703D-03-0.306D-01-0.416D-01 0.808D-01 0.991D+00
 Gap=     0.099 Goal=   None    Shift=    0.000
 Gap=     0.099 Goal=   None    Shift=    0.000
 RMSDP=3.06D-05 MaxDP=7.22D-04 DE=-3.55D-05 OVMax= 1.28D-03

 Cycle   6  Pass 1  IDiag  1:
 E= -438.498771954039     Delta-E=       -0.000002920041 Rises=F Damp=F
 DIIS: error= 5.20D-05 at cycle   6 NSaved=   6.
 NSaved= 6 IEnMin= 6 EnMin= -438.498771954039     IErMin= 6 ErrMin= 5.20D-05
 ErrMax= 5.20D-05  0.00D+00 EMaxC= 1.00D-01 BMatC= 3.78D-07 BMatP= 6.68D-06
 IDIUse=1 WtCom= 1.00D+00 WtEn= 0.00D+00
 Coeff-Com:  0.188D-02-0.191D-01-0.282D-01-0.125D-01 0.363D+00 0.695D+00
 Coeff:      0.188D-02-0.191D-01-0.282D-01-0.125D-01 0.363D+00 0.695D+00
 Gap=     0.099 Goal=   None    Shift=    0.000
 Gap=     0.099 Goal=   None    Shift=    0.000
 RMSDP=5.17D-06 MaxDP=1.11D-04 DE=-2.92D-06 OVMax= 1.57D-04

 Cycle   7  Pass 1  IDiag  1:
 E= -438.498772070577     Delta-E=       -0.000000116538 Rises=F Damp=F
 DIIS: error= 1.17D-05 at cycle   7 NSaved=   7.
 NSaved= 7 IEnMin= 7 EnMin= -438.498772070577     IErMin= 7 ErrMin= 1.17D-05
 ErrMax= 1.17D-05  0.00D+00 EMaxC= 1.00D-01 BMatC= 1.69D-08 BMatP= 3.78D-07
 IDIUse=1 WtCom= 1.00D+00 WtEn= 0.00D+00
 Coeff-Com: -0.416D-03 0.537D-02 0.458D-02-0.147D-02-0.110D+00-0.162D+00
 Coeff-Com:  0.126D+01
 Coeff:     -0.416D-03 0.537D-02 0.458D-02-0.147D-02-0.110D+00-0.162D+00
 Coeff:      0.126D+01
 Gap=     0.099 Goal=   None    Shift=    0.000
 Gap=     0.099 Goal=   None    Shift=    0.000
 RMSDP=1.82D-06 MaxDP=3.28D-05 DE=-1.17D-07 OVMax= 9.42D-05

 Cycle   8  Pass 1  IDiag  1:
 E= -438.498772081339     Delta-E=       -0.000000010762 Rises=F Damp=F
 DIIS: error= 1.73D-06 at cycle   8 NSaved=   8.
 NSaved= 8 IEnMin= 8 EnMin= -438.498772081339     IErMin= 8 ErrMin= 1.73D-06
 ErrMax= 1.73D-06  0.00D+00 EMaxC= 1.00D-01 BMatC= 3.00D-10 BMatP= 1.69D-08
 IDIUse=1 WtCom= 1.00D+00 WtEn= 0.00D+00
 Coeff-Com: -0.127D-03 0.146D-02 0.150D-02 0.481D-03-0.264D-01-0.508D-01
 Coeff-Com:  0.163D+00 0.911D+00
 Coeff:     -0.127D-03 0.146D-02 0.150D-02 0.481D-03-0.264D-01-0.508D-01
 Coeff:      0.163D+00 0.911D+00
 Gap=     0.099 Goal=   None    Shift=    0.000
 Gap=     0.099 Goal=   None    Shift=    0.000
 RMSDP=2.66D-07 MaxDP=4.71D-06 DE=-1.08D-08 OVMax= 1.69D-05

 Cycle   9  Pass 1  IDiag  1:
 E= -438.498772081600     Delta-E=       -0.000000000261 Rises=F Damp=F
 DIIS: error= 6.68D-07 at cycle   9 NSaved=   9.
 NSaved= 9 IEnMin= 9 EnMin= -438.498772081600     IErMin= 9 ErrMin= 6.68D-07
 ErrMax= 6.68D-07  0.00D+00 EMaxC= 1.00D-01 BMatC= 5.65D-11 BMatP= 3.00D-10
 IDIUse=1 WtCom= 1.00D+00 WtEn= 0.00D+00
 Coeff-Com:  0.136D-05-0.510D-04 0.112D-03 0.132D-03 0.178D-02 0.733D-04
 Coeff-Com: -0.665D-01 0.186D+00 0.878D+00
 Coeff:      0.136D-05-0.510D-04 0.112D-03 0.132D-03 0.178D-02 0.733D-04
 Coeff:     -0.665D-01 0.186D+00 0.878D+00
 Gap=     0.099 Goal=   None    Shift=    0.000
 Gap=     0.099 Goal=   None    Shift=    0.000
 RMSDP=1.62D-07 MaxDP=4.31D-06 DE=-2.61D-10 OVMax= 1.41D-05

 Cycle  10  Pass 1  IDiag  1:
 E= -438.498772081752     Delta-E=       -0.000000000153 Rises=F Damp=F
 DIIS: error= 1.21D-06 at cycle  10 NSaved=  10.
 NSaved=10 IEnMin=10 EnMin= -438.498772081752     IErMin= 9 ErrMin= 6.68D-07
 ErrMax= 1.21D-06  0.00D+00 EMaxC= 1.00D-01 BMatC= 6.05D-11 BMatP= 5.65D-11
 IDIUse=1 WtCom= 1.00D+00 WtEn= 0.00D+00
 Coeff-Com:  0.456D-05-0.966D-04 0.974D-04 0.162D-03 0.287D-02 0.110D-02
 Coeff-Com: -0.887D-01 0.219D+00 0.113D+01-0.268D+00
 Coeff:      0.456D-05-0.966D-04 0.974D-04 0.162D-03 0.287D-02 0.110D-02
 Coeff:     -0.887D-01 0.219D+00 0.113D+01-0.268D+00
 Gap=     0.099 Goal=   None    Shift=    0.000
 Gap=     0.099 Goal=   None    Shift=    0.000
 RMSDP=8.69D-08 MaxDP=2.87D-06 DE=-1.53D-10 OVMax= 8.90D-06

 Cycle  11  Pass 1  IDiag  1:
 E= -438.498772081656     Delta-E=        0.000000000096 Rises=F Damp=F
 DIIS: error= 9.15D-07 at cycle  11 NSaved=  11.
 NSaved=11 IEnMin=10 EnMin= -438.498772081752     IErMin= 9 ErrMin= 6.68D-07
 ErrMax= 9.15D-07  0.00D+00 EMaxC= 1.00D-01 BMatC= 3.50D-11 BMatP= 5.65D-11
 IDIUse=1 WtCom= 1.00D+00 WtEn= 0.00D+00
 Coeff-Com:  0.360D-05-0.443D-04 0.284D-04-0.737D-04 0.519D-03 0.250D-02
 Coeff-Com:  0.711D-02-0.651D-01-0.205D+00-0.198D+01 0.324D+01
 Coeff:      0.360D-05-0.443D-04 0.284D-04-0.737D-04 0.519D-03 0.250D-02
 Coeff:      0.711D-02-0.651D-01-0.205D+00-0.198D+01 0.324D+01
 Gap=     0.099 Goal=   None    Shift=    0.000
 Gap=     0.099 Goal=   None    Shift=    0.000
 RMSDP=1.58D-07 MaxDP=5.62D-06 DE= 9.60D-11 OVMax= 1.73D-05

 Cycle  12  Pass 1  IDiag  1:
 E= -438.498772081596     Delta-E=        0.000000000061 Rises=F Damp=F
[...]
           D1          -0.00020   0.00111   0.00078   0.00077   0.00036
           D2           0.00019  -0.00801  -0.00194  -0.00193  -0.00906
           D3          -0.00020   0.00456  -0.00017  -0.00019   0.00628
                          A1        A2        A3        A4        A5
           A1           0.04084
           A2           0.02671   0.04883
           A3           0.03124   0.02296   0.04799
           A4          -0.00298   0.00924  -0.00886   0.09893
           A5          -0.00295   0.00512  -0.00635  -0.06132   0.09751
           A6          -0.00058  -0.00268  -0.00321  -0.01814  -0.01510
           A7          -0.00104   0.00037  -0.00527   0.00439   0.00427
           D1           0.00063   0.00093   0.00008  -0.00009  -0.00007
           D2          -0.00128   0.00329  -0.00246   0.01142   0.00926
           D3           0.00044  -0.00345   0.00187  -0.00974  -0.00873
                          A6        A7        D1        D2        D3
           A6           0.03720
           A7           0.00041   0.02229
           D1           0.00063  -0.00044   0.00170
           D2          -0.01839   0.00198  -0.00091   0.01205
           D3           0.01762  -0.00101  -0.00043  -0.01020   0.01078
 ITU=  0  0  0  0  1 -1  0  0 -1 -1  0 -1  0  0  0  0  0  0  0  0
 ITU=  0
     Eigenvalues ---    0.00046   0.01129   0.01964   0.02455   0.07694
     Eigenvalues ---    0.09912   0.12064   0.25278   0.33680   0.35028
     Eigenvalues ---    0.356281000.000001000.000001000.000001000.00000
     Eigenvalues --- 1000.000001000.000001000.000001000.000001000.00000
 En-DIIS/RFO-DIIS/Sim-DIIS IScMMF=       -3 using points:    29   28   27   26   25   24   23
 RFO step:  Lambda=-1.20298294D-09.
 NNeg= 0 NGDIIS= 7 SimSw=  2.50D-03 Rises=F DC= -3.28D-09 SmlDif=  1.00D-05
 NRisDI= 0 DoIntr=F SqrtH=F CThrHd= 10.0 CDAdj=  3.0
 RMS Error=  0.1164620024D-03 NUsed= 7 OKEnD=F EnDIS=F
 InvSVX:  RCond= 3.91D-10 Info=           0 Equed=N FErr=  2.75D-12 BErr=  3.04D-17
 DIIS inversion failure, remove point   7.
 InvSVX:  RCond= 4.57D-10 Info=           0 Equed=N FErr=  2.41D-12 BErr=  6.78D-17
 DIIS inversion failure, remove point   6.
 InvSVX:  RCond= 6.25D-10 Info=           0 Equed=N FErr=  2.07D-12 BErr=  9.74D-17
 DIIS inversion failure, remove point   5.
 InvSVX:  RCond= 8.70D-10 Info=           0 Equed=N FErr=  1.68D-12 BErr=  9.49D-17
 DIIS inversion failure, remove point   4.
 InvSVX:  RCond= 1.71D-08 Info=           0 Equed=N FErr=  2.84D-14 BErr=  2.88D-17
 DIIS inversion failure, remove point   3.
 InvSVX:  RCond= 7.95D-07 Info=           0 Equed=N FErr=  1.48D-15 BErr=  7.60D-17
 RFO-DIIS uses    2 points instead of    7
 DidBck=F Rises=F RFO-DIIS coefs:    1.21914   -0.21914    0.00000    0.00000    0.00000
                  RFO-DIIS coefs:    0.00000    0.00000
 Iteration  1 RMS(Cart)=  0.00019929 RMS(Int)=  0.00000003
 Iteration  2 RMS(Cart)=  0.00000003 RMS(Int)=  0.00000001
 ITry= 1 IFail=0 DXMaxC= 5.68D-04 DCOld= 1.00D+10 DXMaxT= 8.92D-02 DXLimC= 3.00D+00 Rises=F
 Variable       Old X    -DE/DX   Delta X   Delta X   Delta X     New X
                                 (Linear)    (Quad)   (Total)
    X1       -3.79876  -0.00000   0.00000   0.00000   0.00000  -3.79876
    Y1        0.00000  -0.00001   0.00000   0.00000   0.00000   0.00000
    Z1        0.00000   0.00000   0.00000   0.00000   0.00000   0.00000
    X2        3.79876   0.00000   0.00000   0.00000   0.00000   3.79876
    Y2        0.00000   0.00000   0.00000   0.00000   0.00000   0.00000
    Z2        0.00000  -0.00000   0.00000   0.00000   0.00000   0.00000
    R1        2.04303  -0.00000   0.00000  -0.00000   0.00000   2.04303
    R2        2.04308  -0.00000   0.00000  -0.00000   0.00000   2.04308
    R3        2.04308  -0.00000   0.00000  -0.00000  -0.00000   2.04308
    R4        2.54130  -0.00000   0.00000   0.00000   0.00001   2.54131
    A1        1.55533  -0.00000  -0.00001   0.00001  -0.00000   1.55533
    A2        1.60510   0.00001   0.00003   0.00025   0.00028   1.60538
    A3        1.60309  -0.00001  -0.00003  -0.00024  -0.00026   1.60283
    A4        2.09254   0.00000  -0.00000  -0.00000  -0.00000   2.09254
    A5        2.09269   0.00000  -0.00000  -0.00000  -0.00001   2.09268
    A6        2.09644  -0.00000   0.00000   0.00001   0.00001   2.09645
    A7        1.53901   0.00000   0.00000  -0.00000   0.00000   1.53902
    D1       -3.10376  -0.00000  -0.00022   0.00002  -0.00021  -3.10396
    D2       -1.01142   0.00000  -0.00023   0.00002  -0.00021  -1.01163
    D3        1.08695  -0.00000  -0.00022   0.00002  -0.00020   1.08675
         Item               Value     Threshold  Converged?
 Maximum Force            0.000007     0.000450     YES
 RMS     Force            0.000003     0.000300     YES
 Maximum Displacement     0.000568     0.001800     YES
 RMS     Displacement     0.000199     0.001200     YES
 Predicted change in Energy=-1.739184D-09
 Optimization completed.
    -- Stationary point found.
                           ----------------------------
                           !   Optimized Parameters   !
                           ! (Angstroms and Degrees)  !
 --------------------------                            --------------------------
 ! Name  Definition              Value          Derivative Info.                !
 --------------------------------------------------------------------------------
 ! X1    R(1,-1)                -2.0102         -DE/DX =    0.0                 !
 ! Y1    R(1,-2)                 0.0            -DE/DX =    0.0                 !
 ! Z1    R(1,-3)                 0.0            -DE/DX =    0.0                 !
 ! X2    R(2,-1)                 2.0102         -DE/DX =    0.0                 !
 ! Y2    R(2,-2)                 0.0            -DE/DX =    0.0                 !
 ! Z2    R(2,-3)                 0.0            -DE/DX =    0.0                 !
 ! R1    R(1,4)                  1.0811         -DE/DX =    0.0                 !
 ! R2    R(1,5)                  1.0812         -DE/DX =    0.0                 !
 ! R3    R(1,6)                  1.0812         -DE/DX =    0.0                 !
 ! R4    R(2,3)                  1.3448         -DE/DX =    0.0                 !
 ! A1    A(2,1,4)               89.114          -DE/DX =    0.0                 !
 ! A2    A(2,1,5)               91.9657         -DE/DX =    0.0                 !
 ! A3    A(2,1,6)               91.8504         -DE/DX =    0.0                 !
 ! A4    A(4,1,5)              119.8937         -DE/DX =    0.0                 !
 ! A5    A(4,1,6)              119.9023         -DE/DX =    0.0                 !
 ! A6    A(5,1,6)              120.1172         -DE/DX =    0.0                 !
 ! A7    A(1,2,3)               88.179          -DE/DX =    0.0                 !
 ! D1    D(4,1,2,3)           -177.8322         -DE/DX =    0.0                 !
 ! D2    D(5,1,2,3)            -57.9502         -DE/DX =    0.0                 !
 ! D3    D(6,1,2,3)             62.2775         -DE/DX =    0.0                 !
 --------------------------------------------------------------------------------
 Lowest energy point so far.  Saving SCF results.
 Largest change from initial coordinates is atom    6       0.369 Angstoms.
 GradGradGradGradGradGradGradGradGradGradGradGradGradGradGradGradGradGrad

 Leave Link  103 at Mon Apr 21 19:43:54 2025, MaxMem=   536870912 cpu:               1.6 elap:               0.3
 (Enter /home/szhao/Apps/g16/l202.exe)
                          Input orientation:                          
 ---------------------------------------------------------------------
 Center     Atomic      Atomic             Coordinates (Angstroms)
 Number     Number       Type             X           Y           Z
 ---------------------------------------------------------------------
      1          6           0       -2.010220    0.000000    0.000000
      2         16           0        2.010220    0.000000    0.000000
      3          1           0        1.967487   -1.342370   -0.068595
      4          1           0       -1.993502    1.080901    0.014290
      5          1           0       -2.047304   -0.525896   -0.943900
      6          1           0       -2.045130   -0.550840    0.929648
 ---------------------------------------------------------------------
                    Distance matrix (angstroms):
                    1          2          3          4          5
     1  C    0.000000
     2  S    4.020439   0.000000
     3  H    4.198667   1.344800   0.000000
     4  H    1.081125   4.147088   4.644195   0.000000
     5  H    1.081152   4.198929   4.189430   1.871582   0.000000
     6  H    1.081152   4.196848   4.210000   1.871664   1.873715
                    6
     6  H    0.000000
 Symmetry turned off by external request.
 Stoichiometry    CH4S
 Framework group  C1[X(CH4S)]
 Deg. of freedom    12
 Full point group                 C1      NOp   1
 Rotational constants (GHZ):          95.3863693           2.9934770           2.9625931
 Leave Link  202 at Mon Apr 21 19:43:54 2025, MaxMem=   536870912 cpu:               0.1 elap:               0.1
 (Enter /home/szhao/Apps/g16/l601.exe)
 Copying SCF densities to generalized density rwf, IOpCl= 1 IROHF=0.

 **********************************************************************

            Population analysis using the SCF density.

 **********************************************************************

 Alpha  occ. eigenvalues --  -89.87559 -10.65128  -8.23867  -6.15909  -6.15848
 Alpha  occ. eigenvalues --   -6.15297  -0.83485  -0.75418  -0.55543  -0.55467
 Alpha  occ. eigenvalues --   -0.41962  -0.27905  -0.26480
 Alpha virt. eigenvalues --   -0.16527   0.00954   0.03689   0.04061   0.05571
 Alpha virt. eigenvalues --    0.07508   0.08423   0.08443   0.10728   0.13450
 Alpha virt. eigenvalues --    0.15489   0.15648   0.20490   0.34560   0.35451
 Alpha virt. eigenvalues --    0.37515   0.40298   0.40972   0.44723   0.47091
 Alpha virt. eigenvalues --    0.57406   0.60697   0.60807   0.65368   0.74800
 Alpha virt. eigenvalues --    0.78475   0.79594   0.87635   0.88796   1.04497
 Alpha virt. eigenvalues --    1.04592   1.04730   1.38883   1.41504   1.41651
 Alpha virt. eigenvalues --    1.49963   1.52146   1.52396   1.64457   1.71796
 Alpha virt. eigenvalues --    1.73772   1.75259   1.89589   1.89649   1.93194
 Alpha virt. eigenvalues --    1.93285   2.15107   2.40421   2.42645   2.42680
 Alpha virt. eigenvalues --    2.58897   2.61253   2.61254   2.70854   2.76567
 Alpha virt. eigenvalues --    3.69971   3.70104   7.90978  17.50548  17.52001
 Alpha virt. eigenvalues --   17.55243  23.89921 189.17325
  Beta  occ. eigenvalues --  -89.87559 -10.65128  -8.23867  -6.15909  -6.15848
  Beta  occ. eigenvalues --   -6.15297  -0.83485  -0.75418  -0.55543  -0.55467
  Beta  occ. eigenvalues --   -0.41962  -0.27905  -0.26480
  Beta virt. eigenvalues --   -0.16527   0.00954   0.03689   0.04061   0.05571
  Beta virt. eigenvalues --    0.07508   0.08423   0.08443   0.10728   0.13450
  Beta virt. eigenvalues --    0.15489   0.15648   0.20490   0.34560   0.35451
  Beta virt. eigenvalues --    0.37515   0.40298   0.40972   0.44723   0.47091
  Beta virt. eigenvalues --    0.57406   0.60697   0.60807   0.65368   0.74800
  Beta virt. eigenvalues --    0.78475   0.79594   0.87635   0.88796   1.04497
  Beta virt. eigenvalues --    1.04592   1.04730   1.38883   1.41504   1.41651
  Beta virt. eigenvalues --    1.49963   1.52146   1.52396   1.64457   1.71796
  Beta virt. eigenvalues --    1.73772   1.75259   1.89589   1.89649   1.93194
  Beta virt. eigenvalues --    1.93285   2.15107   2.40421   2.42645   2.42680
  Beta virt. eigenvalues --    2.58897   2.61253   2.61254   2.70854   2.76567
  Beta virt. eigenvalues --    3.69971   3.70104   7.90978  17.50548  17.52001
  Beta virt. eigenvalues --   17.55243  23.89921 189.17325
          Condensed to atoms (all electrons):
               1          2          3          4          5          6
     1  C    5.126417   0.088328   0.000144   0.388895   0.386649   0.386654
     2  S    0.088328  15.964637   0.246237  -0.001509  -0.002140  -0.002142
     3  H    0.000144   0.246237   0.703108   0.000033   0.000004   0.000004
     4  H    0.388895  -0.001509   0.000033   0.443755  -0.019895  -0.019847
     5  H    0.386649  -0.002140   0.000004  -0.019895   0.450392  -0.020583
     6  H    0.386654  -0.002142   0.000004  -0.019847  -0.020583   0.450025
          Atomic-Atomic Spin Densities.
               1          2          3          4          5          6
     1  C    0.000001   0.000000   0.000000  -0.000000  -0.000000  -0.000000
     2  S    0.000000  -0.000001  -0.000000   0.000000   0.000000   0.000000
     3  H    0.000000  -0.000000   0.000000  -0.000000  -0.000000  -0.000000
     4  H   -0.000000   0.000000  -0.000000  -0.000000  -0.000000  -0.000000
     5  H   -0.000000   0.000000  -0.000000  -0.000000  -0.000000  -0.000000
     6  H   -0.000000   0.000000  -0.000000  -0.000000  -0.000000  -0.000000
 Mulliken charges and spin densities:
               1          2
     1  C   -0.377087   0.000001
     2  S   -0.293412  -0.000001
     3  H    0.050471   0.000000
     4  H    0.208567  -0.000000
     5  H    0.205572  -0.000000
     6  H    0.205889  -0.000000
 Sum of Mulliken charges =  -0.00000   0.00000
 Mulliken charges and spin densities with hydrogens summed into heavy atoms:
               1          2
     1  C    0.242941   0.000001
     2  S   -0.242941  -0.000001
 Electronic spatial extent (au):  <R**2>=            442.0858
 Charge=             -0.0000 electrons
 Dipole moment (field-independent basis, Debye):
    X=             -5.1864    Y=             -0.9538    Z=             -0.0487  Tot=              5.2736
 Quadrupole moment (field-independent basis, Debye-Ang):
   XX=            -20.8958   YY=            -19.6355   ZZ=            -23.6662
   XY=             -1.9612   XZ=             -0.1006   YZ=              0.2063
 Traceless Quadrupole moment (field-independent basis, Debye-Ang):
   XX=              0.5034   YY=              1.7636   ZZ=             -2.2670
   XY=             -1.9612   XZ=             -0.1006   YZ=              0.2063
 Octapole moment (field-independent basis, Debye-Ang**2):
  XXX=            -60.5518  YYY=              2.5965  ZZZ=              0.0770  XYY=            -13.4582
  XXY=             -3.4623  XXZ=             -0.1765  XZZ=            -21.6231  YZZ=             -0.4248
  YYZ=              0.0350  XYZ=              0.4147
 Hexadecapole moment (field-independent basis, Debye-Ang**3):
 XXXX=           -575.6760 YYYY=            -37.9326 ZZZZ=            -41.9423 XXXY=             -2.7864
 XXXZ=             -0.1470 YYYX=             -0.0721 YYYZ=              0.1809 ZZZX=              0.3306
 ZZZY=              0.0236 XXYY=            -90.0926 XXZZ=           -106.0239 YYZZ=            -13.8252
 XXYZ=              0.8319 YYXZ=             -0.1318 ZZXY=              4.0251
 N-N= 3.578751027683D+01 E-N=-1.112026067817D+03  KE= 4.377176295129D+02
                          Isotropic Fermi Contact Couplings
        Atom                 a.u.       MegaHertz       Gauss      10(-4) cm-1
     1  C(13)              0.00000       0.00002       0.00001       0.00001
     2  S(33)              0.00000       0.00001       0.00000       0.00000
     3  H(1)               0.00000       0.00001       0.00000       0.00000
     4  H(1)              -0.00000      -0.00001      -0.00000      -0.00000
     5  H(1)              -0.00000      -0.00001      -0.00000      -0.00000
     6  H(1)              -0.00000      -0.00001      -0.00000      -0.00000
 --------------------------------------------------------
       Center         ----  Spin Dipole Couplings  ----
                      3XX-RR        3YY-RR        3ZZ-RR
 --------------------------------------------------------
     1   Atom        0.000001     -0.000001     -0.000001
     2   Atom       -0.000005      0.000002      0.000002
     3   Atom        0.000000     -0.000000      0.000000
     4   Atom       -0.000000      0.000000     -0.000000
     5   Atom       -0.000000     -0.000000      0.000000
     6   Atom       -0.000000     -0.000000      0.000000
 --------------------------------------------------------
                        XY            XZ            YZ
 --------------------------------------------------------
     1   Atom       -0.000000     -0.000000      0.000000
     2   Atom        0.000000      0.000001     -0.000000
     3   Atom       -0.000000      0.000000     -0.000000
     4   Atom        0.000000     -0.000000      0.000000
     5   Atom       -0.000000      0.000000      0.000000
     6   Atom       -0.000000     -0.000000     -0.000000
 --------------------------------------------------------


 ---------------------------------------------------------------------------------
              Anisotropic Spin Dipole Couplings in Principal Axis System
 ---------------------------------------------------------------------------------

       Atom             a.u.   MegaHertz   Gauss  10(-4) cm-1        Axes

              Baa    -0.0000    -0.000    -0.000    -0.000  0.0308  0.9388  0.3430
     1 C(13)  Bbb    -0.0000    -0.000    -0.000    -0.000 -0.0074 -0.3430  0.9393
              Bcc     0.0000     0.000     0.000     0.000  0.9995 -0.0315 -0.0036
 
              Baa    -0.0000    -0.000    -0.000    -0.000  0.9908 -0.0325 -0.1314
     2 S(33)  Bbb     0.0000     0.000     0.000     0.000  0.0564  0.9815  0.1828
              Bcc     0.0000     0.000     0.000     0.000  0.1230 -0.1886  0.9743
 
              Baa    -0.0000    -0.000    -0.000    -0.000  0.0881  0.9946  0.0541
     3 H(1)   Bbb     0.0000     0.000     0.000     0.000  0.9882 -0.0804 -0.1301
              Bcc     0.0000     0.000     0.000     0.000  0.1251 -0.0650  0.9900
 
              Baa    -0.0000    -0.000    -0.000    -0.000  0.0023 -0.0131  0.9999
     4 H(1)   Bbb    -0.0000    -0.000    -0.000    -0.000  0.9993 -0.0361 -0.0028
              Bcc     0.0000     0.000     0.000     0.000  0.0361  0.9993  0.0130
 
              Baa    -0.0000    -0.000    -0.000    -0.000  0.0301  0.8731 -0.4867
     5 H(1)   Bbb    -0.0000    -0.000    -0.000    -0.000  0.9995 -0.0307  0.0066
              Bcc     0.0000     0.000     0.000     0.000  0.0092  0.4866  0.8736
 
              Baa    -0.0000    -0.000    -0.000    -0.000  0.0323  0.8597  0.5098
     6 H(1)   Bbb    -0.0000    -0.000    -0.000    -0.000  0.9995 -0.0275 -0.0169
              Bcc     0.0000     0.000     0.000     0.000  0.0005 -0.5101  0.8601
 

 ---------------------------------------------------------------------------------

 No NMR shielding tensors so no spin-rotation constants.
 Leave Link  601 at Mon Apr 21 19:43:55 2025, MaxMem=   536870912 cpu:               1.7 elap:               0.3
 (Enter /home/szhao/Apps/g16/l9999.exe)
 1\1\GINC-NODE05\FOpt\UM062X\6-311+G(d,p)\C1H4S1\SZHAO\21-Apr-2025\0\\#
 p opt UM062X/6-311+G** nosymm int=superfine\\Title Card Required\\0,1\
 C,-2.01021951,0.,0.\S,2.01021951,0.,0.\H,1.9674865104,-1.3423695047,-0
 .0685952444\H,-1.9935024419,1.0809009509,0.0142900427\H,-2.0473035861,
 -0.5258964988,-0.9438995392\H,-2.0451304404,-0.5508401661,0.9296478984
 \\Version=ES64L-G16RevA.03\HF=-438.4989148\S2=0.\S2-1=0.\S2A=0.\RMSD=5
 .231e-09\RMSF=1.937e-06\Dipole=-2.0404891,-0.3752489,-0.0191619\Quadru
 pole=0.3742663,1.3112076,-1.6854739,-1.4580898,-0.0748306,0.153409\PG=
 C01 [X(C1H4S1)]\\@


 I KNOW YOU BELIEVE YOU UNDERSTAND WHAT YOU THINK I SAID,
 BUT I AM NOT SURE YOU REALIZE THAT WHAT YOU HEARD IS NOT WHAT I MEANT.
 Job cpu time:       0 days  0 hours 40 minutes 45.4 seconds.
 Elapsed time:       0 days  0 hours  5 minutes 41.2 seconds.
 File lengths (MBytes):  RWF=     22 Int=      0 D2E=      0 Chk=      2 Scr=      2
 Normal termination of Gaussian 16 at Mon Apr 21 19:43:55 2025.
