 Entering Gaussian System, Link 0=g16
 Initial command:
 /home/szhao/Apps/g16/l1.exe "/home/szhao/tmp/Gau-28243.inp" -scrdir="/home/szhao/tmp/"
 Default is to use a total of  16 processors:
                               16 via shared-memory
                                1 via Linda
 Entering Link 1 = /home/szhao/Apps/g16/l1.exe PID=     28244.
  
 Copyright (c) 1988,1990,1992,1993,1995,1998,2003,2009,2016,
            Gaussian, Inc.  All Rights Reserved.
  
 This is part of the Gaussian(R) 16 program.  It is based on
 the Gaussian(R) 09 system (copyright 2009, Gaussian, Inc.),
 the Gaussian(R) 03 system (copyright 2003, Gaussian, Inc.),
 the Gaussian(R) 98 system (copyright 1998, Gaussian, Inc.),
 the Gaussian(R) 94 system (copyright 1995, Gaussian, Inc.),
 the Gaussian 92(TM) system (copyright 1992, Gaussian, Inc.),
 the Gaussian 90(TM) system (copyright 1990, Gaussian, Inc.),
 the Gaussian 88(TM) system (copyright 1988, Gaussian, Inc.),
 the Gaussian 86(TM) system (copyright 1986, Carnegie Mellon
 University), and the Gaussian 82(TM) system (copyright 1983,
 Carnegie Mellon University). Gaussian is a federally registered
 trademark of Gaussian, Inc.
  
 This software contains proprietary and confidential information,
 including trade secrets, belonging to Gaussian, Inc.
  
 This software is provided under written license and may be
 used, copied, transmitted, or stored only in accord with that
 written license.
  
 The following legend is applicable only to US Government
 contracts under FAR:
  
                    RESTRICTED RIGHTS LEGEND
  
 Use, reproduction and disclosure by the US Government is
 subject to restrictions as set forth in subparagraphs (a)
 and (c) of the Commercial Computer Software - Restricted
 Rights clause in FAR 52.227-19.
  
 Gaussian, Inc.
 340 Quinnipiac St., Bldg. 40, Wallingford CT 06492
  
  
 ---------------------------------------------------------------
 Warning -- This program may not be used in any manner that
 competes with the business of Gaussian, Inc. or will provide
 assistance to any competitor of Gaussian, Inc.  The licensee
 of this program is prohibited from giving any competitor of
 Gaussian, Inc. access to this program.  By using this program,
 the user acknowledges that Gaussian, Inc. is engaged in the
 business of creating and licensing software in the field of
 computational chemistry and represents and warrants to the
 licensee that it is not a competitor of Gaussian, Inc. and that
 it will not use this program in any manner prohibited above.
 ---------------------------------------------------------------
  

 Cite this work as:
 Gaussian 16, Revision A.03,
 M. J. Frisch, G. W. Trucks, H. B. Schlegel, G. E. Scuseria, 
 M. A. Robb, J. R. Cheeseman, G. Scalmani, V. Barone, 
 G. A. Petersson, H. Nakatsuji, X. Li, M. Caricato, A. V. Marenich, 
 J. Bloino, B. G. Janesko, R. Gomperts, B. Mennucci, H. P. Hratchian, 
 J. V. Ortiz, A. F. Izmaylov, J. L. Sonnenberg, D. Williams-Young, 
 F. Ding, F. Lipparini, F. Egidi, J. Goings, B. Peng, A. Petrone, 
 T. Henderson, D. Ranasinghe, V. G. Zakrzewski, J. Gao, N. Rega, 
 G. Zheng, W. Liang, M. Hada, M. Ehara, K. Toyota, R. Fukuda, 
 J. Hasegawa, M. Ishida, T. Nakajima, Y. Honda, O. Kitao, H. Nakai, 
 T. Vreven, K. Throssell, J. A. Montgomery, Jr., J. E. Peralta, 
 F. Ogliaro, M. J. Bearpark, J. J. Heyd, E. N. Brothers, K. N. Kudin, 
 V. N. Staroverov, T. A. Keith, R. Kobayashi, J. Normand, 
 K. Raghavachari, A. P. Rendell, J. C. Burant, S. S. Iyengar, 
 J. Tomasi, M. Cossi, J. M. Millam, M. Klene, C. Adamo, R. Cammi, 
 J. W. Ochterski, R. L. Martin, K. Morokuma, O. Farkas, 
 J. B. Foresman, and D. J. Fox, Gaussian, Inc., Wallingford CT, 2016.
 
 ******************************************
 Gaussian 16:  ES64L-G16RevA.03 25-Dec-2016
                21-Apr-2025 
 ******************************************
 %chk=opt.chk
 %mem=4GB
 %nprocshared=8
 Will use up to    8 processors via shared memory.
 --------------------------------------------
 #p opt UM062X/6-311+G** nosymm int=superfine
 --------------------------------------------
 1/18=20,19=15,26=5,38=1/1,3;
 2/9=110,12=2,15=1,17=6,18=5,40=1/2;
 3/5=4,6=6,7=111,11=2,25=1,30=1,71=1,74=-55,75=-7,116=2/1,2,3;
 4//1;
 5/5=2,38=5/2;
 6/7=2,8=2,9=2,10=2,28=1/1;
 7/30=1/1,2,3,16;
 1/18=20,19=15,26=5/3(2);
 2/9=110,15=1/2;
 99//99;
 2/9=110,15=1/2;
 3/5=4,6=6,7=111,11=2,25=1,30=1,71=1,74=-55,75=-7,116=2/1,2,3;
 4/5=5,16=3,69=1/1;
 5/5=2,38=5/2;
 7/30=1/1,2,3,16;
 1/18=20,19=15,26=5/3(-5);
 2/9=110,15=1/2;
 6/7=2,8=2,9=2,10=2,19=2,28=1/1;
 99/9=1/99;
 Leave Link    1 at Mon Apr 21 20:38:59 2025, MaxMem=   536870912 cpu:               1.4 elap:               0.1
 (Enter /home/szhao/Apps/g16/l101.exe)
 -------------------
 Title Card Required
 -------------------
 Symbolic Z-matrix:
 Charge =  1 Multiplicity = 2
 Si                   -1   -1.80297   0.        0. 
 Si                   -1    1.80297   0.        0. 
 H                    0    -2.3744   -1.37463   0. 
 H                    0     2.78931   1.10449   0. 
 
 Add virtual bond connecting atoms Si2        and Si1        Dist= 6.81D+00.
 ITRead=  2  2  0  0
 MicOpt= -2 -2 -1 -1
 NAtoms=      4 NQM=        2 NQMF=       2 NMMI=      0 NMMIF=      0
                NMic=       0 NMicF=      0.
                    Isotopes and Nuclear Properties:
 (Nuclear quadrupole moments (NQMom) in fm**2, nuclear magnetic moments (NMagM)
  in nuclear magnetons)

  Atom         1           2           3           4
 IAtWgt=          28          28           1           1
 AtmWgt=  27.9769284  27.9769284   1.0078250   1.0078250
 NucSpn=           0           0           1           1
 AtZEff=  -0.0000000  -0.0000000  -0.0000000  -0.0000000
 NQMom=    0.0000000   0.0000000   0.0000000   0.0000000
 NMagM=    0.0000000   0.0000000   2.7928460   2.7928460
 AtZNuc=  14.0000000  14.0000000   1.0000000   1.0000000
 Leave Link  101 at Mon Apr 21 20:39:00 2025, MaxMem=   536870912 cpu:               3.1 elap:               0.4
 (Enter /home/szhao/Apps/g16/l103.exe)

 GradGradGradGradGradGradGradGradGradGradGradGradGradGradGradGradGradGrad
 Berny optimization.
 Initialization pass.
                           ----------------------------
                           !    Initial Parameters    !
                           ! (Angstroms and Degrees)  !
 --------------------------                            --------------------------
 ! Name  Definition              Value          Derivative Info.                !
 --------------------------------------------------------------------------------
 ! X1    R(1,-1)                -1.803          Frozen                          !
 ! Y1    R(1,-2)                 0.0            Frozen                          !
 ! Z1    R(1,-3)                 0.0            Frozen                          !
 ! X2    R(2,-1)                 1.803          Frozen                          !
 ! Y2    R(2,-2)                 0.0            Frozen                          !
 ! Z2    R(2,-3)                 0.0            Frozen                          !
 ! R1    R(1,3)                  1.4887         estimate D2E/DX2                !
 ! R2    R(2,4)                  1.4808         estimate D2E/DX2                !
 ! A1    A(2,1,3)              112.5724         estimate D2E/DX2                !
 ! A2    A(1,2,4)              131.7655         estimate D2E/DX2                !
 ! D1    D(3,1,2,4)            180.0            estimate D2E/DX2                !
 --------------------------------------------------------------------------------
 Trust Radius=3.00D-01 FncErr=1.00D-07 GrdErr=1.00D-07 EigMax=2.50D+02 EigMin=1.00D-04
 Number of steps in this run=     21 maximum allowed number of steps=    100.
 GradGradGradGradGradGradGradGradGradGradGradGradGradGradGradGradGradGrad

 Leave Link  103 at Mon Apr 21 20:39:00 2025, MaxMem=   536870912 cpu:               0.4 elap:               0.1
 (Enter /home/szhao/Apps/g16/l202.exe)
                          Input orientation:                          
 ---------------------------------------------------------------------
 Center     Atomic      Atomic             Coordinates (Angstroms)
 Number     Number       Type             X           Y           Z
 ---------------------------------------------------------------------
      1         14           0       -1.802975    0.000000    0.000000
      2         14           0        1.802975    0.000000    0.000000
      3          1           0       -2.374400   -1.374629    0.000000
      4          1           0        2.789306    1.104488    0.000000
 ---------------------------------------------------------------------
                    Distance matrix (angstroms):
                    1          2          3          4
     1  Si   0.000000
     2  Si   3.605949   0.000000
     3  H    1.488667   4.397733   0.000000
     4  H    4.723233   1.480791   5.727990   0.000000
 Symmetry turned off by external request.
 Stoichiometry    H2Si2(1+,2)
 Framework group  CS[SG(H2Si2)]
 Deg. of freedom     5
 Full point group                 CS      NOp   2
 Rotational constants (GHZ):         173.0745097           2.5834375           2.5454424
 Leave Link  202 at Mon Apr 21 20:39:01 2025, MaxMem=   536870912 cpu:               0.1 elap:               0.0
 (Enter /home/szhao/Apps/g16/l301.exe)
 Standard basis: 6-311+G(d,p) (5D, 7F)
 Ernie: Thresh=  0.10000D-02 Tol=  0.10000D-05 Strict=F.
    72 basis functions,   116 primitive gaussians,    74 cartesian basis functions
    15 alpha electrons       14 beta electrons
       nuclear repulsion energy        42.0883846617 Hartrees.
 IExCor= 4336 DFT=T Ex+Corr=M062X ExCW=0 ScaHFX=  0.540000
 ScaDFX=  1.000000  1.000000  1.000000  1.000000 ScalE2=  1.000000  1.000000
 IRadAn=      7 IRanWt=     -1 IRanGd=            0 ICorTp=0 IEmpDi=  4
 NAtoms=    4 NActive=    4 NUniq=    4 SFac= 1.00D+00 NAtFMM=   60 NAOKFM=F Big=F
 Integral buffers will be    131072 words long.
 Raffenetti 2 integral format.
 Two-electron integral symmetry is turned off.
 Leave Link  301 at Mon Apr 21 20:39:01 2025, MaxMem=   536870912 cpu:               0.8 elap:               0.2
 (Enter /home/szhao/Apps/g16/l302.exe)
 NPDir=0 NMtPBC=     1 NCelOv=     1 NCel=       1 NClECP=     1 NCelD=      1
         NCelK=      1 NCelE2=     1 NClLst=     1 CellRange=     0.0.
 One-electron integrals computed using PRISM.
 NBasis=    72 RedAO= T EigKep=  8.89D-03  NBF=    72
 NBsUse=    72 1.00D-06 EigRej= -1.00D+00 NBFU=    72
 Precomputing XC quadrature grid using
 IXCGrd= 4 IRadAn=           7 IRanWt=          -1 IRanGd=           0 AccXCQ= 0.00D+00.
 Generated NRdTot=       0 NPtTot=           0 NUsed=           0 NTot=          32
 NSgBfM=    67    67    67    67    67 MxSgAt=     4 MxSgA2=     4.
 Leave Link  302 at Mon Apr 21 20:39:01 2025, MaxMem=   536870912 cpu:               1.6 elap:               0.2
 (Enter /home/szhao/Apps/g16/l303.exe)
 DipDrv:  MaxL=1.
 Leave Link  303 at Mon Apr 21 20:39:02 2025, MaxMem=   536870912 cpu:               0.5 elap:               0.3
 (Enter /home/szhao/Apps/g16/l401.exe)
 ExpMin= 3.31D-02 ExpMax= 6.94D+04 ExpMxC= 2.33D+03 IAcc=3 IRadAn=         7 AccDes= 0.00D+00
 Harris functional with IExCor= 1009 and IRadAn=       7 diagonalized for initial guess.
 HarFok:  IExCor= 1009 AccDes= 0.00D+00 IRadAn=         7 IDoV= 1 UseB2=F ITyADJ=14
 ICtDFT=  3500011 ScaDFX=  1.000000  1.000000  1.000000  1.000000
 FoFCou: FMM=F IPFlag=           0 FMFlag=      100000 FMFlg1=           0
         NFxFlg=           0 DoJE=T BraDBF=F KetDBF=T FulRan=T
         wScrn=  0.000000 ICntrl=       500 IOpCl=  0 I1Cent=   200000004 NGrid=           0
         NMat0=    1 NMatS0=      1 NMatT0=    0 NMatD0=    1 NMtDS0=    0 NMtDT0=    0
 Symmetry not used in FoFCou.
 Harris En= -579.457876405466    
 JPrj=0 DoOrth=F DoCkMO=F.
 Initial guess <Sx>= 0.0000 <Sy>= 0.0000 <Sz>= 0.5000 <S**2>= 0.7500 S= 0.5000
 Leave Link  401 at Mon Apr 21 20:39:02 2025, MaxMem=   536870912 cpu:               2.7 elap:               0.4
 (Enter /home/szhao/Apps/g16/l502.exe)
 Keep R1 and R2 ints in memory in canonical form, NReq=14118010.
 FoFCou: FMM=F IPFlag=           0 FMFlag=           0 FMFlg1=           0
         NFxFlg=           0 DoJE=F BraDBF=F KetDBF=F FulRan=T
         wScrn=  0.000000 ICntrl=       600 IOpCl=  0 I1Cent=           0 NGrid=           0
         NMat0=    1 NMatS0=   2628 NMatT0=    0 NMatD0=    1 NMtDS0=    0 NMtDT0=    0
 Symmetry not used in FoFCou.
 Two-electron integral symmetry not used.
 UHF open shell SCF:
 Using DIIS extrapolation, IDIIS=  1040.
 NGot=   536870912 LenX=   529949706 LenY=   529943789
 Requested convergence on RMS density matrix=1.00D-08 within 128 cycles.
 Requested convergence on MAX density matrix=1.00D-06.
 Requested convergence on             energy=1.00D-06.
 No special actions if energy rises.

 Cycle   1  Pass 1  IDiag  1:
 E= -579.640812235839    
 DIIS: error= 2.82D-02 at cycle   1 NSaved=   1.
 NSaved= 1 IEnMin= 1 EnMin= -579.640812235839     IErMin= 1 ErrMin= 2.82D-02
 ErrMax= 2.82D-02  0.00D+00 EMaxC= 1.00D-01 BMatC= 2.27D-01 BMatP= 2.27D-01
 IDIUse=3 WtCom= 7.18D-01 WtEn= 2.82D-01
 Coeff-Com:  0.100D+01
 Coeff-En:   0.100D+01
 Coeff:      0.100D+01
 Gap=     0.119 Goal=   None    Shift=    0.000
 Gap=     0.219 Goal=   None    Shift=    0.000
 GapD=    0.119 DampG=1.000 DampE=0.500 DampFc=0.5000 IDamp=-1.
 Damping current iteration by 5.00D-01
 RMSDP=6.33D-03 MaxDP=1.66D-01              OVMax= 1.29D-01

 Cycle   2  Pass 1  IDiag  1:
 E= -579.665204638604     Delta-E=       -0.024392402765 Rises=F Damp=T
 DIIS: error= 1.42D-02 at cycle   2 NSaved=   2.
 NSaved= 2 IEnMin= 2 EnMin= -579.665204638604     IErMin= 2 ErrMin= 1.42D-02
 ErrMax= 1.42D-02  0.00D+00 EMaxC= 1.00D-01 BMatC= 3.89D-02 BMatP= 2.27D-01
 IDIUse=3 WtCom= 8.58D-01 WtEn= 1.42D-01
 Coeff-Com: -0.517D+00 0.152D+01
 Coeff-En:   0.000D+00 0.100D+01
 Coeff:     -0.443D+00 0.144D+01
 Gap=     0.126 Goal=   None    Shift=    0.000
 Gap=     0.224 Goal=   None    Shift=    0.000
 RMSDP=2.05D-03 MaxDP=4.95D-02 DE=-2.44D-02 OVMax= 3.66D-02

 Cycle   3  Pass 1  IDiag  1:
 E= -579.686882030897     Delta-E=       -0.021677392293 Rises=F Damp=F
 DIIS: error= 1.11D-03 at cycle   3 NSaved=   3.
 NSaved= 3 IEnMin= 3 EnMin= -579.686882030897     IErMin= 3 ErrMin= 1.11D-03
 ErrMax= 1.11D-03  0.00D+00 EMaxC= 1.00D-01 BMatC= 3.69D-04 BMatP= 3.89D-02
 IDIUse=3 WtCom= 9.89D-01 WtEn= 1.11D-02
 Coeff-Com: -0.522D-01 0.928D-01 0.959D+00
 Coeff-En:   0.000D+00 0.000D+00 0.100D+01
 Coeff:     -0.516D-01 0.917D-01 0.960D+00
 Gap=     0.126 Goal=   None    Shift=    0.000
 Gap=     0.223 Goal=   None    Shift=    0.000
 RMSDP=2.75D-04 MaxDP=5.06D-03 DE=-2.17D-02 OVMax= 1.67D-02

 Cycle   4  Pass 1  IDiag  1:
 E= -579.687155456650     Delta-E=       -0.000273425753 Rises=F Damp=F
 DIIS: error= 5.21D-04 at cycle   4 NSaved=   4.
 NSaved= 4 IEnMin= 4 EnMin= -579.687155456650     IErMin= 4 ErrMin= 5.21D-04
 ErrMax= 5.21D-04  0.00D+00 EMaxC= 1.00D-01 BMatC= 5.25D-05 BMatP= 3.69D-04
 IDIUse=3 WtCom= 9.95D-01 WtEn= 5.21D-03
 Coeff-Com:  0.207D-02-0.816D-02-0.129D+00 0.113D+01
 Coeff-En:   0.000D+00 0.000D+00 0.000D+00 0.100D+01
 Coeff:      0.206D-02-0.812D-02-0.128D+00 0.113D+01
 Gap=     0.127 Goal=   None    Shift=    0.000
 Gap=     0.223 Goal=   None    Shift=    0.000
 RMSDP=1.74D-04 MaxDP=2.48D-03 DE=-2.73D-04 OVMax= 1.01D-02

 Cycle   5  Pass 1  IDiag  1:
 E= -579.687259341872     Delta-E=       -0.000103885222 Rises=F Damp=F
 DIIS: error= 2.85D-04 at cycle   5 NSaved=   5.
 NSaved= 5 IEnMin= 5 EnMin= -579.687259341872     IErMin= 5 ErrMin= 2.85D-04
 ErrMax= 2.85D-04  0.00D+00 EMaxC= 1.00D-01 BMatC= 1.59D-05 BMatP= 5.25D-05
 IDIUse=3 WtCom= 9.97D-01 WtEn= 2.85D-03
 Coeff-Com:  0.135D-01-0.230D-01-0.118D+00-0.485D+00 0.161D+01
 Coeff-En:   0.000D+00 0.000D+00 0.000D+00 0.000D+00 0.100D+01
 Coeff:      0.135D-01-0.229D-01-0.118D+00-0.484D+00 0.161D+01
 Gap=     0.128 Goal=   None    Shift=    0.000
 Gap=     0.223 Goal=   None    Shift=    0.000
 RMSDP=1.68D-04 MaxDP=2.31D-03 DE=-1.04D-04 OVMax= 9.62D-03

 Cycle   6  Pass 1  IDiag  1:
 E= -579.687308760423     Delta-E=       -0.000049418551 Rises=F Damp=F
 DIIS: error= 1.13D-04 at cycle   6 NSaved=   6.
 NSaved= 6 IEnMin= 6 EnMin= -579.687308760423     IErMin= 6 ErrMin= 1.13D-04
 ErrMax= 1.13D-04  0.00D+00 EMaxC= 1.00D-01 BMatC= 2.65D-06 BMatP= 1.59D-05
 IDIUse=3 WtCom= 9.99D-01 WtEn= 1.13D-03
 Coeff-Com:  0.307D-02-0.450D-02-0.644D-02-0.265D+00 0.346D+00 0.926D+00
 Coeff-En:   0.000D+00 0.000D+00 0.000D+00 0.000D+00 0.000D+00 0.100D+01
 Coeff:      0.306D-02-0.450D-02-0.643D-02-0.264D+00 0.346D+00 0.926D+00
 Gap=     0.128 Goal=   None    Shift=    0.000
 Gap=     0.223 Goal=   None    Shift=    0.000
 RMSDP=5.04D-05 MaxDP=6.77D-04 DE=-4.94D-05 OVMax= 2.81D-03

 Cycle   7  Pass 1  IDiag  1:
 E= -579.687313811996     Delta-E=       -0.000005051573 Rises=F Damp=F
 DIIS: error= 5.55D-05 at cycle   7 NSaved=   7.
 NSaved= 7 IEnMin= 7 EnMin= -579.687313811996     IErMin= 7 ErrMin= 5.55D-05
 ErrMax= 5.55D-05  0.00D+00 EMaxC= 1.00D-01 BMatC= 4.17D-07 BMatP= 2.65D-06
 IDIUse=1 WtCom= 1.00D+00 WtEn= 0.00D+00
 Coeff-Com: -0.314D-02 0.557D-02 0.303D-01 0.708D-01-0.352D+00 0.118D+00
 Coeff-Com:  0.113D+01
 Coeff:     -0.314D-02 0.557D-02 0.303D-01 0.708D-01-0.352D+00 0.118D+00
 Coeff:      0.113D+01
 Gap=     0.128 Goal=   None    Shift=    0.000
 Gap=     0.223 Goal=   None    Shift=    0.000
 RMSDP=2.62D-05 MaxDP=3.73D-04 DE=-5.05D-06 OVMax= 1.53D-03

 Cycle   8  Pass 1  IDiag  1:
 E= -579.687314717819     Delta-E=       -0.000000905823 Rises=F Damp=F
 DIIS: error= 1.13D-05 at cycle   8 NSaved=   8.
 NSaved= 8 IEnMin= 8 EnMin= -579.687314717819     IErMin= 8 ErrMin= 1.13D-05
 ErrMax= 1.13D-05  0.00D+00 EMaxC= 1.00D-01 BMatC= 1.48D-08 BMatP= 4.17D-07
 IDIUse=1 WtCom= 1.00D+00 WtEn= 0.00D+00
 Coeff-Com: -0.358D-03 0.634D-03 0.141D-02 0.160D-01-0.326D-01-0.432D-01
 Coeff-Com:  0.688D-01 0.989D+00
 Coeff:     -0.358D-03 0.634D-03 0.141D-02 0.160D-01-0.326D-01-0.432D-01
 Coeff:      0.688D-01 0.989D+00
 Gap=     0.128 Goal=   None    Shift=    0.000
 Gap=     0.223 Goal=   None    Shift=    0.000
 RMSDP=3.03D-06 MaxDP=5.70D-05 DE=-9.06D-07 OVMax= 2.21D-04

 Cycle   9  Pass 1  IDiag  1:
 E= -579.687314741768     Delta-E=       -0.000000023949 Rises=F Damp=F
 DIIS: error= 3.30D-06 at cycle   9 NSaved=   9.
 NSaved= 9 IEnMin= 9 EnMin= -579.687314741768     IErMin= 9 ErrMin= 3.30D-06
 ErrMax= 3.30D-06  0.00D+00 EMaxC= 1.00D-01 BMatC= 2.62D-09 BMatP= 1.48D-08
 IDIUse=1 WtCom= 1.00D+00 WtEn= 0.00D+00
 Coeff-Com:  0.357D-03-0.634D-03-0.309D-02-0.824D-02 0.363D-01-0.123D-01
 Coeff-Com: -0.116D+00-0.567D-01 0.116D+01
 Coeff:      0.357D-03-0.634D-03-0.309D-02-0.824D-02 0.363D-01-0.123D-01
 Coeff:     -0.116D+00-0.567D-01 0.116D+01
 Gap=     0.128 Goal=   None    Shift=    0.000
 Gap=     0.223 Goal=   None    Shift=    0.000
 RMSDP=1.54D-06 MaxDP=2.70D-05 DE=-2.39D-08 OVMax= 9.12D-05

 Cycle  10  Pass 1  IDiag  1:
 E= -579.687314747282     Delta-E=       -0.000000005514 Rises=F Damp=F
 DIIS: error= 1.67D-06 at cycle  10 NSaved=  10.
 NSaved=10 IEnMin=10 EnMin= -579.687314747282     IErMin=10 ErrMin= 1.67D-06
 ErrMax= 1.67D-06  0.00D+00 EMaxC= 1.00D-01 BMatC= 5.05D-10 BMatP= 2.62D-09
 IDIUse=1 WtCom= 1.00D+00 WtEn= 0.00D+00
 Coeff-Com: -0.445D-04 0.735D-04 0.739D-03-0.188D-03-0.413D-02 0.581D-02
 Coeff-Com:  0.221D-01-0.855D-01-0.331D+00 0.139D+01
 Coeff:     -0.445D-04 0.735D-04 0.739D-03-0.188D-03-0.413D-02 0.581D-02
 Coeff:      0.221D-01-0.855D-01-0.331D+00 0.139D+01
 Gap=     0.128 Goal=   None    Shift=    0.000
 Gap=     0.223 Goal=   None    Shift=    0.000
 RMSDP=8.32D-07 MaxDP=1.50D-05 DE=-5.51D-09 OVMax= 5.40D-05

 Cycle  11  Pass 1  IDiag  1:
 E= -579.687314748893     Delta-E=       -0.000000001611 Rises=F Damp=F
 DIIS: error= 8.57D-07 at cycle  11 NSaved=  11.
 NSaved=11 IEnMin=11 EnMin= -579.687314748893     IErMin=11 ErrMin= 8.57D-07
 ErrMax= 8.57D-07  0.00D+00 EMaxC= 1.00D-01 BMatC= 1.27D-10 BMatP= 5.05D-10
 IDIUse=1 WtCom= 1.00D+00 WtEn= 0.00D+00
 Coeff-Com: -0.563D-04 0.105D-03 0.315D-03 0.165D-02-0.556D-02-0.583D-03
 Coeff-Com:  0.186D-01 0.516D-01-0.140D+00-0.617D+00 0.169D+01
 Coeff:     -0.563D-04 0.105D-03 0.315D-03 0.165D-02-0.556D-02-0.583D-03
 Coeff:      0.186D-01 0.516D-01-0.140D+00-0.617D+00 0.169D+01
 Gap=     0.128 Goal=   None    Shift=    0.000
 Gap=     0.223 Goal=   None    Shift=    0.000
 RMSDP=6.44D-07 MaxDP=1.00D-05 DE=-1.61D-09 OVMax= 4.36D-05

 Cycle  12  Pass 1  IDiag  1:
 E= -579.687314749425     Delta-E=       -0.000000000531 Rises=F Damp=F
 DIIS: error= 2.65D-07 at cycle  12 NSaved=  12.
 NSaved=12 IEnMin=12 EnMin= -579.687314749425     IErMin=12 ErrMin= 2.65D-07
 ErrMax= 2.65D-07  0.00D+00 EMaxC= 1.00D-01 BMatC= 1.55D-11 BMatP= 1.27D-10
 IDIUse=1 WtCom= 1.00D+00 WtEn= 0.00D+00
 Coeff-Com:  0.232D-04-0.417D-04-0.222D-03-0.463D-03 0.241D-02-0.189D-02
 Coeff-Com: -0.717D-02-0.593D-02 0.111D+00-0.871D-01-0.425D+00 0.141D+01
 Coeff:      0.232D-04-0.417D-04-0.222D-03-0.463D-03 0.241D-02-0.189D-02
 Coeff:     -0.717D-02-0.593D-02 0.111D+00-0.871D-01-0.425D+00 0.141D+01
 Gap=     0.128 Goal=   None    Shift=    0.000
 Gap=     0.223 Goal=   None    Shift=    0.000
 RMSDP=2.22D-07 MaxDP=3.96D-06 DE=-5.31D-10 OVMax= 1.52D-05

 Cycle  13  Pass 1  IDiag  1:
 E= -579.687314749478     Delta-E=       -0.000000000053 Rises=F Damp=F
 DIIS: error= 7.51D-08 at cycle  13 NSaved=  13.
 NSaved=13 IEnMin=13 EnMin= -579.687314749478     IErMin=13 ErrMin= 7.51D-08
 ErrMax= 7.51D-08  0.00D+00 EMaxC= 1.00D-01 BMatC= 1.31D-12 BMatP= 1.55D-11
 IDIUse=1 WtCom= 1.00D+00 WtEn= 0.00D+00
 Coeff-Com: -0.267D-05 0.436D-05 0.424D-04 0.186D-04-0.239D-03 0.177D-03
 Coeff-Com:  0.120D-02-0.454D-02-0.112D-01 0.671D-01-0.540D-01-0.319D+00
 Coeff-Com:  0.132D+01
 Coeff:     -0.267D-05 0.436D-05 0.424D-04 0.186D-04-0.239D-03 0.177D-03
 Coeff:      0.120D-02-0.454D-02-0.112D-01 0.671D-01-0.540D-01-0.319D+00
 Coeff:      0.132D+01
 Gap=     0.128 Goal=   None    Shift=    0.000
 Gap=     0.223 Goal=   None    Shift=    0.000
 RMSDP=6.01D-08 MaxDP=1.34D-06 DE=-5.32D-11 OVMax= 3.76D-06

 Cycle  14  Pass 1  IDiag  1:
 E= -579.687314749482     Delta-E=       -0.000000000004 Rises=F Damp=F
 DIIS: error= 2.35D-08 at cycle  14 NSaved=  14.
 NSaved=14 IEnMin=14 EnMin= -579.687314749482     IErMin=14 ErrMin= 2.35D-08
 ErrMax= 2.35D-08  0.00D+00 EMaxC= 1.00D-01 BMatC= 1.57D-13 BMatP= 1.31D-12
 IDIUse=1 WtCom= 1.00D+00 WtEn= 0.00D+00
 Coeff-Com: -0.723D-06 0.144D-05 0.236D-05 0.116D-04-0.608D-04-0.316D-04
 Coeff-Com:  0.422D-03 0.116D-02-0.404D-02-0.160D-01 0.602D-01-0.524D-01
 Coeff-Com: -0.387D+00 0.140D+01
 Coeff:     -0.723D-06 0.144D-05 0.236D-05 0.116D-04-0.608D-04-0.316D-04
 Coeff:      0.422D-03 0.116D-02-0.404D-02-0.160D-01 0.602D-01-0.524D-01
 Coeff:     -0.387D+00 0.140D+01
 Gap=     0.128 Goal=   None    Shift=    0.000
 Gap=     0.223 Goal=   None    Shift=    0.000
 RMSDP=1.90D-08 MaxDP=5.33D-07 DE=-3.87D-12 OVMax= 1.20D-06

 Cycle  15  Pass 1  IDiag  1:
 E= -579.687314749481     Delta-E=        0.000000000001 Rises=F Damp=F
 DIIS: error= 4.19D-09 at cycle  15 NSaved=  15.
 NSaved=15 IEnMin=14 EnMin= -579.687314749482     IErMin=15 ErrMin= 4.19D-09
 ErrMax= 4.19D-09  0.00D+00 EMaxC= 1.00D-01 BMatC= 7.69D-15 BMatP= 1.57D-13
 IDIUse=1 WtCom= 1.00D+00 WtEn= 0.00D+00
 Coeff-Com:  0.210D-06-0.405D-06-0.131D-05-0.254D-05 0.246D-04-0.252D-04
 Coeff-Com: -0.101D-03-0.725D-04 0.109D-02 0.222D-02-0.145D-01 0.223D-01
 Coeff-Com:  0.885D-01-0.504D+00 0.140D+01
 Coeff:      0.210D-06-0.405D-06-0.131D-05-0.254D-05 0.246D-04-0.252D-04
 Coeff:     -0.101D-03-0.725D-04 0.109D-02 0.222D-02-0.145D-01 0.223D-01
 Coeff:      0.885D-01-0.504D+00 0.140D+01
 Gap=     0.128 Goal=   None    Shift=    0.000
 Gap=     0.223 Goal=   None    Shift=    0.000
 RMSDP=4.14D-09 MaxDP=9.88D-08 DE= 9.09D-13 OVMax= 3.07D-07

 SCF Done:  E(UM062X) =  -579.687314749     A.U. after   15 cycles
            NFock= 15  Conv=0.41D-08     -V/T= 2.0015
 <Sx>= 0.0000 <Sy>= 0.0000 <Sz>= 0.5000 <S**2>= 0.7813 S= 0.5155
 <L.S>=  0.00000000000    
 KE= 5.788475155383D+02 PE=-1.459006855306D+03 EE= 2.583836403565D+02
 Annihilation of the first spin contaminant:
 S**2 before annihilation     0.7813,   after     0.7501
 Leave Link  502 at Mon Apr 21 20:39:10 2025, MaxMem=   536870912 cpu:              60.0 elap:               7.9
 (Enter /home/szhao/Apps/g16/l601.exe)
 Copying SCF densities to generalized density rwf, IOpCl= 1 IROHF=0.

 **********************************************************************

            Population analysis using the SCF density.

 **********************************************************************

 Alpha  occ. eigenvalues --  -67.26844 -67.26279  -5.81055  -5.80516  -4.12155
 Alpha  occ. eigenvalues --   -4.12079  -4.11682  -4.11574  -4.11419  -4.10905
 Alpha  occ. eigenvalues --   -0.76646  -0.75539  -0.54288  -0.51919  -0.41459
 Alpha virt. eigenvalues --   -0.28631  -0.28126  -0.26601  -0.11202  -0.10879
 Alpha virt. eigenvalues --   -0.08964  -0.08140  -0.07477  -0.06321  -0.06250
 Alpha virt. eigenvalues --   -0.05721  -0.04974  -0.02909   0.12493   0.14352
 Alpha virt. eigenvalues --    0.14963   0.16398   0.17388   0.17900   0.19968
 Alpha virt. eigenvalues --    0.25610   0.26957   0.30664   0.38358   0.38511
 Alpha virt. eigenvalues --    0.39022   0.39132   0.39490   0.39573   0.40615
 Alpha virt. eigenvalues --    0.47633   0.64603   0.65241   0.99065   1.00784
 Alpha virt. eigenvalues --    1.01598   1.02086   1.02795   1.05896   1.29547
 Alpha virt. eigenvalues --    1.29874   1.29947   1.30174   1.79739   1.80954
 Alpha virt. eigenvalues --    2.42471   2.42661   5.20800   5.27383  11.19736
 Alpha virt. eigenvalues --   11.20596  11.21830  11.22166  11.30010  11.31536
 Alpha virt. eigenvalues --  140.75447 140.83602
  Beta  occ. eigenvalues --  -67.26598 -67.25979  -5.80985  -5.80415  -4.12018
  Beta  occ. eigenvalues --   -4.11518  -4.11497  -4.11284  -4.10948  -4.10697
  Beta  occ. eigenvalues --   -0.74859  -0.73798  -0.53947  -0.50489
  Beta virt. eigenvalues --   -0.28224  -0.27236  -0.26076  -0.23702  -0.12862
  Beta virt. eigenvalues --   -0.11621  -0.08672  -0.07895  -0.07137  -0.06343
  Beta virt. eigenvalues --   -0.05998  -0.05167  -0.04724  -0.03047   0.11204
  Beta virt. eigenvalues --    0.12596   0.13015   0.15521   0.15950   0.16290
  Beta virt. eigenvalues --    0.20141   0.25185   0.26666   0.31059   0.39531
  Beta virt. eigenvalues --    0.39905   0.41919   0.42504   0.42626   0.43341
  Beta virt. eigenvalues --    0.43639   0.49131   0.65388   0.66215   0.98415
  Beta virt. eigenvalues --    1.01115   1.01449   1.02514   1.03487   1.06652
  Beta virt. eigenvalues --    1.29876   1.30335   1.30734   1.31133   1.80519
  Beta virt. eigenvalues --    1.81861   2.42864   2.43114   5.21760   5.28311
  Beta virt. eigenvalues --   11.20971  11.21734  11.22244  11.24368  11.30481
  Beta virt. eigenvalues --   11.32016 140.75913 140.84075
          Condensed to atoms (all electrons):
               1          2          3          4
     1  Si  13.102344   0.068586   0.235224   0.002272
     2  Si   0.068586  13.134808   0.004584   0.255150
     3  H    0.235224   0.004584   0.831494   0.000005
     4  H    0.002272   0.255150   0.000005   0.799715
          Atomic-Atomic Spin Densities.
               1          2          3          4
     1  Si   0.410103   0.059917  -0.004601   0.000514
     2  Si   0.059917   0.507575  -0.000341  -0.011844
     3  H   -0.004601  -0.000341  -0.006274   0.000007
     4  H    0.000514  -0.011844   0.000007   0.001292
 Mulliken charges and spin densities:
               1          2
     1  Si   0.591575   0.465933
     2  Si   0.536872   0.555307
     3  H   -0.071306  -0.011209
     4  H   -0.057141  -0.010032
 Sum of Mulliken charges =   1.00000   1.00000
 Mulliken charges and spin densities with hydrogens summed into heavy atoms:
               1          2
     1  Si   0.520268   0.454724
     2  Si   0.479732   0.545276
 Electronic spatial extent (au):  <R**2>=            421.4354
 Charge=              1.0000 electrons
 Dipole moment (field-independent basis, Debye):
    X=             -0.0780    Y=             -0.0735    Z=             -0.0000  Tot=              0.1072
 Quadrupole moment (field-independent basis, Debye-Ang):
   XX=             -4.1417   YY=            -26.4370   ZZ=            -19.6933
   XY=              1.2258   XZ=             -0.0000   YZ=              0.0000
 Traceless Quadrupole moment (field-independent basis, Debye-Ang):
   XX=             12.6156   YY=             -9.6797   ZZ=             -2.9360
   XY=              1.2258   XZ=             -0.0000   YZ=              0.0000
 Octapole moment (field-independent basis, Debye-Ang**2):
  XXX=             -3.3584  YYY=              1.0139  ZZZ=              0.0000  XYY=              0.4526
  XXY=             -0.7011  XXZ=             -0.0000  XZZ=             -0.3462  YZZ=              0.1341
  YYZ=              0.0000  XYZ=             -0.0000
 Hexadecapole moment (field-independent basis, Debye-Ang**3):
 XXXX=           -456.7458 YYYY=            -62.4189 ZZZZ=            -24.6355 XXXY=            -19.0234
 XXXZ=             -0.0000 YYYX=            -15.3304 YYYZ=             -0.0000 ZZZX=             -0.0000
 ZZZY=              0.0000 XXYY=           -108.1913 XXZZ=            -76.9725 YYZZ=            -14.5682
 XXYZ=             -0.0000 YYXZ=             -0.0000 ZZXY=             -4.0371
 N-N= 4.208838466167D+01 E-N=-1.459006855379D+03  KE= 5.788475155383D+02
                          Isotropic Fermi Contact Couplings
        Atom                 a.u.       MegaHertz       Gauss      10(-4) cm-1
     1  Si(29)            -0.00299       2.65666       0.94796       0.88617
     2  Si(29)             0.03920     -34.84025     -12.43187     -11.62146
     3  H(1)              -0.00286     -12.78287      -4.56125      -4.26391
     4  H(1)              -0.00283     -12.64608      -4.51244      -4.21828
 --------------------------------------------------------
       Center         ----  Spin Dipole Couplings  ----
                      3XX-RR        3YY-RR        3ZZ-RR
 --------------------------------------------------------
     1   Atom        0.475764      0.005686     -0.481450
     2   Atom       -0.087449      0.659700     -0.572251
     3   Atom        0.005146      0.006900     -0.012046
     4   Atom        0.007814      0.006166     -0.013980
 --------------------------------------------------------
                        XY            XZ            YZ
 --------------------------------------------------------
     1   Atom       -0.760201      0.000000      0.000000
     2   Atom       -0.878693      0.000000     -0.000000
     3   Atom        0.002926     -0.000000     -0.000000
     4   Atom        0.003996      0.000000      0.000000
 --------------------------------------------------------


 ---------------------------------------------------------------------------------
              Anisotropic Spin Dipole Couplings in Principal Axis System
 ---------------------------------------------------------------------------------

       Atom             a.u.   MegaHertz   Gauss  10(-4) cm-1        Axes

              Baa    -0.5550    58.875    21.008    19.638  0.5936  0.8048 -0.0000
     1 Si(29) Bbb    -0.4814    51.074    18.225    17.036  0.0000  0.0000  1.0000
              Bcc     1.0364  -109.949   -39.232   -36.675  0.8048 -0.5936  0.0000
 
              Baa    -0.6687    70.937    25.312    23.662  0.8340  0.5517  0.0000
     2 Si(29) Bbb    -0.5723    60.707    21.662    20.250 -0.0000 -0.0000  1.0000
              Bcc     1.2409  -131.643   -46.974   -43.911 -0.5517  0.8340 -0.0000
 
              Baa    -0.0120    -6.427    -2.293    -2.144  0.0000  0.0000  1.0000
     3 H(1)   Bbb     0.0030     1.584     0.565     0.528  0.8022 -0.5970 -0.0000
              Bcc     0.0091     4.843     1.728     1.616  0.5970  0.8022 -0.0000
 
              Baa    -0.0140    -7.459    -2.662    -2.488 -0.0000  0.0000  1.0000
     4 H(1)   Bbb     0.0029     1.552     0.554     0.518 -0.6317  0.7752 -0.0000
              Bcc     0.0111     5.906     2.108     1.970  0.7752  0.6317  0.0000
 

 ---------------------------------------------------------------------------------

 No NMR shielding tensors so no spin-rotation constants.
 Leave Link  601 at Mon Apr 21 20:39:11 2025, MaxMem=   536870912 cpu:               2.7 elap:               0.4
 (Enter /home/szhao/Apps/g16/l701.exe)
 ... and contract with generalized density number  0.
 Compute integral first derivatives.
 Leave Link  701 at Mon Apr 21 20:39:12 2025, MaxMem=   536870912 cpu:               1.3 elap:               0.3
 (Enter /home/szhao/Apps/g16/l702.exe)
 L702 exits ... SP integral derivatives will be done elsewhere.
 Leave Link  702 at Mon Apr 21 20:39:12 2025, MaxMem=   536870912 cpu:               1.2 elap:               0.2
 (Enter /home/szhao/Apps/g16/l703.exe)
 Integral derivatives from FoFJK, PRISM(SPDF).
 Compute integral first derivatives, UseDBF=F ICtDFT=           0.
 Calling FoFJK, ICntrl=      2127 FMM=F ISym2X=0 I1Cent= 0 IOpClX= 1 NMat=1 NMatS=1 NMatT=0.
 FoFJK:  IHMeth= 1 ICntrl=    2127 DoSepK=F KAlg= 0 I1Cent=           0 FoldK=F
 IRaf=         0 NMat=       1 IRICut=       1 DoRegI=T DoRafI=F ISym2E= 0 IDoP0=0 IntGTp=1.
 FoFCou: FMM=F IPFlag=           0 FMFlag=      100000 FMFlg1=         800
         NFxFlg=           0 DoJE=F BraDBF=F KetDBF=F FulRan=T
         wScrn=  0.000000 ICntrl=      2127 IOpCl=  1 I1Cent=           0 NGrid=           0
         NMat0=    1 NMatS0=      1 NMatT0=    0 NMatD0=    1 NMtDS0=    0 NMtDT0=    0
 Symmetry not used in FoFCou.
 Leave Link  703 at Mon Apr 21 20:39:13 2025, MaxMem=   536870912 cpu:               5.6 elap:               0.7
 (Enter /home/szhao/Apps/g16/l716.exe)
 Dipole        =-3.06798825D-02-2.89235382D-02-4.81655220D-15
 -------------------------------------------------------------------
 Center     Atomic                   Forces (Hartrees/Bohr)
 Number     Number              X              Y              Z
 -------------------------------------------------------------------
      1       14          -0.000000000   -0.000000000   -0.000000000
      2       14          -0.000000000   -0.000000000   -0.000000000
      3        1           0.002402611   -0.008154455   -0.000000000
      4        1           0.000546281    0.010980246    0.000000000
 -------------------------------------------------------------------
 Cartesian Forces:  Max     0.010980246 RMS     0.004011773
 Leave Link  716 at Mon Apr 21 20:39:13 2025, MaxMem=   536870912 cpu:               0.6 elap:               0.1
 (Enter /home/szhao/Apps/g16/l103.exe)

 GradGradGradGradGradGradGradGradGradGradGradGradGradGradGradGradGradGrad
 Berny optimization.
 FormGI is forming the generalized inverse of G from B-inverse, IUseBI=4.
 Internal  Forces:  Max     0.019325847 RMS     0.010241521
 Search for a local minimum.
 Step number   1 out of a maximum of   21
 All quantities printed in internal units (Hartrees-Bohrs-Radians)
 RMS Force = .11973D-01 SwitMx=.10000D-02 MixMth= 1
 Mixed Optimization -- RFO/linear search
 Second derivative matrix not updated -- first step.
 The second derivative matrix:
                          X1        Y1        Z1        X2        Y2
           X1           0.50000
           Y1           0.00000   0.50000
           Z1           0.00000   0.00000   0.50000
           X2           0.00000   0.00000   0.00000   0.50000
           Y2           0.00000   0.00000   0.00000   0.00000   0.50000
           Z2           0.00000   0.00000   0.00000   0.00000   0.00000
           R1           0.00000   0.00000   0.00000   0.00000   0.00000
           R2           0.00000   0.00000   0.00000   0.00000   0.00000
           A1           0.00000   0.00000   0.00000   0.00000   0.00000
           A2           0.00000   0.00000   0.00000   0.00000   0.00000
           D1           0.00000   0.00000   0.00000   0.00000   0.00000
                          Z2        R1        R2        A1        A2
           Z2           0.50000
           R1           0.00000   0.17370
           R2           0.00000   0.00000   0.17736
           A1           0.00000   0.00000   0.00000   0.16000
           A2           0.00000   0.00000   0.00000   0.00000   0.16000
           D1           0.00000   0.00000   0.00000   0.00000   0.00000
                          D1
           D1           0.00230
 ITU=  0
     Eigenvalues ---    0.00230   0.16000   0.16000   0.17370   0.17736
     Eigenvalues --- 1000.000001000.000001000.000001000.000001000.00000
     Eigenvalues --- 1000.00000
 RFO step:  Lambda=-4.29925693D-03 EMin= 2.30000000D-03
 Linear search not attempted -- first point.
 Iteration  1 RMS(Cart)=  0.12094969 RMS(Int)=  0.00597780
 Iteration  2 RMS(Cart)=  0.01004191 RMS(Int)=  0.00003480
 Iteration  3 RMS(Cart)=  0.00005043 RMS(Int)=  0.00000000
 Iteration  4 RMS(Cart)=  0.00000000 RMS(Int)=  0.00000000
 ITry= 1 IFail=0 DXMaxC= 2.43D-01 DCOld= 1.00D+10 DXMaxT= 3.00D-01 DXLimC= 3.00D+00 Rises=F
 Variable       Old X    -DE/DX   Delta X   Delta X   Delta X     New X
                                 (Linear)    (Quad)   (Total)
    X1       -3.40713   0.00240   0.00000   0.00000   0.00000  -3.40713
    Y1        0.00000  -0.01320   0.00000   0.00000   0.00000   0.00000
    Z1        0.00000   0.00000   0.00000   0.00000   0.00000   0.00000
    X2        3.40713   0.00055   0.00000   0.00000   0.00000   3.40713
    Y2        0.00000   0.01602   0.00000   0.00000   0.00000   0.00000
    Z2        0.00000   0.00000   0.00000   0.00000   0.00000   0.00000
    R1        2.81317   0.00661   0.00000   0.03712   0.03712   2.85029
    R2        2.79829   0.00855   0.00000   0.04709   0.04709   2.84538
    A1        1.96476  -0.01505   0.00000  -0.09158  -0.09158   1.87318
    A2        2.29974  -0.01933   0.00000  -0.11763  -0.11763   2.18212
    D1        3.14159   0.00000   0.00000   0.00000   0.00000   3.14159
         Item               Value     Threshold  Converged?
 Maximum Force            0.019326     0.000450     NO 
 RMS     Force            0.011973     0.000300     NO 
 Maximum Displacement     0.242875     0.001800     NO 
 RMS     Displacement     0.128217     0.001200     NO 
 Predicted change in Energy=-2.205129D-03
 Lowest energy point so far.  Saving SCF results.
 GradGradGradGradGradGradGradGradGradGradGradGradGradGradGradGradGradGrad

 Leave Link  103 at Mon Apr 21 20:39:13 2025, MaxMem=   536870912 cpu:               0.2 elap:               0.2
 (Enter /home/szhao/Apps/g16/l202.exe)
                          Input orientation:                          
 ---------------------------------------------------------------------
 Center     Atomic      Atomic             Coordinates (Angstroms)
 Number     Number       Type             X           Y           Z
 ---------------------------------------------------------------------
      1         14           0       -1.802975    0.000000    0.000000
      2         14           0        1.802975    0.000000    0.000000
      3          1           0       -2.252141   -1.439879   -0.000000
      4          1           0        2.667175    1.233012   -0.000000
 ---------------------------------------------------------------------
                    Distance matrix (angstroms):
                    1          2          3          4
     1  Si   0.000000
     2  Si   3.605949   0.000000
     3  H    1.508311   4.303163   0.000000
     4  H    4.637084   1.505709   5.598572   0.000000
 Symmetry turned off by external request.
 Stoichiometry    H2Si2(1+,2)
 Framework group  CS[SG(H2Si2)]
 Deg. of freedom     5
 Full point group                 CS      NOp   2
 Rotational constants (GHZ):         148.9165284           2.5997438           2.5551369
 Leave Link  202 at Mon Apr 21 20:39:14 2025, MaxMem=   536870912 cpu:               0.2 elap:               0.1
 (Enter /home/szhao/Apps/g16/l301.exe)
 Standard basis: 6-311+G(d,p) (5D, 7F)
 Ernie: Thresh=  0.10000D-02 Tol=  0.10000D-05 Strict=F.
    72 basis functions,   116 primitive gaussians,    74 cartesian basis functions
    15 alpha electrons       14 beta electrons
       nuclear repulsion energy        42.0090771283 Hartrees.
 IExCor= 4336 DFT=T Ex+Corr=M062X ExCW=0 ScaHFX=  0.540000
 ScaDFX=  1.000000  1.000000  1.000000  1.000000 ScalE2=  1.000000  1.000000
 IRadAn=      7 IRanWt=     -1 IRanGd=            0 ICorTp=0 IEmpDi=  4
 NAtoms=    4 NActive=    4 NUniq=    4 SFac= 1.00D+00 NAtFMM=   60 NAOKFM=F Big=F
 Integral buffers will be    131072 words long.
 Raffenetti 2 integral format.
 Two-electron integral symmetry is turned off.
 Leave Link  301 at Mon Apr 21 20:39:14 2025, MaxMem=   536870912 cpu:               0.7 elap:               0.1
 (Enter /home/szhao/Apps/g16/l302.exe)
 NPDir=0 NMtPBC=     1 NCelOv=     1 NCel=       1 NClECP=     1 NCelD=      1
         NCelK=      1 NCelE2=     1 NClLst=     1 CellRange=     0.0.
 One-electron integrals computed using PRISM.
 NBasis=    72 RedAO= T EigKep=  8.77D-03  NBF=    72
 NBsUse=    72 1.00D-06 EigRej= -1.00D+00 NBFU=    72
 Precomputing XC quadrature grid using
 IXCGrd= 4 IRadAn=           7 IRanWt=          -1 IRanGd=           0 AccXCQ= 0.00D+00.
 Generated NRdTot=       0 NPtTot=           0 NUsed=           0 NTot=          32
 NSgBfM=    67    67    67    67    67 MxSgAt=     4 MxSgA2=     4.
 Leave Link  302 at Mon Apr 21 20:39:15 2025, MaxMem=   536870912 cpu:               2.0 elap:               0.4
 (Enter /home/szhao/Apps/g16/l303.exe)
 DipDrv:  MaxL=1.
 Leave Link  303 at Mon Apr 21 20:39:15 2025, MaxMem=   536870912 cpu:               0.4 elap:               0.1
 (Enter /home/szhao/Apps/g16/l401.exe)
 Initial guess from the checkpoint file:  "opt.chk"
 B after Tr=    -0.000121    0.003786   -0.000000
         Rot=    0.999993   -0.000000   -0.000000   -0.003806 Ang=  -0.44 deg.
 Guess basis will be translated and rotated to current coordinates.
 JPrj=2 DoOrth=T DoCkMO=T.
 Initial guess <Sx>= 0.0000 <Sy>= 0.0000 <Sz>= 0.5000 <S**2>= 0.7810 S= 0.5154
 Generating alternative initial guess.
 ExpMin= 3.31D-02 ExpMax= 6.94D+04 ExpMxC= 2.33D+03 IAcc=3 IRadAn=         5 AccDes= 0.00D+00
 Harris functional with IExCor= 1009 and IRadAn=       5 diagonalized for initial guess.
 HarFok:  IExCor= 1009 AccDes= 0.00D+00 IRadAn=         5 IDoV= 1 UseB2=F ITyADJ=14
 ICtDFT=  3500011 ScaDFX=  1.000000  1.000000  1.000000  1.000000
 FoFCou: FMM=F IPFlag=           0 FMFlag=      100000 FMFlg1=           0
         NFxFlg=           0 DoJE=T BraDBF=F KetDBF=T FulRan=T
         wScrn=  0.000000 ICntrl=       500 IOpCl=  0 I1Cent=   200000004 NGrid=           0
         NMat0=    1 NMatS0=      1 NMatT0=    0 NMatD0=    1 NMtDS0=    0 NMtDT0=    0
 Symmetry not used in FoFCou.
 Harris En= -579.461522740396    
 Leave Link  401 at Mon Apr 21 20:39:16 2025, MaxMem=   536870912 cpu:               2.1 elap:               0.3
 (Enter /home/szhao/Apps/g16/l502.exe)
 Keep R1 and R2 ints in memory in canonical form, NReq=14118010.
 FoFCou: FMM=F IPFlag=           0 FMFlag=           0 FMFlg1=           0
         NFxFlg=           0 DoJE=F BraDBF=F KetDBF=F FulRan=T
         wScrn=  0.000000 ICntrl=       600 IOpCl=  0 I1Cent=           0 NGrid=           0
         NMat0=    1 NMatS0=   2628 NMatT0=    0 NMatD0=    1 NMtDS0=    0 NMtDT0=    0
 Symmetry not used in FoFCou.
 Two-electron integral symmetry not used.
 UHF open shell SCF:
 Using DIIS extrapolation, IDIIS=  1040.
 NGot=   536870912 LenX=   529949706 LenY=   529943789
 Requested convergence on RMS density matrix=1.00D-08 within 128 cycles.
 Requested convergence on MAX density matrix=1.00D-06.
 Requested convergence on             energy=1.00D-06.
 No special actions if energy rises.

 Cycle   1  Pass 1  IDiag  1:
 E= -579.688870779195    
 DIIS: error= 3.89D-03 at cycle   1 NSaved=   1.
 NSaved= 1 IEnMin= 1 EnMin= -579.688870779195     IErMin= 1 ErrMin= 3.89D-03
 ErrMax= 3.89D-03  0.00D+00 EMaxC= 1.00D-01 BMatC= 2.28D-03 BMatP= 2.28D-03
 IDIUse=3 WtCom= 9.61D-01 WtEn= 3.89D-02
 Coeff-Com:  0.100D+01
 Coeff-En:   0.100D+01
 Coeff:      0.100D+01
 Gap=     0.415 Goal=   None    Shift=    0.000
 Gap=     0.422 Goal=   None    Shift=    0.000
 GapD=    0.415 DampG=2.000 DampE=1.000 DampFc=2.0000 IDamp=-1.
 RMSDP=5.42D-04 MaxDP=6.72D-03              OVMax= 2.82D-02

 Cycle   2  Pass 1  IDiag  1:
 E= -579.690608897427     Delta-E=       -0.001738118233 Rises=F Damp=F
 DIIS: error= 1.05D-03 at cycle   2 NSaved=   2.
 NSaved= 2 IEnMin= 2 EnMin= -579.690608897427     IErMin= 2 ErrMin= 1.05D-03
 ErrMax= 1.05D-03  0.00D+00 EMaxC= 1.00D-01 BMatC= 1.68D-04 BMatP= 2.28D-03
 IDIUse=3 WtCom= 9.90D-01 WtEn= 1.05D-02
 Coeff-Com: -0.190D+00 0.119D+01
 Coeff-En:   0.000D+00 0.100D+01
 Coeff:     -0.188D+00 0.119D+01
 Gap=     0.132 Goal=   None    Shift=    0.000
 Gap=     0.224 Goal=   None    Shift=    0.000
 RMSDP=2.64D-04 MaxDP=4.16D-03 DE=-1.74D-03 OVMax= 1.49D-02

 Cycle   3  Pass 1  IDiag  1:
 E= -579.690885114257     Delta-E=       -0.000276216830 Rises=F Damp=F
 DIIS: error= 4.65D-04 at cycle   3 NSaved=   3.
 NSaved= 3 IEnMin= 3 EnMin= -579.690885114257     IErMin= 3 ErrMin= 4.65D-04
 ErrMax= 4.65D-04  0.00D+00 EMaxC= 1.00D-01 BMatC= 1.96D-05 BMatP= 1.68D-04
 IDIUse=3 WtCom= 9.95D-01 WtEn= 4.65D-03
 Coeff-Com:  0.146D-01-0.397D+00 0.138D+01
 Coeff-En:   0.000D+00 0.000D+00 0.100D+01
 Coeff:      0.146D-01-0.395D+00 0.138D+01
 Gap=     0.133 Goal=   None    Shift=    0.000
 Gap=     0.224 Goal=   None    Shift=    0.000
 RMSDP=1.27D-04 MaxDP=2.30D-03 DE=-2.76D-04 OVMax= 8.47D-03

 Cycle   4  Pass 1  IDiag  1:
 E= -579.690927003246     Delta-E=       -0.000041888989 Rises=F Damp=F
 DIIS: error= 1.40D-04 at cycle   4 NSaved=   4.
 NSaved= 4 IEnMin= 4 EnMin= -579.690927003246     IErMin= 4 ErrMin= 1.40D-04
 ErrMax= 1.40D-04  0.00D+00 EMaxC= 1.00D-01 BMatC= 2.81D-06 BMatP= 1.96D-05
 IDIUse=3 WtCom= 9.99D-01 WtEn= 1.40D-03
 Coeff-Com:  0.181D-01-0.184D+00 0.313D+00 0.853D+00
 Coeff-En:   0.000D+00 0.000D+00 0.000D+00 0.100D+01
 Coeff:      0.180D-01-0.184D+00 0.313D+00 0.853D+00
 Gap=     0.133 Goal=   None    Shift=    0.000
 Gap=     0.224 Goal=   None    Shift=    0.000
 RMSDP=3.28D-05 MaxDP=6.30D-04 DE=-4.19D-05 OVMax= 2.21D-03

 Cycle   5  Pass 1  IDiag  1:
 E= -579.690930567437     Delta-E=       -0.000003564191 Rises=F Damp=F
 DIIS: error= 6.06D-05 at cycle   5 NSaved=   5.
 NSaved= 5 IEnMin= 5 EnMin= -579.690930567437     IErMin= 5 ErrMin= 6.06D-05
 ErrMax= 6.06D-05  0.00D+00 EMaxC= 1.00D-01 BMatC= 5.40D-07 BMatP= 2.81D-06
 IDIUse=1 WtCom= 1.00D+00 WtEn= 0.00D+00
 Coeff-Com:  0.917D-03 0.328D-01-0.176D+00 0.108D+00 0.103D+01
 Coeff:      0.917D-03 0.328D-01-0.176D+00 0.108D+00 0.103D+01
 Gap=     0.133 Goal=   None    Shift=    0.000
 Gap=     0.224 Goal=   None    Shift=    0.000
 RMSDP=1.85D-05 MaxDP=3.17D-04 DE=-3.56D-06 OVMax= 1.24D-03

 Cycle   6  Pass 1  IDiag  1:
 E= -579.690931654130     Delta-E=       -0.000001086693 Rises=F Damp=F
 DIIS: error= 2.08D-05 at cycle   6 NSaved=   6.
 NSaved= 6 IEnMin= 6 EnMin= -579.690931654130     IErMin= 6 ErrMin= 2.08D-05
 ErrMax= 2.08D-05  0.00D+00 EMaxC= 1.00D-01 BMatC= 1.20D-07 BMatP= 5.40D-07
 IDIUse=1 WtCom= 1.00D+00 WtEn= 0.00D+00
 Coeff-Com: -0.454D-02 0.418D-01-0.659D-01-0.188D+00-0.299D-01 0.125D+01
 Coeff:     -0.454D-02 0.418D-01-0.659D-01-0.188D+00-0.299D-01 0.125D+01
 Gap=     0.133 Goal=   None    Shift=    0.000
 Gap=     0.224 Goal=   None    Shift=    0.000
 RMSDP=1.28D-05 MaxDP=2.06D-04 DE=-1.09D-06 OVMax= 7.14D-04

 Cycle   7  Pass 1  IDiag  1:
 E= -579.690931995101     Delta-E=       -0.000000340972 Rises=F Damp=F
 DIIS: error= 8.77D-06 at cycle   7 NSaved=   7.
 NSaved= 7 IEnMin= 7 EnMin= -579.690931995101     IErMin= 7 ErrMin= 8.77D-06
 ErrMax= 8.77D-06  0.00D+00 EMaxC= 1.00D-01 BMatC= 1.94D-08 BMatP= 1.20D-07
 IDIUse=1 WtCom= 1.00D+00 WtEn= 0.00D+00
 Coeff-Com:  0.857D-03-0.166D-01 0.552D-01-0.627D-02-0.166D+00-0.305D+00
 Coeff-Com:  0.144D+01
 Coeff:      0.857D-03-0.166D-01 0.552D-01-0.627D-02-0.166D+00-0.305D+00
 Coeff:      0.144D+01
 Gap=     0.133 Goal=   None    Shift=    0.000
 Gap=     0.224 Goal=   None    Shift=    0.000
 RMSDP=6.80D-06 MaxDP=9.96D-05 DE=-3.41D-07 OVMax= 3.91D-04

 Cycle   8  Pass 1  IDiag  1:
 E= -579.690932052543     Delta-E=       -0.000000057442 Rises=F Damp=F
 DIIS: error= 1.62D-06 at cycle   8 NSaved=   8.
 NSaved= 8 IEnMin= 8 EnMin= -579.690932052543     IErMin= 8 ErrMin= 1.62D-06
 ErrMax= 1.62D-06  0.00D+00 EMaxC= 1.00D-01 BMatC= 1.34D-09 BMatP= 1.94D-08
 IDIUse=1 WtCom= 1.00D+00 WtEn= 0.00D+00
 Coeff-Com:  0.538D-03-0.564D-02 0.109D-01 0.149D-01-0.902D-02-0.136D+00
 Coeff-Com:  0.117D+00 0.101D+01
 Coeff:      0.538D-03-0.564D-02 0.109D-01 0.149D-01-0.902D-02-0.136D+00
 Coeff:      0.117D+00 0.101D+01
 Gap=     0.133 Goal=   None    Shift=    0.000
 Gap=     0.224 Goal=   None    Shift=    0.000
 RMSDP=1.16D-06 MaxDP=2.04D-05 DE=-5.74D-08 OVMax= 6.38D-05

 Cycle   9  Pass 1  IDiag  1:
 E= -579.690932054565     Delta-E=       -0.000000002022 Rises=F Damp=F
 DIIS: error= 5.92D-07 at cycle   9 NSaved=   9.
 NSaved= 9 IEnMin= 9 EnMin= -579.690932054565     IErMin= 9 ErrMin= 5.92D-07
 ErrMax= 5.92D-07  0.00D+00 EMaxC= 1.00D-01 BMatC= 1.43D-10 BMatP= 1.34D-09
 IDIUse=1 WtCom= 1.00D+00 WtEn= 0.00D+00
 Coeff-Com: -0.713D-04 0.133D-02-0.410D-02-0.184D-03 0.169D-01 0.254D-01
 Coeff-Com: -0.120D+00-0.556D-01 0.114D+01
 Coeff:     -0.713D-04 0.133D-02-0.410D-02-0.184D-03 0.169D-01 0.254D-01
 Coeff:     -0.120D+00-0.556D-01 0.114D+01
 Gap=     0.133 Goal=   None    Shift=    0.000
 Gap=     0.224 Goal=   None    Shift=    0.000
 RMSDP=3.56D-07 MaxDP=5.13D-06 DE=-2.02D-09 OVMax= 1.87D-05

 Cycle  10  Pass 1  IDiag  1:
 E= -579.690932054892     Delta-E=       -0.000000000326 Rises=F Damp=F
 DIIS: error= 3.93D-07 at cycle  10 NSaved=  10.
 NSaved=10 IEnMin=10 EnMin= -579.690932054892     IErMin=10 ErrMin= 3.93D-07
 ErrMax= 3.93D-07  0.00D+00 EMaxC= 1.00D-01 BMatC= 3.88D-11 BMatP= 1.43D-10
 IDIUse=1 WtCom= 1.00D+00 WtEn= 0.00D+00
 Coeff-Com: -0.292D-04 0.112D-03 0.278D-03-0.273D-02-0.206D-02 0.248D-02
 Coeff-Com:  0.268D-01-0.456D-01-0.487D+00 0.151D+01
 Coeff:     -0.292D-04 0.112D-03 0.278D-03-0.273D-02-0.206D-02 0.248D-02
 Coeff:      0.268D-01-0.456D-01-0.487D+00 0.151D+01
 Gap=     0.133 Goal=   None    Shift=    0.000
 Gap=     0.224 Goal=   None    Shift=    0.000
 RMSDP=2.51D-07 MaxDP=4.34D-06 DE=-3.26D-10 OVMax= 1.66D-05

 Cycle  11  Pass 1  IDiag  1:
 E= -579.690932055020     Delta-E=       -0.000000000128 Rises=F Damp=F
 DIIS: error= 2.09D-07 at cycle  11 NSaved=  11.
 NSaved=11 IEnMin=11 EnMin= -579.690932055020     IErMin=11 ErrMin= 2.09D-07
 ErrMax= 2.09D-07  0.00D+00 EMaxC= 1.00D-01 BMatC= 9.04D-12 BMatP= 3.88D-11
 IDIUse=1 WtCom= 1.00D+00 WtEn= 0.00D+00
 Coeff-Com:  0.318D-04-0.404D-03 0.103D-02 0.134D-02-0.352D-02-0.906D-02
 Coeff-Com:  0.209D-01 0.435D-01-0.598D-01-0.791D+00 0.180D+01
 Coeff:      0.318D-04-0.404D-03 0.103D-02 0.134D-02-0.352D-02-0.906D-02
 Coeff:      0.209D-01 0.435D-01-0.598D-01-0.791D+00 0.180D+01
 Gap=     0.133 Goal=   None    Shift=    0.000
 Gap=     0.224 Goal=   None    Shift=    0.000
 RMSDP=1.95D-07 MaxDP=3.56D-06 DE=-1.28D-10 OVMax= 1.29D-05

 Cycle  12  Pass 1  IDiag  1:
 E= -579.690932055060     Delta-E=       -0.000000000041 Rises=F Damp=F
 DIIS: error= 5.26D-08 at cycle  12 NSaved=  12.
 NSaved=12 IEnMin=12 EnMin= -579.690932055060     IErMin=12 ErrMin= 5.26D-08
 ErrMax= 5.26D-08  0.00D+00 EMaxC= 1.00D-01 BMatC= 8.54D-13 BMatP= 9.04D-12
 IDIUse=1 WtCom= 1.00D+00 WtEn= 0.00D+00
 Coeff-Com:  0.159D-05 0.137D-04-0.110D-03 0.201D-03 0.922D-03-0.573D-03
 Coeff-Com: -0.485D-02 0.491D-02 0.707D-01-0.208D+00-0.271D-01 0.116D+01
 Coeff:      0.159D-05 0.137D-04-0.110D-03 0.201D-03 0.922D-03-0.573D-03
 Coeff:     -0.485D-02 0.491D-02 0.707D-01-0.208D+00-0.271D-01 0.116D+01
 Gap=     0.133 Goal=   None    Shift=    0.000
 Gap=     0.224 Goal=   None    Shift=    0.000
 RMSDP=5.08D-08 MaxDP=9.99D-07 DE=-4.06D-11 OVMax= 3.71D-06

 Cycle  13  Pass 1  IDiag  1:
 E= -579.690932055062     Delta-E=       -0.000000000002 Rises=F Damp=F
 DIIS: error= 1.39D-08 at cycle  13 NSaved=  13.
 NSaved=13 IEnMin=13 EnMin= -579.690932055062     IErMin=13 ErrMin= 1.39D-08
 ErrMax= 1.39D-08  0.00D+00 EMaxC= 1.00D-01 BMatC= 5.90D-14 BMatP= 8.54D-13
 IDIUse=1 WtCom= 1.00D+00 WtEn= 0.00D+00
 Coeff-Com: -0.275D-05 0.333D-04-0.780D-04-0.111D-03 0.175D-03 0.849D-03
 Coeff-Com: -0.183D-02-0.145D-02-0.538D-02 0.105D+00-0.172D+00-0.140D+00
 Coeff-Com:  0.122D+01
 Coeff:     -0.275D-05 0.333D-04-0.780D-04-0.111D-03 0.175D-03 0.849D-03
 Coeff:     -0.183D-02-0.145D-02-0.538D-02 0.105D+00-0.172D+00-0.140D+00
 Coeff:      0.122D+01
 Gap=     0.133 Goal=   None    Shift=    0.000
 Gap=     0.224 Goal=   None    Shift=    0.000
 RMSDP=8.50D-09 MaxDP=1.48D-07 DE=-2.16D-12 OVMax= 4.63D-07

 SCF Done:  E(UM062X) =  -579.690932055     A.U. after   13 cycles
            NFock= 13  Conv=0.85D-08     -V/T= 2.0015
 <Sx>= 0.0000 <Sy>= 0.0000 <Sz>= 0.5000 <S**2>= 0.7790 S= 0.5144
 <L.S>=  0.00000000000    
 KE= 5.787993647234D+02 PE=-1.458771326729D+03 EE= 2.582719528225D+02
 Annihilation of the first spin contaminant:
 S**2 before annihilation     0.7790,   after     0.7501
 Leave Link  502 at Mon Apr 21 20:39:23 2025, MaxMem=   536870912 cpu:              52.5 elap:               7.0
 (Enter /home/szhao/Apps/g16/l701.exe)
 ... and contract with generalized density number  0.
 Compute integral first derivatives.
 Leave Link  701 at Mon Apr 21 20:39:24 2025, MaxMem=   536870912 cpu:               1.9 elap:               0.3
 (Enter /home/szhao/Apps/g16/l702.exe)
 L702 exits ... SP integral derivatives will be done elsewhere.
 Leave Link  702 at Mon Apr 21 20:39:24 2025, MaxMem=   536870912 cpu:               0.5 elap:               0.1
 (Enter /home/szhao/Apps/g16/l703.exe)
 Integral derivatives from FoFJK, PRISM(SPDF).
 Compute integral first derivatives, UseDBF=F ICtDFT=           0.
 Calling FoFJK, ICntrl=      2127 FMM=F ISym2X=0 I1Cent= 0 IOpClX= 1 NMat=1 NMatS=1 NMatT=0.
 FoFJK:  IHMeth= 1 ICntrl=    2127 DoSepK=F KAlg= 0 I1Cent=           0 FoldK=F
 IRaf=         0 NMat=       1 IRICut=       1 DoRegI=T DoRafI=F ISym2E= 0 IDoP0=0 IntGTp=1.
 FoFCou: FMM=F IPFlag=           0 FMFlag=      100000 FMFlg1=         800
         NFxFlg=           0 DoJE=F BraDBF=F KetDBF=F FulRan=T
         wScrn=  0.000000 ICntrl=      2127 IOpCl=  1 I1Cent=           0 NGrid=           0
         NMat0=    1 NMatS0=      1 NMatT0=    0 NMatD0=    1 NMtDS0=    0 NMtDT0=    0
 Symmetry not used in FoFCou.
 Leave Link  703 at Mon Apr 21 20:39:25 2025, MaxMem=   536870912 cpu:               5.6 elap:               0.7
 (Enter /home/szhao/Apps/g16/l716.exe)
 Dipole        =-1.91520465D-02-2.41990085D-02 1.17734279D-12
 -------------------------------------------------------------------
 Center     Atomic                   Forces (Hartrees/Bohr)
 Number     Number              X              Y              Z
 -------------------------------------------------------------------
      1       14          -0.000000000   -0.000000000   -0.000000000
      2       14          -0.000000000   -0.000000000   -0.000000000
      3        1           0.004032798   -0.000937430    0.000000000
      4        1          -0.004690905    0.003049523   -0.000000000
 -------------------------------------------------------------------
 Cartesian Forces:  Max     0.004690905 RMS     0.002009279
 Leave Link  716 at Mon Apr 21 20:39:25 2025, MaxMem=   536870912 cpu:               0.7 elap:               0.1
 (Enter /home/szhao/Apps/g16/l103.exe)

 GradGradGradGradGradGradGradGradGradGradGradGradGradGradGradGradGradGrad
 Berny optimization.
 Using GEDIIS/GDIIS optimizer.
 FormGI is forming the generalized inverse of G from B-inverse, IUseBI=4.
 Internal  Forces:  Max     0.015910244 RMS     0.006779701
 Search for a local minimum.
 Step number   2 out of a maximum of   21
 All quantities printed in internal units (Hartrees-Bohrs-Radians)
 RMS Force = .88518D-02 SwitMx=.10000D-02 MixMth= 1
 Mixed Optimization -- RFO/linear search
 Update second derivatives using D2CorX and points    1    2
 DE= -3.62D-03 DEPred=-2.21D-03 R= 1.64D+00
 TightC=F SS=  1.41D+00  RLast= 1.61D-01 DXNew= 5.0454D-01 4.8204D-01
 Trust test= 1.64D+00 RLast= 1.61D-01 DXMaxT set to 4.82D-01
 The second derivative matrix:
                          X1        Y1        Z1        X2        Y2
           X1           0.50194
           Y1           0.00975   0.54905
           Z1          -0.00000  -0.00000   0.50000
           X2          -0.00623  -0.03133   0.00000   0.52001
           Y2          -0.01060  -0.05332   0.00000   0.03406   0.55796
           Z2          -0.00000  -0.00000   0.00000   0.00000   0.00000
           R1          -0.00822  -0.04136   0.00000   0.02642   0.04496
           R2          -0.01041  -0.05234   0.00000   0.03343   0.05690
           A1           0.00390   0.01961  -0.00000  -0.01253  -0.02132
           A2           0.00406   0.02043  -0.00000  -0.01305  -0.02221
           D1          -0.00000  -0.00000   0.00000   0.00000   0.00000
                          Z2        R1        R2        A1        A2
           Z2           0.50000
           R1           0.00000   0.19865
           R2           0.00000   0.03128   0.21655
           A1          -0.00000   0.00602   0.00829   0.11657
           A2          -0.00000   0.01174   0.01572  -0.05767   0.08394
           D1           0.00000   0.00000   0.00000  -0.00000  -0.00000
                          D1
           D1           0.00230
 ITU=  1  0
 Use linear search instead of GDIIS.
     Eigenvalues ---    0.00230   0.03796   0.16004   0.17507   0.24265
     Eigenvalues --- 1000.000001000.000001000.000001000.000001000.00000
     Eigenvalues --- 1000.00000
 RFO step:  Lambda=-3.44700012D-03 EMin= 2.30000000D-03
 Quartic linear search produced a step of  2.00000.
 Iteration  1 RMS(Cart)=  0.22265571 RMS(Int)=  0.06986240
 Iteration  2 RMS(Cart)=  0.19533951 RMS(Int)=  0.01778496
 Iteration  3 RMS(Cart)=  0.01783661 RMS(Int)=  0.00000973
 Iteration  4 RMS(Cart)=  0.00002783 RMS(Int)=  0.00000000
 Iteration  5 RMS(Cart)=  0.00000000 RMS(Int)=  0.00000000
 ITry= 1 IFail=0 DXMaxC= 9.65D-01 DCOld= 1.00D+10 DXMaxT= 4.82D-01 DXLimC= 3.00D+00 Rises=F
 Variable       Old X    -DE/DX   Delta X   Delta X   Delta X     New X
                                 (Linear)    (Quad)   (Total)
    X1       -3.40713   0.00403   0.00000   0.00000   0.00000  -3.40713
    Y1        0.00000  -0.00500   0.00000   0.00000   0.00000   0.00000
    Z1        0.00000  -0.00000   0.00000   0.00000   0.00000   0.00000
    X2        3.40713  -0.00469   0.00000   0.00000   0.00000   3.40713
    Y2        0.00000   0.00711   0.00000   0.00000   0.00000   0.00000
    Z2        0.00000  -0.00000   0.00000   0.00000   0.00000   0.00000
    R1        2.85029  -0.00031   0.07424  -0.05064   0.02360   2.87390
    R2        2.84538  -0.00020   0.09418  -0.06089   0.03328   2.87866
    A1        1.87318  -0.01177  -0.18316  -0.09933  -0.28249   1.59068
    A2        2.18212  -0.01591  -0.23525  -0.14191  -0.37716   1.80496
    D1        3.14159  -0.00000   0.00000  -0.00000   0.00000   3.14159
         Item               Value     Threshold  Converged?
 Maximum Force            0.015910     0.000450     NO 
 RMS     Force            0.008852     0.000300     NO 
 Maximum Displacement     0.965169     0.001800     NO 
 RMS     Displacement     0.404791     0.001200     NO 
 Predicted change in Energy=-5.054897D-03
 Lowest energy point so far.  Saving SCF results.
 GradGradGradGradGradGradGradGradGradGradGradGradGradGradGradGradGradGrad

 Leave Link  103 at Mon Apr 21 20:39:25 2025, MaxMem=   536870912 cpu:               0.3 elap:               0.2
 (Enter /home/szhao/Apps/g16/l202.exe)
                          Input orientation:                          
 ---------------------------------------------------------------------
 Center     Atomic      Atomic             Coordinates (Angstroms)
 Number     Number       Type             X           Y           Z
 ---------------------------------------------------------------------
      1         14           0       -1.802975    0.000000    0.000000
      2         14           0        1.802975    0.000000    0.000000
      3          1           0       -1.833218   -1.520501   -0.000000
      4          1           0        2.156429    1.481749    0.000000
 ---------------------------------------------------------------------
                    Distance matrix (angstroms):
                    1          2          3          4
     1  Si   0.000000
     2  Si   3.605949   0.000000
     3  H    1.520802   3.941296   0.000000
     4  H    4.227583   1.523322   4.993074   0.000000
 Symmetry turned off by external request.
 Stoichiometry    H2Si2(1+,2)
 Framework group  C1[X(H2Si2)]
 Deg. of freedom     6
 Full point group                 C1      NOp   1
 Rotational constants (GHZ):         116.2627468           2.6576826           2.5982876
 Leave Link  202 at Mon Apr 21 20:39:26 2025, MaxMem=   536870912 cpu:               0.3 elap:               0.2
 (Enter /home/szhao/Apps/g16/l301.exe)
 Standard basis: 6-311+G(d,p) (5D, 7F)
 Ernie: Thresh=  0.10000D-02 Tol=  0.10000D-05 Strict=F.
    72 basis functions,   116 primitive gaussians,    74 cartesian basis functions
    15 alpha electrons       14 beta electrons
       nuclear repulsion energy        42.2361354713 Hartrees.
 IExCor= 4336 DFT=T Ex+Corr=M062X ExCW=0 ScaHFX=  0.540000
 ScaDFX=  1.000000  1.000000  1.000000  1.000000 ScalE2=  1.000000  1.000000
 IRadAn=      7 IRanWt=     -1 IRanGd=            0 ICorTp=0 IEmpDi=  4
 NAtoms=    4 NActive=    4 NUniq=    4 SFac= 1.00D+00 NAtFMM=   60 NAOKFM=F Big=F
 Integral buffers will be    131072 words long.
 Raffenetti 2 integral format.
 Two-electron integral symmetry is turned off.
 Leave Link  301 at Mon Apr 21 20:39:26 2025, MaxMem=   536870912 cpu:               0.8 elap:               0.1
 (Enter /home/szhao/Apps/g16/l302.exe)
 NPDir=0 NMtPBC=     1 NCelOv=     1 NCel=       1 NClECP=     1 NCelD=      1
         NCelK=      1 NCelE2=     1 NClLst=     1 CellRange=     0.0.
 One-electron integrals computed using PRISM.
 NBasis=    72 RedAO= T EigKep=  8.33D-03  NBF=    72
 NBsUse=    72 1.00D-06 EigRej= -1.00D+00 NBFU=    72
 Precomputing XC quadrature grid using
 IXCGrd= 4 IRadAn=           7 IRanWt=          -1 IRanGd=           0 AccXCQ= 0.00D+00.
 Generated NRdTot=       0 NPtTot=           0 NUsed=           0 NTot=          32
 NSgBfM=    70    70    70    70    70 MxSgAt=     4 MxSgA2=     4.
 Leave Link  302 at Mon Apr 21 20:39:27 2025, MaxMem=   536870912 cpu:               1.5 elap:               0.3
 (Enter /home/szhao/Apps/g16/l303.exe)
 DipDrv:  MaxL=1.
 Leave Link  303 at Mon Apr 21 20:39:27 2025, MaxMem=   536870912 cpu:               0.3 elap:               0.1
 (Enter /home/szhao/Apps/g16/l401.exe)
 Initial guess from the checkpoint file:  "opt.chk"
 B after Tr=    -0.006037    0.010070    0.000000
         Rot=    0.999951   -0.000000    0.000000   -0.009894 Ang=  -1.13 deg.
 Guess basis will be translated and rotated to current coordinates.
 JPrj=2 DoOrth=T DoCkMO=T.
 Initial guess <Sx>= 0.0000 <Sy>= 0.0000 <Sz>= 0.5000 <S**2>= 0.7783 S= 0.5140
 Generating alternative initial guess.
 ExpMin= 3.31D-02 ExpMax= 6.94D+04 ExpMxC= 2.33D+03 IAcc=3 IRadAn=         5 AccDes= 0.00D+00
 Harris functional with IExCor= 1009 and IRadAn=       5 diagonalized for initial guess.
 HarFok:  IExCor= 1009 AccDes= 0.00D+00 IRadAn=         5 IDoV= 1 UseB2=F ITyADJ=14
 ICtDFT=  3500011 ScaDFX=  1.000000  1.000000  1.000000  1.000000
 FoFCou: FMM=F IPFlag=           0 FMFlag=      100000 FMFlg1=           0
         NFxFlg=           0 DoJE=T BraDBF=F KetDBF=T FulRan=T
         wScrn=  0.000000 ICntrl=       500 IOpCl=  0 I1Cent=   200000004 NGrid=           0
         NMat0=    1 NMatS0=      1 NMatT0=    0 NMatD0=    1 NMtDS0=    0 NMtDT0=    0
 Symmetry not used in FoFCou.
 Harris En= -579.468176462876    
 Leave Link  401 at Mon Apr 21 20:39:28 2025, MaxMem=   536870912 cpu:               3.0 elap:               0.6
 (Enter /home/szhao/Apps/g16/l502.exe)
 Keep R1 and R2 ints in memory in canonical form, NReq=14118010.
 FoFCou: FMM=F IPFlag=           0 FMFlag=           0 FMFlg1=           0
         NFxFlg=           0 DoJE=F BraDBF=F KetDBF=F FulRan=T
         wScrn=  0.000000 ICntrl=       600 IOpCl=  0 I1Cent=           0 NGrid=           0
         NMat0=    1 NMatS0=   2628 NMatT0=    0 NMatD0=    1 NMtDS0=    0 NMtDT0=    0
 Symmetry not used in FoFCou.
 Two-electron integral symmetry not used.
 UHF open shell SCF:
 Using DIIS extrapolation, IDIIS=  1040.
 NGot=   536870912 LenX=   529949706 LenY=   529943789
 Requested convergence on RMS density matrix=1.00D-08 within 128 cycles.
 Requested convergence on MAX density matrix=1.00D-06.
 Requested convergence on             energy=1.00D-06.
 No special actions if energy rises.

 Cycle   1  Pass 1  IDiag  1:
 E= -579.676074169777    
 DIIS: error= 1.27D-02 at cycle   1 NSaved=   1.
 NSaved= 1 IEnMin= 1 EnMin= -579.676074169777     IErMin= 1 ErrMin= 1.27D-02
 ErrMax= 1.27D-02  0.00D+00 EMaxC= 1.00D-01 BMatC= 2.02D-02 BMatP= 2.02D-02
 IDIUse=3 WtCom= 8.73D-01 WtEn= 1.27D-01
 Coeff-Com:  0.100D+01
 Coeff-En:   0.100D+01
 Coeff:      0.100D+01
 Recover alternate guess density for next cycle.
 RMSDP=6.02D-03 MaxDP=1.37D-01              OVMax= 0.00D+00

 Cycle   2  Pass 1  IDiag  1:
 E= -579.648918318935     Delta-E=        0.027155850841 Rises=F Damp=F
 Switch densities from cycles 1 and 2 for lowest energy.
 DIIS: error= 2.83D-02 at cycle   2 NSaved=   2.
 NSaved= 2 IEnMin= 1 EnMin= -579.676074169777     IErMin= 1 ErrMin= 1.27D-02
 ErrMax= 2.83D-02  0.00D+00 EMaxC= 1.00D+00 BMatC= 2.29D-01 BMatP= 2.02D-02
 IDIUse=1 WtCom= 1.00D+00 WtEn= 0.00D+00
 Coeff-Com:  0.931D+00 0.690D-01
 Coeff:      0.931D+00 0.690D-01
 Gap=     0.136 Goal=   None    Shift=    0.000
 Gap=     0.208 Goal=   None    Shift=    0.000
 RMSDP=1.69D-03 MaxDP=2.56D-02 DE= 2.72D-02 OVMax= 1.85D-01

 Cycle   3  Pass 1  IDiag  1:
 E= -579.693095118643     Delta-E=       -0.044176799708 Rises=F Damp=F
 DIIS: error= 3.08D-03 at cycle   3 NSaved=   3.
 NSaved= 3 IEnMin= 3 EnMin= -579.693095118643     IErMin= 3 ErrMin= 3.08D-03
 ErrMax= 3.08D-03  0.00D+00 EMaxC= 1.00D+00 BMatC= 1.49D-03 BMatP= 2.02D-02
 IDIUse=1 WtCom= 1.00D+00 WtEn= 0.00D+00
 Coeff-Com: -0.190D+00 0.131D-01 0.118D+01
 Coeff:     -0.190D+00 0.131D-01 0.118D+01
 Gap=     0.142 Goal=   None    Shift=    0.000
 Gap=     0.224 Goal=   None    Shift=    0.000
 RMSDP=7.64D-04 MaxDP=1.22D-02 DE=-4.42D-02 OVMax= 5.22D-02

 Cycle   4  Pass 1  IDiag  1:
 E= -579.695537355885     Delta-E=       -0.002442237242 Rises=F Damp=F
 DIIS: error= 1.41D-03 at cycle   4 NSaved=   4.
 NSaved= 4 IEnMin= 4 EnMin= -579.695537355885     IErMin= 4 ErrMin= 1.41D-03
 ErrMax= 1.41D-03  0.00D+00 EMaxC= 1.00D+00 BMatC= 1.59D-04 BMatP= 1.49D-03
 IDIUse=1 WtCom= 1.00D+00 WtEn= 0.00D+00
 Coeff-Com:  0.492D-02-0.584D-02-0.279D+00 0.128D+01
 Coeff:      0.492D-02-0.584D-02-0.279D+00 0.128D+01
 Gap=     0.143 Goal=   None    Shift=    0.000
 Gap=     0.226 Goal=   None    Shift=    0.000
 RMSDP=3.24D-04 MaxDP=4.75D-03 DE=-2.44D-03 OVMax= 2.71D-02

 Cycle   5  Pass 1  IDiag  1:
 E= -579.695891352219     Delta-E=       -0.000353996334 Rises=F Damp=F
 DIIS: error= 5.36D-04 at cycle   5 NSaved=   5.
 NSaved= 5 IEnMin= 5 EnMin= -579.695891352219     IErMin= 5 ErrMin= 5.36D-04
 ErrMax= 5.36D-04  0.00D+00 EMaxC= 1.00D+00 BMatC= 2.28D-05 BMatP= 1.59D-04
 IDIUse=1 WtCom= 1.00D+00 WtEn= 0.00D+00
 Coeff-Com:  0.145D-01 0.295D-03-0.118D+00-0.277D-01 0.113D+01
 Coeff:      0.145D-01 0.295D-03-0.118D+00-0.277D-01 0.113D+01
 Gap=     0.143 Goal=   None    Shift=    0.000
 Gap=     0.227 Goal=   None    Shift=    0.000
 RMSDP=1.33D-04 MaxDP=2.26D-03 DE=-3.54D-04 OVMax= 1.20D-02

 Cycle   6  Pass 1  IDiag  1:
 E= -579.695944534266     Delta-E=       -0.000053182046 Rises=F Damp=F
 DIIS: error= 1.80D-04 at cycle   6 NSaved=   6.
 NSaved= 6 IEnMin= 6 EnMin= -579.695944534266     IErMin= 6 ErrMin= 1.80D-04
 ErrMax= 1.80D-04  0.00D+00 EMaxC= 1.00D+00 BMatC= 3.86D-06 BMatP= 2.28D-05
 IDIUse=1 WtCom= 1.00D+00 WtEn= 0.00D+00
 Coeff-Com: -0.163D-02 0.904D-03 0.356D-01-0.102D+00-0.131D+00 0.120D+01
 Coeff:     -0.163D-02 0.904D-03 0.356D-01-0.102D+00-0.131D+00 0.120D+01
 Gap=     0.143 Goal=   None    Shift=    0.000
 Gap=     0.227 Goal=   None    Shift=    0.000
 RMSDP=5.96D-05 MaxDP=1.07D-03 DE=-5.32D-05 OVMax= 4.32D-03

 Cycle   7  Pass 1  IDiag  1:
 E= -579.695955250292     Delta-E=       -0.000010716026 Rises=F Damp=F
 DIIS: error= 6.66D-05 at cycle   7 NSaved=   7.
 NSaved= 7 IEnMin= 7 EnMin= -579.695955250292     IErMin= 7 ErrMin= 6.66D-05
 ErrMax= 6.66D-05  0.00D+00 EMaxC= 1.00D+00 BMatC= 1.30D-06 BMatP= 3.86D-06
 IDIUse=1 WtCom= 1.00D+00 WtEn= 0.00D+00
 Coeff-Com: -0.350D-02-0.128D-03 0.333D-01-0.172D-01-0.296D+00 0.192D+00
 Coeff-Com:  0.109D+01
 Coeff:     -0.350D-02-0.128D-03 0.333D-01-0.172D-01-0.296D+00 0.192D+00
 Coeff:      0.109D+01
 Gap=     0.143 Goal=   None    Shift=    0.000
 Gap=     0.227 Goal=   None    Shift=    0.000
 RMSDP=4.00D-05 MaxDP=7.51D-04 DE=-1.07D-05 OVMax= 2.46D-03

 Cycle   8  Pass 1  IDiag  1:
 E= -579.695958521471     Delta-E=       -0.000003271180 Rises=F Damp=F
 DIIS: error= 2.50D-05 at cycle   8 NSaved=   8.
 NSaved= 8 IEnMin= 8 EnMin= -579.695958521471     IErMin= 8 ErrMin= 2.50D-05
 ErrMax= 2.50D-05  0.00D+00 EMaxC= 1.00D+00 BMatC= 2.06D-07 BMatP= 1.30D-06
 IDIUse=1 WtCom= 1.00D+00 WtEn= 0.00D+00
 Coeff-Com:  0.435D-03-0.231D-03-0.872D-02 0.202D-01 0.358D-01-0.246D+00
 Coeff-Com: -0.923D-01 0.129D+01
 Coeff:      0.435D-03-0.231D-03-0.872D-02 0.202D-01 0.358D-01-0.246D+00
 Coeff:     -0.923D-01 0.129D+01
 Gap=     0.143 Goal=   None    Shift=    0.000
 Gap=     0.227 Goal=   None    Shift=    0.000
 RMSDP=2.02D-05 MaxDP=3.98D-04 DE=-3.27D-06 OVMax= 1.04D-03

 Cycle   9  Pass 1  IDiag  1:
 E= -579.695959077684     Delta-E=       -0.000000556213 Rises=F Damp=F
 DIIS: error= 8.18D-06 at cycle   9 NSaved=   9.
 NSaved= 9 IEnMin= 9 EnMin= -579.695959077684     IErMin= 9 ErrMin= 8.18D-06
 ErrMax= 8.18D-06  0.00D+00 EMaxC= 1.00D+00 BMatC= 2.12D-08 BMatP= 2.06D-07
 IDIUse=1 WtCom= 1.00D+00 WtEn= 0.00D+00
 Coeff-Com:  0.379D-03 0.744D-04-0.498D-02 0.851D-02 0.359D-01-0.398D-01
 Coeff-Com: -0.158D+00 0.932D-01 0.106D+01
 Coeff:      0.379D-03 0.744D-04-0.498D-02 0.851D-02 0.359D-01-0.398D-01
 Coeff:     -0.158D+00 0.932D-01 0.106D+01
 Gap=     0.143 Goal=   None    Shift=    0.000
 Gap=     0.227 Goal=   None    Shift=    0.000
 RMSDP=4.75D-06 MaxDP=1.22D-04 DE=-5.56D-07 OVMax= 2.36D-04

 Cycle  10  Pass 1  IDiag  1:
 E= -579.695959110033     Delta-E=       -0.000000032349 Rises=F Damp=F
 DIIS: error= 2.32D-06 at cycle  10 NSaved=  10.
 NSaved=10 IEnMin=10 EnMin= -579.695959110033     IErMin=10 ErrMin= 2.32D-06
 ErrMax= 2.32D-06  0.00D+00 EMaxC= 1.00D+00 BMatC= 1.48D-09 BMatP= 2.12D-08
 IDIUse=1 WtCom= 1.00D+00 WtEn= 0.00D+00
 Coeff-Com: -0.433D-04 0.641D-05 0.104D-02-0.267D-02-0.821D-02 0.265D-01
 Coeff-Com:  0.262D-01-0.101D+00-0.133D+00 0.119D+01
 Coeff:     -0.433D-04 0.641D-05 0.104D-02-0.267D-02-0.821D-02 0.265D-01
 Coeff:      0.262D-01-0.101D+00-0.133D+00 0.119D+01
 Gap=     0.143 Goal=   None    Shift=    0.000
 Gap=     0.227 Goal=   None    Shift=    0.000
 RMSDP=1.02D-06 MaxDP=2.02D-05 DE=-3.23D-08 OVMax= 6.23D-05

 Cycle  11  Pass 1  IDiag  1:
 E= -579.695959113068     Delta-E=       -0.000000003035 Rises=F Damp=F
 DIIS: error= 1.34D-06 at cycle  11 NSaved=  11.
 NSaved=11 IEnMin=11 EnMin= -579.695959113068     IErMin=11 ErrMin= 1.34D-06
 ErrMax= 1.34D-06  0.00D+00 EMaxC= 1.00D+00 BMatC= 3.50D-10 BMatP= 1.48D-09
 IDIUse=1 WtCom= 1.00D+00 WtEn= 0.00D+00
 Coeff-Com: -0.459D-04-0.119D-04 0.451D-03-0.623D-03-0.170D-02-0.987D-04
 Coeff-Com:  0.973D-02 0.923D-02-0.831D-01-0.143D+00 0.121D+01
 Coeff:     -0.459D-04-0.119D-04 0.451D-03-0.623D-03-0.170D-02-0.987D-04
 Coeff:      0.973D-02 0.923D-02-0.831D-01-0.143D+00 0.121D+01
 Gap=     0.143 Goal=   None    Shift=    0.000
 Gap=     0.227 Goal=   None    Shift=    0.000
 RMSDP=5.58D-07 MaxDP=1.14D-05 DE=-3.04D-09 OVMax= 3.55D-05

 Cycle  12  Pass 1  IDiag  1:
 E= -579.695959114022     Delta-E=       -0.000000000954 Rises=F Damp=F
 DIIS: error= 8.24D-07 at cycle  12 NSaved=  12.
 NSaved=12 IEnMin=12 EnMin= -579.695959114022     IErMin=12 ErrMin= 8.24D-07
 ErrMax= 8.24D-07  0.00D+00 EMaxC= 1.00D+00 BMatC= 1.08D-10 BMatP= 3.50D-10
 IDIUse=1 WtCom= 1.00D+00 WtEn= 0.00D+00
 Coeff-Com:  0.330D-04 0.427D-05-0.449D-03 0.913D-03 0.234D-02-0.736D-02
 Coeff-Com: -0.974D-02 0.267D-01 0.550D-01-0.283D+00-0.660D+00 0.188D+01
 Coeff:      0.330D-04 0.427D-05-0.449D-03 0.913D-03 0.234D-02-0.736D-02
 Coeff:     -0.974D-02 0.267D-01 0.550D-01-0.283D+00-0.660D+00 0.188D+01
 Gap=     0.143 Goal=   None    Shift=    0.000
 Gap=     0.227 Goal=   None    Shift=    0.000
 RMSDP=6.41D-07 MaxDP=1.37D-05 DE=-9.54D-10 OVMax= 4.48D-05

 Cycle  13  Pass 1  IDiag  1:
 E= -579.695959114497     Delta-E=       -0.000000000475 Rises=F Damp=F
 DIIS: error= 1.57D-07 at cycle  13 NSaved=  13.
 NSaved=13 IEnMin=13 EnMin= -579.695959114497     IErMin=13 ErrMin= 1.57D-07
 ErrMax= 1.57D-07  0.00D+00 EMaxC= 1.00D+00 BMatC= 7.02D-12 BMatP= 1.08D-10
 IDIUse=1 WtCom= 1.00D+00 WtEn= 0.00D+00
 Coeff-Com: -0.709D-06-0.277D-07 0.225D-04-0.442D-04-0.159D-03 0.107D-02
 Coeff-Com:  0.305D-03-0.365D-02-0.580D-02 0.822D-01 0.162D-01-0.432D+00
 Coeff-Com:  0.134D+01
 Coeff:     -0.709D-06-0.277D-07 0.225D-04-0.442D-04-0.159D-03 0.107D-02
 Coeff:      0.305D-03-0.365D-02-0.580D-02 0.822D-01 0.162D-01-0.432D+00
 Coeff:      0.134D+01
 Gap=     0.143 Goal=   None    Shift=    0.000
 Gap=     0.227 Goal=   None    Shift=    0.000
 RMSDP=1.38D-07 MaxDP=3.21D-06 DE=-4.75D-10 OVMax= 9.47D-06

 Cycle  14  Pass 1  IDiag  1:
 E= -579.695959114520     Delta-E=       -0.000000000023 Rises=F Damp=F
 DIIS: error= 3.17D-08 at cycle  14 NSaved=  14.
 NSaved=14 IEnMin=14 EnMin= -579.695959114520     IErMin=14 ErrMin= 3.17D-08
 ErrMax= 3.17D-08  0.00D+00 EMaxC= 1.00D+00 BMatC= 4.32D-13 BMatP= 7.02D-12
 IDIUse=1 WtCom= 1.00D+00 WtEn= 0.00D+00
 Coeff-Com: -0.255D-05-0.306D-06 0.311D-04-0.748D-04-0.147D-03 0.425D-03
 Coeff-Com:  0.561D-03-0.148D-02-0.360D-02 0.128D-01 0.333D-01-0.628D-01
 Coeff-Com: -0.231D+00 0.125D+01
 Coeff:     -0.255D-05-0.306D-06 0.311D-04-0.748D-04-0.147D-03 0.425D-03
 Coeff:      0.561D-03-0.148D-02-0.360D-02 0.128D-01 0.333D-01-0.628D-01
 Coeff:     -0.231D+00 0.125D+01
 Gap=     0.143 Goal=   None    Shift=    0.000
 Gap=     0.227 Goal=   None    Shift=    0.000
 RMSDP=3.15D-08 MaxDP=5.54D-07 DE=-2.25D-11 OVMax= 1.91D-06

 Cycle  15  Pass 1  IDiag  1:
 E= -579.695959114521     Delta-E=       -0.000000000001 Rises=F Damp=F
 DIIS: error= 9.03D-09 at cycle  15 NSaved=  15.
 NSaved=15 IEnMin=15 EnMin= -579.695959114521     IErMin=15 ErrMin= 9.03D-09
 ErrMax= 9.03D-09  0.00D+00 EMaxC= 1.00D+00 BMatC= 2.91D-14 BMatP= 4.32D-13
 IDIUse=1 WtCom= 1.00D+00 WtEn= 0.00D+00
 Coeff-Com:  0.396D-06 0.602D-07-0.588D-05 0.115D-04 0.221D-04-0.864D-04
 Coeff-Com: -0.149D-03 0.515D-03 0.622D-03-0.644D-02-0.850D-02 0.440D-01
 Coeff-Com: -0.901D-01-0.589D-01 0.112D+01
 Coeff:      0.396D-06 0.602D-07-0.588D-05 0.115D-04 0.221D-04-0.864D-04
 Coeff:     -0.149D-03 0.515D-03 0.622D-03-0.644D-02-0.850D-02 0.440D-01
 Coeff:     -0.901D-01-0.589D-01 0.112D+01
 Gap=     0.143 Goal=   None    Shift=    0.000
 Gap=     0.227 Goal=   None    Shift=    0.000
 RMSDP=5.25D-09 MaxDP=1.50D-07 DE=-1.14D-12 OVMax= 2.37D-07

 SCF Done:  E(UM062X) =  -579.695959115     A.U. after   15 cycles
            NFock= 15  Conv=0.53D-08     -V/T= 2.0016
 <Sx>= 0.0000 <Sy>= 0.0000 <Sz>= 0.5000 <S**2>= 0.7707 S= 0.5103
 <L.S>=  0.00000000000    
 KE= 5.787708061312D+02 PE=-1.459134965138D+03 EE= 2.584320644206D+02
 Annihilation of the first spin contaminant:
 S**2 before annihilation     0.7707,   after     0.7501
 Leave Link  502 at Mon Apr 21 20:39:36 2025, MaxMem=   536870912 cpu:              60.1 elap:               8.1
 (Enter /home/szhao/Apps/g16/l701.exe)
 ... and contract with generalized density number  0.
 Compute integral first derivatives.
 Leave Link  701 at Mon Apr 21 20:39:36 2025, MaxMem=   536870912 cpu:               1.1 elap:               0.2
 (Enter /home/szhao/Apps/g16/l702.exe)
 L702 exits ... SP integral derivatives will be done elsewhere.
 Leave Link  702 at Mon Apr 21 20:39:37 2025, MaxMem=   536870912 cpu:               0.8 elap:               0.1
 (Enter /home/szhao/Apps/g16/l703.exe)
 Integral derivatives from FoFJK, PRISM(SPDF).
 Compute integral first derivatives, UseDBF=F ICtDFT=           0.
 Calling FoFJK, ICntrl=      2127 FMM=F ISym2X=0 I1Cent= 0 IOpClX= 1 NMat=1 NMatS=1 NMatT=0.
 FoFJK:  IHMeth= 1 ICntrl=    2127 DoSepK=F KAlg= 0 I1Cent=           0 FoldK=F
 IRaf=         0 NMat=       1 IRICut=       1 DoRegI=T DoRafI=F ISym2E= 0 IDoP0=0 IntGTp=1.
 FoFCou: FMM=F IPFlag=           0 FMFlag=      100000 FMFlg1=         800
         NFxFlg=           0 DoJE=F BraDBF=F KetDBF=F FulRan=T
         wScrn=  0.000000 ICntrl=      2127 IOpCl=  1 I1Cent=           0 NGrid=           0
         NMat0=    1 NMatS0=      1 NMatT0=    0 NMatD0=    1 NMtDS0=    0 NMtDT0=    0
 Symmetry not used in FoFCou.
 Leave Link  703 at Mon Apr 21 20:39:38 2025, MaxMem=   536870912 cpu:               6.2 elap:               0.8
 (Enter /home/szhao/Apps/g16/l716.exe)
 Dipole        =-3.51854069D-03-1.49721758D-02 1.03176903D-10
 -------------------------------------------------------------------
 Center     Atomic                   Forces (Hartrees/Bohr)
 Number     Number              X              Y              Z
 -------------------------------------------------------------------
      1       14          -0.000000000   -0.000000000   -0.000000000
      2       14          -0.000000000   -0.000000000   -0.000000000
      3        1          -0.000206702    0.004486482    0.000000000
      4        1          -0.002250568   -0.005289489   -0.000000000
 -------------------------------------------------------------------
 Cartesian Forces:  Max     0.005289489 RMS     0.002105845
 Leave Link  716 at Mon Apr 21 20:39:38 2025, MaxMem=   536870912 cpu:               0.5 elap:               0.1
 (Enter /home/szhao/Apps/g16/l103.exe)

 GradGradGradGradGradGradGradGradGradGradGradGradGradGradGradGradGradGrad
 Berny optimization.
 Using GEDIIS/GDIIS optimizer.
 FormGI is forming the generalized inverse of G from B-inverse, IUseBI=4.
 Internal  Forces:  Max     0.005667330 RMS     0.003140071
 Search for a local minimum.
 Step number   3 out of a maximum of   21
 All quantities printed in internal units (Hartrees-Bohrs-Radians)
 RMS Force = .34811D-02 SwitMx=.10000D-02 MixMth= 1
 Mixed Optimization -- RFO/linear search
 Update second derivatives using D2CorX and points    2    3
 DE= -5.03D-03 DEPred=-5.05D-03 R= 9.94D-01
 TightC=F SS=  1.41D+00  RLast= 4.73D-01 DXNew= 8.1069D-01 1.4190D+00
 Trust test= 9.94D-01 RLast= 4.73D-01 DXMaxT set to 8.11D-01
 The second derivative matrix:
                          X1        Y1        Z1        X2        Y2
           X1           0.50280
           Y1          -0.00063   0.52874
           Z1          -0.00000   0.00000   0.50000
           X2          -0.00360  -0.00966   0.00000   0.50847
           Y2           0.00171  -0.03345  -0.00000   0.00991   0.53927
           Z2           0.00000  -0.00000  -0.00000  -0.00000   0.00000
           R1          -0.00636  -0.04648  -0.00000   0.02574   0.05153
           R2          -0.00789  -0.05868  -0.00000   0.03231   0.06510
           A1          -0.00619   0.01263   0.00000   0.00386  -0.01676
           A2          -0.00770   0.00686   0.00000   0.00804  -0.01061
[...]
 NSaved= 9 IEnMin= 8 EnMin= -579.696333445718     IErMin= 9 ErrMin= 1.35D-08
 ErrMax= 1.35D-08  0.00D+00 EMaxC= 1.00D-01 BMatC= 2.90D-14 BMatP= 1.91D-13
 IDIUse=1 WtCom= 1.00D+00 WtEn= 0.00D+00
 Coeff-Com: -0.708D-04 0.223D-02-0.635D-02-0.394D-02 0.202D-01 0.283D-01
 Coeff-Com: -0.136D+00-0.149D+00 0.124D+01
 Coeff:     -0.708D-04 0.223D-02-0.635D-02-0.394D-02 0.202D-01 0.283D-01
 Coeff:     -0.136D+00-0.149D+00 0.124D+01
 Gap=     0.144 Goal=   None    Shift=    0.000
 Gap=     0.227 Goal=   None    Shift=    0.000
 RMSDP=5.08D-09 MaxDP=1.12D-07 DE= 2.27D-13 OVMax= 3.22D-07

 SCF Done:  E(UM062X) =  -579.696333446     A.U. after    9 cycles
            NFock=  9  Conv=0.51D-08     -V/T= 2.0015
 <Sx>= 0.0000 <Sy>= 0.0000 <Sz>= 0.5000 <S**2>= 0.7704 S= 0.5102
 <L.S>=  0.00000000000    
 KE= 5.787996036722D+02 PE=-1.459428780402D+03 EE= 2.585644056140D+02
 Annihilation of the first spin contaminant:
 S**2 before annihilation     0.7704,   after     0.7501
 Leave Link  502 at Mon Apr 21 20:40:50 2025, MaxMem=   536870912 cpu:              36.1 elap:               4.8
 (Enter /home/szhao/Apps/g16/l701.exe)
 ... and contract with generalized density number  0.
 Compute integral first derivatives.
 Leave Link  701 at Mon Apr 21 20:40:51 2025, MaxMem=   536870912 cpu:               1.5 elap:               0.3
 (Enter /home/szhao/Apps/g16/l702.exe)
 L702 exits ... SP integral derivatives will be done elsewhere.
 Leave Link  702 at Mon Apr 21 20:40:51 2025, MaxMem=   536870912 cpu:               0.4 elap:               0.1
 (Enter /home/szhao/Apps/g16/l703.exe)
 Integral derivatives from FoFJK, PRISM(SPDF).
 Compute integral first derivatives, UseDBF=F ICtDFT=           0.
 Calling FoFJK, ICntrl=      2127 FMM=F ISym2X=0 I1Cent= 0 IOpClX= 1 NMat=1 NMatS=1 NMatT=0.
 FoFJK:  IHMeth= 1 ICntrl=    2127 DoSepK=F KAlg= 0 I1Cent=           0 FoldK=F
 IRaf=         0 NMat=       1 IRICut=       1 DoRegI=T DoRafI=F ISym2E= 0 IDoP0=0 IntGTp=1.
 FoFCou: FMM=F IPFlag=           0 FMFlag=      100000 FMFlg1=         800
         NFxFlg=           0 DoJE=F BraDBF=F KetDBF=F FulRan=T
         wScrn=  0.000000 ICntrl=      2127 IOpCl=  1 I1Cent=           0 NGrid=           0
         NMat0=    1 NMatS0=      1 NMatT0=    0 NMatD0=    1 NMtDS0=    0 NMtDT0=    0
 Symmetry not used in FoFCou.
 Leave Link  703 at Mon Apr 21 20:40:52 2025, MaxMem=   536870912 cpu:               6.4 elap:               0.9
 (Enter /home/szhao/Apps/g16/l716.exe)
 Dipole        = 8.11210298D-07 4.08819770D-06 1.74363491D-08
 -------------------------------------------------------------------
 Center     Atomic                   Forces (Hartrees/Bohr)
 Number     Number              X              Y              Z
 -------------------------------------------------------------------
      1       14          -0.000000000   -0.000000000   -0.000000000
      2       14          -0.000000000   -0.000000000   -0.000000000
      3        1           0.000000393    0.000000599    0.000000000
      4        1          -0.000000046   -0.000000431    0.000000000
 -------------------------------------------------------------------
 Cartesian Forces:  Max     0.000000599 RMS     0.000000242
 Leave Link  716 at Mon Apr 21 20:40:52 2025, MaxMem=   536870912 cpu:               0.6 elap:               0.1
 (Enter /home/szhao/Apps/g16/l103.exe)

 GradGradGradGradGradGradGradGradGradGradGradGradGradGradGradGradGradGrad
 Berny optimization.
 Using GEDIIS/GDIIS optimizer.
 FormGI is forming the generalized inverse of G from B-inverse, IUseBI=4.
 Internal  Forces:  Max     0.000000940 RMS     0.000000419
 Search for a local minimum.
 Step number  10 out of a maximum of   21
 All quantities printed in internal units (Hartrees-Bohrs-Radians)
 RMS Force = .54349D-06 SwitMx=.10000D-02 MixMth= 2
 Mixed Optimization -- En-DIIS/RFO-DIIS
 Swapping is turned off.
 Update second derivatives using D2CorX and points    2    3    4    5    6
                                                      7    8   10
 DE= -3.75D-08 DEPred=-3.70D-08 R= 1.01D+00
 Trust test= 1.01D+00 RLast= 1.09D-03 DXMaxT set to 8.11D-01
 The second derivative matrix:
                          X1        Y1        Z1        X2        Y2
           X1           0.50389
           Y1           0.00410   0.56801
           Z1           0.00000   0.00000   0.50000
           X2          -0.00196  -0.00685  -0.00000   0.50410
           Y2          -0.00550  -0.08758  -0.00000   0.00816   0.61301
           Z2           0.00000   0.00000   0.00000   0.00000  -0.00000
           R1          -0.00688  -0.06699  -0.00000   0.00994   0.08561
           R2          -0.00855  -0.08388  -0.00000   0.01100   0.10817
           A1          -0.00958   0.00748  -0.00000   0.00309  -0.00889
           A2          -0.00393   0.00679   0.00000   0.00900  -0.01063
           D1           0.00000   0.00000   0.00000  -0.00000  -0.00000
                          Z2        R1        R2        A1        A2
           Z2           0.50000
           R1          -0.00000   0.17532
           R2          -0.00000   0.00060   0.17646
           A1          -0.00000   0.00113  -0.00052   0.02848
           A2           0.00000  -0.00074   0.00136   0.01153   0.02825
           D1           0.00000  -0.00000  -0.00000  -0.00000   0.00000
                          D1
           D1           0.00230
 ITU=  0  1  1  1  1  1  1  1  1  0
     Eigenvalues ---    0.00230   0.01681   0.03990   0.17508   0.17672
     Eigenvalues --- 1000.000001000.000001000.000001000.000001000.00000
     Eigenvalues --- 1000.00000
 En-DIIS/RFO-DIIS/Sim-DIIS IScMMF=       -3 using points:    10    9    8    7
 RFO step:  Lambda=-1.44510727D-11.
 NNeg= 0 NGDIIS= 4 SimSw=  2.50D-01 Rises=F DC= -3.75D-08 SmlDif=  1.00D-05
 NRisDI= 0 DoIntr=F SqrtH=F CThrHd= 10.0 CDAdj=  3.0
 RMS Error=  0.1287144208D-04 NUsed= 4 OKEnD=F EnDIS=F
 InvSVX:  RCond= 1.22D-09 Info=           0 Equed=N FErr=  2.69D-14 BErr=  4.07D-17
 DIIS inversion failure, remove point   4.
 InvSVX:  RCond= 1.94D-07 Info=           0 Equed=N FErr=  1.30D-15 BErr=  7.99D-17
 RFO-DIIS uses    3 points instead of    4
 DidBck=F Rises=F RFO-DIIS coefs:    1.02918   -0.03302    0.00384    0.00000
 Iteration  1 RMS(Cart)=  0.00003678 RMS(Int)=  0.00000000
 Iteration  2 RMS(Cart)=  0.00000000 RMS(Int)=  0.00000000
 ITry= 1 IFail=0 DXMaxC= 1.13D-04 DCOld= 1.00D+10 DXMaxT= 8.11D-01 DXLimC= 3.00D+00 Rises=F
 Variable       Old X    -DE/DX   Delta X   Delta X   Delta X     New X
                                 (Linear)    (Quad)   (Total)
    X1       -3.40713   0.00000   0.00000   0.00000   0.00000  -3.40713
    Y1        0.00000   0.00000   0.00000   0.00000   0.00000   0.00000
    Z1        0.00000   0.00000   0.00000   0.00000   0.00000   0.00000
    X2        3.40713  -0.00000  -0.00000   0.00000   0.00000   3.40713
    Y2        0.00000  -0.00000   0.00000   0.00000   0.00000   0.00000
    Z2        0.00000   0.00000   0.00000   0.00000   0.00000   0.00000
    R1        2.84647  -0.00000  -0.00000  -0.00000  -0.00000   2.84647
    R2        2.84647  -0.00000  -0.00000   0.00000  -0.00000   2.84647
    A1        1.67294  -0.00000  -0.00004  -0.00000  -0.00004   1.67290
    A2        1.67289  -0.00000   0.00002  -0.00000   0.00002   1.67290
    D1       -3.14159   0.00000   0.00000   0.00000   0.00000  -3.14159
         Item               Value     Threshold  Converged?
 Maximum Force            0.000001     0.000450     YES
 RMS     Force            0.000001     0.000300     YES
 Maximum Displacement     0.000113     0.001800     YES
 RMS     Displacement     0.000037     0.001200     YES
 Predicted change in Energy=-2.009730D-11
 Optimization completed.
    -- Stationary point found.
                           ----------------------------
                           !   Optimized Parameters   !
                           ! (Angstroms and Degrees)  !
 --------------------------                            --------------------------
 ! Name  Definition              Value          Derivative Info.                !
 --------------------------------------------------------------------------------
 ! X1    R(1,-1)                -1.803          -DE/DX =    0.0                 !
 ! Y1    R(1,-2)                 0.0            -DE/DX =    0.0                 !
 ! Z1    R(1,-3)                 0.0            -DE/DX =    0.0                 !
 ! X2    R(2,-1)                 1.803          -DE/DX =    0.0                 !
 ! Y2    R(2,-2)                 0.0            -DE/DX =    0.0                 !
 ! Z2    R(2,-3)                 0.0            -DE/DX =    0.0                 !
 ! R1    R(1,3)                  1.5063         -DE/DX =    0.0                 !
 ! R2    R(2,4)                  1.5063         -DE/DX =    0.0                 !
 ! A1    A(2,1,3)               95.8526         -DE/DX =    0.0                 !
 ! A2    A(1,2,4)               95.8493         -DE/DX =    0.0                 !
 ! D1    D(3,1,2,4)           -180.0            -DE/DX =    0.0                 !
 --------------------------------------------------------------------------------
 Lowest energy point so far.  Saving SCF results.
 Largest change from initial coordinates is atom    4       0.921 Angstoms.
 GradGradGradGradGradGradGradGradGradGradGradGradGradGradGradGradGradGrad

 Leave Link  103 at Mon Apr 21 20:40:53 2025, MaxMem=   536870912 cpu:               0.6 elap:               0.2
 (Enter /home/szhao/Apps/g16/l202.exe)
                          Input orientation:                          
 ---------------------------------------------------------------------
 Center     Atomic      Atomic             Coordinates (Angstroms)
 Number     Number       Type             X           Y           Z
 ---------------------------------------------------------------------
      1         14           0       -1.802975    0.000000    0.000000
      2         14           0        1.802975    0.000000    0.000000
      3          1           0       -1.956570   -1.498438    0.000000
      4          1           0        1.956483    1.498446    0.000000
 ---------------------------------------------------------------------
                    Distance matrix (angstroms):
                    1          2          3          4
     1  Si   0.000000
     2  Si   3.605949   0.000000
     3  H    1.506289   4.047158   0.000000
     4  H    4.047080   1.506289   4.928823   0.000000
 Symmetry turned off by external request.
 Stoichiometry    H2Si2(1+,2)
 Framework group  C1[X(H2Si2)]
 Deg. of freedom     6
 Full point group                 C1      NOp   1
 Rotational constants (GHZ):         116.5190186           2.6627687           2.6032770
 Leave Link  202 at Mon Apr 21 20:40:53 2025, MaxMem=   536870912 cpu:               0.6 elap:               0.1
 (Enter /home/szhao/Apps/g16/l601.exe)
 Copying SCF densities to generalized density rwf, IOpCl= 1 IROHF=0.

 **********************************************************************

            Population analysis using the SCF density.

 **********************************************************************

 Alpha  occ. eigenvalues --  -67.27085 -67.27085  -5.81254  -5.81253  -4.12361
 Alpha  occ. eigenvalues --   -4.12361  -4.12285  -4.12284  -4.11626  -4.11626
 Alpha  occ. eigenvalues --   -0.76884  -0.75348  -0.53250  -0.52865  -0.43329
 Alpha virt. eigenvalues --   -0.28952  -0.27055  -0.26839  -0.11571  -0.10123
 Alpha virt. eigenvalues --   -0.08900  -0.08604  -0.08105  -0.07189  -0.05723
 Alpha virt. eigenvalues --   -0.05703  -0.05516  -0.02927   0.12621   0.14190
 Alpha virt. eigenvalues --    0.14241   0.15712   0.16608   0.17716   0.20341
 Alpha virt. eigenvalues --    0.25006   0.27175   0.30585   0.38178   0.38194
 Alpha virt. eigenvalues --    0.38337   0.38556   0.39000   0.39147   0.40086
 Alpha virt. eigenvalues --    0.47637   0.63113   0.64157   0.99436   1.00781
 Alpha virt. eigenvalues --    1.01344   1.01592   1.02461   1.04387   1.28505
 Alpha virt. eigenvalues --    1.29002   1.29081   1.30553   1.77645   1.77995
 Alpha virt. eigenvalues --    2.41353   2.43147   5.19851   5.26595  11.18753
 Alpha virt. eigenvalues --   11.20199  11.21329  11.23135  11.28618  11.28914
 Alpha virt. eigenvalues --  140.74019 140.82661
  Beta  occ. eigenvalues --  -67.26822 -67.26822  -5.81171  -5.81169  -4.12218
  Beta  occ. eigenvalues --   -4.12218  -4.11687  -4.11687  -4.11482  -4.11482
  Beta  occ. eigenvalues --   -0.74889  -0.73635  -0.52744  -0.51709
  Beta virt. eigenvalues --   -0.28971  -0.28499  -0.26297  -0.22171  -0.13055
  Beta virt. eigenvalues --   -0.10343  -0.08891  -0.08885  -0.08260  -0.06886
  Beta virt. eigenvalues --   -0.05630  -0.05442  -0.05350  -0.02704   0.11446
  Beta virt. eigenvalues --    0.12389   0.12490   0.15436   0.15790   0.16302
  Beta virt. eigenvalues --    0.19697   0.24787   0.27155   0.30921   0.39477
  Beta virt. eigenvalues --    0.39478   0.41109   0.41564   0.42329   0.42921
  Beta virt. eigenvalues --    0.43303   0.49228   0.64162   0.65243   0.99876
  Beta virt. eigenvalues --    1.00704   1.00930   1.02356   1.02365   1.06588
  Beta virt. eigenvalues --    1.29371   1.29397   1.29447   1.31461   1.78579
  Beta virt. eigenvalues --    1.78948   2.41804   2.43679   5.20844   5.27515
  Beta virt. eigenvalues --   11.20582  11.20762  11.21744  11.25345  11.29055
  Beta virt. eigenvalues --   11.29467 140.74474 140.83113
          Condensed to atoms (all electrons):
               1          2          3          4
     1  Si  13.089219   0.109979   0.227837  -0.001635
     2  Si   0.109979  13.089213  -0.001635   0.227834
     3  H    0.227837  -0.001635   0.848137   0.000264
     4  H   -0.001635   0.227834   0.000264   0.848142
          Atomic-Atomic Spin Densities.
               1          2          3          4
     1  Si   0.425423   0.086277   0.000341  -0.001177
     2  Si   0.086277   0.425411  -0.001177   0.000342
     3  H    0.000341  -0.001177  -0.010030   0.000007
     4  H   -0.001177   0.000342   0.000007  -0.010030
 Mulliken charges and spin densities:
               1          2
     1  Si   0.574600   0.510864
     2  Si   0.574609   0.510853
     3  H   -0.074603  -0.010859
     4  H   -0.074606  -0.010858
 Sum of Mulliken charges =   1.00000   1.00000
 Mulliken charges and spin densities with hydrogens summed into heavy atoms:
               1          2
     1  Si   0.499997   0.500006
     2  Si   0.500003   0.499994
 Electronic spatial extent (au):  <R**2>=            406.3500
 Charge=              1.0000 electrons
 Dipole moment (field-independent basis, Debye):
    X=              0.0000    Y=              0.0000    Z=              0.0000  Tot=              0.0000
 Quadrupole moment (field-independent basis, Debye-Ang):
   XX=             -3.8912   YY=            -27.3887   ZZ=            -19.7438
   XY=              1.8646   XZ=              0.0000   YZ=             -0.0000
 Traceless Quadrupole moment (field-independent basis, Debye-Ang):
   XX=             13.1167   YY=            -10.3807   ZZ=             -2.7359
   XY=              1.8646   XZ=              0.0000   YZ=             -0.0000
 Octapole moment (field-independent basis, Debye-Ang**2):
  XXX=              0.0002  YYY=             -0.0001  ZZZ=             -0.0000  XYY=              0.0001
  XXY=              0.0004  XXZ=              0.0000  XZZ=              0.0001  YZZ=              0.0000
  YYZ=             -0.0000  XYZ=             -0.0000
 Hexadecapole moment (field-independent basis, Debye-Ang**3):
 XXXX=           -414.3518 YYYY=            -72.5824 ZZZZ=            -24.8023 XXXY=             -5.9813
 XXXZ=             -0.0000 YYYX=            -15.1502 YYYZ=             -0.0000 ZZZX=             -0.0000
 ZZZY=             -0.0000 XXYY=           -106.7045 XXZZ=            -72.3806 YYZZ=            -16.3392
 XXYZ=             -0.0000 YYXZ=             -0.0000 ZZXY=             -3.1641
 N-N= 4.236843766973D+01 E-N=-1.459428780446D+03  KE= 5.787996036722D+02
                          Isotropic Fermi Contact Couplings
        Atom                 a.u.       MegaHertz       Gauss      10(-4) cm-1
     1  Si(29)             0.03525     -31.32344     -11.17698     -10.44838
     2  Si(29)             0.03524     -31.31848     -11.17521     -10.44672
     3  H(1)              -0.00247     -11.04225      -3.94015      -3.68330
     4  H(1)              -0.00247     -11.04247      -3.94023      -3.68337
 --------------------------------------------------------
       Center         ----  Spin Dipole Couplings  ----
                      3XX-RR        3YY-RR        3ZZ-RR
 --------------------------------------------------------
     1   Atom        0.873294     -0.369973     -0.503321
     2   Atom        0.873339     -0.370029     -0.503310
     3   Atom        0.004633      0.008664     -0.013297
     4   Atom        0.004633      0.008664     -0.013297
 --------------------------------------------------------
                        XY            XZ            YZ
 --------------------------------------------------------
     1   Atom       -0.504670      0.000000     -0.000000
     2   Atom       -0.504573     -0.000000      0.000000
     3   Atom        0.001615      0.000000     -0.000000
     4   Atom        0.001614     -0.000000      0.000000
 --------------------------------------------------------


 ---------------------------------------------------------------------------------
              Anisotropic Spin Dipole Couplings in Principal Axis System
 ---------------------------------------------------------------------------------

       Atom             a.u.   MegaHertz   Gauss  10(-4) cm-1        Axes

              Baa    -0.5490    58.244    20.783    19.428  0.3344  0.9424 -0.0000
     1 Si(29) Bbb    -0.5033    53.394    19.052    17.810 -0.0000  0.0000  1.0000
              Bcc     1.0524  -111.639   -39.835   -37.239  0.9424 -0.3344  0.0000
 
              Baa    -0.5490    58.243    20.782    19.428  0.3343  0.9425  0.0000
     2 Si(29) Bbb    -0.5033    53.393    19.052    17.810  0.0000 -0.0000  1.0000
              Bcc     1.0523  -111.636   -39.834   -37.238  0.9425 -0.3343 -0.0000
 
              Baa    -0.0133    -7.095    -2.532    -2.367 -0.0000  0.0000  1.0000
     3 H(1)   Bbb     0.0041     2.169     0.774     0.724  0.9435 -0.3313  0.0000
              Bcc     0.0092     4.925     1.757     1.643  0.3313  0.9435 -0.0000
 
              Baa    -0.0133    -7.095    -2.532    -2.367  0.0000 -0.0000  1.0000
     4 H(1)   Bbb     0.0041     2.170     0.774     0.724  0.9435 -0.3313 -0.0000
              Bcc     0.0092     4.925     1.757     1.643  0.3313  0.9435  0.0000
 

 ---------------------------------------------------------------------------------

 No NMR shielding tensors so no spin-rotation constants.
 Leave Link  601 at Mon Apr 21 20:40:54 2025, MaxMem=   536870912 cpu:               2.6 elap:               0.4
 (Enter /home/szhao/Apps/g16/l9999.exe)
 1\1\GINC-NODE05\FOpt\UM062X\6-311+G(d,p)\H2Si2(1+,2)\SZHAO\21-Apr-2025
 \0\\#p opt UM062X/6-311+G** nosymm int=superfine\\Title Card Required\
 \1,2\Si,-1.80297457,0.,0.\Si,1.80297457,0.,0.\H,-1.95656991,-1.4984375
 076,0.0000000506\H,1.9564826464,1.4984461026,0.0000000764\\Version=ES6
 4L-G16RevA.03\HF=-579.6963334\S2=0.770418\S2-1=0.\S2A=0.750074\RMSD=5.
 084e-09\RMSF=2.419e-07\Dipole=0.0000063,0.0000035,0.\Quadrupole=9.7519
 171,-7.717833,-2.0340841,1.386298,0.,0.\PG=C01 [X(H2Si2)]\\@


     SCHOPENHAUER'S LAW OF ENTROPY
 IF YOU PUT A SPOONFUL OF WINE IN A BARREL FULL
 OF SEWAGE, YOU GET SEWAGE.
 IF YOU PUT A SPOONFUL OF SEWAGE IN A BARREL FULL
 OF WINE, YOU GET SEWAGE.
 Job cpu time:       0 days  0 hours 10 minutes 52.9 seconds.
 Elapsed time:       0 days  0 hours  1 minutes 33.4 seconds.
 File lengths (MBytes):  RWF=     22 Int=      0 D2E=      0 Chk=      2 Scr=      2
 Normal termination of Gaussian 16 at Mon Apr 21 20:40:54 2025.
