Title Card Required                                                     
FOpt      UM062X                                                      6-311+G(d,p)        
Number of atoms                            I                4
Info1-9                                    I   N=           9
          13          13           0           0           0         110
           2          18        -502
Full Title                                 C   N=           2
Title Card Required     
Route                                      C   N=           5
#p opt UM062X/6-311+G** nosymm int=superfine SCF=NoVarAcc   
Charge                                     I                0
Multiplicity                               I                1
Number of electrons                        I               14
Number of alpha electrons                  I                7
Number of beta electrons                   I                7
Number of basis functions                  I               56
Number of independent functions            I               56
Number of point charges in /Mol/           I                0
Number of translation vectors              I                0
Atomic numbers                             I   N=           4
           6           6           1           1
Nuclear charges                            R   N=           4
  6.00000000E+00  6.00000000E+00  1.00000000E+00  1.00000000E+00
Current cartesian coordinates              R   N=          12
 -1.40456256E+01  0.00000000E+00  0.00000000E+00  1.40456256E+01  0.00000000E+00
  0.00000000E+00 -1.61605342E+01 -1.11677009E-05  1.11618815E-05  1.61605341E+01
  7.43965109E-06 -7.44555484E-06
Number of symbols in /Mol/                 I                0
Force Field                                I                0
Atom Types                                 C   N=           4
                                                
Int Atom Types                             I   N=           4
           0           0           0           0
MM charges                                 R   N=           4
  0.00000000E+00  0.00000000E+00  0.00000000E+00  0.00000000E+00
Integer atomic weights                     I   N=           4
          12          12           1           1
Real atomic weights                        R   N=           4
  1.20000000E+01  1.20000000E+01  1.00782504E+00  1.00782504E+00
Atom fragment info                         I   N=           4
           0           0           0           0
Atom residue num                           I   N=           4
           0           0           0           0
Nuclear spins                              I   N=           4
           0           0           1           1
Nuclear ZEff                               R   N=           4
 -3.60000000E+00 -3.60000000E+00 -1.00000000E+00 -1.00000000E+00
Nuclear ZNuc                               R   N=           4
  6.00000000E+00  6.00000000E+00  1.00000000E+00  1.00000000E+00
Nuclear QMom                               R   N=           4
  0.00000000E+00  0.00000000E+00  0.00000000E+00  0.00000000E+00
Nuclear GFac                               R   N=           4
  0.00000000E+00  0.00000000E+00  2.79284600E+00  2.79284600E+00
MicOpt                                     I   N=           4
          -2          -2          -1          -1
Number of residues                         I                0
Number of secondary structures             I                0
Redundant internal dimensions              I   N=           4
          12           8           4           0
Redundant internal coordinate indices      I   N=          48
           1          -1           0           0           1          -2
           0           0           1          -3           0           0
           2          -1           0           0           2          -2
           0           0           2          -3           0           0
           1           3           0           0           2           4
           0           0           2           1           3          -4
           1           2           4          -4           2           1
           3          -8           1           2           4          -8
Redundant internal coordinates             R   N=          12
 -1.40456256E+01  0.00000000E+00  0.00000000E+00  1.40456256E+01  0.00000000E+00
  0.00000000E+00  2.11490860E+00  2.11490850E+00  3.14158738E+00  3.14158913E+00
  3.14158737E+00  3.14158914E+00
ZRed-IntVec                                I   N=          12
          -1          -1          -1          -1          -1          -1
           0           0           0           0           0           0
ZRed-FPVec                                 R   N=          12
  0.00000000E+00  0.00000000E+00  0.00000000E+00  0.00000000E+00  0.00000000E+00
  0.00000000E+00  0.00000000E+00  0.00000000E+00  0.00000000E+00  0.00000000E+00
  0.00000000E+00  0.00000000E+00
ZRed-Constraint1                           R   N=          12
 -1.40456256E+01  0.00000000E+00  0.00000000E+00  1.40456256E+01  0.00000000E+00
  0.00000000E+00  2.12190166E+00  2.12189977E+00  3.14158731E+00  3.14158909E+00
  3.14158731E+00  3.14158909E+00
ZRed-Constraint2                           R   N=          12
 -1.40456256E+01  0.00000000E+00  0.00000000E+00  1.40456256E+01  0.00000000E+00
  0.00000000E+00  0.00000000E+00  0.00000000E+00  0.00000000E+00  0.00000000E+00
  0.00000000E+00  0.00000000E+00
Number of contracted shells                I               20
Number of primitive shells                 I               38
Pure/Cartesian d shells                    I                0
Pure/Cartesian f shells                    I                0
Highest angular momentum                   I                2
Largest degree of contraction              I                6
Shell types                                I   N=          20
           0          -1          -1          -1          -1          -2
           0          -1          -1          -1          -1          -2
           0           0           0           1           0           0
           0           1
Number of primitives per shell             I   N=          20
           6           3           1           1           1           1
           6           3           1           1           1           1
           3           1           1           1           3           1
           1           1
Shell to atom map                          I   N=          20
           1           1           1           1           1           1
           2           2           2           2           2           2
           3           3           3           3           4           4
           4           4
Primitive exponents                        R   N=          38
  4.56324000E+03  6.82024000E+02  1.54973000E+02  4.44553000E+01  1.30290000E+01
  1.82773000E+00  2.09642000E+01  4.80331000E+00  1.45933000E+00  4.83456000E-01
  1.45585000E-01  4.38000000E-02  6.26000000E-01  4.56324000E+03  6.82024000E+02
  1.54973000E+02  4.44553000E+01  1.30290000E+01  1.82773000E+00  2.09642000E+01
  4.80331000E+00  1.45933000E+00  4.83456000E-01  1.45585000E-01  4.38000000E-02
  6.26000000E-01  3.38650000E+01  5.09479000E+00  1.15879000E+00  3.25840000E-01
  1.02741000E-01  7.50000000E-01  3.38650000E+01  5.09479000E+00  1.15879000E+00
  3.25840000E-01  1.02741000E-01  7.50000000E-01
Contraction coefficients                   R   N=          38
  1.96665025E-03  1.52306019E-02  7.61269097E-02  2.60801033E-01  6.16462078E-01
  2.21006028E-01  1.14660081E-01  9.19999648E-01 -3.03068213E-03  1.00000000E+00
  1.00000000E+00  1.00000000E+00  1.00000000E+00  1.96665025E-03  1.52306019E-02
  7.61269097E-02  2.60801033E-01  6.16462078E-01  2.21006028E-01  1.14660081E-01
  9.19999648E-01 -3.03068213E-03  1.00000000E+00  1.00000000E+00  1.00000000E+00
  1.00000000E+00  2.54938145E-02  1.90373109E-01  8.52161486E-01  1.00000000E+00
  1.00000000E+00  1.00000000E+00  2.54938145E-02  1.90373109E-01  8.52161486E-01
  1.00000000E+00  1.00000000E+00  1.00000000E+00
P(S=P) Contraction coefficients            R   N=          38
  0.00000000E+00  0.00000000E+00  0.00000000E+00  0.00000000E+00  0.00000000E+00
  0.00000000E+00  4.02486927E-02  2.37593957E-01  8.15853851E-01  1.00000000E+00
  1.00000000E+00  1.00000000E+00  0.00000000E+00  0.00000000E+00  0.00000000E+00
  0.00000000E+00  0.00000000E+00  0.00000000E+00  0.00000000E+00  4.02486927E-02
  2.37593957E-01  8.15853851E-01  1.00000000E+00  1.00000000E+00  1.00000000E+00
  0.00000000E+00  0.00000000E+00  0.00000000E+00  0.00000000E+00  0.00000000E+00
  0.00000000E+00  0.00000000E+00  0.00000000E+00  0.00000000E+00  0.00000000E+00
  0.00000000E+00  0.00000000E+00  0.00000000E+00
Coordinates of each shell                  R   N=          60
 -1.40456256E+01  0.00000000E+00  0.00000000E+00 -1.40456256E+01  0.00000000E+00
  0.00000000E+00 -1.40456256E+01  0.00000000E+00  0.00000000E+00 -1.40456256E+01
  0.00000000E+00  0.00000000E+00 -1.40456256E+01  0.00000000E+00  0.00000000E+00
 -1.40456256E+01  0.00000000E+00  0.00000000E+00  1.40456256E+01  0.00000000E+00
  0.00000000E+00  1.40456256E+01  0.00000000E+00  0.00000000E+00  1.40456256E+01
  0.00000000E+00  0.00000000E+00  1.40456256E+01  0.00000000E+00  0.00000000E+00
  1.40456256E+01  0.00000000E+00  0.00000000E+00  1.40456256E+01  0.00000000E+00
  0.00000000E+00 -1.61605342E+01 -1.11677009E-05  1.11618815E-05 -1.61605342E+01
 -1.11677009E-05  1.11618815E-05 -1.61605342E+01 -1.11677009E-05  1.11618815E-05
 -1.61605342E+01 -1.11677009E-05  1.11618815E-05  1.61605341E+01  7.43965109E-06
 -7.44555484E-06  1.61605341E+01  7.43965109E-06 -7.44555484E-06  1.61605341E+01
  7.43965109E-06 -7.44555484E-06  1.61605341E+01  7.43965109E-06 -7.44555484E-06
Num ILSW                                   I              100
ILSW                                       I   N=         100
           1           0           0           1           2           0
           0           0           0           0        4336          -1
           7           0           0           0           2           0
           0           0           0           0           1           0
           1           1           0           0           0           0
           0           0      100000           0          -1           0
           0           0           0           0           0           0
           0           0           0           1           0           0
           0 -2000000000           1           0           0           0
           0           0           4          52           0           0
           0           0          55           0           0           0
           0           0           0           4           0           1
           0           0           0           0           0           0
           0           0           0           0           0           0
           0           0           0           0           0           0
           0           0           0           0           0           0
           0           0           0           0
Num RLSW                                   I               52
RLSW                                       R   N=          52
  1.00000000E+00  1.00000000E+00  1.00000000E+00  1.00000000E+00  5.40000000E-01
  0.00000000E+00  0.00000000E+00  1.00000000E+00  0.00000000E+00  0.00000000E+00
  0.00000000E+00  0.00000000E+00  1.00000000E+00  0.00000000E+00  0.00000000E+00
  0.00000000E+00  0.00000000E+00  1.00000000E+00  0.00000000E+00  0.00000000E+00
  0.00000000E+00  0.00000000E+00  1.00000000E+00  0.00000000E+00  0.00000000E+00
  0.00000000E+00  0.00000000E+00  1.00000000E+00  0.00000000E+00  0.00000000E+00
  0.00000000E+00  0.00000000E+00  1.00000000E+00  0.00000000E+00  0.00000000E+00
  0.00000000E+00  0.00000000E+00  0.00000000E+00  1.00000000E+00  1.00000000E+00
  0.00000000E+00  1.00000000E+00  0.00000000E+00  0.00000000E+00  0.00000000E+00
  0.00000000E+00  0.00000000E+00  0.00000000E+00  0.00000000E+00  0.00000000E+00
  0.00000000E+00  0.00000000E+00
MxBond                                     I                2
NBond                                      I   N=           4
           2           2           1           1
IBond                                      I   N=           8
           2           3           1           4           1           0
           2           0
RBond                                      R   N=           8
  1.00000000E-01  1.00000000E+00  1.00000000E-01  1.00000000E+00  1.00000000E+00
  0.00000000E+00  1.00000000E+00  0.00000000E+00
Virial Ratio                               R      2.002787250624371E+00
SCF Energy                                 R     -7.693906687925571E+01
Total Energy                               R     -7.693906687925571E+01
S**2                                       R      1.004715294515040E+00
S**2 after annihilation                    R      3.774998316619402E-02
RMS Force                                  R      5.629414632186658E-05
RMS Density                                R      3.289262557477077E-09
Job Status                                 I                1
Nuclear derivative order                   I                1
External E-field                           R   N=          35
  0.00000000E+00  0.00000000E+00  0.00000000E+00  0.00000000E+00  0.00000000E+00
  0.00000000E+00  0.00000000E+00  0.00000000E+00  0.00000000E+00  0.00000000E+00
  0.00000000E+00  0.00000000E+00  0.00000000E+00  0.00000000E+00  0.00000000E+00
  0.00000000E+00  0.00000000E+00  0.00000000E+00  0.00000000E+00  0.00000000E+00
  0.00000000E+00  0.00000000E+00  0.00000000E+00  0.00000000E+00  0.00000000E+00
  0.00000000E+00  0.00000000E+00  0.00000000E+00  0.00000000E+00  0.00000000E+00
  0.00000000E+00  0.00000000E+00  0.00000000E+00  0.00000000E+00  0.00000000E+00
IOpCl                                      I                1
IROHF                                      I                0
Alpha Orbital Energies                     R   N=          56
 -1.06395060E+01 -1.06297841E+01 -7.32826990E-01 -6.87255012E-01 -3.87058035E-01
 -3.58644390E-01 -3.11580362E-01 -9.33661397E-02 -7.28297297E-02 -4.67558529E-02
  2.87399060E-02  3.83154911E-02  8.29505505E-02  8.37729070E-02  8.54987535E-02
  8.57759519E-02  9.15677608E-02  1.07751475E-01  1.76927969E-01  1.91436952E-01
  4.53991208E-01  4.62388503E-01  5.64253761E-01  5.82382452E-01  5.83711072E-01
  5.90453320E-01  6.16682904E-01  6.49808413E-01  6.83462927E-01  7.12604636E-01
  1.12782252E+00  1.13226239E+00  1.19626917E+00  1.21383898E+00  1.32814205E+00
  1.33930346E+00  1.37892165E+00  1.37958402E+00  1.58842941E+00  1.59646532E+00
  1.85318284E+00  1.85914733E+00  1.86984434E+00  1.88593033E+00  2.39361033E+00
  2.49100529E+00  2.49433108E+00  2.56389270E+00  2.69861057E+00  2.71480298E+00
  2.73213897E+00  2.77895945E+00  3.18423987E+00  3.23811073E+00  2.35421610E+01
  2.35545502E+01
Beta Orbital Energies                      R   N=          56
 -1.06395060E+01 -1.06297840E+01 -7.32826977E-01 -6.87255026E-01 -3.87058035E-01
 -3.58644390E-01 -3.11580359E-01 -9.33661423E-02 -7.28297275E-02 -4.67558507E-02
  2.87399073E-02  3.83155288E-02  8.29505519E-02  8.37729589E-02  8.54987595E-02
  8.57759514E-02  9.15677645E-02  1.07751476E-01  1.76927978E-01  1.91436967E-01
  4.53991204E-01  4.62388524E-01  5.64253761E-01  5.82382461E-01  5.83711076E-01
  5.90453322E-01  6.16682887E-01  6.49808427E-01  6.83462918E-01  7.12604661E-01
  1.12782251E+00  1.13226239E+00  1.19626918E+00  1.21383900E+00  1.32814206E+00
  1.33930345E+00  1.37892166E+00  1.37958402E+00  1.58842938E+00  1.59646535E+00
  1.85318280E+00  1.85914729E+00  1.86984438E+00  1.88593038E+00  2.39361028E+00
  2.49100530E+00  2.49433106E+00  2.56389282E+00  2.69861055E+00  2.71480296E+00
  2.73213897E+00  2.77895945E+00  3.18423984E+00  3.23811079E+00  2.35421609E+01
  2.35545502E+01
Alpha MO coefficients                      R   N=        3136
 -3.32440734E-10 -1.91909015E-10  8.88995054E-11 -5.47191366E-16  6.87224607E-16
 -5.29145238E-10 -1.82299621E-10  2.62837041E-15 -2.60829040E-15  1.28744245E-09
  8.76248672E-10 -2.95941206E-15  2.69065211E-15  1.03240456E-09 -2.39558749E-09
 -4.26952555E-15  4.99206371E-15  7.53070071E-11  1.03820276E-15  3.25840865E-14
 -1.30435482E-10 -1.58150112E-15  5.63919913E-01  4.64495549E-01  1.86565194E-03
  6.57747264E-09 -6.58089855E-09  1.01671125E-02  1.44147477E-03  5.06141684E-09
 -5.06740369E-09 -4.00438653E-03  1.02131959E-04  3.63288523E-10 -3.62692578E-10
  4.30565491E-04 -6.84646751E-04 -2.40989212E-09  2.41149898E-09 -5.32314896E-04
 -6.21223983E-09 -8.20115636E-05  9.24814457E-04  6.21624358E-09 -3.38032664E-10
  1.67398773E-09 -3.43803718E-09  4.12013386E-11  1.62285844E-16 -7.63586448E-16
  3.15464805E-04 -2.96178897E-03  2.33249197E-03  2.06670911E-03  7.27081032E-09
 -7.27634047E-09  5.63932379E-01  4.64948752E-01 -1.26856319E-03 -6.72236475E-09
  6.71897197E-09  8.82768966E-03 -1.26854291E-03 -6.67874277E-09  6.67519133E-09
 -4.12082335E-03  1.02502359E-04  5.33509574E-10 -5.33206996E-10  3.69619205E-04
  6.43705789E-04  3.40185925E-09 -3.40009543E-09 -4.68890021E-04 -7.69469716E-09
 -1.65479277E-04  8.11748087E-04  7.69755204E-09  3.21676793E-10  3.41802930E-10
 -8.13947488E-11  2.12293785E-16 -4.81354139E-16 -4.83358798E-10  1.71296452E-10
 -1.43411917E-15  1.73311136E-15  1.19634288E-09 -8.15345881E-10  1.74054150E-15
 -1.79437991E-15  9.65999045E-10  2.23344546E-09  2.69143882E-15 -2.84115077E-15
  6.93999726E-11  7.68474975E-16 -2.24937043E-14 -1.20203480E-10 -7.98459266E-16
  6.69284038E-04 -2.48212007E-03  2.34455330E-03 -1.48808848E-03 -7.86133523E-09
  7.85725606E-09 -3.15548753E-10  1.55789596E-09 -3.20545645E-09 -3.65561512E-11
 -2.86520508E-16  3.06190663E-16 -1.71692723E-13 -8.07715569E-12 -9.42274248E-12
  2.39312957E-16  1.54742507E-16  1.03401913E-10  2.22332378E-11 -5.27354683E-16
 -4.71307550E-16 -4.11773629E-10 -2.09605412E-10  9.22476529E-16 -3.74812264E-16
 -4.42019756E-10  9.08752216E-10  1.70849889E-15 -2.28106268E-15 -1.70842894E-11
 -4.24518061E-16  2.39770631E-13  2.95908389E-11  4.37474958E-16 -1.10045951E-01
 -1.79603452E-01  7.30840554E-02  2.57203184E-07 -2.57420961E-07  5.10606010E-01
  1.12315145E-01  3.95288103E-07 -3.95616259E-07  3.63904558E-01  4.83303100E-02
  1.69863093E-07 -1.70000858E-07  1.72845277E-04  1.68708724E-03  5.87421597E-09
 -5.87874330E-09 -6.15030307E-03 -6.99668116E-08 -1.48003458E-03  1.07034945E-02
  7.00787176E-08  5.46089243E-11 -4.25251881E-10  1.21789068E-09 -9.76834855E-12
  7.97246813E-17 -4.14512660E-17  1.38710832E-01  1.68077616E-01  1.54475090E-02
 -1.95489036E-02 -6.87855775E-08  6.88407030E-08 -1.03695655E-01 -1.65653017E-01
 -8.02786580E-02 -4.23504410E-07  4.23282959E-07  4.60701971E-01 -1.16686875E-01
 -6.15504248E-07  6.15181624E-07  3.30316344E-01 -4.93989228E-02 -2.60448483E-07
  2.60313098E-07  3.47537979E-03 -7.37337785E-04 -3.83200914E-09  3.82999739E-09
 -9.61285453E-03 -1.13746947E-07 -1.17053240E-02  1.66221336E-02  1.13723694E-07
 -9.75260995E-13 -6.19969122E-12  7.73326114E-12 -8.32110035E-17  5.40376129E-17
  6.78295430E-11 -1.71371008E-11  2.73184764E-16 -1.97103145E-16 -2.54898477E-10
  1.34967163E-10 -3.62911638E-16  3.67649901E-16 -2.19929697E-10 -5.46681745E-10
 -7.30382018E-16  7.34916686E-16 -9.02745395E-12 -8.10306457E-17 -8.50474542E-14
  1.56389185E-11  1.29609157E-16  1.57293051E-01  2.09271144E-01  3.64911983E-02
  2.66164498E-02  1.40508869E-07 -1.40435209E-07  3.12707253E-11 -2.30300226E-10
  6.82685091E-10  3.47970947E-12  1.31552688E-17 -6.55819843E-17 -5.35740201E-10
 -1.13033618E-09  1.28907008E-09  1.07011356E-14 -1.06656782E-14  6.34313890E-09
  4.08501085E-09 -3.28276007E-15  3.11777824E-15 -1.32750971E-08 -7.72178348E-09
  4.18235831E-14 -4.15732812E-14 -1.08026915E-08  3.73144334E-08  6.13973894E-14
 -6.18380561E-14 -3.53897679E-10 -5.58632273E-15 -6.92516950E-11  6.12804803E-10
  5.67861535E-15 -5.78191000E-02 -9.61945892E-02 -2.18306922E-01 -7.67572230E-07
  7.68183437E-07  2.82858476E-01 -3.20882403E-01 -1.12818015E-06  1.12908249E-06
  4.12095295E-01 -2.03579956E-01 -7.15917095E-07  7.16487540E-07  5.94275282E-02
 -1.23684864E-02 -4.37470544E-08  4.37820685E-08  1.87499447E-02  2.29402551E-07
 -2.15013238E-04 -3.24684672E-02 -2.29198560E-07  5.71250992E-10 -1.51463014E-08
  3.98581006E-08 -1.46072981E-10 -2.97540726E-15  3.22202808E-15 -1.36554677E-01
 -2.52767783E-01 -1.65436799E-01  9.58599290E-03  3.37874936E-08 -3.38150406E-08
 -6.36406378E-02 -1.03517164E-01  2.09057755E-01  1.10501576E-06 -1.10444448E-06
  2.95125615E-01  2.97983267E-01  1.57506198E-06 -1.57424822E-06  4.49192372E-01
  2.10246603E-01  1.11189172E-06 -1.11131803E-06  7.97391611E-02  2.25599999E-02
  1.19636598E-07 -1.19574712E-07  1.59757804E-02  3.40508708E-07 -9.13053107E-03
 -2.76925633E-02 -3.40749234E-07  7.25950135E-10  7.37482369E-10  3.68780836E-09
  1.79221904E-14 -1.78215714E-14  3.40604391E-09  1.47576879E-09  5.18157072E-14
 -5.23521528E-14 -3.63356186E-08  1.98317150E-08 -1.92647782E-14  1.91625661E-14
 -2.46601569E-08 -7.02783345E-08 -7.73502548E-14  7.73483986E-14 -1.17223023E-09
 -1.45148775E-14 -1.02438943E-11  2.03071407E-09  1.44937572E-14 -1.24009821E-01
 -2.40275748E-01 -1.77342005E-01 -8.31144029E-03 -4.38890161E-08  4.38657798E-08
  4.81680976E-09 -2.15314751E-08  8.12107238E-08  1.07785163E-10  3.88964528E-15
 -3.89826986E-15 -7.24602262E-15 -7.69644263E-15  3.06227378E-14  4.90462158E-11
 -4.98443629E-11 -2.80932744E-14  1.32401318E-14 -3.49000931E-10  3.54743934E-10
  3.37461929E-13  1.66001992E-13  1.16314355E-09 -1.18245376E-09  2.21569393E-13
 -6.31645340E-13 -2.03931762E-09  2.07382135E-09  9.89622386E-15  8.33999559E-12
 -1.07347300E-15 -1.71103241E-14 -8.21163165E-12  2.82893750E-11  6.11571034E-11
  1.46493431E-06 -2.06386032E-01  2.09960071E-01 -6.53943206E-10  2.20933693E-06
 -3.11252028E-01  3.16642032E-01  7.70936163E-10  2.14543915E-06 -3.02183987E-01
  3.07416874E-01  2.34502262E-09  2.69846046E-07 -3.80193767E-02  3.86777218E-02
 -1.14675953E-07  1.87996054E-02  1.31157724E-07  1.96240001E-07 -1.84795785E-02
 -4.04439498E-14  1.91304702E-13 -7.40592995E-13  8.55615861E-16 -2.97339673E-11
  3.02212556E-11 -1.53059274E-10 -5.19655620E-10 -1.00774479E-09  1.14354802E-07
 -1.60958351E-02  1.63745628E-02  3.00144981E-16  2.50380034E-16 -2.41361397E-15
  2.17631162E-09  2.07224857E-09  2.58673579E-15 -1.54759029E-15  6.02383118E-09
  5.80816022E-09 -2.39872431E-14 -1.32567758E-14 -4.73950503E-09 -4.77418956E-09
 -2.10541208E-14  5.96967244E-14  2.76486549E-08  2.70957293E-08 -2.60196989E-16
 -4.98265468E-11  8.19521189E-17  1.52363073E-15 -5.42455955E-11 -7.25177110E-13
  3.34943307E-13 -1.00584394E-08  1.76005772E-01  1.73009800E-01 -5.41923698E-12
 -1.61451702E-08  2.82445986E-01  2.77638152E-01  6.81763494E-12 -1.72631003E-08
  3.01959968E-01  2.96819924E-01 -5.60138667E-12 -8.39756482E-09  1.47669352E-01
  1.45155552E-01 -9.54325448E-08  1.56371688E-02 -9.84650182E-10 -5.69186464E-08
  1.59079444E-02  2.54332365E-15 -1.37893878E-14  6.03672295E-14 -1.00141891E-16
  4.67898257E-10  4.54939501E-10  5.46603632E-12  3.06063001E-11 -1.32079340E-11
 -1.01164914E-09  1.76387835E-02  1.73385269E-02  5.98254252E-10  8.62677189E-10
 -1.65085680E-06  1.56351943E-01 -1.56166229E-01 -1.79943947E-09 -2.49684635E-06
  2.36497605E-01 -2.36216697E-01 -6.30327381E-09 -3.27682517E-06  3.10295008E-01
 -3.09926445E-01  7.87933179E-09 -2.21935328E-06  2.10201727E-01 -2.09951969E-01
 -7.05678247E-08  7.73182094E-03  8.15587381E-08  1.22366374E-07 -7.74101537E-03
 -6.08541031E-14 -3.11529946E-14 -5.32225111E-13 -3.05619479E-09  2.87084836E-09
 -7.84094921E-13 -1.73480410E-13  1.18394641E-09 -1.47642116E-09  6.49641333E-12
 -3.79940601E-12 -2.14808298E-08  2.11223454E-08  7.62615122E-12  1.94243774E-11
  3.80167733E-08 -3.81147228E-08  2.28929039E-13  2.71839234E-10  2.51855964E-15
 -3.96385537E-13 -2.88775804E-10  1.55005867E-10  9.00596069E-10 -2.97055988E-09
 -1.22585437E-07  1.16126687E-02 -1.15988747E-02 -7.76226116E-13  4.48707686E-12
 -1.89257115E-11 -3.80031073E-14  3.05089227E-10 -3.23567999E-10 -2.33155153E-13
 -1.80504028E-13  4.95571744E-10  1.40057316E-01  1.40223900E-01 -1.36408963E-12
  6.93584064E-10  1.95792840E-01  1.96025719E-01  3.71136645E-12  1.03023145E-09
  2.92343594E-01  2.92691319E-01  2.13455822E-11  1.01593058E-09  2.89009121E-01
  2.89352733E-01  5.41479831E-08 -5.96287742E-03 -5.39610702E-11  3.12209239E-08
 -5.95579310E-03  1.48670434E-17 -2.53781433E-17  8.37508381E-16 -1.21854004E-08
 -1.20703259E-08  8.12186778E-16  1.12464112E-15 -1.00860895E-08 -9.88660467E-09
 -4.21115468E-15  2.76034226E-15 -4.93037130E-08 -4.91012242E-08 -3.08462895E-15
 -1.03161744E-14  6.01085481E-08  6.02672501E-08  6.69234602E-15 -1.11953031E-09
  1.37843698E-16  4.17132087E-15 -1.13019988E-09 -9.40776319E-13 -1.58859729E-12
 -1.32712848E-11  4.28547019E-11  1.22318638E-02  1.22464112E-02  3.63141356E-16
 -2.33175189E-15  9.67352622E-15  1.18824669E-16 -2.67270244E-10 -2.53553178E-10
  3.27730008E-02  5.22048215E-02  3.26704687E-02  1.69616266E-07 -1.69534047E-07
 -1.23965873E-01  8.45611944E-02  4.43378706E-07 -4.43156038E-07 -6.20796587E-01
  2.20318594E-03  7.16458328E-10 -7.33842707E-10  1.59455744E+00 -6.17006257E-01
 -3.24124890E-06  3.23957378E-06  4.29767848E-03  7.41901246E-08  7.92072281E-04
 -7.44191514E-03 -7.42230702E-08  2.08146598E-07  3.61126594E-07 -7.44175441E-07
 -7.97786869E-13  8.12099612E-13 -1.07860570E-06 -1.22809548E-06 -3.84443406E-12
  3.87002560E-12 -2.75246768E-06 -2.71500409E-06  6.90031822E-13 -6.52785881E-13
  1.56727256E-05  1.52289031E-05  3.17748000E-11 -3.18003911E-11  2.09073436E-07
  2.47585939E-12 -2.42815940E-08 -3.61292165E-07 -2.46970585E-12 -2.87830357E-02
  5.14000852E-02 -5.24424968E-01 -1.34602029E-02 -7.10790945E-08  7.10415361E-08
 -5.27316326E-07  2.88368194E-06 -1.17758804E-05 -2.62881140E-08 -2.21092990E-13
  2.22870049E-13 -6.00378868E-07 -9.32689749E-07  2.45366363E-07 -6.16473483E-12
  6.16185747E-12  1.85061122E-06 -7.52176192E-07 -1.04948386E-11  1.04896486E-11
  1.39510916E-05  3.48633444E-06 -1.44906056E-11  1.44835731E-11 -2.10092820E-05
 -6.64625630E-06  1.56225439E-11 -1.56058187E-11  6.81593034E-08  9.82671877E-13
 -2.91786830E-08 -1.18124722E-07 -9.83360007E-13  2.90420158E-02  4.81044022E-02
 -4.94193349E-02 -1.72101477E-07  1.72182223E-07 -1.17947789E-01 -1.15847152E-01
 -4.05948354E-07  4.06238143E-07 -5.81093288E-01 -1.20223408E-01 -4.15865595E-07
  4.15910416E-07  1.55827665E+00  8.17371568E-01  2.85858382E-06 -2.86031738E-06
  1.45105325E-02  1.86787854E-07 -2.93597993E-03 -2.50321792E-02 -1.86306061E-07
 -1.19131745E-07  7.10391559E-07 -2.12643115E-06  1.05583826E-07  6.20358288E-13
 -6.19863462E-13 -2.80311369E-02  1.97469801E-01 -6.60116341E-01 -4.03444183E-03
 -1.42319131E-08  1.42442390E-08  2.19914411E-02  3.47592578E-02 -7.90673298E-02
 -4.32023419E-07  4.31791570E-07 -7.34948742E-02 -5.10823038E-02 -2.85506024E-07
  2.85348497E-07 -4.99205934E-01 -3.88579379E-01 -2.11016106E-06  2.10903743E-06
  5.11894503E-01  1.18757189E+00  6.37894228E-06 -6.37557748E-06 -8.32482300E-03
 -1.62526677E-07  1.79953666E-03  1.44232932E-02  1.62624016E-07  1.16266119E-05
  1.86981677E-05  2.78562617E-05 -5.31315705E-11  4.60262420E-11 -4.12501299E-05
  9.60538343E-06 -7.61483099E-11  6.89245380E-11 -2.79080263E-04  1.51095972E-04
 -1.43107514E-10  1.13214536E-10  3.07367765E-04 -4.98439799E-04 -9.63959799E-11
  1.53713855E-10 -2.91011101E-06 -2.06939543E-11 -9.10298928E-07  5.07171468E-06
  2.01553568E-11  3.50079094E-02 -1.37716472E-02  2.58565229E-01  1.11153752E-02
  5.87814957E-08 -5.87509605E-08  1.43441098E-05 -7.05167471E-06  1.45458294E-04
 -4.38162655E-06 -8.35883387E-12  8.31291368E-12 -9.66224514E-13 -1.52904694E-12
  3.57257201E-12 -1.79374810E-07 -1.70817360E-07  3.25608013E-12  2.35545283E-12
 -1.93808168E-07 -1.84712330E-07  2.17743611E-11  1.74641420E-11 -7.20415147E-07
 -6.85317241E-07 -2.26490355E-11 -5.28270037E-11  1.10557533E-06  1.04105413E-06
  2.96637045E-13  7.60487623E-09 -8.15107121E-14 -6.78404168E-13  8.05653179E-09
 -2.57987092E-10 -4.16221348E-10  5.04601956E-09 -9.91183880E-02 -9.74279053E-02
  9.30059302E-10  5.15112916E-09 -9.40778308E-02 -9.24740227E-02  6.15612406E-09
  2.07630749E-08 -4.21653437E-01 -4.14461362E-01 -6.72161672E-09 -3.85867026E-08
  8.69398607E-01  8.54563513E-01  5.13310928E-08 -8.39652425E-03  5.50036331E-10
  3.04596255E-08 -8.54219183E-03 -1.54444693E-12  5.13605134E-13 -1.09091507E-11
 -5.02320889E-13 -3.57122081E-09 -3.64155112E-09 -3.25965674E-10  1.54205216E-10
 -3.28351552E-09  6.09374712E-11  6.37728113E-04  6.26721711E-04  9.66435746E-06
  1.53336849E-05 -3.63290383E-05 -3.53338685E-10  3.53098107E-10 -3.31580135E-05
 -2.43510250E-05 -3.02018179E-10  3.01800660E-10 -2.14353391E-04 -1.76809967E-04
 -1.59202534E-09  1.59096248E-09  2.30068417E-04  5.30435291E-04  4.01491696E-09
 -4.01233670E-09 -3.65348697E-06 -7.94665043E-11  7.92672781E-07  6.32990894E-06
  7.95167490E-11 -2.51881069E-02 -4.05910325E-02 -6.52180311E-02 -5.44163197E-07
  5.51787701E-07  9.09577151E-02 -2.69575300E-02 -3.30183417E-07  3.36232799E-07
  5.94745964E-01 -3.46641119E-01 -2.60385714E-06  2.63726335E-06 -6.68735504E-01
  1.12143679E+00  7.39698475E-06 -7.47743296E-06  6.65329666E-03  1.00619748E-07
  1.97147973E-03 -1.15915377E-02 -1.00174984E-07  1.55516941E-05 -3.21625969E-06
  9.93787390E-05  5.28926526E-06  2.91050427E-11 -2.90881688E-11 -3.17700487E-02
  1.41598019E-02 -2.97206127E-01  1.01087792E-02  5.01837562E-08 -5.04790627E-08
  7.94347871E-11  1.26087767E-10 -3.07103815E-10  6.42298629E-07 -6.45052547E-07
 -2.73322661E-10 -2.09373363E-10  6.89985519E-07 -6.93000965E-07 -1.75693103E-09
 -1.48785733E-09  2.61888008E-06 -2.62983790E-06  1.89666411E-09  4.42070434E-09
 -4.83289645E-06  4.84884097E-06 -3.03352705E-11  3.37818125E-08  6.87307190E-12