Title Card Required                                                     
FOpt      UM062X                                                      6-311+G(d,p)        
Number of atoms                            I                6
Info1-9                                    I   N=           9
          15          15           0           0           0         110
           2          18        -502
Full Title                                 C   N=           2
Title Card Required     
Route                                      C   N=           4
#p opt UM062X/6-311+G** nosymm int=superfine    
Charge                                     I                0
Multiplicity                               I                1
Number of electrons                        I               16
Number of alpha electrons                  I                8
Number of beta electrons                   I                8
Number of basis functions                  I               68
Number of independent functions            I               68
Number of point charges in /Mol/           I                0
Number of translation vectors              I                0
Atomic numbers                             I   N=           6
           6           6           1           1           1           1
Nuclear charges                            R   N=           6
  6.00000000E+00  6.00000000E+00  1.00000000E+00  1.00000000E+00  1.00000000E+00
  1.00000000E+00
Current cartesian coordinates              R   N=          18
 -2.90185399E+00  0.00000000E+00  0.00000000E+00  2.90185399E+00  0.00000000E+00
  0.00000000E+00 -3.60682757E+00 -1.91040126E+00  3.17522760E-07 -3.60680819E+00
  1.91040971E+00  3.21662201E-07  3.60682718E+00  1.91040138E+00 -3.15227746E-07
  3.60680780E+00 -1.91040983E+00 -3.11099469E-07
Number of symbols in /Mol/                 I                0
Force Field                                I                0
Atom Types                                 C   N=           6
                                                            
            
Int Atom Types                             I   N=           6
           0           0           0           0           0           0
MM charges                                 R   N=           6
  0.00000000E+00  0.00000000E+00  0.00000000E+00  0.00000000E+00  0.00000000E+00
  0.00000000E+00
Integer atomic weights                     I   N=           6
          12          12           1           1           1           1
Real atomic weights                        R   N=           6
  1.20000000E+01  1.20000000E+01  1.00782504E+00  1.00782504E+00  1.00782504E+00
  1.00782504E+00
Atom fragment info                         I   N=           6
           0           0           0           0           0           0
Atom residue num                           I   N=           6
           0           0           0           0           0           0
Nuclear spins                              I   N=           6
           0           0           1           1           1           1
Nuclear ZEff                               R   N=           6
 -3.60000000E+00 -3.60000000E+00 -1.00000000E+00 -1.00000000E+00 -1.00000000E+00
 -1.00000000E+00
Nuclear ZNuc                               R   N=           6
  6.00000000E+00  6.00000000E+00  1.00000000E+00  1.00000000E+00  1.00000000E+00
  1.00000000E+00
Nuclear QMom                               R   N=           6
  0.00000000E+00  0.00000000E+00  0.00000000E+00  0.00000000E+00  0.00000000E+00
  0.00000000E+00
Nuclear GFac                               R   N=           6
  0.00000000E+00  0.00000000E+00  2.79284600E+00  2.79284600E+00  2.79284600E+00
  2.79284600E+00
MicOpt                                     I   N=           6
          -2          -2          -1          -1          -1          -1
Number of residues                         I                0
Number of secondary structures             I                0
Redundant internal dimensions              I   N=           4
          20          10           6           4
Redundant internal coordinate indices      I   N=          80
           1          -1           0           0           1          -2
           0           0           1          -3           0           0
           2          -1           0           0           2          -2
           0           0           2          -3           0           0
           1           3           0           0           1           4
           0           0           2           5           0           0
           2           6           0           0           2           1
           3           0           2           1           4           0
           3           1           4           0           1           2
           5           0           1           2           6           0
           5           2           6           0           3           1
           2           5           3           1           2           6
           4           1           2           5           4           1
           2           6
Redundant internal coordinates             R   N=          20
 -2.90185399E+00  0.00000000E+00  0.00000000E+00  2.90185399E+00  0.00000000E+00
  0.00000000E+00  2.03632530E+00  2.03632652E+00  2.03632528E+00  2.03632650E+00
  1.92431274E+00  1.92430237E+00  2.43457019E+00  1.92431254E+00  1.92430217E+00
  2.43457060E+00 -3.14159264E+00  3.28839965E-07 -3.33533127E-07  3.14159265E+00
ZRed-IntVec                                I   N=          20
          -1          -1          -1          -1          -1          -1
           0           0           0           0           0           0
           0           0           0           0           0           0
           0           0
ZRed-FPVec                                 R   N=          20
  0.00000000E+00  0.00000000E+00  0.00000000E+00  0.00000000E+00  0.00000000E+00
  0.00000000E+00  0.00000000E+00  0.00000000E+00  0.00000000E+00  0.00000000E+00
  0.00000000E+00  0.00000000E+00  0.00000000E+00  0.00000000E+00  0.00000000E+00
  0.00000000E+00  0.00000000E+00  0.00000000E+00  0.00000000E+00  0.00000000E+00
ZRed-Constraint1                           R   N=          20
 -2.90185399E+00  0.00000000E+00  0.00000000E+00  2.90185399E+00  0.00000000E+00
  0.00000000E+00  2.03694512E+00  2.03669844E+00  2.03694512E+00  2.03669844E+00
  2.00316847E+00  2.00313852E+00  2.27687832E+00  2.00316847E+00  2.00313852E+00
  2.27687832E+00  3.14159265E+00  0.00000000E+00  0.00000000E+00  3.14159265E+00
ZRed-Constraint2                           R   N=          20
 -2.90185399E+00  0.00000000E+00  0.00000000E+00  2.90185399E+00  0.00000000E+00
  0.00000000E+00  0.00000000E+00  0.00000000E+00  0.00000000E+00  0.00000000E+00
  0.00000000E+00  0.00000000E+00  0.00000000E+00  0.00000000E+00  0.00000000E+00
  0.00000000E+00  0.00000000E+00  0.00000000E+00  0.00000000E+00  0.00000000E+00
Number of contracted shells                I               28
Number of primitive shells                 I               50
Pure/Cartesian d shells                    I                0
Pure/Cartesian f shells                    I                0
Highest angular momentum                   I                2
Largest degree of contraction              I                6
Shell types                                I   N=          28
           0          -1          -1          -1          -1          -2
           0          -1          -1          -1          -1          -2
           0           0           0           1           0           0
           0           1           0           0           0           1
           0           0           0           1
Number of primitives per shell             I   N=          28
           6           3           1           1           1           1
           6           3           1           1           1           1
           3           1           1           1           3           1
           1           1           3           1           1           1
           3           1           1           1
Shell to atom map                          I   N=          28
           1           1           1           1           1           1
           2           2           2           2           2           2
           3           3           3           3           4           4
           4           4           5           5           5           5
           6           6           6           6
Primitive exponents                        R   N=          50
  4.56324000E+03  6.82024000E+02  1.54973000E+02  4.44553000E+01  1.30290000E+01
  1.82773000E+00  2.09642000E+01  4.80331000E+00  1.45933000E+00  4.83456000E-01
  1.45585000E-01  4.38000000E-02  6.26000000E-01  4.56324000E+03  6.82024000E+02
  1.54973000E+02  4.44553000E+01  1.30290000E+01  1.82773000E+00  2.09642000E+01
  4.80331000E+00  1.45933000E+00  4.83456000E-01  1.45585000E-01  4.38000000E-02
  6.26000000E-01  3.38650000E+01  5.09479000E+00  1.15879000E+00  3.25840000E-01
  1.02741000E-01  7.50000000E-01  3.38650000E+01  5.09479000E+00  1.15879000E+00
  3.25840000E-01  1.02741000E-01  7.50000000E-01  3.38650000E+01  5.09479000E+00
  1.15879000E+00  3.25840000E-01  1.02741000E-01  7.50000000E-01  3.38650000E+01
  5.09479000E+00  1.15879000E+00  3.25840000E-01  1.02741000E-01  7.50000000E-01
Contraction coefficients                   R   N=          50
  1.96665025E-03  1.52306019E-02  7.61269097E-02  2.60801033E-01  6.16462078E-01
  2.21006028E-01  1.14660081E-01  9.19999648E-01 -3.03068213E-03  1.00000000E+00
  1.00000000E+00  1.00000000E+00  1.00000000E+00  1.96665025E-03  1.52306019E-02
  7.61269097E-02  2.60801033E-01  6.16462078E-01  2.21006028E-01  1.14660081E-01
  9.19999648E-01 -3.03068213E-03  1.00000000E+00  1.00000000E+00  1.00000000E+00
  1.00000000E+00  2.54938145E-02  1.90373109E-01  8.52161486E-01  1.00000000E+00
  1.00000000E+00  1.00000000E+00  2.54938145E-02  1.90373109E-01  8.52161486E-01
  1.00000000E+00  1.00000000E+00  1.00000000E+00  2.54938145E-02  1.90373109E-01
  8.52161486E-01  1.00000000E+00  1.00000000E+00  1.00000000E+00  2.54938145E-02
  1.90373109E-01  8.52161486E-01  1.00000000E+00  1.00000000E+00  1.00000000E+00
P(S=P) Contraction coefficients            R   N=          50
  0.00000000E+00  0.00000000E+00  0.00000000E+00  0.00000000E+00  0.00000000E+00
  0.00000000E+00  4.02486927E-02  2.37593957E-01  8.15853851E-01  1.00000000E+00
  1.00000000E+00  1.00000000E+00  0.00000000E+00  0.00000000E+00  0.00000000E+00
  0.00000000E+00  0.00000000E+00  0.00000000E+00  0.00000000E+00  4.02486927E-02
  2.37593957E-01  8.15853851E-01  1.00000000E+00  1.00000000E+00  1.00000000E+00
  0.00000000E+00  0.00000000E+00  0.00000000E+00  0.00000000E+00  0.00000000E+00
  0.00000000E+00  0.00000000E+00  0.00000000E+00  0.00000000E+00  0.00000000E+00
  0.00000000E+00  0.00000000E+00  0.00000000E+00  0.00000000E+00  0.00000000E+00
  0.00000000E+00  0.00000000E+00  0.00000000E+00  0.00000000E+00  0.00000000E+00
  0.00000000E+00  0.00000000E+00  0.00000000E+00  0.00000000E+00  0.00000000E+00
Coordinates of each shell                  R   N=          84
 -2.90185399E+00  0.00000000E+00  0.00000000E+00 -2.90185399E+00  0.00000000E+00
  0.00000000E+00 -2.90185399E+00  0.00000000E+00  0.00000000E+00 -2.90185399E+00
  0.00000000E+00  0.00000000E+00 -2.90185399E+00  0.00000000E+00  0.00000000E+00
 -2.90185399E+00  0.00000000E+00  0.00000000E+00  2.90185399E+00  0.00000000E+00
  0.00000000E+00  2.90185399E+00  0.00000000E+00  0.00000000E+00  2.90185399E+00
  0.00000000E+00  0.00000000E+00  2.90185399E+00  0.00000000E+00  0.00000000E+00
  2.90185399E+00  0.00000000E+00  0.00000000E+00  2.90185399E+00  0.00000000E+00
  0.00000000E+00 -3.60682757E+00 -1.91040126E+00  3.17522760E-07 -3.60682757E+00
 -1.91040126E+00  3.17522760E-07 -3.60682757E+00 -1.91040126E+00  3.17522760E-07
 -3.60682757E+00 -1.91040126E+00  3.17522760E-07 -3.60680819E+00  1.91040971E+00
  3.21662201E-07 -3.60680819E+00  1.91040971E+00  3.21662201E-07 -3.60680819E+00
  1.91040971E+00  3.21662201E-07 -3.60680819E+00  1.91040971E+00  3.21662201E-07
  3.60682718E+00  1.91040138E+00 -3.15227746E-07  3.60682718E+00  1.91040138E+00
 -3.15227746E-07  3.60682718E+00  1.91040138E+00 -3.15227746E-07  3.60682718E+00
  1.91040138E+00 -3.15227746E-07  3.60680780E+00 -1.91040983E+00 -3.11099469E-07
  3.60680780E+00 -1.91040983E+00 -3.11099469E-07  3.60680780E+00 -1.91040983E+00
 -3.11099469E-07  3.60680780E+00 -1.91040983E+00 -3.11099469E-07
Num ILSW                                   I              100
ILSW                                       I   N=         100
           1           0           0           1           2           0
           0           0           0           0        4336          -1
           7           0           0           0           2           0
           0           0           0           0           1           0
           1           1           0           0           0           0
           0           0      100000           0          -1           0
           0           0           0           0           0           0
           0           0           0           1           0           0
           0 -2000000000           1           0           0           0
           0           0           4          52           0           0
           0           0          55           0           0           0
           0           0           0           6           0           1
           0           0           0           0           0           0
           0           0           0           0           0           0
           0           0           0           0           0           0
           0           0           0           0           0           0
           0           0           0           0
Num RLSW                                   I               52
RLSW                                       R   N=          52
  1.00000000E+00  1.00000000E+00  1.00000000E+00  1.00000000E+00  5.40000000E-01
  0.00000000E+00  0.00000000E+00  1.00000000E+00  0.00000000E+00  0.00000000E+00
  0.00000000E+00  0.00000000E+00  1.00000000E+00  0.00000000E+00  0.00000000E+00
  0.00000000E+00  0.00000000E+00  1.00000000E+00  0.00000000E+00  0.00000000E+00
  0.00000000E+00  0.00000000E+00  1.00000000E+00  0.00000000E+00  0.00000000E+00
  0.00000000E+00  0.00000000E+00  1.00000000E+00  0.00000000E+00  0.00000000E+00
  0.00000000E+00  0.00000000E+00  1.00000000E+00  0.00000000E+00  0.00000000E+00
  0.00000000E+00  0.00000000E+00  0.00000000E+00  1.00000000E+00  1.00000000E+00
  0.00000000E+00  1.00000000E+00  0.00000000E+00  0.00000000E+00  0.00000000E+00
  0.00000000E+00  0.00000000E+00  0.00000000E+00  0.00000000E+00  0.00000000E+00
  0.00000000E+00  0.00000000E+00
MxBond                                     I                3
NBond                                      I   N=           6
           3           3           1           1           1           1
IBond                                      I   N=          18
           2           3           4           1           5           6
           1           0           0           1           0           0
           2           0           0           2           0           0
RBond                                      R   N=          18
  1.00000000E-01  1.00000000E+00  1.00000000E+00  1.00000000E-01  1.00000000E+00
  1.00000000E+00  1.00000000E+00  0.00000000E+00  0.00000000E+00  1.00000000E+00
  0.00000000E+00  0.00000000E+00  1.00000000E+00  0.00000000E+00  0.00000000E+00
  1.00000000E+00  0.00000000E+00  0.00000000E+00
Virial Ratio                               R      2.008907299983210E+00
SCF Energy                                 R     -7.815759376454506E+01
Total Energy                               R     -7.815759376454506E+01
S**2                                       R      2.678746113815578E-12
S**2 after annihilation                    R      4.973799150327363E-14
RMS Force                                  R      1.015785146969063E-05
RMS Density                                R      5.509335561717520E-09
Job Status                                 I                1
Nuclear derivative order                   I                1
External E-field                           R   N=          35
  0.00000000E+00  0.00000000E+00  0.00000000E+00  0.00000000E+00  0.00000000E+00
  0.00000000E+00  0.00000000E+00  0.00000000E+00  0.00000000E+00  0.00000000E+00
  0.00000000E+00  0.00000000E+00  0.00000000E+00  0.00000000E+00  0.00000000E+00
  0.00000000E+00  0.00000000E+00  0.00000000E+00  0.00000000E+00  0.00000000E+00
  0.00000000E+00  0.00000000E+00  0.00000000E+00  0.00000000E+00  0.00000000E+00
  0.00000000E+00  0.00000000E+00  0.00000000E+00  0.00000000E+00  0.00000000E+00
  0.00000000E+00  0.00000000E+00  0.00000000E+00  0.00000000E+00  0.00000000E+00
IOpCl                                      I                1
IROHF                                      I                0
Alpha Orbital Energies                     R   N=          68
 -1.06331238E+01 -1.06330876E+01 -7.56860973E-01 -7.46161088E-01 -5.41111627E-01
 -5.37523503E-01 -2.85290214E-01 -2.26346591E-01 -1.23639033E-01 -1.07180326E-01
  3.39485666E-02  5.02094962E-02  5.22792233E-02  6.85479792E-02  9.27111703E-02
  1.05369862E-01  1.10232132E-01  1.34259074E-01  1.61537580E-01  1.81561188E-01
  2.14289640E-01  2.67493244E-01  4.14981303E-01  4.18010093E-01  4.26907948E-01
  5.59979791E-01  5.67303723E-01  5.68930245E-01  6.12626112E-01  6.52487172E-01
  6.83013776E-01  6.88234709E-01  7.45645652E-01  8.22520721E-01  1.06415921E+00
  1.06517901E+00  1.26252390E+00  1.27626440E+00  1.28715710E+00  1.30095748E+00
  1.34598999E+00  1.36593572E+00  1.51875206E+00  1.52122048E+00  1.69076002E+00
  1.69131219E+00  1.85257769E+00  1.85552210E+00  1.86989503E+00  1.89858717E+00
  2.06674347E+00  2.06736357E+00  2.37535166E+00  2.46419774E+00  2.50308879E+00
  2.50437485E+00  2.53686022E+00  2.59647265E+00  2.72168178E+00  2.72791466E+00
  2.73977209E+00  2.76231711E+00  3.00006620E+00  3.00926731E+00  3.62204898E+00
  3.64500873E+00  2.38174947E+01  2.38231076E+01
Beta Orbital Energies                      R   N=          68
 -1.06331238E+01 -1.06330876E+01 -7.56860973E-01 -7.46161088E-01 -5.41111627E-01
 -5.37523503E-01 -2.85290214E-01 -2.26346591E-01 -1.23639033E-01 -1.07180326E-01
  3.39485666E-02  5.02094962E-02  5.22792233E-02  6.85479792E-02  9.27111703E-02
  1.05369862E-01  1.10232132E-01  1.34259074E-01  1.61537580E-01  1.81561188E-01
  2.14289640E-01  2.67493244E-01  4.14981303E-01  4.18010093E-01  4.26907948E-01
  5.59979791E-01  5.67303723E-01  5.68930245E-01  6.12626112E-01  6.52487172E-01
  6.83013776E-01  6.88234709E-01  7.45645652E-01  8.22520721E-01  1.06415921E+00
  1.06517901E+00  1.26252390E+00  1.27626440E+00  1.28715710E+00  1.30095748E+00
  1.34598999E+00  1.36593572E+00  1.51875206E+00  1.52122048E+00  1.69076002E+00
  1.69131219E+00  1.85257769E+00  1.85552210E+00  1.86989503E+00  1.89858717E+00
  2.06674347E+00  2.06736357E+00  2.37535166E+00  2.46419774E+00  2.50308879E+00
  2.50437485E+00  2.53686022E+00  2.59647265E+00  2.72168178E+00  2.72791466E+00
  2.73977209E+00  2.76231711E+00  3.00006620E+00  3.00926731E+00  3.62204898E+00
  3.64500873E+00  2.38174947E+01  2.38231076E+01
Alpha MO coefficients                      R   N=        4624
  3.99085672E-01  3.28267433E-01  3.95656561E-04 -2.40314501E-09  1.07628908E-09
  8.09610604E-03 -1.45099915E-03 -3.68715040E-10  1.85793421E-10 -1.78036371E-03
  2.55271234E-04  7.77484173E-09  1.58119321E-10 -6.09570211E-04  1.79147746E-04
  7.46440040E-09 -2.16683241E-10 -1.00093087E-03  1.12416402E-10  3.37217278E-12
 -1.35274568E-03  1.57259248E-08  3.98777247E-01  3.28013742E-01 -3.95388183E-04
  2.40110341E-09 -1.07714226E-09  8.08979892E-03  1.44995555E-03  3.69285451E-10
 -1.73307476E-10 -1.77868424E-03 -2.55249434E-04 -7.77821490E-09 -1.59190204E-10
 -6.09222464E-04 -1.78858119E-04 -7.46515358E-09  2.14754231E-10 -1.00018408E-03
  1.15717953E-10 -3.36271305E-12 -1.35171671E-03  1.57136365E-08  4.15536386E-05
 -2.50644044E-03  1.57036494E-03 -6.78194799E-04 -1.48504836E-03  3.65424437E-10
  4.15557312E-05 -2.50643297E-03  1.57033871E-03 -6.78178663E-04  1.48505102E-03
  3.68629587E-10  4.15177687E-05 -2.50455260E-03  1.56907758E-03  6.77700307E-04
  1.48392890E-03 -3.62225876E-10  4.15198605E-05 -2.50454515E-03  1.56905136E-03
  6.77684184E-04 -1.48393156E-03 -3.59031010E-10 -3.98780994E-01 -3.28013128E-01
 -3.49400716E-04  2.61839247E-09 -1.06576817E-09 -8.15516761E-03  1.34976213E-03
 -1.29799065E-10 -1.98836919E-10  2.17051528E-03 -2.89118372E-05  4.31173930E-09
 -9.27364823E-11  4.50661966E-04 -3.73722329E-04  8.84577613E-10  1.58677173E-10
  9.66398274E-04 -1.11502092E-10 -3.24838923E-12  1.33115396E-03 -1.60611572E-08
  3.99089416E-01  3.28266821E-01 -3.49708312E-04  2.62023304E-09 -1.06822150E-09
  8.16142476E-03  1.35088359E-03 -1.29044741E-10 -1.87065900E-10 -2.17189077E-03
 -2.91093244E-05  4.30570583E-09 -9.39646386E-11 -4.51133128E-04 -3.73860469E-04
  8.78692180E-10  1.55651496E-10 -9.67172341E-04  1.14971983E-10 -3.24431763E-12
 -1.33219987E-03  1.60734456E-08 -4.61143050E-05  2.44160085E-03 -1.66471122E-03
  6.39144093E-04  1.44798159E-03 -3.61332679E-10 -4.61155385E-05  2.44158647E-03
 -1.66470906E-03  6.39126936E-04 -1.44798283E-03 -3.64451785E-10  4.61461934E-05
 -2.44353815E-03  1.66592478E-03  6.39667977E-04  1.44912963E-03 -3.58762023E-10
  4.61474287E-05 -2.44352376E-03  1.66592260E-03  6.39650807E-04 -1.44913087E-03
 -3.55646868E-10 -7.79332030E-02 -1.25844378E-01 -2.28372584E-02 -1.10577478E-08
  1.49769586E-08  3.43769445E-01 -3.26021351E-02  1.69132817E-08  3.40532443E-08
  2.36400906E-01 -1.23240344E-02 -3.92442824E-08  7.64830628E-09  4.25368562E-03
 -9.39459783E-04 -5.33513875E-08  3.18582286E-09 -7.47401219E-03  9.59844916E-09
  2.32922318E-11 -8.26965461E-03  9.79677616E-08 -7.79327494E-02 -1.25843643E-01
  2.28370649E-02  1.10638788E-08 -1.47533429E-08  3.43767428E-01  3.26018245E-02
 -1.69065724E-08 -3.37419815E-08  2.36399536E-01  1.23238965E-02  3.92467152E-08
 -7.51905137E-09  4.25372326E-03  9.39424272E-04  5.33514908E-08 -3.17439024E-09
 -7.47398342E-03  9.64067832E-09 -2.33478315E-11 -8.26959154E-03  9.79674570E-08
  7.81930351E-02  9.13508865E-02  5.78967125E-03  2.70800937E-03  1.15794614E-02
 -5.72468373E-10  7.81928170E-02  9.13506350E-02  5.78978893E-03  2.70787719E-03
 -1.15794617E-02 -5.97563827E-10  7.81925647E-02  9.13503430E-02  5.78962502E-03
 -2.70799546E-03 -1.15793951E-02  5.71025568E-10  7.81923467E-02  9.13500914E-02
  5.78974269E-03 -2.70786328E-03  1.15793954E-02  5.45990640E-10  7.76473500E-02
  1.25399455E-01  3.07495588E-02  1.36231999E-08 -1.63438109E-08 -3.43248115E-01
  4.65272291E-02 -2.17472727E-08 -3.56862007E-08 -2.32202954E-01  2.12236483E-02
 -3.02371421E-08 -8.71629837E-09  8.98804210E-03  6.93782305E-03  3.94184525E-09
 -7.00851024E-10  7.72605362E-03 -8.75504533E-09 -2.45154086E-11  9.69647753E-03
 -1.03049796E-07 -7.76478077E-02 -1.25400192E-01  3.07496723E-02  1.36298598E-08
 -1.61100827E-08  3.43250124E-01  4.65273732E-02 -2.17402983E-08 -3.53591813E-08
  2.32204331E-01  2.12237010E-02 -3.02345639E-08 -8.58546033E-09 -8.98802182E-03
  6.93782848E-03  3.94241477E-09 -6.87436028E-10 -7.72611322E-03  8.80118212E-09
 -2.45638898E-11 -9.69652128E-03  1.03050742E-07 -8.08680866E-02 -9.53659961E-02
 -9.30985623E-03 -2.23301169E-03 -1.17459389E-02  4.26519184E-10 -8.08678178E-02
 -9.53656423E-02 -9.30985187E-03 -2.23286266E-03  1.17459237E-02  4.52471344E-10
  8.08685453E-02  9.53665424E-02  9.30989672E-03 -2.23302673E-03 -1.17460084E-02
  4.25127496E-10  8.08682765E-02  9.53661886E-02  9.30989236E-03 -2.23287770E-03
  1.17459932E-02  3.99230965E-10 -7.46145477E-08 -1.23574617E-07  7.06840805E-07
  1.52503196E-01  1.61105683E-10  3.60942340E-07  9.18226866E-07  2.06299830E-01
  2.17356754E-10  4.00197167E-07  4.09220101E-07  1.04785911E-01  1.06686575E-10
  1.31460005E-07  3.95828841E-08  1.81005459E-03  3.29518197E-12 -1.82983145E-09
 -1.40019346E-11  1.12000444E-08 -1.29161845E-07 -1.23506787E-02  7.46164767E-08
  1.23577891E-07  7.06838386E-07  1.52502553E-01 -1.60655093E-10 -3.60952276E-07
  9.18222726E-07  2.06298940E-01 -2.16658647E-10 -4.00210682E-07  4.09217744E-07
  1.04785438E-01 -1.06373158E-10 -1.31461083E-07  3.95826096E-08  1.81003304E-03
 -3.25932046E-12  1.82997736E-09 -1.41029881E-11 -1.10950164E-08  1.29161258E-07
  1.23506058E-02 -1.09495015E-01 -1.58360687E-01 -4.73418659E-02 -6.96179239E-03
 -1.28559653E-02  3.63752471E-09  1.09495159E-01  1.58360873E-01  4.73417940E-02
  6.96164113E-03 -1.28560622E-02 -3.66621154E-09  1.09494559E-01  1.58360038E-01
  4.73416825E-02 -6.96176279E-03 -1.28559206E-02  3.59920119E-09 -1.09494702E-01
 -1.58360224E-01 -4.73416106E-02  6.96161154E-03 -1.28560175E-02 -3.57058227E-09
 -5.49051125E-08 -9.19016917E-08  8.30215170E-07  1.53536172E-01  1.66628709E-10
  2.75829368E-07  1.10492544E-06  2.07040729E-01  2.25877208E-10  3.33086527E-07
  5.67389319E-07  1.09774742E-01  1.18856108E-10  2.63141132E-08  3.65445082E-08
  6.60382380E-03  4.08801089E-12  3.01082739E-09 -1.37620232E-11  1.14467000E-08
 -1.21995361E-07 -1.33638752E-02 -5.49076819E-08 -9.19060260E-08 -8.30218202E-07
 -1.53536807E-01  1.66249370E-10  2.75842445E-07 -1.10492814E-06 -2.07041565E-01
  2.25300251E-10  3.33102728E-07 -5.67389922E-07 -1.09775174E-01  1.18612551E-10
  2.63150679E-08 -3.65440801E-08 -6.60383778E-03  4.06957807E-12  3.01066827E-09
  1.38623339E-11  1.13385875E-08 -1.21995917E-07 -1.33639096E-02 -1.10554246E-01
 -1.59107300E-01 -4.27102933E-02 -6.65576951E-03 -1.28412012E-02  3.62068110E-09
  1.10554268E-01  1.59107289E-01  4.27102871E-02  6.65562603E-03 -1.28412834E-02
 -3.64863808E-09 -1.10554709E-01 -1.59107974E-01 -4.27104820E-02  6.65579648E-03
  1.28412637E-02 -3.58178077E-09  1.10554731E-01  1.59107963E-01  4.27104757E-02
 -6.65565300E-03  1.28413458E-02  3.55390027E-09 -1.70415904E-02 -2.81310642E-02
  1.64892105E-01 -9.38219449E-07 -8.07632969E-08  7.76045275E-02  2.51224492E-01
 -1.43085513E-06 -1.01578980E-07  1.61658517E-01  2.58445208E-01 -1.28616139E-06
 -1.27028495E-07  3.02649101E-02  5.14463454E-02 -2.91428461E-07 -3.44682734E-08
  4.69838901E-03  2.14226245E-08 -1.13956418E-11  2.71905879E-03  1.75202572E-09
 -1.70415412E-02 -2.81309808E-02 -1.64891866E-01  9.38218145E-07  7.99702664E-08
  7.76042761E-02 -2.51224187E-01  1.43085453E-06  1.00381199E-07  1.61658190E-01
 -2.58444836E-01  1.28616112E-06  1.25875473E-07  3.02647153E-02 -5.14462064E-02
  2.91428757E-07  3.42738045E-08  4.69836737E-03  2.13528518E-08  1.11816265E-11
  2.71909656E-03  1.75163092E-09 -3.99722762E-02 -6.88990028E-02 -4.46132903E-02
  1.11388196E-02 -6.71459012E-03 -7.07114114E-09 -3.99724430E-02 -6.88993766E-02
 -4.46135923E-02  1.11388963E-02  6.71449742E-03 -7.05609999E-09 -3.99722288E-02
 -6.88989164E-02 -4.46132335E-02 -1.11388088E-02  6.71457313E-03  7.01619775E-09
 -3.99723956E-02 -6.88992902E-02 -4.46135354E-02 -1.11388855E-02 -6.71448043E-03
  7.03116180E-09  3.03657786E-08  5.08854289E-08 -1.11931179E-07 -1.98119504E-10
  1.76718511E-01 -1.50588514E-07 -1.41540313E-07 -3.04165969E-10  2.73485719E-01
 -2.25851399E-07 -1.85919062E-07 -3.12836682E-10  3.14292451E-01 -3.53670009E-08
 -5.35369324E-08 -9.06655420E-11  8.56955121E-02  7.58603956E-09 -2.98062025E-03
  6.52419456E-09  8.84560106E-09  7.19233973E-12 -3.02509796E-08 -5.06938833E-08
 -1.12810983E-07  1.98568500E-10  1.76718372E-01  1.50027229E-07 -1.42935893E-07
  3.04909461E-10  2.73485499E-01  2.24908378E-07 -1.87442665E-07  3.13351012E-10
  3.14292221E-01  3.53473174E-08 -5.40320240E-08  9.05616633E-11  8.56954845E-02
 -7.52617172E-09  2.98059952E-03 -6.52385498E-09 -8.87845135E-09  7.26095924E-12
  3.17188588E-08  5.80430971E-08  2.88817686E-08 -6.90820498E-09  1.01939001E-08
  1.64418027E-02  3.17058445E-08  5.79962201E-08  2.88355091E-08 -6.90698721E-09
 -1.02255762E-08  1.64417891E-02 -3.15762346E-08 -5.77739890E-08 -2.87475388E-08
 -7.00496935E-09  1.02056929E-08  1.64417957E-02 -3.15889590E-08 -5.78199430E-08
 -2.87953598E-08 -7.00634716E-09 -1.01738439E-08  1.64417821E-02  4.11798024E-09
  7.46418321E-09  6.48146199E-08 -1.89666624E-10  1.83830217E-01 -2.41671943E-08
  1.26084841E-07 -2.98308015E-10  2.85052262E-01 -1.54915334E-08  1.08666027E-07
 -3.34057263E-10  3.21600723E-01  5.53932904E-09  4.30378528E-08 -1.11251492E-10
  1.39898372E-01  1.57204714E-08 -1.12192996E-02  1.14885974E-08  4.70513697E-09
  6.63447865E-12  3.54532324E-09  6.51240628E-09 -6.67422287E-08 -1.88486740E-10
 -1.83830322E-01 -2.13730186E-08 -1.28865772E-07 -2.95995703E-10 -2.85052417E-01
 -1.07332613E-08 -1.11748376E-07 -3.33379450E-10 -3.21600927E-01  7.13806210E-09
 -4.47272410E-08 -1.12592159E-10 -1.39898509E-01  1.57970621E-08 -1.12192854E-02
  1.14882911E-08  4.64504718E-09 -6.65081007E-12 -1.83190851E-09  1.65029267E-09
 -2.05725960E-08  6.60389513E-09  4.45439393E-09  1.84980705E-02 -1.81548524E-09
  1.68347811E-09 -2.06078638E-08  6.60133268E-09 -4.49578277E-09  1.84980281E-02
 -2.51465348E-09  4.09124061E-10 -2.16873673E-08 -6.73933385E-09 -4.37266973E-09
 -1.84980867E-02 -2.53124174E-09  3.76146476E-10 -2.16577916E-08 -6.74179331E-09
  4.33154908E-09 -1.84980443E-02 -3.23752012E-02 -5.37988048E-02  1.82462962E-01
 -8.17480051E-07  9.90864651E-08  1.59758349E-01  2.67247417E-01 -1.27960753E-06
  1.83262837E-07  2.57377693E-01  3.17664623E-01 -1.40667959E-06  1.84909784E-07
  1.97768811E-01  2.21013413E-01 -5.87597255E-07  7.59414483E-08  9.80745605E-03
  1.92791033E-08 -8.62245494E-12 -9.79209171E-03 -1.87899664E-08  3.23752095E-02
  5.37988151E-02  1.82463136E-01 -8.17479808E-07  9.69713460E-08 -1.59758354E-01
  2.67247726E-01 -1.27960887E-06  1.79952226E-07 -2.57377862E-01  3.17664968E-01