Title Card Required                                                     
FOpt      UM062X                                                      6-311+G(d,p)        
Number of atoms                            I                4
Info1-9                                    I   N=           9
          13          13           0           0           0         110
           2          18        -502
Full Title                                 C   N=           2
Title Card Required     
Route                                      C   N=           4
#p opt UM062X/6-311+G** nosymm int=superfine    
Charge                                     I                0
Multiplicity                               I                1
Number of electrons                        I               14
Number of alpha electrons                  I                7
Number of beta electrons                   I                7
Number of basis functions                  I               56
Number of independent functions            I               56
Number of point charges in /Mol/           I                0
Number of translation vectors              I                0
Atomic numbers                             I   N=           4
           6           6           1           1
Nuclear charges                            R   N=           4
  6.00000000E+00  6.00000000E+00  1.00000000E+00  1.00000000E+00
Current cartesian coordinates              R   N=          12
 -3.46315934E+00  0.00000000E+00  0.00000000E+00  3.46315934E+00  0.00000000E+00
  0.00000000E+00 -3.15013595E+00 -1.23310307E+00  1.68683276E+00  3.15038488E+00
  1.23606047E+00 -1.68470568E+00
Number of symbols in /Mol/                 I                0
Force Field                                I                0
Atom Types                                 C   N=           4
                                                
Int Atom Types                             I   N=           4
           0           0           0           0
MM charges                                 R   N=           4
  0.00000000E+00  0.00000000E+00  0.00000000E+00  0.00000000E+00
Integer atomic weights                     I   N=           4
          12          12           1           1
Real atomic weights                        R   N=           4
  1.20000000E+01  1.20000000E+01  1.00782504E+00  1.00782504E+00
Atom fragment info                         I   N=           4
           0           0           0           0
Atom residue num                           I   N=           4
           0           0           0           0
Nuclear spins                              I   N=           4
           0           0           1           1
Nuclear ZEff                               R   N=           4
 -3.60000000E+00 -3.60000000E+00 -1.00000000E+00 -1.00000000E+00
Nuclear ZNuc                               R   N=           4
  6.00000000E+00  6.00000000E+00  1.00000000E+00  1.00000000E+00
Nuclear QMom                               R   N=           4
  0.00000000E+00  0.00000000E+00  0.00000000E+00  0.00000000E+00
Nuclear GFac                               R   N=           4
  0.00000000E+00  0.00000000E+00  2.79284600E+00  2.79284600E+00
MicOpt                                     I   N=           4
          -2          -2          -1          -1
Number of residues                         I                0
Number of secondary structures             I                0
Redundant internal dimensions              I   N=           4
          11           8           2           1
Redundant internal coordinate indices      I   N=          44
           1          -1           0           0           1          -2
           0           0           1          -3           0           0
           2          -1           0           0           2          -2
           0           0           2          -3           0           0
           1           3           0           0           2           4
           0           0           2           1           3           0
           1           2           4           0           3           1
           2           4
Redundant internal coordinates             R   N=          11
 -3.46315934E+00  0.00000000E+00  0.00000000E+00  3.46315934E+00  0.00000000E+00
  0.00000000E+00  2.11280184E+00  2.11279591E+00  1.42209331E+00  1.42221203E+00
 -3.13984929E+00
ZRed-IntVec                                I   N=          11
          -1          -1          -1          -1          -1          -1
           0           0           0           0           0
ZRed-FPVec                                 R   N=          11
  0.00000000E+00  0.00000000E+00  0.00000000E+00  0.00000000E+00  0.00000000E+00
  0.00000000E+00  0.00000000E+00  0.00000000E+00  0.00000000E+00  0.00000000E+00
  0.00000000E+00
ZRed-Constraint1                           R   N=          11
 -3.46315934E+00  0.00000000E+00  0.00000000E+00  3.46315934E+00  0.00000000E+00
  0.00000000E+00  2.11079913E+00  2.11070705E+00  1.67217611E+00  1.67276462E+00
 -1.65242814E+00
ZRed-Constraint2                           R   N=          11
 -3.46315934E+00  0.00000000E+00  0.00000000E+00  3.46315934E+00  0.00000000E+00
  0.00000000E+00  0.00000000E+00  0.00000000E+00  0.00000000E+00  0.00000000E+00
  0.00000000E+00
Number of contracted shells                I               20
Number of primitive shells                 I               38
Pure/Cartesian d shells                    I                0
Pure/Cartesian f shells                    I                0
Highest angular momentum                   I                2
Largest degree of contraction              I                6
Shell types                                I   N=          20
           0          -1          -1          -1          -1          -2
           0          -1          -1          -1          -1          -2
           0           0           0           1           0           0
           0           1
Number of primitives per shell             I   N=          20
           6           3           1           1           1           1
           6           3           1           1           1           1
           3           1           1           1           3           1
           1           1
Shell to atom map                          I   N=          20
           1           1           1           1           1           1
           2           2           2           2           2           2
           3           3           3           3           4           4
           4           4
Primitive exponents                        R   N=          38
  4.56324000E+03  6.82024000E+02  1.54973000E+02  4.44553000E+01  1.30290000E+01
  1.82773000E+00  2.09642000E+01  4.80331000E+00  1.45933000E+00  4.83456000E-01
  1.45585000E-01  4.38000000E-02  6.26000000E-01  4.56324000E+03  6.82024000E+02
  1.54973000E+02  4.44553000E+01  1.30290000E+01  1.82773000E+00  2.09642000E+01
  4.80331000E+00  1.45933000E+00  4.83456000E-01  1.45585000E-01  4.38000000E-02
  6.26000000E-01  3.38650000E+01  5.09479000E+00  1.15879000E+00  3.25840000E-01
  1.02741000E-01  7.50000000E-01  3.38650000E+01  5.09479000E+00  1.15879000E+00
  3.25840000E-01  1.02741000E-01  7.50000000E-01
Contraction coefficients                   R   N=          38
  1.96665025E-03  1.52306019E-02  7.61269097E-02  2.60801033E-01  6.16462078E-01
  2.21006028E-01  1.14660081E-01  9.19999648E-01 -3.03068213E-03  1.00000000E+00
  1.00000000E+00  1.00000000E+00  1.00000000E+00  1.96665025E-03  1.52306019E-02
  7.61269097E-02  2.60801033E-01  6.16462078E-01  2.21006028E-01  1.14660081E-01
  9.19999648E-01 -3.03068213E-03  1.00000000E+00  1.00000000E+00  1.00000000E+00
  1.00000000E+00  2.54938145E-02  1.90373109E-01  8.52161486E-01  1.00000000E+00
  1.00000000E+00  1.00000000E+00  2.54938145E-02  1.90373109E-01  8.52161486E-01
  1.00000000E+00  1.00000000E+00  1.00000000E+00
P(S=P) Contraction coefficients            R   N=          38
  0.00000000E+00  0.00000000E+00  0.00000000E+00  0.00000000E+00  0.00000000E+00
  0.00000000E+00  4.02486927E-02  2.37593957E-01  8.15853851E-01  1.00000000E+00
  1.00000000E+00  1.00000000E+00  0.00000000E+00  0.00000000E+00  0.00000000E+00
  0.00000000E+00  0.00000000E+00  0.00000000E+00  0.00000000E+00  4.02486927E-02
  2.37593957E-01  8.15853851E-01  1.00000000E+00  1.00000000E+00  1.00000000E+00
  0.00000000E+00  0.00000000E+00  0.00000000E+00  0.00000000E+00  0.00000000E+00
  0.00000000E+00  0.00000000E+00  0.00000000E+00  0.00000000E+00  0.00000000E+00
  0.00000000E+00  0.00000000E+00  0.00000000E+00
Coordinates of each shell                  R   N=          60
 -3.46315934E+00  0.00000000E+00  0.00000000E+00 -3.46315934E+00  0.00000000E+00
  0.00000000E+00 -3.46315934E+00  0.00000000E+00  0.00000000E+00 -3.46315934E+00
  0.00000000E+00  0.00000000E+00 -3.46315934E+00  0.00000000E+00  0.00000000E+00
 -3.46315934E+00  0.00000000E+00  0.00000000E+00  3.46315934E+00  0.00000000E+00
  0.00000000E+00  3.46315934E+00  0.00000000E+00  0.00000000E+00  3.46315934E+00
  0.00000000E+00  0.00000000E+00  3.46315934E+00  0.00000000E+00  0.00000000E+00
  3.46315934E+00  0.00000000E+00  0.00000000E+00  3.46315934E+00  0.00000000E+00
  0.00000000E+00 -3.15013595E+00 -1.23310307E+00  1.68683276E+00 -3.15013595E+00
 -1.23310307E+00  1.68683276E+00 -3.15013595E+00 -1.23310307E+00  1.68683276E+00
 -3.15013595E+00 -1.23310307E+00  1.68683276E+00  3.15038488E+00  1.23606047E+00
 -1.68470568E+00  3.15038488E+00  1.23606047E+00 -1.68470568E+00  3.15038488E+00
  1.23606047E+00 -1.68470568E+00  3.15038488E+00  1.23606047E+00 -1.68470568E+00
Num ILSW                                   I              100
ILSW                                       I   N=         100
           1           0           0           1           2           0
           0           0           0           0        4336          -1
           7           0           0           0           2           0
           0           0           0           0           1           0
           1           1           0           0           0           0
           0           0      100000           0          -1           0
           0           0           0           0           0           0
           0           0           0           1           0           0
           0 -2000000000           1           0           0           0
           0           0           4          52           0           0
           0           0          55           0           0           0
           0           0           0           4           0           1
           0           0           0           0           0           0
           0           0           0           0           0           0
           0           0           0           0           0           0
           0           0           0           0           0           0
           0           0           0           0
Num RLSW                                   I               52
RLSW                                       R   N=          52
  1.00000000E+00  1.00000000E+00  1.00000000E+00  1.00000000E+00  5.40000000E-01
  0.00000000E+00  0.00000000E+00  1.00000000E+00  0.00000000E+00  0.00000000E+00
  0.00000000E+00  0.00000000E+00  1.00000000E+00  0.00000000E+00  0.00000000E+00
  0.00000000E+00  0.00000000E+00  1.00000000E+00  0.00000000E+00  0.00000000E+00
  0.00000000E+00  0.00000000E+00  1.00000000E+00  0.00000000E+00  0.00000000E+00
  0.00000000E+00  0.00000000E+00  1.00000000E+00  0.00000000E+00  0.00000000E+00
  0.00000000E+00  0.00000000E+00  1.00000000E+00  0.00000000E+00  0.00000000E+00
  0.00000000E+00  0.00000000E+00  0.00000000E+00  1.00000000E+00  1.00000000E+00
  0.00000000E+00  1.00000000E+00  0.00000000E+00  0.00000000E+00  0.00000000E+00
  0.00000000E+00  0.00000000E+00  0.00000000E+00  0.00000000E+00  0.00000000E+00
  0.00000000E+00  0.00000000E+00
MxBond                                     I                2
NBond                                      I   N=           4
           2           2           1           1
IBond                                      I   N=           8
           2           3           1           4           1           0
           2           0
RBond                                      R   N=           8
  1.00000000E-01  1.00000000E+00  1.00000000E-01  1.00000000E+00  1.00000000E+00
  0.00000000E+00  1.00000000E+00  0.00000000E+00
Virial Ratio                               R      2.005118305818152E+00
SCF Energy                                 R     -7.687630381260033E+01
Total Energy                               R     -7.687630381260033E+01
S**2                                       R      1.687538997430238E-14
S**2 after annihilation                    R      8.970602038971324E-14
RMS Force                                  R      5.402620302389372E-06
RMS Density                                R      4.712534360509975E-09
Job Status                                 I                1
Nuclear derivative order                   I                1
External E-field                           R   N=          35
  0.00000000E+00  0.00000000E+00  0.00000000E+00  0.00000000E+00  0.00000000E+00
  0.00000000E+00  0.00000000E+00  0.00000000E+00  0.00000000E+00  0.00000000E+00
  0.00000000E+00  0.00000000E+00  0.00000000E+00  0.00000000E+00  0.00000000E+00
  0.00000000E+00  0.00000000E+00  0.00000000E+00  0.00000000E+00  0.00000000E+00
  0.00000000E+00  0.00000000E+00  0.00000000E+00  0.00000000E+00  0.00000000E+00
  0.00000000E+00  0.00000000E+00  0.00000000E+00  0.00000000E+00  0.00000000E+00
  0.00000000E+00  0.00000000E+00  0.00000000E+00  0.00000000E+00  0.00000000E+00
IOpCl                                      I                1
IROHF                                      I                0
Alpha Orbital Energies                     R   N=          56
 -1.06767242E+01 -1.06767095E+01 -7.29990763E-01 -7.24320816E-01 -3.91425974E-01
 -3.88895419E-01 -2.39596497E-01 -1.25198583E-01 -1.04035170E-01 -9.49088626E-02
  3.28693806E-02  4.60460997E-02  7.23760289E-02  7.32656159E-02  9.30620867E-02
  9.72080840E-02  1.09594390E-01  1.39744564E-01  1.81109013E-01  1.93752508E-01
  4.39913760E-01  4.53104278E-01  5.42558663E-01  5.61869045E-01  5.83007933E-01
  6.13578771E-01  6.19960228E-01  6.43707948E-01  6.71298161E-01  7.35921304E-01
  1.12588454E+00  1.12660371E+00  1.14037971E+00  1.14055194E+00  1.33128131E+00
  1.33300492E+00  1.34504891E+00  1.36008072E+00  1.58070807E+00  1.58951964E+00
  1.84833883E+00  1.85224720E+00  1.85274823E+00  1.87788544E+00  2.38147758E+00
  2.41013555E+00  2.47615834E+00  2.51689168E+00  2.69020641E+00  2.69270642E+00
  2.71074889E+00  2.77178927E+00  3.17264527E+00  3.18313732E+00  2.35041223E+01
  2.35057194E+01
Beta Orbital Energies                      R   N=          56
 -1.06767242E+01 -1.06767095E+01 -7.29990763E-01 -7.24320816E-01 -3.91425974E-01
 -3.88895419E-01 -2.39596497E-01 -1.25198583E-01 -1.04035170E-01 -9.49088626E-02
  3.28693806E-02  4.60460997E-02  7.23760289E-02  7.32656159E-02  9.30620867E-02
  9.72080840E-02  1.09594390E-01  1.39744564E-01  1.81109013E-01  1.93752508E-01
  4.39913760E-01  4.53104278E-01  5.42558663E-01  5.61869045E-01  5.83007933E-01
  6.13578771E-01  6.19960228E-01  6.43707948E-01  6.71298161E-01  7.35921304E-01
  1.12588454E+00  1.12660371E+00  1.14037971E+00  1.14055194E+00  1.33128131E+00
  1.33300492E+00  1.34504891E+00  1.36008072E+00  1.58070807E+00  1.58951964E+00
  1.84833883E+00  1.85224720E+00  1.85274823E+00  1.87788544E+00  2.38147758E+00
  2.41013555E+00  2.47615834E+00  2.51689168E+00  2.69020641E+00  2.69270642E+00
  2.71074889E+00  2.77178927E+00  3.17264527E+00  3.18313732E+00  2.35041223E+01
  2.35057194E+01
Alpha MO coefficients                      R   N=        3136
  4.15354008E-01  3.42179490E-01  5.17160690E-04 -7.17315392E-04  9.81333966E-04
  6.93229405E-03  2.59039411E-06 -6.30576381E-04  8.62577173E-04 -2.81150181E-03
  1.18015315E-04 -6.23982369E-05  8.53349017E-05  3.17170284E-04 -8.60596735E-05
  3.01323814E-04 -4.12107318E-04  3.85945736E-04  1.74218310E-04 -6.44665513E-04
 -2.57849634E-04 -1.27367345E-04  3.81583227E-01  3.14358441E-01 -4.78471451E-04
  6.60000902E-04 -8.99671059E-04  6.36481476E-03  2.99604520E-06  5.84167228E-04
 -7.96090074E-04 -2.55790930E-03 -1.22941704E-04  6.16779766E-05 -8.41421246E-05
  2.48223179E-04  1.07116149E-04 -2.82829742E-04  3.85605015E-04  3.55234959E-04
  1.61606230E-04 -5.97125560E-04 -2.39536733E-04 -1.18561739E-04  2.53411828E-04
 -2.15142800E-03  1.60857761E-03  2.12081859E-04 -8.51199005E-04  1.16442069E-03
  2.35730065E-04 -1.99953716E-03  1.49007399E-03 -1.93530938E-04  7.87387697E-04
 -1.07317653E-03 -3.81583465E-01 -3.14355994E-01 -4.34081919E-04  6.65804041E-04
 -9.10873054E-04 -6.41437104E-03 -6.45223284E-05  5.38934455E-04 -7.37167571E-04
  2.87846846E-03  6.34583817E-05  7.03327039E-06 -9.67592703E-06 -8.01525075E-04
 -2.53100999E-04 -2.12544871E-04  2.90849277E-04 -3.25662478E-04 -1.37915908E-04
  5.42800395E-04  2.18325587E-04  1.00825071E-04  4.15354226E-01  3.42177236E-01
 -4.76153917E-04  7.25852878E-04 -9.89422810E-04  6.97786829E-03 -6.43890159E-05
  5.91769008E-04 -8.06495962E-04 -3.10598611E-03  5.32410464E-05  1.23565425E-05
 -1.68403328E-05  8.25454610E-04 -2.44959526E-04 -2.37948288E-04  3.24241945E-04
  3.55380407E-04  1.51849392E-04 -5.96092284E-04 -2.40432441E-04 -1.11406385E-04
 -1.98135617E-04  1.70430452E-03 -1.33260058E-03 -2.08500968E-04  7.40743340E-04
 -1.01329912E-03  2.18865922E-04 -1.88028936E-03  1.46396821E-03 -2.25535515E-04
  8.12049144E-04 -1.10681242E-03 -7.68881099E-02 -1.24376406E-01  9.69121661E-03
 -3.12367940E-02  4.27316941E-02  3.54730225E-01  1.45435798E-02 -4.72267833E-02
  6.46052817E-02  2.46439052E-01  7.55444728E-03 -1.81677507E-02  2.48569719E-02
 -4.32140987E-04  1.56097265E-04 -2.82220712E-04  3.86843868E-04  5.39616410E-03
  2.39610576E-03 -6.72424838E-03 -5.06287636E-03 -1.75178203E-03 -7.68947611E-02
 -1.24387143E-01 -9.68573217E-03  3.13161062E-02 -4.26811998E-02  3.54760520E-01
 -1.45351762E-02  4.73466564E-02 -6.45288792E-02  2.46460036E-01 -7.55140411E-03
  1.82169617E-02 -2.48252772E-02 -4.32667335E-04 -1.55650399E-04  2.83751141E-04
 -3.85780344E-04  5.37629729E-03  2.39159100E-03 -6.73293500E-03 -5.07599205E-03
 -1.75447444E-03  1.01396444E-01  1.26564839E-01  1.49774113E-02 -2.62798572E-03
  9.09320105E-03 -1.24384909E-02  1.01405925E-01  1.26576451E-01  1.49790440E-02
  2.62642770E-03 -9.11534066E-03  1.24243201E-02 -7.71846248E-02 -1.24894509E-01
  5.39131032E-03 -3.24855959E-02  4.44390689E-02  3.56963306E-01  6.84514556E-03
 -4.92933043E-02  6.74309047E-02  2.47012433E-01  3.12313740E-04 -1.92180541E-02
  2.62921275E-02 -7.14609980E-03 -4.12430289E-03 -2.48641410E-04  3.39796815E-04
  6.25744532E-03  2.31538366E-03 -7.03827441E-03 -6.35469687E-03 -1.69304222E-03
  7.71777161E-02  1.24883309E-01  5.38419674E-03 -3.25613484E-02  4.43792950E-02
 -3.56931026E-01  6.83434834E-03 -4.94082576E-02  6.73399972E-02 -2.46989418E-01
  3.08140628E-04 -1.92645639E-02  2.62545675E-02  7.14600565E-03 -4.12437225E-03
 -2.49030048E-04  3.39662522E-04 -6.23565537E-03 -2.31065276E-03  7.04607869E-03
  6.36735228E-03  1.69480240E-03  1.03046979E-01  1.28766165E-01  1.64078333E-02
 -3.25526645E-03  9.00838744E-03 -1.23225301E-02 -1.03038806E-01 -1.28756271E-01
 -1.64068960E-02 -3.25309101E-03  9.02886360E-03 -1.23063929E-02 -4.29274064E-02
 -7.08802753E-02 -2.77097210E-02  8.97027216E-02 -1.22706371E-01  2.09956107E-01
 -4.02577350E-02  1.28873798E-01 -1.76289022E-01  2.90836219E-01 -3.07835173E-02
  8.61989380E-02 -1.17908439E-01  4.23245150E-02 -1.80704352E-03  5.99845849E-03
 -8.20088828E-03 -9.90060369E-03 -5.73476145E-03  2.10824398E-02  3.71932307E-03
  4.19243349E-03  4.29228521E-02  7.08727600E-02 -2.76888057E-02  8.99054247E-02
 -1.22542177E-01 -2.09933704E-01 -4.02275534E-02  1.29164486E-01 -1.76053056E-01
 -2.90805901E-01 -3.07627381E-02  8.63897346E-02 -1.17754542E-01 -4.23201112E-02
 -1.80610807E-03  6.00843884E-03 -8.19384136E-03  9.83674517E-03  5.72393582E-03
 -2.11042981E-02 -3.75677195E-03 -4.19914401E-03 -9.37415183E-02 -1.69372053E-01
 -1.08975915E-01  8.90741047E-04 -4.20319834E-03  5.74924054E-03  9.37316673E-02
  1.69354297E-01  1.08963265E-01  8.89814602E-04 -4.21235732E-03  5.74174557E-03
 -4.16398270E-02 -6.87019367E-02 -1.96563125E-02  9.19876931E-02 -1.25837200E-01
  2.01801894E-01 -2.93106224E-02  1.31969168E-01 -1.80530688E-01  2.91313801E-01
 -1.31210214E-02  8.69775067E-02 -1.18984128E-01  4.19032850E-02 -3.66182712E-04
  5.39572536E-03 -7.38393374E-03 -1.05314692E-02 -4.60519791E-03  2.10382724E-02
  4.83998195E-03  3.36496157E-03 -4.16447387E-02 -6.87100494E-02  1.96421836E-02
 -9.22185224E-02  1.25689693E-01  2.01825812E-01  2.92904614E-02 -1.32299826E-01
  1.80318931E-01  2.91347507E-01  1.31087881E-02 -8.71963097E-02  1.18843104E-01
  4.19097520E-02  3.64753850E-04 -5.41180386E-03  7.37318337E-03 -1.04693927E-02
 -4.59522378E-03  2.10643494E-02  4.87787235E-03  3.37273179E-03 -9.62828948E-02
 -1.77763691E-01 -1.09421332E-01  2.43473503E-03 -4.68211884E-03  6.40385878E-03
 -9.62921483E-02 -1.77781036E-01 -1.09434651E-01 -2.43346355E-03  4.69287020E-03
 -6.39719467E-03 -5.42645699E-03 -9.27768875E-03 -1.78639119E-01 -1.40946805E-02
  1.92499726E-02  3.34914516E-02 -2.69987098E-01 -2.16205114E-02  2.95273555E-02
  2.08368118E-02 -3.08682828E-01 -1.71140252E-02  2.33648316E-02 -1.49084021E-02
 -7.68064656E-02 -1.03548105E-02  1.41234005E-02  4.15873705E-03 -1.18829429E-02
 -3.72127329E-04 -6.96956791E-03  8.68559187E-03 -5.42683180E-03 -9.27830215E-03
  1.78643138E-01  1.40863066E-02 -1.92274570E-02  3.34930593E-02  2.69992626E-01
  2.16070739E-02 -2.94940343E-02  2.08416671E-02  3.08688947E-01  1.70897069E-02
 -2.33346335E-02 -1.49223085E-02  7.68173454E-02  1.03343038E-02 -1.41253184E-02
  4.15803654E-03 -1.18677120E-02 -3.69736442E-04 -6.96658752E-03  8.70883516E-03
  1.27354060E-03  1.11831268E-02  3.66760521E-03 -1.70324420E-02 -1.91304345E-04
  2.58806659E-04  1.27254927E-03  1.11814613E-02  3.67055926E-03  1.70321151E-02
  1.88007802E-04 -2.58970557E-04 -6.42677138E-03 -1.06785777E-02  1.94216257E-01
  1.81576996E-02 -2.47749849E-02  3.57563998E-02  2.94536379E-01  2.60525557E-02
 -3.55424811E-02  3.04432258E-02  3.26415150E-01  3.56612308E-02 -4.86626277E-02
 -4.65721060E-03  1.21098331E-01  1.33775736E-02 -1.82853811E-02 -7.33619167E-04
  1.28231701E-02  2.48688026E-03 -3.06568610E-04 -9.37295739E-03  6.42696696E-03
  1.06788895E-02  1.94218407E-01  1.81304162E-02 -2.47690659E-02 -3.57570936E-02
  2.94539371E-01  2.60086393E-02 -3.55355248E-02 -3.04463065E-02  3.26419333E-01
  3.56143342E-02 -4.86513823E-02  4.65335139E-03  1.21102455E-01  1.33892214E-02
 -1.82587945E-02  7.29264748E-04 -1.28061728E-02 -2.48651035E-03  3.07308606E-04
  9.39734014E-03  3.17729311E-03  2.33661062E-03  1.07180195E-02  1.65983337E-02
  1.80169956E-03 -2.45894472E-03 -3.17555247E-03 -2.33597188E-03 -1.07104367E-02
  1.65993320E-02  1.79960137E-03 -2.45796177E-03 -1.95071185E-08  8.88799779E-08
 -2.07893757E-05  1.37832933E-01  1.00750603E-01 -1.37964664E-06 -3.26457705E-05
  2.17180748E-01  1.58748765E-01  4.70561058E-06 -3.68062285E-05  2.39051174E-01
  1.74752082E-01  4.46213344E-05 -4.29289491E-06  1.15222211E-01  8.42511236E-02
  1.13844861E-02  1.92703616E-03  4.18851629E-03  6.57244353E-03  2.63630802E-03
 -7.02918847E-08 -2.12755610E-07  1.69634115E-05  1.37642964E-01  1.00996137E-01
  2.50034372E-07  2.67166105E-05  2.16879927E-01  1.59137777E-01  4.73420507E-06
  3.03649080E-05  2.38735610E-01  1.75158986E-01  3.89689318E-05  3.42458739E-06
  1.15092171E-01  8.44215398E-02 -1.13977794E-02 -1.93091925E-03 -4.13862921E-03
 -6.58040805E-03 -2.63163631E-03 -6.06408836E-06 -3.17708112E-06 -3.91686639E-05
  8.13605552E-08  1.33199018E-02  9.73823593E-03 -6.05744472E-06 -3.63922142E-06
 -3.72610549E-05 -4.63268197E-07  1.33034166E-02  9.75949034E-03  3.01327265E-06
  5.10017838E-06 -3.71740544E-05  1.44564567E-01  1.05698670E-01 -1.67429540E-05
 -5.71410485E-05  2.27940407E-01  1.66657362E-01 -2.07020298E-05 -6.31169228E-05
  2.51344512E-01  1.83770563E-01  7.29773471E-06 -2.83707397E-05  1.23791415E-01
  9.04993741E-02  1.19468167E-02  7.32751296E-04  4.39108133E-03  6.89578082E-03
  1.00929298E-03 -3.08597743E-06 -4.99846895E-06 -3.56719781E-05 -1.44404488E-01
 -1.05929359E-01  1.58335591E-05 -5.49233145E-05 -2.27686645E-01 -1.67022597E-01
  2.11716793E-05 -6.00780932E-05 -2.51066328E-01 -1.84172799E-01 -3.71194447E-06
 -2.78296764E-05 -1.23644137E-01 -9.07120071E-02  1.19585815E-02  7.40431529E-04
  4.34664424E-03  6.90548802E-03  1.00202245E-03  4.52748741E-06  2.11872051E-06
  7.61463359E-06 -5.40205277E-06  1.35958343E-02  9.93924523E-03 -4.50129774E-06
 -1.34639196E-06 -9.12476074E-06 -5.22083502E-06 -1.35797506E-02 -9.96283411E-03
  2.64233262E-02  4.30153426E-02 -7.59489611E-03  1.29881224E-02 -1.78417584E-02
 -1.04249477E-01 -1.83478373E-02  4.02243336E-02 -5.51177671E-02 -5.23612861E-01
 -7.28934810E-03  2.55621350E-02 -3.52017708E-02  1.04294805E+00 -9.55090488E-02
 -2.49607696E-01  3.41677650E-01 -7.60926856E-03 -4.50318391E-03  1.15183280E-02
  5.83624081E-03  3.29396660E-03  2.64246395E-02  4.30175049E-02  7.59115729E-03
 -1.30908259E-02  1.77692708E-02 -1.04254817E-01  1.83394942E-02 -4.04116010E-02
  5.49891023E-02 -5.23640115E-01  7.28033781E-03 -2.58456689E-02  3.49949349E-02
  1.04299887E+00  9.55612637E-02  2.50426504E-01 -3.41096419E-01 -7.57010191E-03
 -4.49679753E-03  1.15341884E-02  5.86042125E-03  3.29720250E-03 -1.25094682E-02
  1.19207154E-01 -3.22590188E-01 -1.37775395E-03  1.06764444E-03 -1.46127282E-03
 -1.25099910E-02  1.19213815E-01 -3.22608671E-01  1.37746457E-03 -1.07102755E-03
  1.45923023E-03  1.17085730E-02  1.92028810E-02  3.78151586E-02  3.38772268E-02
 -4.62816676E-02 -4.39859842E-02  3.53815382E-02  5.78265535E-02 -7.90309885E-02
 -2.75082999E-01  1.31231007E-01  8.90682018E-02 -1.21648763E-01  1.12388919E+00
  2.38311832E-02 -4.22808484E-01  5.78276213E-01 -8.30445949E-03  1.37331929E-04
  1.53619822E-02  4.60361056E-03 -1.02965119E-04 -1.17062253E-02 -1.91991537E-02
  3.78193259E-02  3.38977519E-02 -4.62629743E-02  4.39782158E-02  3.53901142E-02
  5.78900677E-02 -7.89755372E-02  2.75029655E-01  1.31243239E-01  8.90952458E-02
 -1.21627830E-01 -1.12383835E+00  2.37716628E-02 -4.23730986E-01  5.77638557E-01
  8.26212488E-03 -1.42294422E-04 -1.53781080E-02 -4.62867583E-03  1.02031214E-04
 -2.22801970E-02  1.20450669E-01 -5.25857448E-01  1.50431506E-03 -1.80585178E-03
  2.46971867E-03  2.22825533E-02 -1.20444671E-01  5.25861017E-01  1.50436679E-03
 -1.80981198E-03  2.46720577E-03 -1.73720120E-02 -2.80529936E-02 -5.31309281E-02
  1.77666803E-02 -2.41826207E-02  6.76368218E-02 -4.76686546E-02  8.87046398E-03
 -1.20055973E-02  3.64202851E-01 -2.20097793E-01  7.30907704E-02 -9.95101778E-02
 -1.40544669E-02  8.23102411E-01 -2.99280545E-01  4.08501118E-01 -2.26129007E-03
 -3.41329014E-03  6.31954285E-03 -9.74515477E-05  2.49508816E-03  1.73705417E-02
  2.80506190E-02 -5.31314185E-02  1.76947743E-02 -2.42358899E-02 -6.76306501E-02
 -4.76719891E-02  8.77086658E-03 -1.20798883E-02 -3.64174776E-01 -2.20093440E-01
  7.28158764E-02 -9.97100406E-02  1.40089524E-02  8.23057213E-01 -2.99134734E-01
  4.08595745E-01  2.25125639E-03  3.40814608E-03 -6.32294798E-03  9.07555083E-05
 -2.50070726E-03 -1.89844200E-02  3.85835247E-03 -2.64577282E-01  2.32522940E-03
 -2.92231685E-03  3.99711432E-03  1.89828221E-02 -3.85416189E-03  2.64563732E-01
  2.32448863E-03 -2.92853448E-03  3.99208154E-03 -2.15803487E-05 -3.46920031E-05
 -1.11426062E-05 -8.62265649E-02 -6.30931695E-02  8.17370573E-05  8.67643999E-07
 -9.22066000E-02 -6.74422406E-02  4.90720536E-04 -8.77187569E-05 -3.29476114E-01
 -2.41107410E-01 -4.66551579E-04  2.73213558E-04  5.94362681E-01  4.35429253E-01
 -7.02046361E-03  6.08597058E-04 -2.56988766E-03 -4.05048588E-03  8.34474573E-04
 -2.14309681E-05 -3.43553801E-05  1.05868913E-05 -8.61744325E-02 -6.31657576E-02
  8.09041433E-05 -1.75335782E-06 -9.21257812E-02 -6.75534639E-02  4.85176411E-04
  8.65202401E-05 -3.29301978E-01 -2.41353261E-01 -4.63329498E-04 -2.66383950E-04
  5.94504807E-01  4.35251285E-01  7.02051267E-03 -6.12235493E-04  2.56219614E-03
  4.05588075E-03 -8.32853421E-04 -2.67458971E-05  2.32267047E-05 -3.62539386E-04
  3.44900651E-06  1.29296047E-04  1.02569720E-04 -2.64583027E-05  2.39883030E-05
 -3.58605648E-04 -3.41362422E-06  1.36409832E-04  9.22404635E-05  1.30974867E-02
  2.06098495E-02 -4.56057186E-03 -2.72397115E-02  3.70955182E-02 -4.16847561E-02
 -1.30010124E-02 -1.83875732E-02  2.49926066E-02 -3.60814396E-01  8.98515293E-03
 -1.26154090E-01  1.71845019E-01  9.32874142E-02 -1.04510992E-01  6.84598135E-01
 -9.34715681E-01  5.65036652E-03  5.28856637E-03 -1.18730107E-02 -2.24186153E-03
 -3.87111164E-03  1.30982193E-02  2.06110608E-02  4.55356068E-03  2.71467077E-02
 -3.71661444E-02 -4.16874888E-02  1.29930359E-02  1.82789173E-02 -2.50729850E-02
 -3.60828103E-01 -9.01343376E-03  1.25769860E-01 -1.72143742E-01  9.33915605E-02
  1.04481847E-01 -6.84518110E-01  9.34750116E-01  5.62841216E-03  5.28504137E-03
 -1.18808489E-02 -2.25473686E-03 -3.87241264E-03  2.81520578E-02 -3.82801528E-02
  4.94649566E-01  3.40954072E-03  3.54805207E-03 -4.85355144E-03  2.81502748E-02
 -3.82808707E-02  4.94594983E-01 -3.40964153E-03 -3.55707282E-03  4.84823498E-03
 -6.24657683E-06 -1.01963018E-05 -2.39608890E-05 -7.56299671E-02 -5.53177067E-02
  2.94822581E-05 -1.55887082E-05 -7.01432565E-02 -5.13092855E-02  1.02711021E-04
 -1.28608252E-04 -3.42477045E-01 -2.50463524E-01  7.90672436E-04  8.46529526E-04
  8.71920582E-01  6.38457173E-01 -6.00344261E-03 -3.45315919E-03 -2.19796202E-03
 -3.46436435E-03 -4.70821513E-03  6.15548860E-06  9.96823503E-06 -2.55580436E-05
  7.55626528E-02  5.54087620E-02 -2.89211268E-05 -1.67189931E-05  7.00859816E-02