Title Card Required                                                     
FOpt      UM062X                                                      6-311+G(d,p)        
Number of atoms                            I                4
Info1-9                                    I   N=           9
          13          13           0           0           0         110
           2          18        -502
Full Title                                 C   N=           2
Title Card Required     
Route                                      C   N=           4
#p opt UM062X/6-311+G** nosymm int=superfine    
Charge                                     I                0
Multiplicity                               I                1
Number of electrons                        I               26
Number of alpha electrons                  I               13
Number of beta electrons                   I               13
Number of basis functions                  I               64
Number of independent functions            I               64
Number of point charges in /Mol/           I                0
Number of translation vectors              I                0
Atomic numbers                             I   N=           4
           8          16           1           1
Nuclear charges                            R   N=           4
  8.00000000E+00  1.60000000E+01  1.00000000E+00  1.00000000E+00
Current cartesian coordinates              R   N=          12
 -2.09951029E+00 -3.19363715E-04 -4.76210983E-04  2.09949895E+00  1.87082886E-04
  4.13850021E-04 -2.28003371E+00 -4.06046224E-01  1.77279563E+00  2.04121168E+00
 -2.15856168E+00 -1.33510455E+00
Number of symbols in /Mol/                 I                0
Force Field                                I                0
Atom Types                                 C   N=           4
                                                
Int Atom Types                             I   N=           4
           0           0           0           0
MM charges                                 R   N=           4
  0.00000000E+00  0.00000000E+00  0.00000000E+00  0.00000000E+00
Integer atomic weights                     I   N=           4
          16          32           1           1
Real atomic weights                        R   N=           4
  1.59949146E+01  3.19720718E+01  1.00782504E+00  1.00782504E+00
Atom fragment info                         I   N=           4
           0           0           0           0
Atom residue num                           I   N=           4
           0           0           0           0
Nuclear spins                              I   N=           4
           0           0           1           1
Nuclear ZEff                               R   N=           4
 -5.60000000E+00 -1.36000000E+01 -1.00000000E+00 -1.00000000E+00
Nuclear ZNuc                               R   N=           4
  8.00000000E+00  1.60000000E+01  1.00000000E+00  1.00000000E+00
Nuclear QMom                               R   N=           4
  0.00000000E+00  0.00000000E+00  0.00000000E+00  0.00000000E+00
Nuclear GFac                               R   N=           4
  0.00000000E+00  0.00000000E+00  2.79284600E+00  2.79284600E+00
MicOpt                                     I   N=           4
          -2          -2          -1          -1
Number of residues                         I                0
Number of secondary structures             I                0
Redundant internal dimensions              I   N=           4
          11           8           2           1
Redundant internal coordinate indices      I   N=          44
           1          -1           0           0           1          -2
           0           0           1          -3           0           0
           2          -1           0           0           2          -2
           0           0           2          -3           0           0
           1           3           0           0           2           4
           0           0           2           1           3           0
           1           2           4           0           3           1
           2           4
Redundant internal coordinates             R   N=          11
 -2.09951029E+00 -3.19363715E-04 -4.76210983E-04  2.09949895E+00  1.87082886E-04
  4.13850021E-04  1.82803064E+00  2.53913431E+00  1.66953076E+00  1.54762465E+00
  1.89990321E+00
ZRed-IntVec                                I   N=          11
          -1          -1          -1          -1          -1          -1
           0           0           0           0           0
ZRed-FPVec                                 R   N=          11
  0.00000000E+00  0.00000000E+00  0.00000000E+00  0.00000000E+00  0.00000000E+00
  0.00000000E+00  0.00000000E+00  0.00000000E+00  0.00000000E+00  0.00000000E+00
  0.00000000E+00
ZRed-Constraint1                           R   N=          11
 -2.09951029E+00 -3.19363715E-04 -4.76210983E-04  2.09949895E+00  1.87082886E-04
  4.13850021E-04  1.82728497E+00  2.52279637E+00  1.59536722E+00  1.49808161E+00
  2.00961415E+00
ZRed-Constraint2                           R   N=          11
 -2.09951029E+00 -3.19363715E-04 -4.76210983E-04  2.09949895E+00  1.87082886E-04
  4.13850021E-04  0.00000000E+00  0.00000000E+00  0.00000000E+00  0.00000000E+00
  0.00000000E+00
Number of contracted shells                I               27
Number of primitive shells                 I               49
Pure/Cartesian d shells                    I                0
Pure/Cartesian f shells                    I                0
Highest angular momentum                   I                2
Largest degree of contraction              I                6
Shell types                                I   N=          27
           0          -1          -1          -1          -1          -2
           0           0           0           0           0           0
          -1           1           1           1           1           1
          -2           0           0           0           1           0
           0           0           1
Number of primitives per shell             I   N=          27
           6           3           1           1           1           1
           6           3           1           1           1           1
           1           4           2           1           1           1
           1           3           1           1           1           3
           1           1           1
Shell to atom map                          I   N=          27
           1           1           1           1           1           1
           2           2           2           2           2           2
           2           2           2           2           2           2
           2           3           3           3           3           4
           4           4           4
Primitive exponents                        R   N=          49
  8.58850000E+03  1.29723000E+03  2.99296000E+02  8.73771000E+01  2.56789000E+01
  3.74004000E+00  4.21175000E+01  9.62837000E+00  2.85332000E+00  9.05661000E-01
  2.55611000E-01  8.45000000E-02  1.29200000E+00  9.34134000E+04  1.39617000E+04
  3.16991000E+03  9.02456000E+02  2.97158000E+02  1.08702000E+02  1.08702000E+02
  4.31553000E+01  1.81079000E+01  5.56009000E+00  2.13183000E+00  4.20403000E-01
  1.36045000E-01  4.05000000E-02  4.95040000E+02  1.17221000E+02  3.77749000E+01
  1.40584000E+01  5.56574000E+00  2.26297000E+00  8.07994000E-01  2.77460000E-01
  7.71410000E-02  6.50000000E-01  3.38650000E+01  5.09479000E+00  1.15879000E+00
  3.25840000E-01  1.02741000E-01  7.50000000E-01  3.38650000E+01  5.09479000E+00
  1.15879000E+00  3.25840000E-01  1.02741000E-01  7.50000000E-01
Contraction coefficients                   R   N=          49
  1.89515008E-03  1.43859006E-02  7.07320031E-02  2.40001011E-01  5.94797026E-01
  2.80802012E-01  1.13889012E-01  9.20811101E-01 -3.27447036E-03  1.00000000E+00
  1.00000000E+00  1.00000000E+00  1.00000000E+00  7.42999957E-04  5.79299966E-03
  2.99539983E-02  1.19027993E-01  3.68431979E-01  5.77298966E-01  1.43186060E-01
  6.24465262E-01  2.83366119E-01  1.00000000E+00  1.00000000E+00  1.00000000E+00
  1.00000000E+00  1.00000000E+00  8.30900251E-03  6.40240194E-02  2.77614084E-01
  7.45076225E-01  6.13711672E-01  4.43817763E-01  1.00000000E+00  1.00000000E+00
  1.00000000E+00  1.00000000E+00  2.54938145E-02  1.90373109E-01  8.52161486E-01
  1.00000000E+00  1.00000000E+00  1.00000000E+00  2.54938145E-02  1.90373109E-01
  8.52161486E-01  1.00000000E+00  1.00000000E+00  1.00000000E+00
P(S=P) Contraction coefficients            R   N=          49
  0.00000000E+00  0.00000000E+00  0.00000000E+00  0.00000000E+00  0.00000000E+00
  0.00000000E+00  3.65113974E-02  2.37152983E-01  8.19701941E-01  1.00000000E+00
  1.00000000E+00  1.00000000E+00  0.00000000E+00  0.00000000E+00  0.00000000E+00
  0.00000000E+00  0.00000000E+00  0.00000000E+00  0.00000000E+00  0.00000000E+00
  0.00000000E+00  0.00000000E+00  0.00000000E+00  0.00000000E+00  0.00000000E+00
  0.00000000E+00  1.00000000E+00  0.00000000E+00  0.00000000E+00  0.00000000E+00
  0.00000000E+00  0.00000000E+00  0.00000000E+00  0.00000000E+00  0.00000000E+00
  0.00000000E+00  0.00000000E+00  0.00000000E+00  0.00000000E+00  0.00000000E+00
  0.00000000E+00  0.00000000E+00  0.00000000E+00  0.00000000E+00  0.00000000E+00
  0.00000000E+00  0.00000000E+00  0.00000000E+00  0.00000000E+00
Coordinates of each shell                  R   N=          81
 -2.09951029E+00 -3.19363715E-04 -4.76210983E-04 -2.09951029E+00 -3.19363715E-04
 -4.76210983E-04 -2.09951029E+00 -3.19363715E-04 -4.76210983E-04 -2.09951029E+00
 -3.19363715E-04 -4.76210983E-04 -2.09951029E+00 -3.19363715E-04 -4.76210983E-04
 -2.09951029E+00 -3.19363715E-04 -4.76210983E-04  2.09949895E+00  1.87082886E-04
  4.13850021E-04  2.09949895E+00  1.87082886E-04  4.13850021E-04  2.09949895E+00
  1.87082886E-04  4.13850021E-04  2.09949895E+00  1.87082886E-04  4.13850021E-04
  2.09949895E+00  1.87082886E-04  4.13850021E-04  2.09949895E+00  1.87082886E-04
  4.13850021E-04  2.09949895E+00  1.87082886E-04  4.13850021E-04  2.09949895E+00
  1.87082886E-04  4.13850021E-04  2.09949895E+00  1.87082886E-04  4.13850021E-04
  2.09949895E+00  1.87082886E-04  4.13850021E-04  2.09949895E+00  1.87082886E-04
  4.13850021E-04  2.09949895E+00  1.87082886E-04  4.13850021E-04  2.09949895E+00
  1.87082886E-04  4.13850021E-04 -2.28003371E+00 -4.06046224E-01  1.77279563E+00
 -2.28003371E+00 -4.06046224E-01  1.77279563E+00 -2.28003371E+00 -4.06046224E-01
  1.77279563E+00 -2.28003371E+00 -4.06046224E-01  1.77279563E+00  2.04121168E+00
 -2.15856168E+00 -1.33510455E+00  2.04121168E+00 -2.15856168E+00 -1.33510455E+00
  2.04121168E+00 -2.15856168E+00 -1.33510455E+00  2.04121168E+00 -2.15856168E+00
 -1.33510455E+00
Num ILSW                                   I              100
ILSW                                       I   N=         100
           1           0           0           1           2           0
           0           0           0           0        4336          -1
           7           0           0           0           2           0
           0           0           0           0           1           0
           1           1           0           0           0           0
           0           0      100000           0          -1           0
           0           0           0           0           0           0
           0           0           0           1           0           0
           0 -2000000000           1           0           0           0
           0           0           4          52           0           0
           0           0          55           0           0           0
           0           0           0           4           0           1
           0           0           0           0           0           0
           0           0           0           0           0           0
           0           0           0           0           0           0
           0           0           0           0           0           0
           0           0           0           0
Num RLSW                                   I               52
RLSW                                       R   N=          52
  1.00000000E+00  1.00000000E+00  1.00000000E+00  1.00000000E+00  5.40000000E-01
  0.00000000E+00  0.00000000E+00  1.00000000E+00  0.00000000E+00  0.00000000E+00
  0.00000000E+00  0.00000000E+00  1.00000000E+00  0.00000000E+00  0.00000000E+00
  0.00000000E+00  0.00000000E+00  1.00000000E+00  0.00000000E+00  0.00000000E+00
  0.00000000E+00  0.00000000E+00  1.00000000E+00  0.00000000E+00  0.00000000E+00
  0.00000000E+00  0.00000000E+00  1.00000000E+00  0.00000000E+00  0.00000000E+00
  0.00000000E+00  0.00000000E+00  1.00000000E+00  0.00000000E+00  0.00000000E+00
  0.00000000E+00  0.00000000E+00  0.00000000E+00  1.00000000E+00  1.00000000E+00
  0.00000000E+00  1.00000000E+00  0.00000000E+00  0.00000000E+00  0.00000000E+00
  0.00000000E+00  0.00000000E+00  0.00000000E+00  0.00000000E+00  0.00000000E+00
  0.00000000E+00  0.00000000E+00
MxBond                                     I                2
NBond                                      I   N=           4
           2           2           1           1
IBond                                      I   N=           8
           2           3           1           4           1           0
           2           0
RBond                                      R   N=           8
  1.00000000E-01  1.00000000E+00  1.00000000E-01  1.00000000E+00  1.00000000E+00
  0.00000000E+00  1.00000000E+00  0.00000000E+00
Virial Ratio                               R      2.002061312999244E+00
SCF Energy                                 R     -4.745039836462342E+02
Total Energy                               R     -4.745039836462342E+02
S**2                                       R     -2.842170943040401E-14
S**2 after annihilation                    R      6.217248937900816E-14
RMS Force                                  R      7.550218213136023E-06
RMS Density                                R      2.352698029733835E-09
Job Status                                 I                1
Nuclear derivative order                   I                1
External E-field                           R   N=          35
  0.00000000E+00  0.00000000E+00  0.00000000E+00  0.00000000E+00  0.00000000E+00
  0.00000000E+00  0.00000000E+00  0.00000000E+00  0.00000000E+00  0.00000000E+00
  0.00000000E+00  0.00000000E+00  0.00000000E+00  0.00000000E+00  0.00000000E+00
  0.00000000E+00  0.00000000E+00  0.00000000E+00  0.00000000E+00  0.00000000E+00
  0.00000000E+00  0.00000000E+00  0.00000000E+00  0.00000000E+00  0.00000000E+00
  0.00000000E+00  0.00000000E+00  0.00000000E+00  0.00000000E+00  0.00000000E+00
  0.00000000E+00  0.00000000E+00  0.00000000E+00  0.00000000E+00  0.00000000E+00
IOpCl                                      I                1
IROHF                                      I                0
Alpha Orbital Energies                     R   N=          64
 -8.99672531E+01 -1.96717265E+01 -8.32757729E+00 -6.24976328E+00 -6.24611405E+00
 -6.24076255E+00 -1.09837842E+00 -8.26901467E-01 -5.36137184E-01 -4.93233661E-01
 -4.19490572E-01 -3.98424830E-01 -3.42236624E-01 -1.15670420E-01  1.50792049E-02
  4.17278252E-02  4.90981852E-02  5.86194741E-02  7.76088009E-02  1.55755646E-01
  1.94174905E-01  2.00062570E-01  2.19034197E-01  2.75224480E-01  3.16705870E-01
  3.38213365E-01  3.51104415E-01  4.07347489E-01  5.53197373E-01  6.17098028E-01
  7.17517264E-01  7.30640568E-01  7.95261371E-01  8.10839104E-01  9.79677773E-01
  1.05844912E+00  1.09632469E+00  1.16599191E+00  1.38975851E+00  1.39677051E+00
  1.44668191E+00  1.47799050E+00  1.51204259E+00  1.65660378E+00  1.67209836E+00
  1.79579211E+00  2.07464742E+00  2.10744416E+00  2.47939638E+00  2.57726008E+00
  2.89413762E+00  2.96764973E+00  3.17394764E+00  3.18769730E+00  3.85813596E+00
  5.05844080E+00  5.08795749E+00  5.53999958E+00  7.87424402E+00  1.74188164E+01
  1.74660168E+01  1.74816194E+01  4.98987668E+01  1.89139427E+02
Beta Orbital Energies                      R   N=          64
 -8.99672531E+01 -1.96717265E+01 -8.32757729E+00 -6.24976328E+00 -6.24611405E+00
 -6.24076255E+00 -1.09837842E+00 -8.26901467E-01 -5.36137184E-01 -4.93233661E-01
 -4.19490572E-01 -3.98424830E-01 -3.42236624E-01 -1.15670420E-01  1.50792049E-02
  4.17278252E-02  4.90981852E-02  5.86194741E-02  7.76088009E-02  1.55755646E-01
  1.94174905E-01  2.00062570E-01  2.19034197E-01  2.75224480E-01  3.16705870E-01
  3.38213365E-01  3.51104415E-01  4.07347489E-01  5.53197373E-01  6.17098028E-01
  7.17517264E-01  7.30640568E-01  7.95261371E-01  8.10839104E-01  9.79677773E-01
  1.05844912E+00  1.09632469E+00  1.16599191E+00  1.38975851E+00  1.39677051E+00
  1.44668191E+00  1.47799050E+00  1.51204259E+00  1.65660378E+00  1.67209836E+00
  1.79579211E+00  2.07464742E+00  2.10744416E+00  2.47939638E+00  2.57726008E+00
  2.89413762E+00  2.96764973E+00  3.17394764E+00  3.18769730E+00  3.85813596E+00
  5.05844080E+00  5.08795749E+00  5.53999958E+00  7.87424402E+00  1.74188164E+01
  1.74660168E+01  1.74816194E+01  4.98987668E+01  1.89139427E+02
Alpha MO coefficients                      R   N=        4096
  1.60020182E-07 -1.59397037E-06 -1.17102847E-05 -7.74541219E-07  3.16395293E-06
  6.97252810E-06  3.33097370E-05  3.15922107E-06 -1.53891335E-05 -5.74968932E-05
 -2.04148404E-05  5.48627608E-06 -1.70868375E-05  3.23476624E-04  1.86776648E-04
 -1.84337287E-05  5.05653921E-05 -1.13880094E-05 -1.55047010E-06  2.81837639E-06
  9.07822318E-06  1.23411829E-06  4.10787474E-01  6.54409686E-01  1.53591050E-02
 -4.36795358E-03  1.67255349E-03 -1.06294766E-03  4.47249457E-05 -7.60752859E-05
 -2.07835088E-05 -1.08357287E-05 -6.00811599E-05 -6.66115960E-05 -3.64934019E-05
  1.49018785E-05  2.26203236E-05  1.27569064E-05 -2.15771684E-06  1.81714872E-06
  1.57060243E-06 -2.53797740E-05 -1.38336446E-04 -8.47921723E-05  2.47477865E-04
  1.63233587E-04  9.38157155E-05 -4.30064325E-06  9.12830182E-07  6.36690418E-05
 -5.55051879E-05  1.18605269E-06 -7.63372980E-06  4.88905333E-05 -1.15258519E-04
  1.51173490E-05  3.33843480E-06 -2.55494019E-05  1.91603807E-05 -1.78598607E-04
  2.57442081E-04 -4.78212077E-06 -1.42459687E-04 -8.85728698E-05  5.52865965E-01
  4.69662537E-01  6.61926226E-04 -2.97469161E-04  1.22598373E-03  8.15360740E-03
 -1.98189550E-04  3.43801494E-05 -1.46592031E-04 -3.42120124E-03 -1.60207142E-04
 -3.80242148E-05  2.18671140E-04  3.18405751E-03  5.42657499E-04 -7.47153975E-05
  2.73613526E-04  1.30415016E-04 -2.73199303E-05 -4.89010249E-05 -2.34547380E-05
  6.36184562E-06  2.14086588E-07 -1.28167432E-06  1.18339256E-05 -2.41880141E-05
 -5.29379475E-05 -4.31675958E-05 -8.71072226E-04  4.31545783E-04  1.27115681E-05
  5.73285790E-05  8.71578265E-06  1.48502481E-07 -2.29452448E-07 -1.34758606E-05
 -2.47002603E-06  8.88889214E-07  9.90335143E-05  1.56001422E-05  1.53937556E-06
 -1.96489995E-04 -6.69118583E-05 -2.83037448E-05  2.38098028E-04  1.50715775E-05
 -3.84451984E-05 -5.54065958E-05  1.13239683E-05  2.68946397E-05  7.49271208E-05
  1.42677253E-05  8.35103293E-05 -7.48340712E-05 -8.83975223E-04 -2.17269088E-05
 -9.70845573E-05  4.18351623E-04  3.44994393E-05 -1.76537244E-04  1.10617064E-04
  6.97015614E-05 -2.87659866E-05 -2.14568547E-05 -1.13881251E-05 -4.01472788E-05
 -1.01323231E-04 -8.53926562E-06  4.02301532E-05  2.77702587E-04  6.09234549E-04
  4.78889573E-05 -2.20571176E-04 -1.12395020E-03 -5.70679875E-04  1.14079276E-04
 -4.39094217E-04  4.46968735E-03  2.62737916E-03 -2.75537054E-04  8.14631620E-04
 -1.69619907E-04 -2.49053156E-05  5.36242843E-05  8.04179887E-05  1.20941197E-05
 -1.19759279E-01 -3.20482603E-01  5.16077995E-01  5.98767160E-01  4.35992660E-02
 -1.68364080E-02  1.13287312E-03 -1.02726577E-03 -2.30736385E-04 -1.05511725E-04
 -1.57188373E-03 -1.65430306E-03 -8.85974816E-04 -3.62971455E-03 -3.73134392E-03
 -1.99804153E-03 -3.89865507E-04 -3.87291416E-04 -1.92357241E-04 -3.83367076E-04
 -1.47741765E-03 -8.85305195E-04  3.23532586E-03  2.03041156E-03  1.13587815E-03
 -4.04163937E-04 -5.35695497E-05  9.47132908E-04 -2.30013427E-04 -6.35337934E-05
 -1.22313111E-04  1.03176223E-03 -1.85979389E-03  2.91404051E-04  6.77444582E-05
 -4.15634264E-04  9.04715641E-05 -1.63510450E-03  3.26706875E-03 -4.59992666E-05
 -1.33615061E-03 -8.32822392E-04  4.54140078E-06 -1.12265953E-05 -2.54304757E-06
 -1.72579781E-06  5.89257015E-06  3.17249862E-04  2.30424906E-05  1.13962193E-05
 -2.29009605E-05 -9.50734153E-04 -9.16176164E-04  1.10313888E-04 -4.30740565E-04
  1.34036952E-03  9.98484181E-04 -8.23802544E-05  2.20249273E-04  3.33060037E-05
 -1.91895091E-05  3.11241927E-05 -1.99578436E-04 -1.52208220E-06 -4.08941761E-04
 -1.11988758E-03  2.08703791E-03  1.65954682E-03 -4.01669423E-05  2.53618198E-04
 -6.23837157E-04 -2.34339414E-03  4.62776140E-04  3.11863528E-04  3.66633452E-01
 -8.03928684E-02 -5.13584381E-02  6.86090136E-01 -1.50387223E-01 -9.60526789E-02
  5.34295691E-02 -1.16040199E-02 -7.43726078E-03 -7.85466002E-03  1.33052505E-03
  8.96338016E-04  4.98905889E-03 -9.36477781E-04 -6.37591489E-04  5.56906549E-05
 -1.82439108E-04  2.19474087E-04 -3.37633179E-04 -3.55868494E-04  2.60105945E-06
  7.74726491E-04 -5.87828598E-04  1.44682131E-04  3.77431826E-05 -1.04079149E-04
  1.72675127E-04 -3.28256787E-04 -1.34524534E-04  1.44823978E-04 -2.45667343E-04
 -1.57107126E-04  1.00214992E-06 -3.78815328E-06 -1.10962607E-05  4.80464976E-06
  7.89557609E-06  8.76295672E-05  3.92772416E-05 -3.21730807E-06 -3.00727466E-05
 -2.25924557E-04 -2.95484575E-04  4.22277881E-05 -6.99772550E-05 -5.17687742E-05
  1.76452490E-04 -2.53366237E-05 -2.09627544E-04  1.14765689E-05  8.66561311E-06
  1.57057289E-05 -5.15871044E-05  2.47201371E-05 -8.64399171E-04 -2.34125018E-03
  4.16026546E-03  4.14598604E-03 -7.68559150E-04 -1.49328742E-04 -6.73165161E-04
 -4.50206120E-04 -1.58124129E-03 -9.89072959E-04  9.54924441E-02  3.11342309E-01
  1.94877554E-01  1.78449848E-01  5.81565671E-01  3.64019346E-01  1.36047255E-02
  4.40930733E-02  2.75907007E-02 -1.97573630E-03 -5.73610179E-03 -3.58154714E-03
  1.13516874E-03  3.61192323E-03  2.26489631E-03  1.20145517E-04 -2.45226961E-04
 -5.14611754E-04  3.77243057E-04 -4.05614300E-04  3.88081585E-06  1.26718489E-04
  3.50852742E-04  5.05041675E-05 -2.51477090E-05 -5.84067727E-05 -5.26380029E-04
 -2.17795473E-04  1.20629075E-03 -1.42959334E-05  5.10119171E-04  3.23466648E-04
  6.53737767E-07  3.29475723E-06  1.22679472E-06 -3.30046937E-06  6.30536479E-06
 -3.55733984E-05 -3.07215349E-06  7.08799932E-06 -2.23134504E-05  1.38032614E-04
  7.46919557E-06 -3.71678777E-05  1.44942764E-04 -1.97898863E-04  4.56197844E-05
  6.92585624E-05 -2.10602121E-04  1.74679906E-05  2.42115197E-05 -1.01251491E-05
 -3.71558211E-07 -1.45281869E-05  4.92198851E-05  1.33469035E-04 -2.37513889E-04
 -2.36772568E-04  6.78664348E-05 -6.42938878E-05 -4.81676644E-05  2.84291292E-05
  1.11187138E-03 -1.78317889E-03  8.46303374E-04 -2.01953617E-01  3.22235581E-01
  1.59615156E-03 -3.76610033E-01  6.00910326E-01  9.65515740E-05 -2.75802402E-02
  4.39989090E-02  1.73777630E-05  3.72692419E-03 -5.92629518E-03  1.60575322E-05
 -2.13256372E-03  3.45169907E-03 -3.04439980E-04 -2.80426719E-04 -2.22273872E-04
 -2.00263986E-04  1.74190510E-04  7.63831642E-06 -2.79168585E-04  3.88300770E-04
 -2.45251648E-05  1.11613768E-05 -2.31367284E-06  2.70539867E-06  2.23984007E-05
  2.42463308E-05 -1.07782391E-06 -4.59623723E-05  8.62101241E-05 -1.16525740E-01
 -1.91694018E-01  4.28517576E-03 -1.06029273E-02  4.40106352E-02  5.55816836E-01
  5.72957046E-03 -1.72959724E-02  7.19841683E-02  4.36387001E-01  2.35086646E-02
 -8.85988536E-03  3.27708505E-02 -4.54736470E-02 -1.66327118E-02  2.23637579E-03
 -1.01267420E-02  8.76102381E-03 -6.75405893E-04 -4.96484718E-03  5.56538488E-03
  1.25499125E-04  3.66896453E-03  1.03939939E-02 -2.15239874E-02 -3.97008508E-02
  6.79592128E-02  4.73708191E-02  1.20221241E-02 -8.38895781E-03  1.46209034E-04
 -1.71006454E-04  5.89661635E-03  7.09301299E-04  3.11628913E-05  1.13601801E-02
  1.42587533E-03  1.04126861E-04 -1.31972418E-02 -1.74593076E-03 -2.34382043E-04
 -2.99513465E-02 -2.48673678E-03  7.45897403E-04 -4.04196535E-03 -1.92159842E-03
  4.57050704E-04 -4.87147598E-03 -7.56108466E-04  1.32886987E-03  7.21395929E-03
  7.63467400E-04  1.07579445E-01  7.67393523E-02  2.48882558E-02  1.84437264E-03
  4.98265473E-03 -2.14206747E-02  6.64882439E-03  7.09397784E-03 -2.41764079E-03
 -7.98499521E-04  1.52223111E-03  9.78455956E-04  1.60442423E-02  2.67260362E-02
  2.78081408E-02  1.83471117E-03 -1.55553942E-02 -8.32463521E-02  4.16981459E-02
  2.81641722E-03 -2.28764894E-02 -5.11374176E-02  3.37804419E-02 -1.15132981E-03
 -5.86043728E-03 -3.23649394E-02 -1.50144242E-02  1.84852615E-03 -5.71539735E-03
 -3.44933698E-03  1.49755298E-03  7.18280585E-04  2.77387332E-03 -7.18573364E-04
  3.28501265E-02  9.33718426E-02 -1.96194489E-01 -3.61527049E-01  6.51563144E-01
  4.14763921E-01 -3.14321897E-03  4.77708777E-03 -1.61834978E-04 -2.41408985E-03
 -3.29634113E-04  1.45653667E-02  8.53991145E-03 -5.76545739E-04  2.90280417E-02
  1.70493899E-02  1.00402081E-03 -4.00016254E-02 -2.38451437E-02  4.83048372E-03
 -5.58028932E-02 -3.12273631E-02 -1.37565152E-02 -1.00000594E-02 -1.04750344E-03
 -8.38111832E-03 -1.26230096E-03  2.16572337E-02 -6.87788016E-03 -6.31134248E-04
 -2.44504102E-02 -3.44629520E-02  1.17471248E-02  1.05316291E-03 -1.77726405E-03
  7.45423663E-03  1.00602490E-01  1.29477554E-01  4.46520213E-03  1.93721853E-03
  1.90998529E-02  1.19063254E-02  3.60402840E-02  6.01765495E-02 -3.84181421E-02
 -5.42333899E-02  2.37472666E-01 -1.79599017E-01 -5.52873248E-02 -7.75555128E-02
  3.39331401E-01 -2.81545967E-01 -5.78314401E-02 -5.27812296E-02  2.34485544E-01
 -4.69083261E-02  6.40654035E-03 -4.10117797E-03  2.57857953E-02  1.81188217E-02
  9.87760087E-04 -6.93119372E-03 -4.00705873E-03 -2.23831565E-04  2.19002310E-03
  6.25727611E-03 -1.34424877E-02 -2.43922773E-02  4.71199248E-02  2.79125720E-02
  5.80777808E-03 -2.82925921E-03  9.40831463E-04 -4.78834242E-03 -1.32567534E-02
  6.08103986E-03 -7.20838489E-03 -2.55278565E-02  1.18322224E-02 -1.36372654E-02
  3.35813665E-02 -1.70775248E-02  1.77231226E-02  7.73869374E-02 -3.00875604E-02
  4.51701386E-02  1.76037033E-02 -1.21938187E-02  1.75676648E-02  4.67491631E-03
 -1.18387878E-02  1.35674183E-03 -1.13474930E-02  3.41438429E-04  1.63864201E-01
  2.54610314E-01  7.35170098E-02  6.12625359E-03  6.36887505E-03 -2.92899054E-02
  1.09602530E-02  2.11225094E-02 -1.56230593E-03  3.46869726E-03  1.55279096E-03
  2.54128105E-03  6.44637743E-03  1.09698109E-02  5.23937091E-02  5.31717742E-02
  2.07047080E-02 -3.79937577E-02  7.79050833E-02  7.70395952E-02  2.97981071E-02
 -1.86542348E-02  7.64667364E-02  7.10992136E-02  3.64651292E-02 -2.38083141E-02
  7.92590561E-03  1.04782451E-02 -7.86780354E-03  3.86250006E-05  4.42912953E-03
  2.05290102E-03  3.74427302E-03  2.12994586E-03  1.07925425E-02  3.08306414E-02
 -6.62454511E-02 -1.20968651E-01  2.20571183E-01  2.72847160E-01  1.81619330E-02
  9.28386319E-04 -1.70342044E-02 -1.38134346E-02  4.39590403E-03 -6.66648114E-02
 -4.23329602E-02  8.46797884E-03 -1.29787404E-01 -8.23686271E-02 -9.70747586E-03
  1.88336683E-01  1.19169122E-01 -2.78021140E-02  3.29529503E-01  2.10606200E-01
 -1.18702521E-03  8.46828008E-02  6.13186679E-02 -1.82901429E-04 -4.12000660E-03
 -3.61365068E-02  3.95929466E-02 -5.24970229E-03 -2.55611523E-03 -1.19540404E-02
  2.43846469E-02  6.66055438E-03  5.21117570E-03  4.88808960E-03 -1.52584056E-01
 -2.72438282E-01 -1.28422750E-01 -2.95925588E-03 -2.09706933E-02 -1.35143728E-02
 -1.57998419E-02 -2.69529388E-02 -1.97354195E-01  9.82631856E-02 -2.53455756E-02
  9.38683735E-02 -2.91458028E-01  1.42910319E-01 -3.72742170E-02  5.46155028E-02
 -2.95566371E-01  1.36099449E-01 -4.90664194E-02  2.69475818E-02 -3.88718866E-02
  2.91349225E-02  6.19825822E-03  2.17228026E-03 -1.09297902E-02  5.43086227E-03
 -6.00693555E-03  4.64031460E-03  5.07290536E-03  1.45054468E-02 -3.12935157E-02
 -5.75680361E-02  1.15094040E-01  8.63376781E-02  1.72103147E-02 -2.76034744E-02
 -1.20445075E-02  7.44331159E-03 -5.81736859E-02 -1.45173240E-02  5.26378459E-03
 -1.12163006E-01 -2.78033606E-02  1.01229494E-02  1.52794984E-01  3.95236653E-02
 -1.45097280E-02  3.43138616E-01  8.42603316E-02 -2.92257001E-02  1.26846975E-01
  4.50169980E-02 -2.62080709E-02  1.40839306E-02 -2.00552692E-03  3.00231632E-04
 -2.03097426E-02 -1.56267496E-02 -7.62457271E-03  1.20771806E-02 -2.71937012E-02
 -2.22086672E-02  1.15521816E-02 -5.28559469E-03 -3.56595591E-03 -3.68546052E-03
 -5.62645365E-04  1.04989229E-02  1.77358216E-03 -1.38158396E-03  4.32395421E-03
  7.37695868E-03  5.45192118E-02  2.68599212E-01  8.12431380E-02 -2.53169935E-02
  8.05820768E-02  3.91124856E-01  1.18380775E-01 -1.68966734E-02  8.32168377E-02
  3.65494924E-01  1.11416230E-01 -2.35893556E-02  6.57673815E-03  8.38275468E-02
  1.88767385E-02  5.63327094E-03  3.45814315E-03  1.14475205E-02  4.93184726E-03
  2.86579358E-03 -3.98225749E-03 -1.13893145E-02  2.46003627E-02  4.50010587E-02
 -8.32018437E-02 -1.06337948E-01 -1.74674513E-02  1.11473334E-02  1.93028275E-03
  6.35761855E-03  1.99124758E-02  1.30878704E-02  2.06724535E-02  3.83236986E-02
  2.57712269E-02  4.01323111E-02 -5.24937832E-02 -4.05491760E-02 -5.99528499E-02
 -1.18940369E-01 -5.67557537E-02 -1.08305674E-01 -4.84586706E-02 -8.91562929E-03
 -3.88440823E-02 -3.27718342E-03 -2.65394482E-03  1.22675862E-02 -3.30607604E-03
 -1.11146123E-02  6.95429536E-03  5.50896799E-03  1.77244198E-02  5.70543980E-03
  3.11176218E-02  7.93678057E-03  4.51266317E-02  9.01538006E-02  5.59959850E-02
  1.90442429E-03  8.77855238E-03  3.05214199E-03 -5.22264903E-03 -8.81967647E-03
 -1.87366875E-02  5.42731348E-02 -3.00729895E-02  2.80639995E-02 -2.75223635E-02
  7.90263428E-02 -4.39239932E-02  3.81075928E-02 -3.28778670E-02  7.18782177E-02
 -2.83492041E-02  2.13385774E-02 -1.78357926E-03  2.34778663E-02 -6.87821466E-03