 Entering Gaussian System, Link 0=g16
 Initial command:
 /home/szhao/Apps/g16/l1.exe "/home/szhao/tmp/Gau-96668.inp" -scrdir="/home/szhao/tmp/"
 Default is to use a total of  16 processors:
                               16 via shared-memory
                                1 via Linda
 Entering Link 1 = /home/szhao/Apps/g16/l1.exe PID=     96670.
  
 Copyright (c) 1988,1990,1992,1993,1995,1998,2003,2009,2016,
            Gaussian, Inc.  All Rights Reserved.
  
 This is part of the Gaussian(R) 16 program.  It is based on
 the Gaussian(R) 09 system (copyright 2009, Gaussian, Inc.),
 the Gaussian(R) 03 system (copyright 2003, Gaussian, Inc.),
 the Gaussian(R) 98 system (copyright 1998, Gaussian, Inc.),
 the Gaussian(R) 94 system (copyright 1995, Gaussian, Inc.),
 the Gaussian 92(TM) system (copyright 1992, Gaussian, Inc.),
 the Gaussian 90(TM) system (copyright 1990, Gaussian, Inc.),
 the Gaussian 88(TM) system (copyright 1988, Gaussian, Inc.),
 the Gaussian 86(TM) system (copyright 1986, Carnegie Mellon
 University), and the Gaussian 82(TM) system (copyright 1983,
 Carnegie Mellon University). Gaussian is a federally registered
 trademark of Gaussian, Inc.
  
 This software contains proprietary and confidential information,
 including trade secrets, belonging to Gaussian, Inc.
  
 This software is provided under written license and may be
 used, copied, transmitted, or stored only in accord with that
 written license.
  
 The following legend is applicable only to US Government
 contracts under FAR:
  
                    RESTRICTED RIGHTS LEGEND
  
 Use, reproduction and disclosure by the US Government is
 subject to restrictions as set forth in subparagraphs (a)
 and (c) of the Commercial Computer Software - Restricted
 Rights clause in FAR 52.227-19.
  
 Gaussian, Inc.
 340 Quinnipiac St., Bldg. 40, Wallingford CT 06492
  
  
 ---------------------------------------------------------------
 Warning -- This program may not be used in any manner that
 competes with the business of Gaussian, Inc. or will provide
 assistance to any competitor of Gaussian, Inc.  The licensee
 of this program is prohibited from giving any competitor of
 Gaussian, Inc. access to this program.  By using this program,
 the user acknowledges that Gaussian, Inc. is engaged in the
 business of creating and licensing software in the field of
 computational chemistry and represents and warrants to the
 licensee that it is not a competitor of Gaussian, Inc. and that
 it will not use this program in any manner prohibited above.
 ---------------------------------------------------------------
  

 Cite this work as:
 Gaussian 16, Revision A.03,
 M. J. Frisch, G. W. Trucks, H. B. Schlegel, G. E. Scuseria, 
 M. A. Robb, J. R. Cheeseman, G. Scalmani, V. Barone, 
 G. A. Petersson, H. Nakatsuji, X. Li, M. Caricato, A. V. Marenich, 
 J. Bloino, B. G. Janesko, R. Gomperts, B. Mennucci, H. P. Hratchian, 
 J. V. Ortiz, A. F. Izmaylov, J. L. Sonnenberg, D. Williams-Young, 
 F. Ding, F. Lipparini, F. Egidi, J. Goings, B. Peng, A. Petrone, 
 T. Henderson, D. Ranasinghe, V. G. Zakrzewski, J. Gao, N. Rega, 
 G. Zheng, W. Liang, M. Hada, M. Ehara, K. Toyota, R. Fukuda, 
 J. Hasegawa, M. Ishida, T. Nakajima, Y. Honda, O. Kitao, H. Nakai, 
 T. Vreven, K. Throssell, J. A. Montgomery, Jr., J. E. Peralta, 
 F. Ogliaro, M. J. Bearpark, J. J. Heyd, E. N. Brothers, K. N. Kudin, 
 V. N. Staroverov, T. A. Keith, R. Kobayashi, J. Normand, 
 K. Raghavachari, A. P. Rendell, J. C. Burant, S. S. Iyengar, 
 J. Tomasi, M. Cossi, J. M. Millam, M. Klene, C. Adamo, R. Cammi, 
 J. W. Ochterski, R. L. Martin, K. Morokuma, O. Farkas, 
 J. B. Foresman, and D. J. Fox, Gaussian, Inc., Wallingford CT, 2016.
 
 ******************************************
 Gaussian 16:  ES64L-G16RevA.03 25-Dec-2016
                21-Apr-2025 
 ******************************************
 %chk=force.chk
 %mem=4GB
 %nprocshared=8
 Will use up to    8 processors via shared memory.
 ---------------------------------------------------
 #p UM062X/6-311+G** force int=superfine pop=saveNBO
 ---------------------------------------------------
 1/10=7,30=1,38=1/1,3;
 2/12=2,17=6,18=5,40=1/2;
 3/5=4,6=6,7=111,11=2,25=1,30=1,71=1,74=-55,75=-7,116=2/1,2,3;
 4//1;
 5/5=2,38=5/2;
 6/7=2,8=2,9=2,10=2,28=1,40=1,73=1/1,7;
 7/29=1/1,2,3,16;
 1/10=7,30=1/3;
 99//99;
 Leave Link    1 at Mon Apr 21 19:52:47 2025, MaxMem=   536870912 cpu:               1.9 elap:               0.2
 (Enter /home/szhao/Apps/g16/l101.exe)
 -------------------
 Title Card Required
 -------------------
 Symbolic Z-matrix:
 Charge =  0 Multiplicity = 1
 O                    -0.76856   0.        0. 
 O                     0.76856   0.        0. 
 
 ITRead=  0  0
 MicOpt= -1 -1
 NAtoms=      2 NQM=        2 NQMF=       0 NMMI=      0 NMMIF=      0
                NMic=       0 NMicF=      0.
                    Isotopes and Nuclear Properties:
 (Nuclear quadrupole moments (NQMom) in fm**2, nuclear magnetic moments (NMagM)
  in nuclear magnetons)

  Atom         1           2
 IAtWgt=          16          16
 AtmWgt=  15.9949146  15.9949146
 NucSpn=           0           0
 AtZEff=  -0.0000000  -0.0000000
 NQMom=    0.0000000   0.0000000
 NMagM=    0.0000000   0.0000000
 AtZNuc=   8.0000000   8.0000000
 Leave Link  101 at Mon Apr 21 19:52:48 2025, MaxMem=   536870912 cpu:               2.0 elap:               0.3
 (Enter /home/szhao/Apps/g16/l103.exe)

 GradGradGradGradGradGradGradGradGradGradGradGradGradGradGradGradGradGrad
 Berny optimization.
 Initialization pass.
 Trust Radius=3.00D-01 FncErr=1.00D-07 GrdErr=1.00D-07 EigMax=2.50D+02 EigMin=1.00D-04
 Number of steps in this run=      2 maximum allowed number of steps=      2.
 GradGradGradGradGradGradGradGradGradGradGradGradGradGradGradGradGradGrad

 Leave Link  103 at Mon Apr 21 19:52:48 2025, MaxMem=   536870912 cpu:               0.3 elap:               0.2
 (Enter /home/szhao/Apps/g16/l202.exe)
                          Input orientation:                          
 ---------------------------------------------------------------------
 Center     Atomic      Atomic             Coordinates (Angstroms)
 Number     Number       Type             X           Y           Z
 ---------------------------------------------------------------------
      1          8           0       -0.768562    0.000000    0.000000
      2          8           0        0.768562    0.000000    0.000000
 ---------------------------------------------------------------------
 Stoichiometry    O2
 Framework group  D*H[C*(O.O)]
 Deg. of freedom     1
 Full point group                 D*H     NOp   8
 Largest Abelian subgroup         D2H     NOp   8
 Largest concise Abelian subgroup C2      NOp   2
                         Standard orientation:                         
 ---------------------------------------------------------------------
 Center     Atomic      Atomic             Coordinates (Angstroms)
 Number     Number       Type             X           Y           Z
 ---------------------------------------------------------------------
      1          8           0        0.000000    0.000000    0.768562
      2          8           0        0.000000    0.000000   -0.768562
 ---------------------------------------------------------------------
 Rotational constants (GHZ):           0.0000000          26.7452993          26.7452993
 Leave Link  202 at Mon Apr 21 19:52:49 2025, MaxMem=   536870912 cpu:               0.1 elap:               0.2
 (Enter /home/szhao/Apps/g16/l301.exe)
 Standard basis: 6-311+G(d,p) (5D, 7F)
 Ernie: Thresh=  0.10000D-02 Tol=  0.10000D-05 Strict=F.
 There are    12 symmetry adapted cartesian basis functions of AG  symmetry.
 There are     1 symmetry adapted cartesian basis functions of B1G symmetry.
 There are     5 symmetry adapted cartesian basis functions of B2G symmetry.
 There are     5 symmetry adapted cartesian basis functions of B3G symmetry.
 There are     1 symmetry adapted cartesian basis functions of AU  symmetry.
 There are    12 symmetry adapted cartesian basis functions of B1U symmetry.
 There are     5 symmetry adapted cartesian basis functions of B2U symmetry.
 There are     5 symmetry adapted cartesian basis functions of B3U symmetry.
 There are    11 symmetry adapted basis functions of AG  symmetry.
 There are     1 symmetry adapted basis functions of B1G symmetry.
 There are     5 symmetry adapted basis functions of B2G symmetry.
 There are     5 symmetry adapted basis functions of B3G symmetry.
 There are     1 symmetry adapted basis functions of AU  symmetry.
 There are    11 symmetry adapted basis functions of B1U symmetry.
 There are     5 symmetry adapted basis functions of B2U symmetry.
 There are     5 symmetry adapted basis functions of B3U symmetry.
    44 basis functions,    72 primitive gaussians,    46 cartesian basis functions
     8 alpha electrons        8 beta electrons
       nuclear repulsion energy        22.0329274014 Hartrees.
 IExCor= 4336 DFT=T Ex+Corr=M062X ExCW=0 ScaHFX=  0.540000
 ScaDFX=  1.000000  1.000000  1.000000  1.000000 ScalE2=  1.000000  1.000000
 IRadAn=      7 IRanWt=     -1 IRanGd=            0 ICorTp=0 IEmpDi=  4
 NAtoms=    2 NActive=    2 NUniq=    1 SFac= 4.00D+00 NAtFMM=   60 NAOKFM=F Big=F
 Integral buffers will be    131072 words long.
 Raffenetti 2 integral format.
 Two-electron integral symmetry is turned on.
 Leave Link  301 at Mon Apr 21 19:52:49 2025, MaxMem=   536870912 cpu:               0.7 elap:               0.6
 (Enter /home/szhao/Apps/g16/l302.exe)
 NPDir=0 NMtPBC=     1 NCelOv=     1 NCel=       1 NClECP=     1 NCelD=      1
         NCelK=      1 NCelE2=     1 NClLst=     1 CellRange=     0.0.
 One-electron integrals computed using PRISM.
 One-electron integral symmetry used in STVInt
 NBasis=    44 RedAO= T EigKep=  2.95D-03  NBF=    11     1     5     5     1    11     5     5
 NBsUse=    44 1.00D-06 EigRej= -1.00D+00 NBFU=    11     1     5     5     1    11     5     5
 Precomputing XC quadrature grid using
 IXCGrd= 4 IRadAn=           7 IRanWt=          -1 IRanGd=           0 AccXCQ= 0.00D+00.
 Generated NRdTot=       0 NPtTot=           0 NUsed=           0 NTot=          32
 NSgBfM=    46    46    46    46    46 MxSgAt=     2 MxSgA2=     2.
 Leave Link  302 at Mon Apr 21 19:52:50 2025, MaxMem=   536870912 cpu:               1.2 elap:               0.5
 (Enter /home/szhao/Apps/g16/l303.exe)
 DipDrv:  MaxL=1.
 Leave Link  303 at Mon Apr 21 19:52:51 2025, MaxMem=   536870912 cpu:               0.5 elap:               0.4
 (Enter /home/szhao/Apps/g16/l401.exe)
 ExpMin= 8.45D-02 ExpMax= 8.59D+03 ExpMxC= 1.30D+03 IAcc=3 IRadAn=         7 AccDes= 0.00D+00
 Harris functional with IExCor= 1009 and IRadAn=       7 diagonalized for initial guess.
 HarFok:  IExCor= 1009 AccDes= 0.00D+00 IRadAn=         7 IDoV= 1 UseB2=F ITyADJ=14
 ICtDFT=  3500011 ScaDFX=  1.000000  1.000000  1.000000  1.000000
 FoFCou: FMM=F IPFlag=           0 FMFlag=      100000 FMFlg1=           0
         NFxFlg=           0 DoJE=T BraDBF=F KetDBF=T FulRan=T
         wScrn=  0.000000 ICntrl=       500 IOpCl=  0 I1Cent=   200000004 NGrid=           0
         NMat0=    1 NMatS0=      1 NMatT0=    0 NMatD0=    1 NMtDS0=    0 NMtDT0=    0
 Petite list used in FoFCou.
 Harris En= -150.113845659357    
 JPrj=0 DoOrth=F DoCkMO=F.
 Initial guess orbital symmetries:
 Alpha Orbitals:
       Occupied  (SGU) (SGG) (SGG) (SGU) (SGG) (PIU) (PIU) (PIG)
       Virtual   (PIG) (SGU) (SGG) (SGU) (PIU) (PIU) (SGG) (PIG)
                 (PIG) (SGU) (PIU) (PIU) (SGU) (PIG) (PIG) (SGG)
                 (SGG) (SGU) (SGG) (PIU) (PIU) (DLTG) (DLTG) (DLTU)
                 (DLTU) (PIG) (PIG) (SGU) (SGG) (PIU) (PIU) (PIG)
                 (PIG) (SGU) (SGG) (SGU)
 Beta  Orbitals:
       Occupied  (SGU) (SGG) (SGG) (SGU) (SGG) (PIU) (PIU) (PIG)
       Virtual   (PIG) (SGU) (SGG) (SGU) (PIU) (PIU) (SGG) (PIG)
                 (PIG) (SGU) (PIU) (PIU) (SGU) (PIG) (PIG) (SGG)
                 (SGG) (SGU) (SGG) (PIU) (PIU) (DLTG) (DLTG) (DLTU)
                 (DLTU) (PIG) (PIG) (SGU) (SGG) (PIU) (PIU) (PIG)
                 (PIG) (SGU) (SGG) (SGU)
 Initial guess <Sx>= 0.0000 <Sy>= 0.0000 <Sz>= 0.0000 <S**2>=-0.0000 S=-0.0000
 Leave Link  401 at Mon Apr 21 19:52:52 2025, MaxMem=   536870912 cpu:               2.0 elap:               0.7
 (Enter /home/szhao/Apps/g16/l502.exe)
 Keep R1 and R2 ints in memory in symmetry-blocked form, NReq=7471005.
 FoFCou: FMM=F IPFlag=           0 FMFlag=           0 FMFlg1=           0
         NFxFlg=           0 DoJE=F BraDBF=F KetDBF=F FulRan=T
         wScrn=  0.000000 ICntrl=       600 IOpCl=  0 I1Cent=           0 NGrid=           0
         NMat0=    1 NMatS0=    990 NMatT0=    0 NMatD0=    1 NMtDS0=    0 NMtDT0=    0
 Petite list used in FoFCou.
 UHF open shell SCF:
 Using DIIS extrapolation, IDIIS=  1040.
 NGot=   536870912 LenX=   536724438 LenY=   536721881
 Requested convergence on RMS density matrix=1.00D-08 within 128 cycles.
 Requested convergence on MAX density matrix=1.00D-06.
 Requested convergence on             energy=1.00D-06.
 No special actions if energy rises.
 Integral accuracy reduced to 1.0D-05 until final iterations.

 Cycle   1  Pass 0  IDiag  1:
 E= -150.136823696312    
 DIIS: error= 2.52D-02 at cycle   1 NSaved=   1.
 NSaved= 1 IEnMin= 1 EnMin= -150.136823696312     IErMin= 1 ErrMin= 2.52D-02
 ErrMax= 2.52D-02  0.00D+00 EMaxC= 1.00D-01 BMatC= 1.20D-01 BMatP= 1.20D-01
 IDIUse=3 WtCom= 7.48D-01 WtEn= 2.52D-01
 Coeff-Com:  0.100D+01
 Coeff-En:   0.100D+01
 Coeff:      0.100D+01
 Gap=     0.209 Goal=   None    Shift=    0.000
 Gap=     0.209 Goal=   None    Shift=    0.000
 GapD=    0.209 DampG=1.000 DampE=0.500 DampFc=0.5000 IDamp=-1.
 Damping current iteration by 5.00D-01
 RMSDP=2.17D-03 MaxDP=2.98D-02              OVMax= 3.55D-02

 Cycle   2  Pass 0  IDiag  1:
 E= -150.142889433325     Delta-E=       -0.006065737013 Rises=F Damp=T
 DIIS: error= 1.24D-02 at cycle   2 NSaved=   2.
 NSaved= 2 IEnMin= 2 EnMin= -150.142889433325     IErMin= 2 ErrMin= 1.24D-02
 ErrMax= 1.24D-02  0.00D+00 EMaxC= 1.00D-01 BMatC= 2.46D-02 BMatP= 1.20D-01
 IDIUse=3 WtCom= 8.76D-01 WtEn= 1.24D-01
 Coeff-Com: -0.680D+00 0.168D+01
 Coeff-En:   0.000D+00 0.100D+01
 Coeff:     -0.595D+00 0.160D+01
 Gap=     0.213 Goal=   None    Shift=    0.000
 Gap=     0.213 Goal=   None    Shift=    0.000
 RMSDP=6.78D-04 MaxDP=5.24D-03 DE=-6.07D-03 OVMax= 1.41D-02

 Cycle   3  Pass 0  IDiag  1:
 E= -150.148364489747     Delta-E=       -0.005475056422 Rises=F Damp=F
 DIIS: error= 2.81D-03 at cycle   3 NSaved=   3.
 NSaved= 3 IEnMin= 3 EnMin= -150.148364489747     IErMin= 3 ErrMin= 2.81D-03
 ErrMax= 2.81D-03  0.00D+00 EMaxC= 1.00D-01 BMatC= 8.81D-04 BMatP= 2.46D-02
 IDIUse=3 WtCom= 9.72D-01 WtEn= 2.81D-02
 Coeff-Com: -0.217D+00 0.449D+00 0.768D+00
 Coeff-En:   0.000D+00 0.000D+00 0.100D+01
 Coeff:     -0.211D+00 0.436D+00 0.775D+00
 Gap=     0.214 Goal=   None    Shift=    0.000
 Gap=     0.214 Goal=   None    Shift=    0.000
 RMSDP=2.01D-04 MaxDP=3.17D-03 DE=-5.48D-03 OVMax= 3.61D-03

 Cycle   4  Pass 0  IDiag  1:
 E= -150.148503112406     Delta-E=       -0.000138622658 Rises=F Damp=F
 DIIS: error= 4.52D-04 at cycle   4 NSaved=   4.
 NSaved= 4 IEnMin= 4 EnMin= -150.148503112406     IErMin= 4 ErrMin= 4.52D-04
 ErrMax= 4.52D-04  0.00D+00 EMaxC= 1.00D-01 BMatC= 1.73D-05 BMatP= 8.81D-04
 IDIUse=3 WtCom= 9.95D-01 WtEn= 4.52D-03
 Coeff-Com: -0.390D-01 0.731D-01 0.179D+00 0.787D+00
 Coeff-En:   0.000D+00 0.000D+00 0.000D+00 0.100D+01
 Coeff:     -0.388D-01 0.728D-01 0.178D+00 0.788D+00
 Gap=     0.214 Goal=   None    Shift=    0.000
 Gap=     0.214 Goal=   None    Shift=    0.000
 RMSDP=2.44D-05 MaxDP=3.11D-04 DE=-1.39D-04 OVMax= 6.73D-04

 Cycle   5  Pass 0  IDiag  1:
 E= -150.148505839243     Delta-E=       -0.000002726837 Rises=F Damp=F
 DIIS: error= 7.62D-05 at cycle   5 NSaved=   5.
 NSaved= 5 IEnMin= 5 EnMin= -150.148505839243     IErMin= 5 ErrMin= 7.62D-05
 ErrMax= 7.62D-05  0.00D+00 EMaxC= 1.00D-01 BMatC= 3.03D-07 BMatP= 1.73D-05
 IDIUse=1 WtCom= 1.00D+00 WtEn= 0.00D+00
 Coeff-Com:  0.914D-02-0.181D-01-0.480D-01-0.717D-01 0.113D+01
 Coeff:      0.914D-02-0.181D-01-0.480D-01-0.717D-01 0.113D+01
 Gap=     0.214 Goal=   None    Shift=    0.000
 Gap=     0.214 Goal=   None    Shift=    0.000
 RMSDP=6.90D-06 MaxDP=6.90D-05 DE=-2.73D-06 OVMax= 1.57D-04

 Initial convergence to 1.0D-05 achieved.  Increase integral accuracy.
 Cycle   6  Pass 1  IDiag  1:
 E= -150.148506506487     Delta-E=       -0.000000667244 Rises=F Damp=F
 DIIS: error= 3.41D-06 at cycle   1 NSaved=   1.
 NSaved= 1 IEnMin= 1 EnMin= -150.148506506487     IErMin= 1 ErrMin= 3.41D-06
 ErrMax= 3.41D-06  0.00D+00 EMaxC= 1.00D-01 BMatC= 7.85D-10 BMatP= 7.85D-10
 IDIUse=1 WtCom= 1.00D+00 WtEn= 0.00D+00
 Coeff-Com:  0.100D+01
 Coeff:      0.100D+01
 Gap=     0.214 Goal=   None    Shift=    0.000
 Gap=     0.214 Goal=   None    Shift=    0.000
 RMSDP=6.90D-06 MaxDP=6.90D-05 DE=-6.67D-07 OVMax= 9.01D-06

 Cycle   7  Pass 1  IDiag  1:
 E= -150.148506506824     Delta-E=       -0.000000000337 Rises=F Damp=F
 DIIS: error= 1.10D-06 at cycle   2 NSaved=   2.
 NSaved= 2 IEnMin= 2 EnMin= -150.148506506824     IErMin= 2 ErrMin= 1.10D-06
 ErrMax= 1.10D-06  0.00D+00 EMaxC= 1.00D-01 BMatC= 5.01D-11 BMatP= 7.85D-10
 IDIUse=1 WtCom= 1.00D+00 WtEn= 0.00D+00
 Coeff-Com: -0.314D-02 0.100D+01
 Coeff:     -0.314D-02 0.100D+01
 Gap=     0.214 Goal=   None    Shift=    0.000
 Gap=     0.214 Goal=   None    Shift=    0.000
 RMSDP=9.74D-08 MaxDP=8.99D-07 DE=-3.37D-10 OVMax= 2.23D-06

 Cycle   8  Pass 1  IDiag  1:
 E= -150.148506506841     Delta-E=       -0.000000000016 Rises=F Damp=F
 DIIS: error= 4.22D-07 at cycle   3 NSaved=   3.
 NSaved= 3 IEnMin= 3 EnMin= -150.148506506841     IErMin= 3 ErrMin= 4.22D-07
 ErrMax= 4.22D-07  0.00D+00 EMaxC= 1.00D-01 BMatC= 1.22D-11 BMatP= 5.01D-11
 IDIUse=1 WtCom= 1.00D+00 WtEn= 0.00D+00
 Coeff-Com: -0.774D-01 0.291D+00 0.787D+00
 Coeff:     -0.774D-01 0.291D+00 0.787D+00
 Gap=     0.214 Goal=   None    Shift=    0.000
 Gap=     0.214 Goal=   None    Shift=    0.000
 RMSDP=2.98D-08 MaxDP=4.83D-07 DE=-1.64D-11 OVMax= 7.47D-07

 Cycle   9  Pass 1  IDiag  1:
 E= -150.148506506843     Delta-E=       -0.000000000002 Rises=F Damp=F
 DIIS: error= 4.73D-08 at cycle   4 NSaved=   4.
 NSaved= 4 IEnMin= 4 EnMin= -150.148506506843     IErMin= 4 ErrMin= 4.73D-08
 ErrMax= 4.73D-08  0.00D+00 EMaxC= 1.00D-01 BMatC= 1.90D-13 BMatP= 1.22D-11
 IDIUse=1 WtCom= 1.00D+00 WtEn= 0.00D+00
 Coeff-Com: -0.605D-02-0.679D-02 0.104D+00 0.908D+00
 Coeff:     -0.605D-02-0.679D-02 0.104D+00 0.908D+00
 Gap=     0.214 Goal=   None    Shift=    0.000
 Gap=     0.214 Goal=   None    Shift=    0.000
 RMSDP=3.57D-09 MaxDP=3.62D-08 DE=-2.36D-12 OVMax= 7.91D-08

 SCF Done:  E(UM062X) =  -150.148506507     A.U. after    9 cycles
            NFock=  9  Conv=0.36D-08     -V/T= 2.0062
 <Sx>= 0.0000 <Sy>= 0.0000 <Sz>= 0.0000 <S**2>=-0.0000 S=-0.0000
 <L.S>=  0.00000000000    
 KE= 1.492218707677D+02 PE=-3.990034512221D+02 EE= 7.760014654620D+01
 Annihilation of the first spin contaminant:
 S**2 before annihilation    -0.0000,   after    -0.0000
 Leave Link  502 at Mon Apr 21 19:52:54 2025, MaxMem=   536870912 cpu:               8.6 elap:               1.4
 (Enter /home/szhao/Apps/g16/l601.exe)
 Copying SCF densities to generalized density rwf, IOpCl= 1 IROHF=0.

 **********************************************************************

            Population analysis using the SCF density.

 **********************************************************************

 Orbital symmetries:
 Alpha Orbitals:
       Occupied  (SGG) (SGU) (SGG) (SGU) (SGG) (PIU) (PIU) (PIG)
       Virtual   (PIG) (SGU) (SGG) (SGU) (PIU) (PIU) (SGG) (PIG)
                 (PIG) (SGU) (PIU) (PIU) (SGU) (PIG) (PIG) (SGG)
                 (SGG) (SGU) (?A) (PIU) (PIU) (?A) (?A) (DLTU)
                 (DLTU) (PIG) (PIG) (SGU) (SGG) (PIU) (PIU) (PIG)
                 (PIG) (SGU) (SGG) (SGU)
 Beta  Orbitals:
       Occupied  (SGG) (SGU) (SGG) (SGU) (SGG) (PIU) (PIU) (PIG)
       Virtual   (PIG) (SGU) (SGG) (SGU) (PIU) (PIU) (SGG) (PIG)
                 (PIG) (SGU) (PIU) (PIU) (SGU) (PIG) (PIG) (SGG)
                 (SGG) (SGU) (?A) (PIU) (PIU) (?A) (?A) (DLTU)
                 (DLTU) (PIG) (PIG) (SGU) (SGG) (PIU) (PIU) (PIG)
                 (PIG) (SGU) (SGG) (SGU)
 Unable to determine electronic state:  partially filled degenerate orbitals.
 Alpha  occ. eigenvalues --  -19.82547 -19.82525  -1.24269  -1.01156  -0.56872
 Alpha  occ. eigenvalues --   -0.54968  -0.50626  -0.42825
 Alpha virt. eigenvalues --   -0.21381  -0.03609   0.10511   0.14319   0.15003
 Alpha virt. eigenvalues --    0.15533   0.20961   0.21153   0.21514   0.34226
 Alpha virt. eigenvalues --    0.97109   0.97895   0.99134   1.06521   1.07866
 Alpha virt. eigenvalues --    1.08153   1.31490   1.50629   2.45917   2.56388
 Alpha virt. eigenvalues --    2.59595   2.75184   2.76007   2.80717   2.81727
 Alpha virt. eigenvalues --    3.01485   3.04830   3.61960   4.78111   4.86932
 Alpha virt. eigenvalues --    4.89925   4.93495   4.96693   5.28545  49.68083
 Alpha virt. eigenvalues --   49.72596
  Beta  occ. eigenvalues --  -19.82547 -19.82525  -1.24269  -1.01156  -0.56872
  Beta  occ. eigenvalues --   -0.54968  -0.50626  -0.42825
  Beta virt. eigenvalues --   -0.21381  -0.03609   0.10511   0.14319   0.15003
  Beta virt. eigenvalues --    0.15533   0.20961   0.21153   0.21514   0.34226
  Beta virt. eigenvalues --    0.97109   0.97895   0.99134   1.06521   1.07866
  Beta virt. eigenvalues --    1.08153   1.31490   1.50629   2.45917   2.56388
  Beta virt. eigenvalues --    2.59595   2.75184   2.76007   2.80717   2.81727
  Beta virt. eigenvalues --    3.01485   3.04830   3.61960   4.78111   4.86932
  Beta virt. eigenvalues --    4.89925   4.93495   4.96693   5.28545  49.68083
  Beta virt. eigenvalues --   49.72596
          Condensed to atoms (all electrons):
               1          2
     1  O    7.743567   0.256433
     2  O    0.256433   7.743567
          Atomic-Atomic Spin Densities.
               1          2
     1  O   -0.000000   0.000000
     2  O    0.000000  -0.000000
 Mulliken charges and spin densities:
               1          2
     1  O   -0.000000   0.000000
     2  O   -0.000000   0.000000
 Sum of Mulliken charges =  -0.00000   0.00000
 Mulliken charges and spin densities with hydrogens summed into heavy atoms:
               1          2
     1  O   -0.000000   0.000000
     2  O   -0.000000   0.000000
 Electronic spatial extent (au):  <R**2>=             57.2120
 Charge=             -0.0000 electrons
 Dipole moment (field-independent basis, Debye):
    X=             -0.0000    Y=              0.0000    Z=              0.0000  Tot=              0.0000
 Quadrupole moment (field-independent basis, Debye-Ang):
   XX=             -9.7854   YY=            -11.5285   ZZ=            -10.2432
   XY=              0.0000   XZ=              0.0000   YZ=              0.0000
 Traceless Quadrupole moment (field-independent basis, Debye-Ang):
   XX=              0.7337   YY=             -1.0095   ZZ=              0.2758
   XY=              0.0000   XZ=              0.0000   YZ=              0.0000
 Octapole moment (field-independent basis, Debye-Ang**2):
  XXX=             -0.0000  YYY=             -0.0000  ZZZ=             -0.0000  XYY=             -0.0000
  XXY=              0.0000  XXZ=             -0.0000  XZZ=             -0.0000  YZZ=              0.0000
  YYZ=              0.0000  XYZ=              0.0000
 Hexadecapole moment (field-independent basis, Debye-Ang**3):
 XXXX=             -7.3445 YYYY=             -9.0517 ZZZZ=            -41.8732 XXXY=              0.0000
 XXXZ=              0.0000 YYYX=              0.0000 YYYZ=              0.0000 ZZZX=              0.0000
 ZZZY=              0.0000 XXYY=             -2.7327 XXZZ=             -8.0508 YYZZ=             -9.7820
 XXYZ=              0.0000 YYXZ=              0.0000 ZZXY=             -0.0000
 N-N= 2.203292740135D+01 E-N=-3.990034527902D+02  KE= 1.492218707677D+02
 Symmetry AG   KE= 6.909504834918D+01
 Symmetry B1G  KE= 2.994157521566D-35
 Symmetry B2G  KE= 6.738522701395D-32
 Symmetry B3G  KE= 5.721612318278D+00
 Symmetry AU   KE= 5.369826447072D-35
 Symmetry B1U  KE= 6.530171056367D+01
 Symmetry B2U  KE= 4.710376809718D+00
 Symmetry B3U  KE= 4.393122726860D+00
 Symmetry AG   SP= 2.566338218206D-15
 Symmetry B1G  SP= 1.831784613737D-49
 Symmetry B2G  SP= 3.934309653256D-48
 Symmetry B3G  SP= 2.264243347088D-15
 Symmetry AU   SP= 7.672013264546D-50
 Symmetry B1U  SP=-1.060807224142D-15
 Symmetry B2U  SP=-2.348979642229D-15
 Symmetry B3U  SP=-1.960395532020D-15
                          Isotropic Fermi Contact Couplings
        Atom                 a.u.       MegaHertz       Gauss      10(-4) cm-1
     1  O(17)             -0.00000       0.00000       0.00000       0.00000
     2  O(17)             -0.00000       0.00000       0.00000       0.00000
 --------------------------------------------------------
       Center         ----  Spin Dipole Couplings  ----
                      3XX-RR        3YY-RR        3ZZ-RR
 --------------------------------------------------------
     1   Atom        0.000000      0.000000      0.000000
     2   Atom        0.000000      0.000000      0.000000
 --------------------------------------------------------
                        XY            XZ            YZ
 --------------------------------------------------------
     1   Atom        0.000000      0.000000      0.000000
     2   Atom        0.000000      0.000000      0.000000
 --------------------------------------------------------


 ---------------------------------------------------------------------------------
              Anisotropic Spin Dipole Couplings in Principal Axis System
 ---------------------------------------------------------------------------------

       Atom             a.u.   MegaHertz   Gauss  10(-4) cm-1        Axes

              Baa     0.0000    -0.000    -0.000    -0.000  1.0000  0.0000  0.0000
     1 O(17)  Bbb     0.0000    -0.000    -0.000    -0.000 -0.0000  1.0000  0.0000
              Bcc     0.0000    -0.000    -0.000    -0.000  0.0000  0.0000  1.0000
 
              Baa     0.0000    -0.000    -0.000    -0.000  1.0000  0.0000  0.0000
     2 O(17)  Bbb     0.0000    -0.000    -0.000    -0.000 -0.0000  1.0000  0.0000
              Bcc     0.0000    -0.000    -0.000    -0.000  0.0000  0.0000  1.0000
 

 ---------------------------------------------------------------------------------

 No NMR shielding tensors so no spin-rotation constants.
 Leave Link  601 at Mon Apr 21 19:52:55 2025, MaxMem=   536870912 cpu:               2.0 elap:               0.4
 (Enter /home/szhao/Apps/g16/l607.exe)
 ******************************Gaussian NBO Version 3.1******************************
             N A T U R A L   A T O M I C   O R B I T A L   A N D
          N A T U R A L   B O N D   O R B I T A L   A N A L Y S I S
 ******************************Gaussian NBO Version 3.1******************************
       /RESON  / : Allow strongly delocalized NBO set

 Analyzing the SCF density

 Job title: Title Card Required                                             

 Storage needed:      6104 in NPA,      7902 in NBO ( 536870884 available)
 GSVD:  LWork=         144 too small for GESVD, short by        3188 words or        3188 for optimal perf.


 NATURAL POPULATIONS:  Natural atomic orbital occupancies 
                                                          
   NAO  Atom  No  lang   Type(AO)    Occupancy
 --------------------------------------------
     1    O    1  S      Cor( 1S)     1.99998
     2    O    1  S      Val( 2S)     1.93162
     3    O    1  S      Ryd( 3S)     0.00390
     4    O    1  S      Ryd( 4S)     0.00007
     5    O    1  S      Ryd( 5S)     0.00000
     6    O    1  px     Val( 2p)     0.99877
     7    O    1  px     Ryd( 3p)     0.00053
     8    O    1  px     Ryd( 4p)     0.00003
     9    O    1  px     Ryd( 5p)     0.00001
    10    O    1  py     Val( 2p)     1.99900
    11    O    1  py     Ryd( 3p)     0.00051
    12    O    1  py     Ryd( 4p)     0.00012
    13    O    1  py     Ryd( 5p)     0.00001
    14    O    1  pz     Val( 2p)     1.06090
    15    O    1  pz     Ryd( 3p)     0.00180
    16    O    1  pz     Ryd( 4p)     0.00005
    17    O    1  pz     Ryd( 5p)     0.00004
    18    O    1  dxy    Ryd( 3d)     0.00000
    19    O    1  dxz    Ryd( 3d)     0.00065
    20    O    1  dyz    Ryd( 3d)     0.00036
    21    O    1  dx2y2  Ryd( 3d)     0.00009
    22    O    1  dz2    Ryd( 3d)     0.00155
 
    23    O    2  S      Cor( 1S)     1.99998
    24    O    2  S      Val( 2S)     1.93162
    25    O    2  S      Ryd( 3S)     0.00390
    26    O    2  S      Ryd( 4S)     0.00007
    27    O    2  S      Ryd( 5S)     0.00000
    28    O    2  px     Val( 2p)     0.99877
    29    O    2  px     Ryd( 3p)     0.00053
    30    O    2  px     Ryd( 4p)     0.00003
    31    O    2  px     Ryd( 5p)     0.00001
    32    O    2  py     Val( 2p)     1.99900
    33    O    2  py     Ryd( 3p)     0.00051
    34    O    2  py     Ryd( 4p)     0.00012
    35    O    2  py     Ryd( 5p)     0.00001
    36    O    2  pz     Val( 2p)     1.06090
    37    O    2  pz     Ryd( 3p)     0.00180
    38    O    2  pz     Ryd( 4p)     0.00005
    39    O    2  pz     Ryd( 5p)     0.00004
    40    O    2  dxy    Ryd( 3d)     0.00000
    41    O    2  dxz    Ryd( 3d)     0.00065
    42    O    2  dyz    Ryd( 3d)     0.00036
    43    O    2  dx2y2  Ryd( 3d)     0.00009
    44    O    2  dz2    Ryd( 3d)     0.00155


 Summary of Natural Population Analysis:                  
                                                          
                                       Natural Population 
                Natural  -----------------------------------------------
    Atom  No    Charge         Core      Valence    Rydberg      Total
 -----------------------------------------------------------------------
      O    1   -0.00000      1.99998     5.99030    0.00971     8.00000
      O    2   -0.00000      1.99998     5.99030    0.00971     8.00000
 =======================================================================
   * Total *   -0.00000      3.99997    11.98061    0.01943    16.00000

                                 Natural Population      
 --------------------------------------------------------
   Core                       3.99997 ( 99.9992% of   4)
   Valence                   11.98061 ( 99.8384% of  12)
   Natural Minimal Basis     15.98057 ( 99.8786% of  16)
   Natural Rydberg Basis      0.01943 (  0.1214% of  16)
 --------------------------------------------------------

    Atom  No          Natural Electron Configuration
 ----------------------------------------------------------------------------
      O    1      [core]2S( 1.93)2p( 4.06)
      O    2      [core]2S( 1.93)2p( 4.06)


 ***************************************************
 *******         Alpha spin orbitals         *******
 ***************************************************


 NATURAL POPULATIONS:  Natural atomic orbital occupancies 
                                                          
   NAO  Atom  No  lang   Type(AO)    Occupancy      Energy
 ----------------------------------------------------------
     1    O    1  S      Cor( 1S)     0.99999     -19.73383
     2    O    1  S      Val( 2S)     0.96581      -1.15269
     3    O    1  S      Ryd( 3S)     0.00195       0.36232
     4    O    1  S      Ryd( 4S)     0.00004       1.47230
     5    O    1  S      Ryd( 5S)     0.00000      49.52254
     6    O    1  px     Val( 2p)     0.49939      -0.35695
     7    O    1  px     Ryd( 3p)     0.00027       0.26991
     8    O    1  px     Ryd( 4p)     0.00002       1.56842
     9    O    1  px     Ryd( 5p)     0.00000       4.26316
    10    O    1  py     Val( 2p)     0.99950      -0.48807
    11    O    1  py     Ryd( 3p)     0.00026       0.27565
    12    O    1  py     Ryd( 4p)     0.00006       1.57178
    13    O    1  py     Ryd( 5p)     0.00000       4.30174
    14    O    1  pz     Val( 2p)     0.53045      -0.35226
    15    O    1  pz     Ryd( 3p)     0.00090       0.34115
    16    O    1  pz     Ryd( 4p)     0.00002       1.53963
    17    O    1  pz     Ryd( 5p)     0.00002       4.35383
    18    O    1  dxy    Ryd( 3d)     0.00000       2.78867
    19    O    1  dxz    Ryd( 3d)     0.00033       2.78587
    20    O    1  dyz    Ryd( 3d)     0.00018       2.81919
    21    O    1  dx2y2  Ryd( 3d)     0.00005       2.77874
    22    O    1  dz2    Ryd( 3d)     0.00077       3.01605
 
    23    O    2  S      Cor( 1S)     0.99999     -19.73383
    24    O    2  S      Val( 2S)     0.96581      -1.15269
    25    O    2  S      Ryd( 3S)     0.00195       0.36232
    26    O    2  S      Ryd( 4S)     0.00004       1.47230
    27    O    2  S      Ryd( 5S)     0.00000      49.52254
    28    O    2  px     Val( 2p)     0.49939      -0.35695
    29    O    2  px     Ryd( 3p)     0.00027       0.26991
    30    O    2  px     Ryd( 4p)     0.00002       1.56842
    31    O    2  px     Ryd( 5p)     0.00000       4.26316
    32    O    2  py     Val( 2p)     0.99950      -0.48807
    33    O    2  py     Ryd( 3p)     0.00026       0.27565
    34    O    2  py     Ryd( 4p)     0.00006       1.57178
    35    O    2  py     Ryd( 5p)     0.00000       4.30174
    36    O    2  pz     Val( 2p)     0.53045      -0.35226
    37    O    2  pz     Ryd( 3p)     0.00090       0.34115
    38    O    2  pz     Ryd( 4p)     0.00002       1.53963
    39    O    2  pz     Ryd( 5p)     0.00002       4.35383
    40    O    2  dxy    Ryd( 3d)     0.00000       2.78867
    41    O    2  dxz    Ryd( 3d)     0.00033       2.78587
    42    O    2  dyz    Ryd( 3d)     0.00018       2.81919
    43    O    2  dx2y2  Ryd( 3d)     0.00005       2.77874
    44    O    2  dz2    Ryd( 3d)     0.00077       3.01605


 Summary of Natural Population Analysis:                  
                                                          
                                       Natural Population 
                Natural  -----------------------------------------------
    Atom  No    Charge         Core      Valence    Rydberg      Total
 -----------------------------------------------------------------------
      O    1    0.00000      0.99999     2.99515    0.00486     4.00000
      O    2    0.00000      0.99999     2.99515    0.00486     4.00000
 =======================================================================
   * Total *    0.00000      1.99998     5.99030    0.00971     8.00000

                                 Natural Population      
 --------------------------------------------------------
   Core                       1.99998 ( 99.9992% of   2)
   Valence                    5.99030 ( 99.8384% of   6)
   Natural Minimal Basis      7.99029 ( 99.8786% of   8)
   Natural Rydberg Basis      0.00971 (  0.1214% of   8)
 --------------------------------------------------------

    Atom  No          Natural Electron Configuration
 ----------------------------------------------------------------------------
      O    1      [core]2S( 0.97)2p( 2.03)
      O    2      [core]2S( 0.97)2p( 2.03)


 NATURAL BOND ORBITAL ANALYSIS, alpha spin orbitals:

                       Occupancies       Lewis Structure    Low   High
           Occ.    -------------------  -----------------   occ   occ
  Cycle   Thresh.   Lewis   Non-Lewis     CR  BD  3C  LP    (L)   (NL)   Dev
 =============================================================================
   1(1)    0.90     7.99908   0.00092      2   2   0   4     0      0    0.00
 -----------------------------------------------------------------------------

 Structure accepted: No low occupancy Lewis orbitals

 --------------------------------------------------------
   Core                      1.99998 ( 99.999% of   2)
   Valence Lewis             5.99909 ( 99.985% of   6)
  ==================       ============================
   Total Lewis               7.99908 ( 99.988% of   8)
  -----------------------------------------------------
   Valence non-Lewis         0.00000 (  0.000% of   8)
   Rydberg non-Lewis         0.00092 (  0.012% of   8)
  ==================       ============================
   Total non-Lewis           0.00092 (  0.012% of   8)
 --------------------------------------------------------


       (Occupancy)   Bond orbital/ Coefficients/ Hybrids
 ---------------------------------------------------------------------------------
     1. (1.00000) BD ( 1) O   1 - O   2  
                ( 50.00%)   0.7071* O   1 s(  7.10%)p13.05( 92.74%)d 0.02(  0.15%)
                                            0.0000 -0.2596  0.0605  0.0013  0.0000
                                            0.0000  0.0000  0.0000  0.0000  0.0000
                                            0.0000  0.0000  0.0000  0.9621 -0.0419
                                           -0.0052  0.0008  0.0000  0.0000  0.0000
                                           -0.0024 -0.0391
                ( 50.00%)   0.7071* O   2 s(  7.10%)p13.05( 92.74%)d 0.02(  0.15%)
                                            0.0000 -0.2596  0.0605  0.0013  0.0000
                                            0.0000  0.0000  0.0000  0.0000  0.0000
                                            0.0000  0.0000  0.0000 -0.9621  0.0419
                                            0.0052 -0.0008  0.0000  0.0000  0.0000
                                           -0.0024 -0.0391
     2. (1.00000) BD ( 2) O   1 - O   2  
                ( 50.00%)   0.7071* O   1 s(  0.00%)p 1.00( 99.93%)d 0.00(  0.07%)
                                            0.0000  0.0000  0.0000  0.0000  0.0000
                                            0.9994  0.0231 -0.0059 -0.0026  0.0000
                                            0.0000  0.0000  0.0000  0.0000  0.0000
                                            0.0000  0.0000  0.0000 -0.0256  0.0000
                                            0.0000  0.0000
                ( 50.00%)   0.7071* O   2 s(  0.00%)p 1.00( 99.93%)d 0.00(  0.07%)
                                            0.0000  0.0000  0.0000  0.0000  0.0000
                                            0.9994  0.0231 -0.0059 -0.0026  0.0000
                                            0.0000  0.0000  0.0000  0.0000  0.0000
                                            0.0000  0.0000  0.0000  0.0256  0.0000
                                            0.0000  0.0000
     3. (0.99999) CR ( 1) O   1           s(100.00%)
                                            1.0000  0.0000  0.0000  0.0000  0.0000
                                            0.0000  0.0000  0.0000  0.0000  0.0000
                                            0.0000  0.0000  0.0000  0.0000  0.0000
                                            0.0000  0.0000  0.0000  0.0000  0.0000
                                            0.0000 -0.0000
     4. (0.99999) CR ( 1) O   2           s(100.00%)
                                            1.0000  0.0000  0.0000  0.0000  0.0000
                                            0.0000  0.0000  0.0000  0.0000  0.0000
                                            0.0000  0.0000  0.0000 -0.0000 -0.0000
                                           -0.0000 -0.0000  0.0000  0.0000  0.0000
                                            0.0000 -0.0000
     5. (0.99988) LP ( 1) O   1           s( 93.23%)p 0.07(  6.77%)d 0.00(  0.00%)
                                           -0.0000  0.9655  0.0081  0.0002  0.0000
                                            0.0000  0.0000  0.0000  0.0000  0.0000
                                            0.0000  0.0000  0.0000  0.2601  0.0024
                                            0.0026  0.0023  0.0000  0.0000  0.0000
                                            0.0065 -0.0010
     6. (0.99967) LP ( 2) O   1           s(  0.00%)p 1.00( 99.99%)d 0.00(  0.01%)
                                            0.0000  0.0000  0.0000  0.0000  0.0000
                                            0.0000  0.0000  0.0000  0.0000  0.9999
                                            0.0080  0.0048  0.0003  0.0000  0.0000
                                            0.0000  0.0000  0.0000  0.0000 -0.0087
                                            0.0000  0.0000
     7. (0.99988) LP ( 1) O   2           s( 93.23%)p 0.07(  6.77%)d 0.00(  0.00%)
                                           -0.0000  0.9655  0.0081  0.0002  0.0000
                                            0.0000  0.0000  0.0000  0.0000  0.0000
                                            0.0000  0.0000  0.0000 -0.2601 -0.0024
                                           -0.0026 -0.0023  0.0000  0.0000  0.0000
                                            0.0065 -0.0010
     8. (0.99967) LP ( 2) O   2           s(  0.00%)p 1.00( 99.99%)d 0.00(  0.01%)
                                            0.0000  0.0000  0.0000  0.0000  0.0000
                                            0.0000  0.0000  0.0000  0.0000  0.9999
                                            0.0080  0.0048  0.0003  0.0000  0.0000
                                            0.0000  0.0000  0.0000  0.0000  0.0087
                                            0.0000  0.0000
     9. (0.00033) RY*( 1) O   1           s(  0.00%)p 1.00( 69.26%)d 0.44( 30.74%)
                                            0.0000  0.0000  0.0000  0.0000  0.0000
                                            0.0000  0.0000  0.0000  0.0000  0.0003
                                            0.7605 -0.3239  0.0970  0.0000  0.0000
                                            0.0000  0.0000  0.0000  0.0000  0.5544
                                            0.0000  0.0000
    10. (0.00012) RY*( 2) O   1           s( 71.31%)p 0.31( 21.91%)d 0.10(  6.78%)
                                           -0.0000  0.0072  0.6445 -0.5456 -0.0001
                                            0.0000  0.0000  0.0000  0.0000  0.0000
                                            0.0000  0.0000  0.0000 -0.0409 -0.3266
                                            0.0640 -0.3266  0.0000  0.0000  0.0000
                                            0.0161  0.2599
    11. (0.00000) RY*( 3) O   1           s(100.00%)
    12. (0.00000) RY*( 4) O   1           s(  0.00%)p 1.00(100.00%)d 0.00(  0.00%)
    13. (0.00000) RY*( 5) O   1           s(  0.00%)p 1.00(100.00%)d 0.00(  0.00%)
    14. (0.00000) RY*( 6) O   1           s(  0.00%)p 1.00(100.00%)
    15. (0.00000) RY*( 7) O   1           s( 99.84%)p 0.00(  0.16%)d 0.00(  0.00%)
    16. (0.00000) RY*( 8) O   1           s(  0.00%)p 1.00(100.00%)
    17. (0.00000) RY*( 9) O   1           s(  0.00%)p 1.00(100.00%)
    18. (0.00000) RY*(10) O   1           s( 13.13%)p 6.62( 86.87%)d 0.00(  0.00%)
    19. (0.00000) RY*(11) O   1           s(  0.29%)p99.99( 99.68%)d 0.10(  0.03%)
    20. (0.00000) RY*(12) O   1           s(  9.94%)p 9.06( 90.06%)d 0.00(  0.00%)
    21. (0.00000) RY*(13) O   1           s(  0.00%)p 0.00(  0.00%)d 1.00(100.00%)
    22. (0.00000) RY*(14) O   1           s(  0.00%)p 1.00(  0.07%)d99.99( 99.93%)
    23. (0.00000) RY*(15) O   1           s(  0.00%)p 1.00( 30.75%)d 2.25( 69.25%)
    24. (0.00000) RY*(16) O   1           s(  0.02%)p 0.25(  0.01%)d99.99( 99.97%)
    25. (0.00000) RY*(17) O   1           s(  5.14%)p 0.35(  1.80%)d18.12( 93.06%)
    26. (0.00033) RY*( 1) O   2           s(  0.00%)p 1.00( 69.26%)d 0.44( 30.74%)
                                            0.0000  0.0000  0.0000  0.0000  0.0000
                                            0.0000  0.0000  0.0000  0.0000  0.0003
                                            0.7605 -0.3239  0.0970  0.0000  0.0000
                                            0.0000  0.0000  0.0000  0.0000 -0.5544
                                            0.0000  0.0000
    27. (0.00012) RY*( 2) O   2           s( 71.31%)p 0.31( 21.91%)d 0.10(  6.78%)
                                           -0.0000  0.0072  0.6445 -0.5456 -0.0001
                                            0.0000  0.0000  0.0000  0.0000  0.0000
                                            0.0000  0.0000  0.0000  0.0409  0.3266
                                           -0.0640  0.3266  0.0000  0.0000  0.0000
                                            0.0161  0.2599
    28. (0.00000) RY*( 3) O   2           s(100.00%)
    29. (0.00000) RY*( 4) O   2           s(  0.00%)p 1.00(100.00%)d 0.00(  0.00%)
    30. (0.00000) RY*( 5) O   2           s(  0.00%)p 1.00(100.00%)d 0.00(  0.00%)
    31. (0.00000) RY*( 6) O   2           s(  0.00%)p 1.00(100.00%)
    32. (0.00000) RY*( 7) O   2           s( 99.84%)p 0.00(  0.16%)d 0.00(  0.00%)
    33. (0.00000) RY*( 8) O   2           s(  0.00%)p 1.00(100.00%)
    34. (0.00000) RY*( 9) O   2           s(  0.00%)p 1.00(100.00%)
    35. (0.00000) RY*(10) O   2           s( 13.13%)p 6.62( 86.87%)d 0.00(  0.00%)
    36. (0.00000) RY*(11) O   2           s(  0.29%)p99.99( 99.68%)d 0.10(  0.03%)
    37. (0.00000) RY*(12) O   2           s(  9.94%)p 9.06( 90.06%)d 0.00(  0.00%)
    38. (0.00000) RY*(13) O   2           s(  0.00%)p 0.00(  0.00%)d 1.00(100.00%)
    39. (0.00000) RY*(14) O   2           s(  0.00%)p 1.00(  0.07%)d99.99( 99.93%)
    40. (0.00000) RY*(15) O   2           s(  0.00%)p 1.00( 30.75%)d 2.25( 69.25%)
    41. (0.00000) RY*(16) O   2           s(  0.02%)p 0.25(  0.01%)d99.99( 99.97%)
    42. (0.00000) RY*(17) O   2           s(  5.14%)p 0.35(  1.80%)d18.12( 93.06%)
    43. (0.00000) BD*( 1) O   1 - O   2  
                ( 50.00%)   0.7071* O   1 s(  7.10%)p13.05( 92.74%)d 0.02(  0.15%)
                ( 50.00%)  -0.7071* O   2 s(  7.10%)p13.05( 92.74%)d 0.02(  0.15%)
    44. (0.00000) BD*( 2) O   1 - O   2  
                ( 50.00%)   0.7071* O   1 s(  0.00%)p 1.00( 99.93%)d 0.00(  0.07%)
                ( 50.00%)  -0.7071* O   2 s(  0.00%)p 1.00( 99.93%)d 0.00(  0.07%)


 NHO Directionality and "Bond Bending" (deviations from line of nuclear centers)

         [Thresholds for printing:  angular deviation  >  1.0 degree]
                                    hybrid p-character > 25.0%
                                    orbital occupancy  >  0.10e

                                Line of Centers        Hybrid 1              Hybrid 2
                                ---------------  -------------------   ------------------
                NBO               Theta   Phi    Theta   Phi    Dev    Theta   Phi    Dev
 ========================================================================================
     2. BD (   2) O   1 - O   2   180.0    0.0    90.0    0.0  90.0     90.0    0.0  90.0
     6. LP (   2) O   1             --     --     90.0   90.0   --       --     --    --
     8. LP (   2) O   2             --     --     90.0   90.0   --       --     --    --


 Second Order Perturbation Theory Analysis of Fock Matrix in NBO Basis

     Threshold for printing:   0.25 kcal/mol
                                                                              E(2)  E(j)-E(i) F(i,j)
         Donor NBO (i)                     Acceptor NBO (j)                 kcal/mol   a.u.    a.u. 
 ===================================================================================================

 within unit  1
   6. LP (   2) O   1                / 26. RY*(   1) O   2                    0.36    1.72    0.032
   8. LP (   2) O   2                /  9. RY*(   1) O   1                    0.36    1.72    0.032


 Natural Bond Orbitals (Summary):

                                                            Principal Delocalizations
           NBO                        Occupancy    Energy   (geminal,vicinal,remote)
 ====================================================================================
 Molecular unit  1  (O2)
     1. BD (   1) O   1 - O   2          1.00000    -0.77112   
     2. BD (   2) O   1 - O   2          1.00000    -0.50626   
     3. CR (   1) O   1                  0.99999   -19.73384   
     4. CR (   1) O   2                  0.99999   -19.73384   
     5. LP (   1) O   1                  0.99988    -1.11697   
     6. LP (   2) O   1                  0.99967    -0.48839  26(v)
     7. LP (   1) O   2                  0.99988    -1.11697   
     8. LP (   2) O   2                  0.99967    -0.48839  9(v)
     9. RY*(   1) O   1                  0.00033     1.23311   
    10. RY*(   2) O   1                  0.00012     1.33935   
    11. RY*(   3) O   1                  0.00000    49.52229   
    12. RY*(   4) O   1                  0.00000     0.27086   
    13. RY*(   5) O   1                  0.00000     1.56866   
    14. RY*(   6) O   1                  0.00000     4.26321   
    15. RY*(   7) O   1                  0.00000     1.15156   
    16. RY*(   8) O   1                  0.00000     1.25221   
    17. RY*(   9) O   1                  0.00000     4.32871   
    18. RY*(  10) O   1                  0.00000     0.26381   
    19. RY*(  11) O   1                  0.00000     1.58960   
    20. RY*(  12) O   1                  0.00000     3.81990   
    21. RY*(  13) O   1                  0.00000     2.78867   
    22. RY*(  14) O   1                  0.00000     2.78566   
    23. RY*(  15) O   1                  0.00000     2.15466   
    24. RY*(  16) O   1                  0.00000     2.77840   
    25. RY*(  17) O   1                  0.00000     2.91839   
    26. RY*(   1) O   2                  0.00033     1.23311   
    27. RY*(   2) O   2                  0.00012     1.33935   
    28. RY*(   3) O   2                  0.00000    49.52229   
    29. RY*(   4) O   2                  0.00000     0.27086   
    30. RY*(   5) O   2                  0.00000     1.56866   
    31. RY*(   6) O   2                  0.00000     4.26321   
    32. RY*(   7) O   2                  0.00000     1.15156   
    33. RY*(   8) O   2                  0.00000     1.25221   
    34. RY*(   9) O   2                  0.00000     4.32871   
    35. RY*(  10) O   2                  0.00000     0.26381   
    36. RY*(  11) O   2                  0.00000     1.58960   
    37. RY*(  12) O   2                  0.00000     3.81990   
    38. RY*(  13) O   2                  0.00000     2.78867   
    39. RY*(  14) O   2                  0.00000     2.78566   
    40. RY*(  15) O   2                  0.00000     2.15466   
    41. RY*(  16) O   2                  0.00000     2.77840   
    42. RY*(  17) O   2                  0.00000     2.91839   
    43. BD*(   1) O   1 - O   2          0.00000     0.00173   
    44. BD*(   2) O   1 - O   2          0.00000    -0.20972   
       -------------------------------
              Total Lewis    7.99908  ( 99.9885%)
        Valence non-Lewis    0.00000  (  0.0000%)
        Rydberg non-Lewis    0.00092  (  0.0115%)
       -------------------------------
            Total unit  1    8.00000  (100.0000%)
           Charge unit  1    0.00000
 Sorting of NBOs:                    3    4    5    7    1    2    6    8   44   43
 Sorting of NBOs:                   35   18   12   29   15   32   26    9   16   33
 Sorting of NBOs:                   27   10   13   30   19   36   40   23   24   41
 Sorting of NBOs:                   39   22   38   21   42   25   37   20   31   14
 Sorting of NBOs:                   34   17   28   11
 Reordering of NBOs for storage:     3    4    5    7    1    2    6    8   44   43
 Reordering of NBOs for storage:    35   18   12   29   15   32   26    9   16   33
 Reordering of NBOs for storage:    27   10   13   30   19   36   40   23   24   41
 Reordering of NBOs for storage:    39   22   38   21   42   25   37   20   31   14
 Reordering of NBOs for storage:    34   17   28   11
 Labels of output orbitals:  CR  CR  LP  LP  BD  BD  LP  LP  BD* BD* RY* RY* RY* RY* RY* RY* RY* RY* RY* RY* 
 Labels of output orbitals:  RY* RY* RY* RY* RY* RY* RY* RY* RY* RY* RY* RY* RY* RY* RY* RY* RY* RY* RY* RY* 
 Labels of output orbitals:  RY* RY* RY* RY* 
 GSVD:  LWork=       -1584 too small for GESVD, short by        7020 words or        7020 for optimal perf.


 ***************************************************
 *******         Beta  spin orbitals         *******
 ***************************************************


 NATURAL POPULATIONS:  Natural atomic orbital occupancies 
                                                          
   NAO  Atom  No  lang   Type(AO)    Occupancy      Energy
 ----------------------------------------------------------
     1    O    1  S      Cor( 1S)     0.99999     -19.73383
     2    O    1  S      Val( 2S)     0.96581      -1.15269
     3    O    1  S      Ryd( 3S)     0.00195       0.36232
     4    O    1  S      Ryd( 4S)     0.00004       1.47230
     5    O    1  S      Ryd( 5S)     0.00000      49.52254
     6    O    1  px     Val( 2p)     0.49939      -0.35695
     7    O    1  px     Ryd( 3p)     0.00027       0.26991
     8    O    1  px     Ryd( 4p)     0.00002       1.56842
     9    O    1  px     Ryd( 5p)     0.00000       4.26316
    10    O    1  py     Val( 2p)     0.99950      -0.48807
    11    O    1  py     Ryd( 3p)     0.00026       0.27565
    12    O    1  py     Ryd( 4p)     0.00006       1.57178
    13    O    1  py     Ryd( 5p)     0.00000       4.30174
    14    O    1  pz     Val( 2p)     0.53045      -0.35226
    15    O    1  pz     Ryd( 3p)     0.00090       0.34115
    16    O    1  pz     Ryd( 4p)     0.00002       1.53963
    17    O    1  pz     Ryd( 5p)     0.00002       4.35383
    18    O    1  dxy    Ryd( 3d)     0.00000       2.78867
    19    O    1  dxz    Ryd( 3d)     0.00033       2.78587
    20    O    1  dyz    Ryd( 3d)     0.00018       2.81919
    21    O    1  dx2y2  Ryd( 3d)     0.00005       2.77874
    22    O    1  dz2    Ryd( 3d)     0.00077       3.01605
 
    23    O    2  S      Cor( 1S)     0.99999     -19.73383
    24    O    2  S      Val( 2S)     0.96581      -1.15269
    25    O    2  S      Ryd( 3S)     0.00195       0.36232
    26    O    2  S      Ryd( 4S)     0.00004       1.47230
    27    O    2  S      Ryd( 5S)     0.00000      49.52254
    28    O    2  px     Val( 2p)     0.49939      -0.35695
    29    O    2  px     Ryd( 3p)     0.00027       0.26991
    30    O    2  px     Ryd( 4p)     0.00002       1.56842
    31    O    2  px     Ryd( 5p)     0.00000       4.26316
    32    O    2  py     Val( 2p)     0.99950      -0.48807
    33    O    2  py     Ryd( 3p)     0.00026       0.27565
    34    O    2  py     Ryd( 4p)     0.00006       1.57178
    35    O    2  py     Ryd( 5p)     0.00000       4.30174
    36    O    2  pz     Val( 2p)     0.53045      -0.35226
    37    O    2  pz     Ryd( 3p)     0.00090       0.34115
    38    O    2  pz     Ryd( 4p)     0.00002       1.53963
    39    O    2  pz     Ryd( 5p)     0.00002       4.35383
    40    O    2  dxy    Ryd( 3d)     0.00000       2.78867
    41    O    2  dxz    Ryd( 3d)     0.00033       2.78587
    42    O    2  dyz    Ryd( 3d)     0.00018       2.81919
    43    O    2  dx2y2  Ryd( 3d)     0.00005       2.77874
    44    O    2  dz2    Ryd( 3d)     0.00077       3.01605


 Summary of Natural Population Analysis:                  
                                                          
                                       Natural Population 
                Natural  -----------------------------------------------
    Atom  No    Charge         Core      Valence    Rydberg      Total
 -----------------------------------------------------------------------
      O    1    0.00000      0.99999     2.99515    0.00486     4.00000
      O    2   -0.00000      0.99999     2.99515    0.00486     4.00000
 =======================================================================
   * Total *   -0.00000      1.99998     5.99030    0.00971     8.00000

                                 Natural Population      
 --------------------------------------------------------
   Core                       1.99998 ( 99.9992% of   2)
   Valence                    5.99030 ( 99.8384% of   6)
   Natural Minimal Basis      7.99029 ( 99.8786% of   8)
   Natural Rydberg Basis      0.00971 (  0.1214% of   8)
 --------------------------------------------------------

    Atom  No          Natural Electron Configuration
 ----------------------------------------------------------------------------
      O    1      [core]2S( 0.97)2p( 2.03)
      O    2      [core]2S( 0.97)2p( 2.03)


 NATURAL BOND ORBITAL ANALYSIS, beta spin orbitals:

                       Occupancies       Lewis Structure    Low   High
           Occ.    -------------------  -----------------   occ   occ
  Cycle   Thresh.   Lewis   Non-Lewis     CR  BD  3C  LP    (L)   (NL)   Dev
 =============================================================================
   1(1)    0.90     7.99908   0.00092      2   2   0   4     0      0    0.00
 -----------------------------------------------------------------------------

 Structure accepted: No low occupancy Lewis orbitals

 --------------------------------------------------------
   Core                      1.99998 ( 99.999% of   2)
   Valence Lewis             5.99909 ( 99.985% of   6)
  ==================       ============================
   Total Lewis               7.99908 ( 99.988% of   8)
  -----------------------------------------------------
   Valence non-Lewis         0.00000 (  0.000% of   8)
   Rydberg non-Lewis         0.00092 (  0.012% of   8)
  ==================       ============================
   Total non-Lewis           0.00092 (  0.012% of   8)
 --------------------------------------------------------


       (Occupancy)   Bond orbital/ Coefficients/ Hybrids
 ---------------------------------------------------------------------------------
     1. (1.00000) BD ( 1) O   1 - O   2  
                ( 50.00%)   0.7071* O   1 s(  7.10%)p13.05( 92.74%)d 0.02(  0.15%)
                                            0.0000 -0.2596  0.0605  0.0013  0.0000
                                            0.0000  0.0000  0.0000  0.0000  0.0000
                                            0.0000  0.0000  0.0000  0.9621 -0.0419
                                           -0.0052  0.0008  0.0000  0.0000  0.0000
                                           -0.0024 -0.0391
                ( 50.00%)   0.7071* O   2 s(  7.10%)p13.05( 92.74%)d 0.02(  0.15%)
                                            0.0000 -0.2596  0.0605  0.0013  0.0000
                                            0.0000  0.0000  0.0000  0.0000  0.0000
                                            0.0000  0.0000  0.0000 -0.9621  0.0419
                                            0.0052 -0.0008  0.0000  0.0000  0.0000
                                           -0.0024 -0.0391
     2. (1.00000) BD ( 2) O   1 - O   2  
                ( 50.00%)   0.7071* O   1 s(  0.00%)p 1.00( 99.93%)d 0.00(  0.07%)
                                            0.0000  0.0000  0.0000  0.0000  0.0000
                                            0.9994  0.0231 -0.0059 -0.0026  0.0000
                                            0.0000  0.0000  0.0000  0.0000  0.0000
                                            0.0000  0.0000  0.0000 -0.0256  0.0000
                                            0.0000  0.0000
                ( 50.00%)   0.7071* O   2 s(  0.00%)p 1.00( 99.93%)d 0.00(  0.07%)
                                            0.0000  0.0000  0.0000  0.0000  0.0000
                                            0.9994  0.0231 -0.0059 -0.0026  0.0000
                                            0.0000  0.0000  0.0000  0.0000  0.0000
                                            0.0000  0.0000  0.0000  0.0256  0.0000
                                            0.0000  0.0000
     3. (0.99999) CR ( 1) O   1           s(100.00%)
                                            1.0000  0.0000  0.0000  0.0000  0.0000
                                            0.0000  0.0000  0.0000  0.0000  0.0000
                                            0.0000  0.0000  0.0000  0.0000  0.0000
                                            0.0000  0.0000  0.0000  0.0000  0.0000
                                            0.0000 -0.0000
     4. (0.99999) CR ( 1) O   2           s(100.00%)
                                            1.0000  0.0000  0.0000  0.0000  0.0000
                                            0.0000  0.0000  0.0000  0.0000  0.0000
                                            0.0000  0.0000  0.0000 -0.0000 -0.0000
                                           -0.0000 -0.0000  0.0000  0.0000  0.0000
                                            0.0000 -0.0000
     5. (0.99988) LP ( 1) O   1           s( 93.23%)p 0.07(  6.77%)d 0.00(  0.00%)
                                           -0.0000  0.9655  0.0081  0.0002  0.0000
                                            0.0000  0.0000  0.0000  0.0000  0.0000
                                            0.0000  0.0000  0.0000  0.2601  0.0024
                                            0.0026  0.0023  0.0000  0.0000  0.0000
                                            0.0065 -0.0010
     6. (0.99967) LP ( 2) O   1           s(  0.00%)p 1.00( 99.99%)d 0.00(  0.01%)
                                            0.0000  0.0000  0.0000  0.0000  0.0000
                                            0.0000  0.0000  0.0000  0.0000  0.9999
                                            0.0080  0.0048  0.0003  0.0000  0.0000
                                            0.0000  0.0000  0.0000  0.0000 -0.0087
                                            0.0000  0.0000
     7. (0.99988) LP ( 1) O   2           s( 93.23%)p 0.07(  6.77%)d 0.00(  0.00%)
                                           -0.0000  0.9655  0.0081  0.0002  0.0000
                                            0.0000  0.0000  0.0000  0.0000  0.0000
                                            0.0000  0.0000  0.0000 -0.2601 -0.0024
                                           -0.0026 -0.0023  0.0000  0.0000  0.0000
                                            0.0065 -0.0010
     8. (0.99967) LP ( 2) O   2           s(  0.00%)p 1.00( 99.99%)d 0.00(  0.01%)
                                            0.0000  0.0000  0.0000  0.0000  0.0000
                                            0.0000  0.0000  0.0000  0.0000  0.9999
                                            0.0080  0.0048  0.0003  0.0000  0.0000
                                            0.0000  0.0000  0.0000  0.0000  0.0087
                                            0.0000  0.0000
     9. (0.00033) RY*( 1) O   1           s(  0.00%)p 1.00( 69.26%)d 0.44( 30.74%)
                                            0.0000  0.0000  0.0000  0.0000  0.0000
                                            0.0000  0.0000  0.0000  0.0000  0.0003
                                            0.7605 -0.3239  0.0970  0.0000  0.0000
                                            0.0000  0.0000  0.0000  0.0000  0.5544
                                            0.0000  0.0000
    10. (0.00012) RY*( 2) O   1           s( 71.31%)p 0.31( 21.91%)d 0.10(  6.78%)
                                           -0.0000  0.0072  0.6445 -0.5456 -0.0001
                                            0.0000  0.0000  0.0000  0.0000  0.0000
                                            0.0000  0.0000  0.0000 -0.0409 -0.3266
                                            0.0640 -0.3266  0.0000  0.0000  0.0000
                                            0.0161  0.2599
    11. (0.00000) RY*( 3) O   1           s(100.00%)
    12. (0.00000) RY*( 4) O   1           s(  0.00%)p 1.00(100.00%)d 0.00(  0.00%)
    13. (0.00000) RY*( 5) O   1           s(  0.00%)p 1.00(100.00%)d 0.00(  0.00%)
    14. (0.00000) RY*( 6) O   1           s(  0.00%)p 1.00(100.00%)
    15. (0.00000) RY*( 7) O   1           s( 99.84%)p 0.00(  0.16%)d 0.00(  0.00%)
    16. (0.00000) RY*( 8) O   1           s(  0.00%)p 1.00(100.00%)
    17. (0.00000) RY*( 9) O   1           s(  0.00%)p 1.00(100.00%)
    18. (0.00000) RY*(10) O   1           s( 13.13%)p 6.62( 86.87%)d 0.00(  0.00%)
    19. (0.00000) RY*(11) O   1           s(  0.29%)p99.99( 99.68%)d 0.10(  0.03%)
    20. (0.00000) RY*(12) O   1           s(  9.94%)p 9.06( 90.06%)d 0.00(  0.00%)
    21. (0.00000) RY*(13) O   1           s(  0.00%)p 0.00(  0.00%)d 1.00(100.00%)
    22. (0.00000) RY*(14) O   1           s(  0.00%)p 1.00(  0.07%)d99.99( 99.93%)
    23. (0.00000) RY*(15) O   1           s(  0.00%)p 1.00( 30.75%)d 2.25( 69.25%)
    24. (0.00000) RY*(16) O   1           s(  0.02%)p 0.25(  0.01%)d99.99( 99.97%)
    25. (0.00000) RY*(17) O   1           s(  5.14%)p 0.35(  1.80%)d18.12( 93.06%)
    26. (0.00033) RY*( 1) O   2           s(  0.00%)p 1.00( 69.26%)d 0.44( 30.74%)
                                            0.0000  0.0000  0.0000  0.0000  0.0000
                                            0.0000  0.0000  0.0000  0.0000  0.0003
                                            0.7605 -0.3239  0.0970  0.0000  0.0000
                                            0.0000  0.0000  0.0000  0.0000 -0.5544
                                            0.0000  0.0000
    27. (0.00012) RY*( 2) O   2           s( 71.31%)p 0.31( 21.91%)d 0.10(  6.78%)
                                           -0.0000  0.0072  0.6445 -0.5456 -0.0001
                                            0.0000  0.0000  0.0000  0.0000  0.0000
                                            0.0000  0.0000  0.0000  0.0409  0.3266
                                           -0.0640  0.3266  0.0000  0.0000  0.0000
                                            0.0161  0.2599
    28. (0.00000) RY*( 3) O   2           s(100.00%)
    29. (0.00000) RY*( 4) O   2           s(  0.00%)p 1.00(100.00%)d 0.00(  0.00%)
    30. (0.00000) RY*( 5) O   2           s(  0.00%)p 1.00(100.00%)d 0.00(  0.00%)
    31. (0.00000) RY*( 6) O   2           s(  0.00%)p 1.00(100.00%)
    32. (0.00000) RY*( 7) O   2           s( 99.84%)p 0.00(  0.16%)d 0.00(  0.00%)
    33. (0.00000) RY*( 8) O   2           s(  0.00%)p 1.00(100.00%)
    34. (0.00000) RY*( 9) O   2           s(  0.00%)p 1.00(100.00%)
    35. (0.00000) RY*(10) O   2           s( 13.13%)p 6.62( 86.87%)d 0.00(  0.00%)
    36. (0.00000) RY*(11) O   2           s(  0.29%)p99.99( 99.68%)d 0.10(  0.03%)
    37. (0.00000) RY*(12) O   2           s(  9.94%)p 9.06( 90.06%)d 0.00(  0.00%)
    38. (0.00000) RY*(13) O   2           s(  0.00%)p 0.00(  0.00%)d 1.00(100.00%)
    39. (0.00000) RY*(14) O   2           s(  0.00%)p 1.00(  0.07%)d99.99( 99.93%)
    40. (0.00000) RY*(15) O   2           s(  0.00%)p 1.00( 30.75%)d 2.25( 69.25%)
    41. (0.00000) RY*(16) O   2           s(  0.02%)p 0.25(  0.01%)d99.99( 99.97%)
    42. (0.00000) RY*(17) O   2           s(  5.14%)p 0.35(  1.80%)d18.12( 93.06%)
    43. (0.00000) BD*( 1) O   1 - O   2  
                ( 50.00%)   0.7071* O   1 s(  7.10%)p13.05( 92.74%)d 0.02(  0.15%)
                ( 50.00%)  -0.7071* O   2 s(  7.10%)p13.05( 92.74%)d 0.02(  0.15%)
    44. (0.00000) BD*( 2) O   1 - O   2  
                ( 50.00%)   0.7071* O   1 s(  0.00%)p 1.00( 99.93%)d 0.00(  0.07%)
                ( 50.00%)  -0.7071* O   2 s(  0.00%)p 1.00( 99.93%)d 0.00(  0.07%)


 NHO Directionality and "Bond Bending" (deviations from line of nuclear centers)

         [Thresholds for printing:  angular deviation  >  1.0 degree]
                                    hybrid p-character > 25.0%
                                    orbital occupancy  >  0.10e

                                Line of Centers        Hybrid 1              Hybrid 2
                                ---------------  -------------------   ------------------
                NBO               Theta   Phi    Theta   Phi    Dev    Theta   Phi    Dev
 ========================================================================================
     2. BD (   2) O   1 - O   2   180.0    0.0    90.0    0.0  90.0     90.0    0.0  90.0
     6. LP (   2) O   1             --     --     90.0   90.0   --       --     --    --
     8. LP (   2) O   2             --     --     90.0   90.0   --       --     --    --


 Second Order Perturbation Theory Analysis of Fock Matrix in NBO Basis

     Threshold for printing:   0.25 kcal/mol
                                                                              E(2)  E(j)-E(i) F(i,j)
         Donor NBO (i)                     Acceptor NBO (j)                 kcal/mol   a.u.    a.u. 
 ===================================================================================================

 within unit  1
   6. LP (   2) O   1                / 26. RY*(   1) O   2                    0.36    1.72    0.032
   8. LP (   2) O   2                /  9. RY*(   1) O   1                    0.36    1.72    0.032


 Natural Bond Orbitals (Summary):

                                                            Principal Delocalizations
           NBO                        Occupancy    Energy   (geminal,vicinal,remote)
 ====================================================================================
 Molecular unit  1  (O2)
     1. BD (   1) O   1 - O   2          1.00000    -0.77112   
     2. BD (   2) O   1 - O   2          1.00000    -0.50626   
     3. CR (   1) O   1                  0.99999   -19.73384   
     4. CR (   1) O   2                  0.99999   -19.73384   
     5. LP (   1) O   1                  0.99988    -1.11697   
     6. LP (   2) O   1                  0.99967    -0.48839  26(v)
     7. LP (   1) O   2                  0.99988    -1.11697   
     8. LP (   2) O   2                  0.99967    -0.48839  9(v)
     9. RY*(   1) O   1                  0.00033     1.23311   
    10. RY*(   2) O   1                  0.00012     1.33935   
    11. RY*(   3) O   1                  0.00000    49.52229   
    12. RY*(   4) O   1                  0.00000     0.27086   
    13. RY*(   5) O   1                  0.00000     1.56866   
    14. RY*(   6) O   1                  0.00000     4.26321   
    15. RY*(   7) O   1                  0.00000     1.15156   
    16. RY*(   8) O   1                  0.00000     1.25221   
    17. RY*(   9) O   1                  0.00000     4.32871   
    18. RY*(  10) O   1                  0.00000     0.26381   
    19. RY*(  11) O   1                  0.00000     1.58960   
    20. RY*(  12) O   1                  0.00000     3.81990   
    21. RY*(  13) O   1                  0.00000     2.78867   
    22. RY*(  14) O   1                  0.00000     2.78566   
    23. RY*(  15) O   1                  0.00000     2.15466   
    24. RY*(  16) O   1                  0.00000     2.77840   
    25. RY*(  17) O   1                  0.00000     2.91839   
    26. RY*(   1) O   2                  0.00033     1.23311   
    27. RY*(   2) O   2                  0.00012     1.33935   
    28. RY*(   3) O   2                  0.00000    49.52229   
    29. RY*(   4) O   2                  0.00000     0.27086   
    30. RY*(   5) O   2                  0.00000     1.56866   
    31. RY*(   6) O   2                  0.00000     4.26321   
    32. RY*(   7) O   2                  0.00000     1.15156   
    33. RY*(   8) O   2                  0.00000     1.25221   
    34. RY*(   9) O   2                  0.00000     4.32871   
    35. RY*(  10) O   2                  0.00000     0.26381   
    36. RY*(  11) O   2                  0.00000     1.58960   
    37. RY*(  12) O   2                  0.00000     3.81990   
    38. RY*(  13) O   2                  0.00000     2.78867   
    39. RY*(  14) O   2                  0.00000     2.78566   
    40. RY*(  15) O   2                  0.00000     2.15466   
    41. RY*(  16) O   2                  0.00000     2.77840   
    42. RY*(  17) O   2                  0.00000     2.91839   
    43. BD*(   1) O   1 - O   2          0.00000     0.00173   
    44. BD*(   2) O   1 - O   2          0.00000    -0.20972   
       -------------------------------
              Total Lewis    7.99908  ( 99.9885%)
        Valence non-Lewis    0.00000  (  0.0000%)
        Rydberg non-Lewis    0.00092  (  0.0115%)
       -------------------------------
            Total unit  1    8.00000  (100.0000%)
           Charge unit  1    0.00000
 Sorting of NBOs:                    3    4    5    7    1    2    6    8   44   43
 Sorting of NBOs:                   35   18   12   29   15   32   26    9   16   33
 Sorting of NBOs:                   27   10   13   30   19   36   23   40   24   41
 Sorting of NBOs:                   39   22   38   21   25   42   37   20   31   14
 Sorting of NBOs:                   34   17   28   11
 Reordering of NBOs for storage:     3    4    5    7    1    2    6    8   44   43
 Reordering of NBOs for storage:    35   18   12   29   15   32   26    9   16   33
 Reordering of NBOs for storage:    27   10   13   30   19   36   23   40   24   41
 Reordering of NBOs for storage:    39   22   38   21   25   42   37   20   31   14
 Reordering of NBOs for storage:    34   17   28   11
 Labels of output orbitals:  CR  CR  LP  LP  BD  BD  LP  LP  BD* BD* RY* RY* RY* RY* RY* RY* RY* RY* RY* RY* 
 Labels of output orbitals:  RY* RY* RY* RY* RY* RY* RY* RY* RY* RY* RY* RY* RY* RY* RY* RY* RY* RY* RY* RY* 
 Labels of output orbitals:  RY* RY* RY* RY* 
 GSVD:  LWork=       -1584 too small for GESVD, short by        7020 words or        7020 for optimal perf.
 Leave Link  607 at Mon Apr 21 19:52:57 2025, MaxMem=   536870912 cpu:               7.6 elap:               1.2
 (Enter /home/szhao/Apps/g16/l701.exe)
 ... and contract with generalized density number  0.
 Compute integral first derivatives.
 Leave Link  701 at Mon Apr 21 19:52:58 2025, MaxMem=   536870912 cpu:               1.6 elap:               0.4
 (Enter /home/szhao/Apps/g16/l702.exe)
 L702 exits ... SP integral derivatives will be done elsewhere.
 Leave Link  702 at Mon Apr 21 19:52:59 2025, MaxMem=   536870912 cpu:               0.3 elap:               0.2
 (Enter /home/szhao/Apps/g16/l703.exe)
 Integral derivatives from FoFJK, PRISM(SPDF).
 Compute integral first derivatives, UseDBF=F ICtDFT=           0.
 Calling FoFJK, ICntrl=      2127 FMM=F ISym2X=1 I1Cent= 0 IOpClX= 1 NMat=1 NMatS=1 NMatT=0.
 FoFJK:  IHMeth= 1 ICntrl=    2127 DoSepK=F KAlg= 0 I1Cent=           0 FoldK=F
 IRaf=         0 NMat=       1 IRICut=       1 DoRegI=T DoRafI=F ISym2E= 1 IDoP0=0 IntGTp=1.
 FoFCou: FMM=F IPFlag=           0 FMFlag=      100000 FMFlg1=         800
         NFxFlg=           0 DoJE=F BraDBF=F KetDBF=F FulRan=T
         wScrn=  0.000000 ICntrl=      2127 IOpCl=  1 I1Cent=           0 NGrid=           0
         NMat0=    1 NMatS0=      1 NMatT0=    0 NMatD0=    1 NMtDS0=    0 NMtDT0=    0
 Petite list used in FoFCou.
 Leave Link  703 at Mon Apr 21 19:53:00 2025, MaxMem=   536870912 cpu:               1.9 elap:               0.7
 (Enter /home/szhao/Apps/g16/l716.exe)
 Dipole        =-1.97215226D-30 1.15405001D-34 0.00000000D+00
 ***** Axes restored to original set *****
 -------------------------------------------------------------------
 Center     Atomic                   Forces (Hartrees/Bohr)
 Number     Number              X              Y              Z
 -------------------------------------------------------------------
      1        8           0.209064083   -0.000000000    0.000000000
      2        8          -0.209064083    0.000000000   -0.000000000
 -------------------------------------------------------------------
 Cartesian Forces:  Max     0.209064083 RMS     0.120703205
 Z-matrix is all fixed cartesians, so copy forces.
 Force constants in Cartesian coordinates: 
                1             2             3             4             5 
      1  0.287752D+00
      2  0.000000D+00  0.100000D+01
      3  0.000000D+00  0.000000D+00  0.100000D+01
      4 -0.287752D+00  0.000000D+00  0.000000D+00  0.287752D+00
      5  0.000000D+00  0.000000D+00  0.000000D+00  0.000000D+00  0.100000D+01
      6  0.000000D+00  0.000000D+00  0.000000D+00  0.000000D+00  0.000000D+00
                6 
      6  0.100000D+01
 Leave Link  716 at Mon Apr 21 19:53:00 2025, MaxMem=   536870912 cpu:               0.7 elap:               0.3
 (Enter /home/szhao/Apps/g16/l103.exe)

 GradGradGradGradGradGradGradGradGradGradGradGradGradGradGradGradGradGrad
 Berny optimization.
 Search for a local minimum.
 Step number   1 out of a maximum of    2
 All quantities printed in internal units (Hartrees-Bohrs-Radians)
 Second derivative matrix not updated -- first step.
 The second derivative matrix:
                          X1        Y1        Z1        X2        Y2
           X1           0.28775
           Y1           0.00000   1.00000
           Z1           0.00000   0.00000   1.00000
           X2          -0.28775   0.00000  -0.00000   0.28775
           Y2           0.00000   0.00000   0.00000   0.00000   1.00000
           Z2          -0.00000   0.00000  -0.00000   0.00000   0.00000
                          Z2
           Z2           1.00000
 ITU=  0
     Eigenvalues ---    0.57550
 Quadratic step=5.137D-01 exceeds max=3.000D-01 adjusted using Lamda=-4.098D-01.
 Angle between NR and scaled steps=   0.00 degrees.
 Angle between quadratic step and forces=   0.00 degrees.
 ClnCor:  largest displacement from symmetrization is 1.30D-17 for atom     1.
 Linear search not attempted -- first point.
 ClnCor:  largest displacement from symmetrization is 2.47D-32 for atom     2.
 B after Tr=     0.000000    0.000000    0.000000
         Rot=    1.000000    0.000000    0.000000    0.000000 Ang=   0.00 deg.
 Variable       Old X    -DE/DX   Delta X   Delta X   Delta X     New X
                                 (Linear)    (Quad)   (Total)
    X1       -1.45237   0.20906   0.00000   0.21217   0.21217  -1.24020
    Y1        0.00000  -0.00000   0.00000   0.00000   0.00000   0.00000
    Z1        0.00000   0.00000   0.00000   0.00000   0.00000   0.00000
    X2        1.45237  -0.20906   0.00000  -0.21217  -0.21217   1.24020
    Y2        0.00000   0.00000   0.00000   0.00000   0.00000   0.00000
    Z2        0.00000  -0.00000   0.00000  -0.00000  -0.00000   0.00000
         Item               Value     Threshold  Converged?
 Maximum Force            0.209064     0.000450     NO 
 RMS     Force            0.120703     0.000300     NO 
 Maximum Displacement     0.212172     0.001800     NO 
 RMS     Displacement     0.122497     0.001200     NO 
 Predicted change in Energy=-6.280761D-02
 GradGradGradGradGradGradGradGradGradGradGradGradGradGradGradGradGradGrad

 Leave Link  103 at Mon Apr 21 19:53:01 2025, MaxMem=   536870912 cpu:               0.4 elap:               0.2
 (Enter /home/szhao/Apps/g16/l9999.exe)
 1\1\GINC-NODE06\Force\UM062X\6-311+G(d,p)\O2\SZHAO\21-Apr-2025\0\\#p U
 M062X/6-311+G** force int=superfine pop=saveNBO\\Title Card Required\\
 0,1\O,-0.768562,0.,0.\O,0.768562,0.,0.\\Version=ES64L-G16RevA.03\HF=-1
 50.1485065\S2=0.\S2-1=0.\S2A=0.\RMSD=3.566e-09\RMSF=1.207e-01\Dipole=0
 .,0.,0.\Quadrupole=0.2050752,-0.7505353,0.5454601,0.,0.,0.\PG=D*H [C*(
 O1.O1)]\\@


 There ain't no surer way to find out whether you
 like people or hate them than to travel with them.
                                     -- Mark Twain
 Job cpu time:       0 days  0 hours  0 minutes 34.0 seconds.
 Elapsed time:       0 days  0 hours  0 minutes  8.2 seconds.
 File lengths (MBytes):  RWF=     17 Int=      0 D2E=      0 Chk=      2 Scr=      2
 Normal termination of Gaussian 16 at Mon Apr 21 19:53:01 2025.
