Title Card Required                                                     
FOpt      UM062X                                                      6-311+G(d,p)        
Number of atoms                            I                6
Info1-9                                    I   N=           9
          15          15           0           0           0         110
           2          18        -502
Full Title                                 C   N=           2
Title Card Required     
Route                                      C   N=           5
#p opt UM062X/6-311+G** nosymm int=superfine SCF=NoVarAcc   
Charge                                     I                1
Multiplicity                               I                2
Number of electrons                        I               15
Number of alpha electrons                  I                8
Number of beta electrons                   I                7
Number of basis functions                  I               68
Number of independent functions            I               68
Number of point charges in /Mol/           I                0
Number of translation vectors              I                0
Atomic numbers                             I   N=           6
           6           6           1           1           1           1
Nuclear charges                            R   N=           6
  6.00000000E+00  6.00000000E+00  1.00000000E+00  1.00000000E+00  1.00000000E+00
  1.00000000E+00
Current cartesian coordinates              R   N=          18
 -3.08219433E+00  0.00000000E+00  0.00000000E+00  3.08219433E+00  0.00000000E+00
  0.00000000E+00 -4.13965211E+00 -1.77867311E+00  5.97532774E-10 -4.13955579E+00
  1.77872975E+00 -5.77556428E-09  4.13965211E+00  1.77867311E+00  3.88948766E-10
  4.13955579E+00 -1.77872975E+00 -5.98414896E-09
Number of symbols in /Mol/                 I                0
Force Field                                I                0
Atom Types                                 C   N=           6
                                                            
            
Int Atom Types                             I   N=           6
           0           0           0           0           0           0
MM charges                                 R   N=           6
  0.00000000E+00  0.00000000E+00  0.00000000E+00  0.00000000E+00  0.00000000E+00
  0.00000000E+00
Integer atomic weights                     I   N=           6
          12          12           1           1           1           1
Real atomic weights                        R   N=           6
  1.20000000E+01  1.20000000E+01  1.00782504E+00  1.00782504E+00  1.00782504E+00
  1.00782504E+00
Atom fragment info                         I   N=           6
           0           0           0           0           0           0
Atom residue num                           I   N=           6
           0           0           0           0           0           0
Nuclear spins                              I   N=           6
           0           0           1           1           1           1
Nuclear ZEff                               R   N=           6
 -3.60000000E+00 -3.60000000E+00 -1.00000000E+00 -1.00000000E+00 -1.00000000E+00
 -1.00000000E+00
Nuclear ZNuc                               R   N=           6
  6.00000000E+00  6.00000000E+00  1.00000000E+00  1.00000000E+00  1.00000000E+00
  1.00000000E+00
Nuclear QMom                               R   N=           6
  0.00000000E+00  0.00000000E+00  0.00000000E+00  0.00000000E+00  0.00000000E+00
  0.00000000E+00
Nuclear GFac                               R   N=           6
  0.00000000E+00  0.00000000E+00  2.79284600E+00  2.79284600E+00  2.79284600E+00
  2.79284600E+00
MicOpt                                     I   N=           6
          -2          -2          -1          -1          -1          -1
Number of residues                         I                0
Number of secondary structures             I                0
Redundant internal dimensions              I   N=           4
          20          10           6           4
Redundant internal coordinate indices      I   N=          80
           1          -1           0           0           1          -2
           0           0           1          -3           0           0
           2          -1           0           0           2          -2
           0           0           2          -3           0           0
           1           3           0           0           1           4
           0           0           2           5           0           0
           2           6           0           0           2           1
           3           0           2           1           4           0
           3           1           4           0           1           2
           5           0           1           2           6           0
           5           2           6           0           3           1
           2           5           3           1           2           6
           4           1           2           5           4           1
           2           6
Redundant internal coordinates             R   N=          20
 -3.08219433E+00  0.00000000E+00  0.00000000E+00  3.08219433E+00  0.00000000E+00
  0.00000000E+00  2.06927402E+00  2.06927349E+00  2.06927403E+00  2.06927349E+00
  2.10717711E+00  2.10712311E+00  2.06888509E+00  2.10717711E+00  2.10712311E+00
  2.06888509E+00  3.14159265E+00  0.00000000E+00  0.00000000E+00  3.14159265E+00
ZRed-IntVec                                I   N=          20
          -1          -1          -1          -1          -1          -1
           0           0           0           0           0           0
           0           0           0           0           0           0
           0           0
ZRed-FPVec                                 R   N=          20
  0.00000000E+00  0.00000000E+00  0.00000000E+00  0.00000000E+00  0.00000000E+00
  0.00000000E+00  0.00000000E+00  0.00000000E+00  0.00000000E+00  0.00000000E+00
  0.00000000E+00  0.00000000E+00  0.00000000E+00  0.00000000E+00  0.00000000E+00
  0.00000000E+00  0.00000000E+00  0.00000000E+00  0.00000000E+00  0.00000000E+00
ZRed-Constraint1                           R   N=          20
 -3.08219433E+00  0.00000000E+00  0.00000000E+00  3.08219433E+00  0.00000000E+00
  0.00000000E+00  2.05067934E+00  2.05048469E+00  2.05067934E+00  2.05048469E+00
  1.98162443E+00  1.98155420E+00  2.32000667E+00  1.98162443E+00  1.98155420E+00
  2.32000667E+00  3.14159265E+00  0.00000000E+00  0.00000000E+00  3.14159265E+00
ZRed-Constraint2                           R   N=          20
 -3.08219433E+00  0.00000000E+00  0.00000000E+00  3.08219433E+00  0.00000000E+00
  0.00000000E+00  0.00000000E+00  0.00000000E+00  0.00000000E+00  0.00000000E+00
  0.00000000E+00  0.00000000E+00  0.00000000E+00  0.00000000E+00  0.00000000E+00
  0.00000000E+00  0.00000000E+00  0.00000000E+00  0.00000000E+00  0.00000000E+00
Number of contracted shells                I               28
Number of primitive shells                 I               50
Pure/Cartesian d shells                    I                0
Pure/Cartesian f shells                    I                0
Highest angular momentum                   I                2
Largest degree of contraction              I                6
Shell types                                I   N=          28
           0          -1          -1          -1          -1          -2
           0          -1          -1          -1          -1          -2
           0           0           0           1           0           0
           0           1           0           0           0           1
           0           0           0           1
Number of primitives per shell             I   N=          28
           6           3           1           1           1           1
           6           3           1           1           1           1
           3           1           1           1           3           1
           1           1           3           1           1           1
           3           1           1           1
Shell to atom map                          I   N=          28
           1           1           1           1           1           1
           2           2           2           2           2           2
           3           3           3           3           4           4
           4           4           5           5           5           5
           6           6           6           6
Primitive exponents                        R   N=          50
  4.56324000E+03  6.82024000E+02  1.54973000E+02  4.44553000E+01  1.30290000E+01
  1.82773000E+00  2.09642000E+01  4.80331000E+00  1.45933000E+00  4.83456000E-01
  1.45585000E-01  4.38000000E-02  6.26000000E-01  4.56324000E+03  6.82024000E+02
  1.54973000E+02  4.44553000E+01  1.30290000E+01  1.82773000E+00  2.09642000E+01
  4.80331000E+00  1.45933000E+00  4.83456000E-01  1.45585000E-01  4.38000000E-02
  6.26000000E-01  3.38650000E+01  5.09479000E+00  1.15879000E+00  3.25840000E-01
  1.02741000E-01  7.50000000E-01  3.38650000E+01  5.09479000E+00  1.15879000E+00
  3.25840000E-01  1.02741000E-01  7.50000000E-01  3.38650000E+01  5.09479000E+00
  1.15879000E+00  3.25840000E-01  1.02741000E-01  7.50000000E-01  3.38650000E+01
  5.09479000E+00  1.15879000E+00  3.25840000E-01  1.02741000E-01  7.50000000E-01
Contraction coefficients                   R   N=          50
  1.96665025E-03  1.52306019E-02  7.61269097E-02  2.60801033E-01  6.16462078E-01
  2.21006028E-01  1.14660081E-01  9.19999648E-01 -3.03068213E-03  1.00000000E+00
  1.00000000E+00  1.00000000E+00  1.00000000E+00  1.96665025E-03  1.52306019E-02
  7.61269097E-02  2.60801033E-01  6.16462078E-01  2.21006028E-01  1.14660081E-01
  9.19999648E-01 -3.03068213E-03  1.00000000E+00  1.00000000E+00  1.00000000E+00
  1.00000000E+00  2.54938145E-02  1.90373109E-01  8.52161486E-01  1.00000000E+00
  1.00000000E+00  1.00000000E+00  2.54938145E-02  1.90373109E-01  8.52161486E-01
  1.00000000E+00  1.00000000E+00  1.00000000E+00  2.54938145E-02  1.90373109E-01
  8.52161486E-01  1.00000000E+00  1.00000000E+00  1.00000000E+00  2.54938145E-02
  1.90373109E-01  8.52161486E-01  1.00000000E+00  1.00000000E+00  1.00000000E+00
P(S=P) Contraction coefficients            R   N=          50
  0.00000000E+00  0.00000000E+00  0.00000000E+00  0.00000000E+00  0.00000000E+00
  0.00000000E+00  4.02486927E-02  2.37593957E-01  8.15853851E-01  1.00000000E+00
  1.00000000E+00  1.00000000E+00  0.00000000E+00  0.00000000E+00  0.00000000E+00
  0.00000000E+00  0.00000000E+00  0.00000000E+00  0.00000000E+00  4.02486927E-02
  2.37593957E-01  8.15853851E-01  1.00000000E+00  1.00000000E+00  1.00000000E+00
  0.00000000E+00  0.00000000E+00  0.00000000E+00  0.00000000E+00  0.00000000E+00
  0.00000000E+00  0.00000000E+00  0.00000000E+00  0.00000000E+00  0.00000000E+00
  0.00000000E+00  0.00000000E+00  0.00000000E+00  0.00000000E+00  0.00000000E+00
  0.00000000E+00  0.00000000E+00  0.00000000E+00  0.00000000E+00  0.00000000E+00
  0.00000000E+00  0.00000000E+00  0.00000000E+00  0.00000000E+00  0.00000000E+00
Coordinates of each shell                  R   N=          84
 -3.08219433E+00  0.00000000E+00  0.00000000E+00 -3.08219433E+00  0.00000000E+00
  0.00000000E+00 -3.08219433E+00  0.00000000E+00  0.00000000E+00 -3.08219433E+00
  0.00000000E+00  0.00000000E+00 -3.08219433E+00  0.00000000E+00  0.00000000E+00
 -3.08219433E+00  0.00000000E+00  0.00000000E+00  3.08219433E+00  0.00000000E+00
  0.00000000E+00  3.08219433E+00  0.00000000E+00  0.00000000E+00  3.08219433E+00
  0.00000000E+00  0.00000000E+00  3.08219433E+00  0.00000000E+00  0.00000000E+00
  3.08219433E+00  0.00000000E+00  0.00000000E+00  3.08219433E+00  0.00000000E+00
  0.00000000E+00 -4.13965211E+00 -1.77867311E+00  5.97532774E-10 -4.13965211E+00
 -1.77867311E+00  5.97532774E-10 -4.13965211E+00 -1.77867311E+00  5.97532774E-10
 -4.13965211E+00 -1.77867311E+00  5.97532774E-10 -4.13955579E+00  1.77872975E+00
 -5.77556428E-09 -4.13955579E+00  1.77872975E+00 -5.77556428E-09 -4.13955579E+00
  1.77872975E+00 -5.77556428E-09 -4.13955579E+00  1.77872975E+00 -5.77556428E-09
  4.13965211E+00  1.77867311E+00  3.88948766E-10  4.13965211E+00  1.77867311E+00
  3.88948766E-10  4.13965211E+00  1.77867311E+00  3.88948766E-10  4.13965211E+00
  1.77867311E+00  3.88948766E-10  4.13955579E+00 -1.77872975E+00 -5.98414896E-09
  4.13955579E+00 -1.77872975E+00 -5.98414896E-09  4.13955579E+00 -1.77872975E+00
 -5.98414896E-09  4.13955579E+00 -1.77872975E+00 -5.98414896E-09
Num ILSW                                   I              100
ILSW                                       I   N=         100
           1           0           0           1           2           0
           0           0           0           0        4336          -1
           7           0           0           0           2           0
           0           0           0           0           1           0
           1           1           0           0           0           0
           0           0      100000           0          -1           0
           0           0           0           0           0           0
           0           0           0           1           0           0
           0 -2000000000           1           0           0           0
           0           0           4          52           0           0
           0           0          55           0           0           0
           0           0           0           6           0           1
           0           0           0           0           0           0
           0           0           0           0           0           0
           0           0           0           0           0           0
           0           0           0           0           0           0
           0           0           0           0
Num RLSW                                   I               52
RLSW                                       R   N=          52
  1.00000000E+00  1.00000000E+00  1.00000000E+00  1.00000000E+00  5.40000000E-01
  0.00000000E+00  0.00000000E+00  1.00000000E+00  0.00000000E+00  0.00000000E+00
  0.00000000E+00  0.00000000E+00  1.00000000E+00  0.00000000E+00  0.00000000E+00
  0.00000000E+00  0.00000000E+00  1.00000000E+00  0.00000000E+00  0.00000000E+00
  0.00000000E+00  0.00000000E+00  1.00000000E+00  0.00000000E+00  0.00000000E+00
  0.00000000E+00  0.00000000E+00  1.00000000E+00  0.00000000E+00  0.00000000E+00
  0.00000000E+00  0.00000000E+00  1.00000000E+00  0.00000000E+00  0.00000000E+00
  0.00000000E+00  0.00000000E+00  0.00000000E+00  1.00000000E+00  1.00000000E+00
  0.00000000E+00  1.00000000E+00  0.00000000E+00  0.00000000E+00  0.00000000E+00
  0.00000000E+00  0.00000000E+00  0.00000000E+00  0.00000000E+00  0.00000000E+00
  0.00000000E+00  0.00000000E+00
MxBond                                     I                3
NBond                                      I   N=           6
           3           3           1           1           1           1
IBond                                      I   N=          18
           2           3           4           1           5           6
           1           0           0           1           0           0
           2           0           0           2           0           0
RBond                                      R   N=          18
  1.00000000E-01  1.00000000E+00  1.00000000E+00  1.00000000E-01  1.00000000E+00
  1.00000000E+00  1.00000000E+00  0.00000000E+00  0.00000000E+00  1.00000000E+00
  0.00000000E+00  0.00000000E+00  1.00000000E+00  0.00000000E+00  0.00000000E+00
  1.00000000E+00  0.00000000E+00  0.00000000E+00
Virial Ratio                               R      2.004745454658713E+00
SCF Energy                                 R     -7.792345685740892E+01
Total Energy                               R     -7.792345685740892E+01
S**2                                       R      7.619288976350163E-01
S**2 after annihilation                    R      7.500150263942560E-01
RMS Force                                  R      6.656574071567146E-06
RMS Density                                R      2.851236190314645E-09
Job Status                                 I                1
Nuclear derivative order                   I                1
External E-field                           R   N=          35
  0.00000000E+00  0.00000000E+00  0.00000000E+00  0.00000000E+00  0.00000000E+00
  0.00000000E+00  0.00000000E+00  0.00000000E+00  0.00000000E+00  0.00000000E+00
  0.00000000E+00  0.00000000E+00  0.00000000E+00  0.00000000E+00  0.00000000E+00
  0.00000000E+00  0.00000000E+00  0.00000000E+00  0.00000000E+00  0.00000000E+00
  0.00000000E+00  0.00000000E+00  0.00000000E+00  0.00000000E+00  0.00000000E+00
  0.00000000E+00  0.00000000E+00  0.00000000E+00  0.00000000E+00  0.00000000E+00
  0.00000000E+00  0.00000000E+00  0.00000000E+00  0.00000000E+00  0.00000000E+00
IOpCl                                      I                1
IROHF                                      I                0
Alpha Orbital Energies                     R   N=          68
 -1.08918134E+01 -1.08918089E+01 -1.00551859E+00 -1.00242491E+00 -7.51323648E-01
 -7.49703065E-01 -6.01294940E-01 -5.59801442E-01 -3.27154800E-01 -3.17542837E-01
 -1.31313329E-01 -1.09574543E-01 -9.62091207E-02 -7.56204796E-02 -6.80225480E-02
 -5.35630169E-02 -4.52247859E-02 -1.82058687E-02 -9.78420073E-03 -1.83282640E-03
  1.97245617E-02  6.87810076E-02  2.47966801E-01  2.67270101E-01  2.79528769E-01
  2.90171280E-01  3.22777343E-01  3.64513248E-01  4.00340511E-01  4.15762808E-01
  4.55853957E-01  4.91288123E-01  4.95662728E-01  5.84279947E-01  8.43898451E-01
  8.43927282E-01  9.30889895E-01  9.80578185E-01  9.92149911E-01  1.02084520E+00
  1.20219213E+00  1.25349566E+00  1.29673183E+00  1.30611174E+00  1.48470127E+00
  1.48475322E+00  1.57262524E+00  1.57396208E+00  1.71463028E+00  1.71472732E+00
  1.82501772E+00  1.83842738E+00  2.15709463E+00  2.21875520E+00  2.24758341E+00
  2.27659887E+00  2.28710409E+00  2.28865122E+00  2.40842541E+00  2.41570368E+00
  2.47995077E+00  2.50661375E+00  2.70198279E+00  2.75600598E+00  3.45445659E+00
  3.46682717E+00  2.35005116E+01  2.35110231E+01
Beta Orbital Energies                      R   N=          68
 -1.08833185E+01 -1.08833022E+01 -9.83526798E-01 -9.79009779E-01 -7.41092098E-01
 -7.39245719E-01 -4.99475990E-01 -3.41827010E-01 -3.08599488E-01 -2.96825717E-01
 -1.29771481E-01 -1.10468086E-01 -9.49169443E-02 -7.37844349E-02 -6.78624115E-02
 -4.68937116E-02 -4.07282570E-02 -1.54947607E-02 -4.21256127E-03  1.81212491E-03
  2.01967898E-02  7.62153075E-02  2.39910976E-01  2.66425626E-01  2.78983321E-01
  2.93082729E-01  3.49266643E-01  3.65820377E-01  4.06441282E-01  4.31527079E-01
  4.71374888E-01  5.03213497E-01  5.07905439E-01  6.04218477E-01  8.60891431E-01
  8.60934039E-01  9.57775931E-01  1.00055148E+00  1.01339168E+00  1.04550975E+00
  1.21683554E+00  1.26947277E+00  1.31083198E+00  1.32068620E+00  1.49697659E+00
  1.49779664E+00  1.57961002E+00  1.58044005E+00  1.72382724E+00  1.72397465E+00
  1.83796587E+00  1.85205073E+00  2.17241303E+00  2.23854061E+00  2.27138566E+00
  2.30960440E+00  2.31485935E+00  2.32330795E+00  2.42918595E+00  2.43281448E+00
  2.49618008E+00  2.52391878E+00  2.74509534E+00  2.79842923E+00  3.49416756E+00
  3.50649172E+00  2.35074167E+01  2.35179523E+01
Alpha MO coefficients                      R   N=        4624
  3.99606979E-01  3.28669425E-01 -5.07779377E-04  1.26590728E-08  2.44699535E-13
  8.01878615E-03 -1.25708146E-03  3.58356324E-08 -4.03902091E-12 -2.70260862E-03
 -1.61994224E-04 -1.37098306E-08  4.49022913E-13  9.22670139E-05  8.01943483E-04
 -1.08096845E-08  1.24204467E-12 -7.84812459E-04  1.85704695E-12 -3.57291976E-12
 -6.38971054E-04  3.64486656E-08 -3.98292093E-01 -3.27587910E-01 -5.06308207E-04
  1.26140269E-08 -2.04752243E-13 -7.99272031E-03 -1.25212265E-03  3.57176441E-08
  4.26437490E-12  2.69433105E-03 -1.62778851E-04 -1.37837965E-08 -3.61172148E-13
 -9.42668405E-05  8.00613034E-04 -1.08656282E-08 -1.36215266E-12  7.82154332E-04
  2.00486018E-12 -3.56123142E-12  6.36835538E-04 -3.63409700E-08  2.20844764E-04
 -2.10432040E-03  1.58229176E-03 -6.98798051E-04 -1.14958709E-03  3.76673389E-13
  2.20841153E-04 -2.10430225E-03  1.58229860E-03 -6.98732116E-04  1.14962389E-03
 -3.74375310E-12 -2.20147466E-04  2.09735659E-03 -1.57679495E-03 -6.96340897E-04
 -1.14574213E-03 -2.47581585E-13 -2.20143857E-04  2.09733843E-03 -1.57680206E-03
 -6.96275154E-04  1.14577878E-03  3.86013735E-12  3.98292922E-01  3.27602408E-01
 -4.45541456E-04  1.36464809E-08  2.74737418E-13  7.89547912E-03 -1.50248774E-03
  3.57397989E-08 -4.22555864E-12 -2.50706351E-03  2.38330699E-04  2.24617825E-08
  6.70722838E-13 -6.06922202E-04  4.02353313E-04  1.69927989E-08  7.60119626E-13
 -8.05213781E-04  1.81917354E-12 -3.66605780E-12 -6.46887713E-04  3.26167429E-08
  3.99607806E-01  3.28683875E-01  4.47212632E-04 -1.36881311E-08  2.32227606E-13
  7.92186505E-03  1.50662273E-03 -3.58577116E-08 -4.47680875E-12 -2.51595733E-03
 -2.37795486E-04 -2.24164764E-08  5.73923124E-13 -6.06614791E-04 -4.04994229E-04
 -1.69570834E-08  9.58298072E-13 -8.07796038E-04 -1.98182979E-12  3.67729696E-12
 -6.48990158E-04  3.27366951E-08  2.11204951E-04 -2.10943288E-03  1.66518954E-03
 -7.44378084E-04 -1.16471369E-03  3.66528672E-13  2.11204127E-04 -2.10943680E-03
  1.66510778E-03 -7.44319948E-04  1.16475589E-03 -3.80530134E-12  2.11931678E-04
 -2.11635697E-03  1.67039551E-03  7.46677180E-04  1.16849624E-03  2.34715354E-13
  2.11930842E-04 -2.11636082E-03  1.67031376E-03  7.46618827E-04 -1.16853856E-03
 -3.95084152E-12 -7.95445769E-02 -1.29043379E-01 -3.22829806E-02  8.79963140E-07
 -8.01201313E-11  3.65231768E-01 -4.64871500E-02  1.28122991E-06 -1.08572815E-10
  2.32288043E-01 -1.79959823E-02  3.26751604E-07 -5.47226209E-11  1.99312773E-03
 -3.38795853E-03 -1.82403326E-07 -3.89765379E-12 -5.06354141E-03  1.35525245E-11
 -2.21832021E-11 -3.56919595E-03  1.91201989E-07 -7.95443964E-02 -1.29043086E-01
  3.22829023E-02 -8.79961169E-07 -8.60017511E-11  3.65230939E-01  4.64870332E-02
 -1.28122700E-06 -1.16605540E-10  2.32287513E-01  1.79959409E-02 -3.26750730E-07
 -5.76931286E-11  1.99315987E-03  3.38793328E-03  1.82403307E-07 -5.44561347E-12
 -5.06352976E-03 -1.49498329E-11  2.21845430E-11 -3.56918684E-03  1.91201538E-07
  7.69100105E-02  9.13994089E-02 -4.86381864E-03  5.60528997E-03  1.31149898E-02
 -9.63746461E-12  7.69100068E-02  9.13992947E-02 -4.86305298E-03  5.60460498E-03
 -1.31152760E-02  3.72733613E-11  7.69098341E-02  9.13992006E-02 -4.86381281E-03
 -5.60527764E-03 -1.31149602E-02 -8.56783832E-12  7.69098304E-02  9.13990865E-02
 -4.86304715E-03 -5.60459266E-03  1.31152464E-02  3.83441326E-11 -7.95346122E-02
 -1.29000106E-01 -3.46933135E-02  8.86596922E-07 -8.20561110E-11  3.64671516E-01
 -5.17457711E-02  1.30802155E-06 -1.12629488E-10  2.34265619E-01 -1.84649000E-02
  4.05169907E-07 -5.08823686E-11 -1.41120324E-02 -1.11337492E-02 -6.33223035E-09
 -1.33012413E-11 -5.12169388E-03  1.46579753E-11 -2.32161648E-11 -4.00892074E-03
  1.95254286E-07  7.95347922E-02  1.29000398E-01 -3.46933867E-02  8.86598952E-07
  8.81085711E-11 -3.64672341E-01 -5.17458766E-02  1.30802451E-06  1.21078973E-10
 -2.34266146E-01 -1.84649410E-02  4.05170678E-07  5.37151390E-11  1.41120278E-02
 -1.11337569E-02 -6.33263015E-09  1.38171109E-11  5.12170531E-03  1.61321817E-11
 -2.32184813E-11  4.00892878E-03 -1.95254708E-07  7.79399019E-02  9.21891581E-02
 -2.51157083E-03  5.44652213E-03  1.30938402E-02 -9.84014359E-12  7.79398372E-02
  9.21889520E-02 -2.51117591E-03  5.44580253E-03 -1.30941051E-02  3.70999569E-11
 -7.79400762E-02 -9.21893656E-02  2.51158170E-03  5.44653484E-03  1.30938699E-02
  8.81021213E-12 -7.79400116E-02 -9.21891595E-02  2.51118678E-03  5.44581524E-03
 -1.30941348E-02 -3.81345973E-11 -8.59136033E-09 -8.89296266E-09  4.02457661E-06
  1.59038001E-01 -2.84141003E-10 -3.13231235E-09  5.84737355E-06  2.36061091E-01
 -4.19084420E-10 -2.04330448E-07  3.15697151E-06  1.17827736E-01 -2.13070782E-10
  3.38840825E-07  1.25712467E-07 -1.55965257E-03  3.82672600E-12  2.29573638E-09
  4.40239191E-11 -5.42276369E-11 -1.30855944E-06 -2.42191581E-02  8.59122144E-09
  8.89271571E-09  4.02455857E-06  1.59037372E-01  2.84169847E-10  3.13340922E-09
  5.84734650E-06  2.36060162E-01  4.19075821E-10  2.04329845E-07  3.15695825E-06
  1.17827248E-01  2.13245865E-10 -3.38840737E-07  1.25711451E-07 -1.55966211E-03
 -4.00269055E-12 -2.29559941E-09  4.40305833E-11 -5.84732130E-11  1.30855418E-06
  2.42190590E-02 -1.04910501E-01 -1.49116905E-01 -3.48600747E-02 -8.49230047E-03
 -7.54188060E-03 -5.11507663E-12  1.04910672E-01  1.49117227E-01  3.48601864E-02
  8.49187097E-03 -7.54236591E-03  3.24425663E-11  1.04910086E-01  1.49116320E-01
  3.48599632E-02 -8.49226834E-03 -7.54185139E-03  6.65638700E-12 -1.04910257E-01
 -1.49116642E-01 -3.48600748E-02  8.49183884E-03 -7.54233670E-03 -3.40003767E-11
 -3.28515468E-08 -5.86934516E-08  4.58765888E-06  1.59675089E-01 -2.87334533E-10
  2.67702363E-07  6.88313275E-06  2.35808882E-01 -4.26204574E-10 -1.76313402E-07
  3.38942064E-06  1.24200104E-01 -2.23152065E-10  1.78744224E-08  2.60330346E-07
  2.43294663E-03 -8.52037439E-13  3.51222562E-08  4.44288447E-11 -5.57344547E-11
 -1.33999794E-06 -2.52080878E-02 -3.28515604E-08 -5.86934527E-08 -4.58767467E-06
 -1.59675714E-01 -2.87337540E-10  2.67702248E-07 -6.88315569E-06 -2.35809810E-01
 -4.26305281E-10 -1.76314344E-07 -3.38943308E-06 -1.24200568E-01 -2.22936217E-10
  1.78757212E-08 -2.60330840E-07 -2.43294058E-03 -1.22851970E-12  3.51222643E-08
 -4.44337698E-11  6.01070295E-11 -1.34000310E-06 -2.52081831E-02 -1.05485182E-01
 -1.48803995E-01 -2.85634247E-02 -8.16149684E-03 -7.40352415E-03 -5.20018393E-12
  1.05484974E-01  1.48803560E-01  2.85636197E-02  8.16114215E-03 -7.40393539E-03
  3.13045219E-11 -1.05485594E-01 -1.48804582E-01 -2.85635626E-02  8.16153022E-03
  7.40355373E-03 -6.71145537E-12  1.05485387E-01  1.48804147E-01  2.85637576E-02
 -8.16117553E-03  7.40396498E-03  3.28107673E-11 -2.78093369E-02 -4.70074299E-02
  1.84920301E-01 -5.42059741E-06  3.47387535E-10  1.52040205E-01  2.80111173E-01
 -8.16039970E-06  5.25603375E-10  1.74922399E-01  2.13809924E-01 -6.52906248E-06
  3.78408155E-10  1.09476547E-02  1.14472680E-02 -5.54326909E-07  5.51963977E-12
  1.16904012E-02 -5.09978585E-11  2.92698532E-11 -3.86957625E-03  3.47067406E-07
 -2.78093306E-02 -4.70074193E-02 -1.84920264E-01  5.42059650E-06  3.80311465E-10
  1.52040170E-01 -2.80111119E-01  8.16039835E-06  5.74966776E-10  1.74922362E-01
 -2.13809879E-01  6.52906140E-06  4.16878307E-10  1.09476509E-02 -1.14472654E-02
  5.54326879E-07  6.79646534E-12  1.16903988E-02  5.49972766E-11 -2.92687676E-11
 -3.86957508E-03  3.47067402E-07 -4.81102426E-02 -7.63908157E-02 -2.53588603E-02
  7.53118988E-03 -9.03990416E-03  2.85885500E-11 -4.81108707E-02 -7.63914838E-02
 -2.53584114E-02  7.53171396E-03  9.03951006E-03 -3.85534154E-12 -4.81102339E-02
 -7.63908019E-02 -2.53588557E-02 -7.53118849E-03  9.03990239E-03  2.97571984E-11
 -4.81108621E-02 -7.63914700E-02 -2.53584068E-02 -7.53171257E-03 -9.03950828E-03
 -2.67923235E-12 -3.50094295E-02 -5.90509991E-02  1.99104723E-01 -5.00986005E-06
  4.26522793E-10  1.90001153E-01  2.91284485E-01 -7.45772169E-06  6.41630022E-10
  2.16109540E-01  2.53825137E-01 -6.17069109E-06  5.11602617E-10  3.16242364E-02
  2.17744238E-02 -1.92342313E-07  4.04483380E-11  1.41822462E-02 -5.86607949E-11
  2.96565732E-11 -7.86859617E-03  1.08498588E-07  3.50094346E-02  5.90510077E-02
  1.99104756E-01 -5.00986099E-06 -4.68479668E-10 -1.90001180E-01  2.91284535E-01
 -7.45772310E-06 -7.05224769E-10 -2.16109574E-01  2.53825177E-01 -6.17069223E-06
 -5.64832865E-10 -3.16242391E-02  2.17744266E-02 -1.92342407E-07 -4.28210889E-11
 -1.41822484E-02 -6.29311007E-11  2.96601298E-11  7.86859699E-03 -1.08498657E-07
 -4.76676283E-02 -7.66388662E-02 -3.00529973E-02  8.12162422E-03 -9.47194681E-03
  3.41008975E-11 -4.76668986E-02 -7.66379707E-02 -3.00534199E-02  8.12204848E-03
  9.47151683E-03  3.68531948E-13  4.76676370E-02  7.66388802E-02  3.00530026E-02
  8.12162563E-03 -9.47194838E-03 -3.58980736E-11  4.76669073E-02  7.66379847E-02
  3.00534252E-02  8.12204989E-03  9.47151840E-03 -2.14866202E-12 -3.03491032E-11
 -5.11504404E-11 -3.27612281E-10  3.32871736E-10  1.81967684E-01  1.69073935E-10
 -5.41481354E-10  5.29827211E-10  2.91441903E-01  1.87437353E-10 -5.35259728E-10
  5.39297583E-10  3.11596778E-01 -7.25451982E-11 -1.50373927E-10  1.37300450E-10
  6.73565158E-02 -1.91020050E-11 -7.29404851E-03  2.09896840E-07  1.49885344E-11
 -1.83325153E-11 -2.81802706E-11 -4.77696145E-11  3.71516891E-10 -3.33111248E-10
  1.81967549E-01  1.58439277E-10  6.09124058E-10 -5.28988670E-10  2.91441687E-01
  1.71722345E-10  6.06044455E-10 -5.41939981E-10  3.11596553E-01 -1.18946552E-10
  1.81613000E-10 -1.39979467E-10  6.73564628E-02 -2.19786281E-11  7.29404139E-03
 -2.09896699E-07  1.78740645E-11 -1.80544454E-11 -3.38547848E-11 -5.95123085E-11
  3.05832722E-12 -3.09399024E-11  2.59442125E-11  1.56251229E-02 -1.93426412E-11
 -8.12959580E-12  1.74791798E-11 -3.03681773E-11  2.77640327E-11  1.56251303E-02
 -3.22032853E-11 -6.02870944E-11  2.45389047E-11  3.46080580E-11 -2.63457018E-11
  1.56251112E-02 -1.79995340E-11 -5.88089744E-12  2.53746302E-11  3.38120876E-11
 -2.69974829E-11  1.56251186E-02  5.25933527E-12  9.05504456E-12 -4.66060537E-10
  3.31185523E-10  1.88892625E-01 -3.25062337E-11 -7.15755146E-10  5.35363697E-10
  3.02189382E-01 -1.25685935E-11 -8.01619390E-10  5.89227316E-10  3.21533507E-01
 -4.55829908E-10 -3.60378663E-10  1.28949998E-10  8.15338749E-02 -3.71051422E-11
 -1.04576534E-02  2.18167248E-07  3.34754339E-11 -1.30504501E-11 -3.73715098E-12
 -6.19011361E-12 -4.96791671E-10  3.31355433E-10 -1.88892752E-01  2.26346939E-11
 -7.66870270E-10  5.34709591E-10 -3.02189585E-01  3.09463640E-12 -8.51416216E-10