 Entering Gaussian System, Link 0=g16
 Initial command:
 /home/szhao/Apps/g16/l1.exe "/home/szhao/tmp/Gau-130170.inp" -scrdir="/home/szhao/tmp/"
 Default is to use a total of  16 processors:
                               16 via shared-memory
                                1 via Linda
 Entering Link 1 = /home/szhao/Apps/g16/l1.exe PID=    130171.
  
 Copyright (c) 1988,1990,1992,1993,1995,1998,2003,2009,2016,
            Gaussian, Inc.  All Rights Reserved.
  
 This is part of the Gaussian(R) 16 program.  It is based on
 the Gaussian(R) 09 system (copyright 2009, Gaussian, Inc.),
 the Gaussian(R) 03 system (copyright 2003, Gaussian, Inc.),
 the Gaussian(R) 98 system (copyright 1998, Gaussian, Inc.),
 the Gaussian(R) 94 system (copyright 1995, Gaussian, Inc.),
 the Gaussian 92(TM) system (copyright 1992, Gaussian, Inc.),
 the Gaussian 90(TM) system (copyright 1990, Gaussian, Inc.),
 the Gaussian 88(TM) system (copyright 1988, Gaussian, Inc.),
 the Gaussian 86(TM) system (copyright 1986, Carnegie Mellon
 University), and the Gaussian 82(TM) system (copyright 1983,
 Carnegie Mellon University). Gaussian is a federally registered
 trademark of Gaussian, Inc.
  
 This software contains proprietary and confidential information,
 including trade secrets, belonging to Gaussian, Inc.
  
 This software is provided under written license and may be
 used, copied, transmitted, or stored only in accord with that
 written license.
  
 The following legend is applicable only to US Government
 contracts under FAR:
  
                    RESTRICTED RIGHTS LEGEND
  
 Use, reproduction and disclosure by the US Government is
 subject to restrictions as set forth in subparagraphs (a)
 and (c) of the Commercial Computer Software - Restricted
 Rights clause in FAR 52.227-19.
  
 Gaussian, Inc.
 340 Quinnipiac St., Bldg. 40, Wallingford CT 06492
  
  
 ---------------------------------------------------------------
 Warning -- This program may not be used in any manner that
 competes with the business of Gaussian, Inc. or will provide
 assistance to any competitor of Gaussian, Inc.  The licensee
 of this program is prohibited from giving any competitor of
 Gaussian, Inc. access to this program.  By using this program,
 the user acknowledges that Gaussian, Inc. is engaged in the
 business of creating and licensing software in the field of
 computational chemistry and represents and warrants to the
 licensee that it is not a competitor of Gaussian, Inc. and that
 it will not use this program in any manner prohibited above.
 ---------------------------------------------------------------
  

 Cite this work as:
 Gaussian 16, Revision A.03,
 M. J. Frisch, G. W. Trucks, H. B. Schlegel, G. E. Scuseria, 
 M. A. Robb, J. R. Cheeseman, G. Scalmani, V. Barone, 
 G. A. Petersson, H. Nakatsuji, X. Li, M. Caricato, A. V. Marenich, 
 J. Bloino, B. G. Janesko, R. Gomperts, B. Mennucci, H. P. Hratchian, 
 J. V. Ortiz, A. F. Izmaylov, J. L. Sonnenberg, D. Williams-Young, 
 F. Ding, F. Lipparini, F. Egidi, J. Goings, B. Peng, A. Petrone, 
 T. Henderson, D. Ranasinghe, V. G. Zakrzewski, J. Gao, N. Rega, 
 G. Zheng, W. Liang, M. Hada, M. Ehara, K. Toyota, R. Fukuda, 
 J. Hasegawa, M. Ishida, T. Nakajima, Y. Honda, O. Kitao, H. Nakai, 
 T. Vreven, K. Throssell, J. A. Montgomery, Jr., J. E. Peralta, 
 F. Ogliaro, M. J. Bearpark, J. J. Heyd, E. N. Brothers, K. N. Kudin, 
 V. N. Staroverov, T. A. Keith, R. Kobayashi, J. Normand, 
 K. Raghavachari, A. P. Rendell, J. C. Burant, S. S. Iyengar, 
 J. Tomasi, M. Cossi, J. M. Millam, M. Klene, C. Adamo, R. Cammi, 
 J. W. Ochterski, R. L. Martin, K. Morokuma, O. Farkas, 
 J. B. Foresman, and D. J. Fox, Gaussian, Inc., Wallingford CT, 2016.
 
 ******************************************
 Gaussian 16:  ES64L-G16RevA.03 25-Dec-2016
                21-Apr-2025 
 ******************************************
 %chk=opt.chk
 %mem=4GB
 %nprocshared=8
 Will use up to    8 processors via shared memory.
 --------------------------------------------
 #p opt UM062X/6-311+G** nosymm int=superfine
 --------------------------------------------
 1/18=20,19=15,26=5,38=1/1,3;
 2/9=110,12=2,15=1,17=6,18=5,40=1/2;
 3/5=4,6=6,7=111,11=2,25=1,30=1,71=1,74=-55,75=-7,116=2/1,2,3;
 4//1;
 5/5=2,38=5/2;
 6/7=2,8=2,9=2,10=2,28=1/1;
 7/30=1/1,2,3,16;
 1/18=20,19=15,26=5/3(2);
 2/9=110,15=1/2;
 99//99;
 2/9=110,15=1/2;
 3/5=4,6=6,7=111,11=2,25=1,30=1,71=1,74=-55,75=-7,116=2/1,2,3;
 4/5=5,16=3,69=1/1;
 5/5=2,38=5/2;
 7/30=1/1,2,3,16;
 1/18=20,19=15,26=5/3(-5);
 2/9=110,15=1/2;
 6/7=2,8=2,9=2,10=2,19=2,28=1/1;
 99/9=1/99;
 Leave Link    1 at Mon Apr 21 21:13:19 2025, MaxMem=   536870912 cpu:               3.3 elap:               0.4
 (Enter /home/szhao/Apps/g16/l101.exe)
 -------------------
 Title Card Required
 -------------------
 Symbolic Z-matrix:
 Charge =  0 Multiplicity = 1
 P                    -1   -2.20949   0.        0. 
 P                    -1    2.20949   0.        0. 
 H                    0    -2.31235  -1.41726   0. 
 H                    0     2.31235   1.41726   0. 
 
 Add virtual bond connecting atoms P2         and P1         Dist= 8.35D+00.
 ITRead=  2  2  0  0
 MicOpt= -2 -2 -1 -1
 NAtoms=      4 NQM=        2 NQMF=       2 NMMI=      0 NMMIF=      0
                NMic=       0 NMicF=      0.
                    Isotopes and Nuclear Properties:
 (Nuclear quadrupole moments (NQMom) in fm**2, nuclear magnetic moments (NMagM)
  in nuclear magnetons)

  Atom         1           2           3           4
 IAtWgt=          31          31           1           1
 AtmWgt=  30.9737634  30.9737634   1.0078250   1.0078250
 NucSpn=           1           1           1           1
 AtZEff=  -0.0000000  -0.0000000  -0.0000000  -0.0000000
 NQMom=    0.0000000   0.0000000   0.0000000   0.0000000
 NMagM=    1.1316000   1.1316000   2.7928460   2.7928460
 AtZNuc=  15.0000000  15.0000000   1.0000000   1.0000000
 Leave Link  101 at Mon Apr 21 21:13:20 2025, MaxMem=   536870912 cpu:               3.0 elap:               0.5
 (Enter /home/szhao/Apps/g16/l103.exe)

 GradGradGradGradGradGradGradGradGradGradGradGradGradGradGradGradGradGrad
 Berny optimization.
 Initialization pass.
                           ----------------------------
                           !    Initial Parameters    !
                           ! (Angstroms and Degrees)  !
 --------------------------                            --------------------------
 ! Name  Definition              Value          Derivative Info.                !
 --------------------------------------------------------------------------------
 ! X1    R(1,-1)                -2.2095         Frozen                          !
 ! Y1    R(1,-2)                 0.0            Frozen                          !
 ! Z1    R(1,-3)                 0.0            Frozen                          !
 ! X2    R(2,-1)                 2.2095         Frozen                          !
 ! Y2    R(2,-2)                 0.0            Frozen                          !
 ! Z2    R(2,-3)                 0.0            Frozen                          !
 ! R1    R(1,3)                  1.421          estimate D2E/DX2                !
 ! R2    R(2,4)                  1.421          estimate D2E/DX2                !
 ! A1    A(2,1,3)               94.1511         estimate D2E/DX2                !
 ! A2    A(1,2,4)               94.1511         estimate D2E/DX2                !
 ! D1    D(3,1,2,4)            180.0            estimate D2E/DX2                !
 --------------------------------------------------------------------------------
 Trust Radius=3.00D-01 FncErr=1.00D-07 GrdErr=1.00D-07 EigMax=2.50D+02 EigMin=1.00D-04
 Number of steps in this run=     21 maximum allowed number of steps=    100.
 GradGradGradGradGradGradGradGradGradGradGradGradGradGradGradGradGradGrad

 Leave Link  103 at Mon Apr 21 21:13:20 2025, MaxMem=   536870912 cpu:               0.3 elap:               0.2
 (Enter /home/szhao/Apps/g16/l202.exe)
                          Input orientation:                          
 ---------------------------------------------------------------------
 Center     Atomic      Atomic             Coordinates (Angstroms)
 Number     Number       Type             X           Y           Z
 ---------------------------------------------------------------------
      1         15           0       -2.209490    0.000000    0.000000
      2         15           0        2.209490    0.000000    0.000000
      3          1           0       -2.312351   -1.417255    0.000000
      4          1           0        2.312351    1.417255    0.000000
 ---------------------------------------------------------------------
                    Distance matrix (angstroms):
                    1          2          3          4
     1  P    0.000000
     2  P    4.418979   0.000000
     3  H    1.420983   4.738739   0.000000
     4  H    4.738739   1.420983   5.424234   0.000000
 Symmetry turned off by external request.
 Stoichiometry    H2P2
 Framework group  C2H[SGH(H2P2)]
 Deg. of freedom     3
 Full point group                 C2H     NOp   4
 Rotational constants (GHZ):         129.3330777           1.6128934           1.5930270
 Leave Link  202 at Mon Apr 21 21:13:21 2025, MaxMem=   536870912 cpu:               0.1 elap:               0.1
 (Enter /home/szhao/Apps/g16/l301.exe)
 Standard basis: 6-311+G(d,p) (5D, 7F)
 Ernie: Thresh=  0.10000D-02 Tol=  0.10000D-05 Strict=F.
    72 basis functions,   116 primitive gaussians,    74 cartesian basis functions
    16 alpha electrons       16 beta electrons
       nuclear repulsion energy        41.5637147941 Hartrees.
 IExCor= 4336 DFT=T Ex+Corr=M062X ExCW=0 ScaHFX=  0.540000
 ScaDFX=  1.000000  1.000000  1.000000  1.000000 ScalE2=  1.000000  1.000000
 IRadAn=      7 IRanWt=     -1 IRanGd=            0 ICorTp=0 IEmpDi=  4
 NAtoms=    4 NActive=    4 NUniq=    4 SFac= 1.00D+00 NAtFMM=   60 NAOKFM=F Big=F
 Integral buffers will be    131072 words long.
 Raffenetti 2 integral format.
 Two-electron integral symmetry is turned off.
 Leave Link  301 at Mon Apr 21 21:13:21 2025, MaxMem=   536870912 cpu:               0.6 elap:               0.1
 (Enter /home/szhao/Apps/g16/l302.exe)
 NPDir=0 NMtPBC=     1 NCelOv=     1 NCel=       1 NClECP=     1 NCelD=      1
         NCelK=      1 NCelE2=     1 NClLst=     1 CellRange=     0.0.
 One-electron integrals computed using PRISM.
 NBasis=    72 RedAO= T EigKep=  1.61D-02  NBF=    72
 NBsUse=    72 1.00D-06 EigRej= -1.00D+00 NBFU=    72
 Precomputing XC quadrature grid using
 IXCGrd= 4 IRadAn=           7 IRanWt=          -1 IRanGd=           0 AccXCQ= 0.00D+00.
 Generated NRdTot=       0 NPtTot=           0 NUsed=           0 NTot=          32
 NSgBfM=    67    67    67    67    67 MxSgAt=     4 MxSgA2=     4.
 Leave Link  302 at Mon Apr 21 21:13:22 2025, MaxMem=   536870912 cpu:               2.2 elap:               0.4
 (Enter /home/szhao/Apps/g16/l303.exe)
 DipDrv:  MaxL=1.
 Leave Link  303 at Mon Apr 21 21:13:22 2025, MaxMem=   536870912 cpu:               0.6 elap:               0.1
 (Enter /home/szhao/Apps/g16/l401.exe)
 ExpMin= 3.48D-02 ExpMax= 7.75D+04 ExpMxC= 2.65D+03 IAcc=3 IRadAn=         7 AccDes= 0.00D+00
 Harris functional with IExCor= 1009 and IRadAn=       7 diagonalized for initial guess.
 HarFok:  IExCor= 1009 AccDes= 0.00D+00 IRadAn=         7 IDoV= 1 UseB2=F ITyADJ=14
 ICtDFT=  3500011 ScaDFX=  1.000000  1.000000  1.000000  1.000000
 FoFCou: FMM=F IPFlag=           0 FMFlag=      100000 FMFlg1=           0
         NFxFlg=           0 DoJE=T BraDBF=F KetDBF=T FulRan=T
         wScrn=  0.000000 ICntrl=       500 IOpCl=  0 I1Cent=   200000004 NGrid=           0
         NMat0=    1 NMatS0=      1 NMatT0=    0 NMatD0=    1 NMtDS0=    0 NMtDT0=    0
 Symmetry not used in FoFCou.
 Harris En= -683.349232761528    
 JPrj=0 DoOrth=F DoCkMO=F.
 Initial guess <Sx>= 0.0000 <Sy>= 0.0000 <Sz>= 0.0000 <S**2>=-0.0000 S=-0.0000
 Leave Link  401 at Mon Apr 21 21:13:23 2025, MaxMem=   536870912 cpu:               2.8 elap:               0.5
 (Enter /home/szhao/Apps/g16/l502.exe)
 Keep R1 and R2 ints in memory in canonical form, NReq=14118010.
 FoFCou: FMM=F IPFlag=           0 FMFlag=           0 FMFlg1=           0
         NFxFlg=           0 DoJE=F BraDBF=F KetDBF=F FulRan=T
         wScrn=  0.000000 ICntrl=       600 IOpCl=  0 I1Cent=           0 NGrid=           0
         NMat0=    1 NMatS0=   2628 NMatT0=    0 NMatD0=    1 NMtDS0=    0 NMtDT0=    0
 Symmetry not used in FoFCou.
 Two-electron integral symmetry not used.
 UHF open shell SCF:
 Using DIIS extrapolation, IDIIS=  1040.
 NGot=   536870912 LenX=   529949706 LenY=   529943789
 Requested convergence on RMS density matrix=1.00D-08 within 128 cycles.
 Requested convergence on MAX density matrix=1.00D-06.
 Requested convergence on             energy=1.00D-06.
 No special actions if energy rises.

 Cycle   1  Pass 1  IDiag  1:
 E= -683.570319088126    
 DIIS: error= 2.14D-02 at cycle   1 NSaved=   1.
 NSaved= 1 IEnMin= 1 EnMin= -683.570319088126     IErMin= 1 ErrMin= 2.14D-02
 ErrMax= 2.14D-02  0.00D+00 EMaxC= 1.00D-01 BMatC= 2.20D-01 BMatP= 2.20D-01
 IDIUse=3 WtCom= 7.86D-01 WtEn= 2.14D-01
 Coeff-Com:  0.100D+01
 Coeff-En:   0.100D+01
 Coeff:      0.100D+01
 Gap=     0.066 Goal=   None    Shift=    0.000
 Gap=     0.066 Goal=   None    Shift=    0.000
 GapD=    0.066 DampG=0.500 DampE=0.500 DampFc=0.2500 IDamp=-1.
 Damping current iteration by 2.50D-01
 RMSDP=1.79D-03 MaxDP=2.94D-02              OVMax= 4.66D-02

 Cycle   2  Pass 1  IDiag  1:
 E= -683.574568904219     Delta-E=       -0.004249816093 Rises=F Damp=T
 DIIS: error= 1.58D-02 at cycle   2 NSaved=   2.
 NSaved= 2 IEnMin= 2 EnMin= -683.574568904219     IErMin= 2 ErrMin= 1.58D-02
 ErrMax= 1.58D-02  0.00D+00 EMaxC= 1.00D-01 BMatC= 1.05D-01 BMatP= 2.20D-01
 IDIUse=3 WtCom= 8.42D-01 WtEn= 1.58D-01
 Coeff-Com: -0.214D+01 0.314D+01
 Coeff-En:   0.000D+00 0.100D+01
 Coeff:     -0.180D+01 0.280D+01
 Gap=     0.067 Goal=   None    Shift=    0.000
 Gap=     0.067 Goal=   None    Shift=    0.000
 RMSDP=1.07D-03 MaxDP=1.66D-02 DE=-4.25D-03 OVMax= 1.13D-02

 Cycle   3  Pass 1  IDiag  1:
 E= -683.585499920628     Delta-E=       -0.010931016409 Rises=F Damp=F
 DIIS: error= 2.76D-04 at cycle   3 NSaved=   3.
 NSaved= 3 IEnMin= 3 EnMin= -683.585499920628     IErMin= 3 ErrMin= 2.76D-04
 ErrMax= 2.76D-04  0.00D+00 EMaxC= 1.00D-01 BMatC= 6.13D-05 BMatP= 1.05D-01
 IDIUse=3 WtCom= 9.97D-01 WtEn= 2.76D-03
 Coeff-Com:  0.504D-02-0.319D-02 0.998D+00
 Coeff-En:   0.000D+00 0.000D+00 0.100D+01
 Coeff:      0.503D-02-0.318D-02 0.998D+00
 Gap=     0.067 Goal=   None    Shift=    0.000
 Gap=     0.067 Goal=   None    Shift=    0.000
 RMSDP=1.39D-04 MaxDP=3.08D-03 DE=-1.09D-02 OVMax= 3.72D-03

 Cycle   4  Pass 1  IDiag  1:
 E= -683.585527133958     Delta-E=       -0.000027213330 Rises=F Damp=F
 DIIS: error= 2.01D-04 at cycle   4 NSaved=   4.
 NSaved= 4 IEnMin= 4 EnMin= -683.585527133958     IErMin= 4 ErrMin= 2.01D-04
 ErrMax= 2.01D-04  0.00D+00 EMaxC= 1.00D-01 BMatC= 9.81D-06 BMatP= 6.13D-05
 IDIUse=3 WtCom= 9.98D-01 WtEn= 2.01D-03
 Coeff-Com:  0.533D-01-0.738D-01 0.171D+00 0.849D+00
 Coeff-En:   0.000D+00 0.000D+00 0.000D+00 0.100D+01
 Coeff:      0.532D-01-0.737D-01 0.171D+00 0.850D+00
 Gap=     0.067 Goal=   None    Shift=    0.000
 Gap=     0.067 Goal=   None    Shift=    0.000
 RMSDP=4.05D-05 MaxDP=7.79D-04 DE=-2.72D-05 OVMax= 1.06D-03

 Cycle   5  Pass 1  IDiag  1:
 E= -683.585531370264     Delta-E=       -0.000004236306 Rises=F Damp=F
 DIIS: error= 2.66D-05 at cycle   5 NSaved=   5.
 NSaved= 5 IEnMin= 5 EnMin= -683.585531370264     IErMin= 5 ErrMin= 2.66D-05
 ErrMax= 2.66D-05  0.00D+00 EMaxC= 1.00D-01 BMatC= 4.59D-07 BMatP= 9.81D-06
 IDIUse=1 WtCom= 1.00D+00 WtEn= 0.00D+00
 Coeff-Com: -0.123D-01 0.165D-01-0.753D-01-0.705D-01 0.114D+01
 Coeff:     -0.123D-01 0.165D-01-0.753D-01-0.705D-01 0.114D+01
 Gap=     0.067 Goal=   None    Shift=    0.000
 Gap=     0.067 Goal=   None    Shift=    0.000
 RMSDP=1.52D-05 MaxDP=1.39D-04 DE=-4.24D-06 OVMax= 6.77D-04

 Cycle   6  Pass 1  IDiag  1:
 E= -683.585531797234     Delta-E=       -0.000000426970 Rises=F Damp=F
 DIIS: error= 6.32D-06 at cycle   6 NSaved=   6.
 NSaved= 6 IEnMin= 6 EnMin= -683.585531797234     IErMin= 6 ErrMin= 6.32D-06
 ErrMax= 6.32D-06  0.00D+00 EMaxC= 1.00D-01 BMatC= 1.56D-08 BMatP= 4.59D-07
 IDIUse=1 WtCom= 1.00D+00 WtEn= 0.00D+00
 Coeff-Com: -0.216D-02 0.301D-02-0.115D-01-0.359D-01 0.447D-01 0.100D+01
 Coeff:     -0.216D-02 0.301D-02-0.115D-01-0.359D-01 0.447D-01 0.100D+01
 Gap=     0.067 Goal=   None    Shift=    0.000
 Gap=     0.067 Goal=   None    Shift=    0.000
 RMSDP=3.11D-06 MaxDP=3.03D-05 DE=-4.27D-07 OVMax= 1.75D-04

 Cycle   7  Pass 1  IDiag  1:
 E= -683.585531818726     Delta-E=       -0.000000021492 Rises=F Damp=F
 DIIS: error= 2.65D-06 at cycle   7 NSaved=   7.
 NSaved= 7 IEnMin= 7 EnMin= -683.585531818726     IErMin= 7 ErrMin= 2.65D-06
 ErrMax= 2.65D-06  0.00D+00 EMaxC= 1.00D-01 BMatC= 1.28D-09 BMatP= 1.56D-08
 IDIUse=1 WtCom= 1.00D+00 WtEn= 0.00D+00
 Coeff-Com:  0.623D-03-0.831D-03 0.416D-02 0.203D-02-0.650D-01-0.570D-01
 Coeff-Com:  0.112D+01
 Coeff:      0.623D-03-0.831D-03 0.416D-02 0.203D-02-0.650D-01-0.570D-01
 Coeff:      0.112D+01
 Gap=     0.067 Goal=   None    Shift=    0.000
 Gap=     0.067 Goal=   None    Shift=    0.000
 RMSDP=9.21D-07 MaxDP=8.68D-06 DE=-2.15D-08 OVMax= 5.74D-05

 Cycle   8  Pass 1  IDiag  1:
 E= -683.585531820543     Delta-E=       -0.000000001817 Rises=F Damp=F
 DIIS: error= 4.27D-07 at cycle   8 NSaved=   8.
 NSaved= 8 IEnMin= 8 EnMin= -683.585531820543     IErMin= 8 ErrMin= 4.27D-07
 ErrMax= 4.27D-07  0.00D+00 EMaxC= 1.00D-01 BMatC= 6.94D-11 BMatP= 1.28D-09
 IDIUse=1 WtCom= 1.00D+00 WtEn= 0.00D+00
 Coeff-Com:  0.133D-03-0.185D-03 0.814D-03 0.269D-02-0.254D-02-0.788D-01
 Coeff-Com:  0.941D-01 0.984D+00
 Coeff:      0.133D-03-0.185D-03 0.814D-03 0.269D-02-0.254D-02-0.788D-01
 Coeff:      0.941D-01 0.984D+00
 Gap=     0.067 Goal=   None    Shift=    0.000
 Gap=     0.067 Goal=   None    Shift=    0.000
 RMSDP=2.30D-07 MaxDP=4.71D-06 DE=-1.82D-09 OVMax= 1.21D-05

 Cycle   9  Pass 1  IDiag  1:
 E= -683.585531820290     Delta-E=        0.000000000253 Rises=F Damp=F
 DIIS: error= 2.80D-06 at cycle   9 NSaved=   9.
 NSaved= 9 IEnMin= 8 EnMin= -683.585531820543     IErMin= 8 ErrMin= 4.27D-07
 ErrMax= 2.80D-06  0.00D+00 EMaxC= 1.00D-01 BMatC= 7.37D-10 BMatP= 6.94D-11
 IDIUse=1 WtCom= 1.00D+00 WtEn= 0.00D+00
 Coeff-Com:  0.113D-03-0.158D-03 0.690D-03 0.243D-02-0.147D-02-0.714D-01
 Coeff-Com:  0.705D-01 0.901D+00 0.986D-01
 Coeff:      0.113D-03-0.158D-03 0.690D-03 0.243D-02-0.147D-02-0.714D-01
 Coeff:      0.705D-01 0.901D+00 0.986D-01
 Gap=     0.067 Goal=   None    Shift=    0.000
 Gap=     0.067 Goal=   None    Shift=    0.000
 RMSDP=1.81D-07 MaxDP=4.21D-06 DE= 2.53D-10 OVMax= 1.19D-05

 Cycle  10  Pass 1  IDiag  1:
 E= -683.585531820602     Delta-E=       -0.000000000312 Rises=F Damp=F
 DIIS: error= 2.78D-07 at cycle  10 NSaved=  10.
 NSaved=10 IEnMin=10 EnMin= -683.585531820602     IErMin=10 ErrMin= 2.78D-07
 ErrMax= 2.78D-07  0.00D+00 EMaxC= 1.00D-01 BMatC= 8.02D-12 BMatP= 6.94D-11
 IDIUse=1 WtCom= 1.00D+00 WtEn= 0.00D+00
 Coeff-Com: -0.189D-04 0.256D-04-0.881D-04-0.249D-03 0.838D-03 0.489D-02
 Coeff-Com: -0.269D-01-0.521D-01 0.924D-01 0.981D+00
 Coeff:     -0.189D-04 0.256D-04-0.881D-04-0.249D-03 0.838D-03 0.489D-02
 Coeff:     -0.269D-01-0.521D-01 0.924D-01 0.981D+00
 Gap=     0.067 Goal=   None    Shift=    0.000
 Gap=     0.067 Goal=   None    Shift=    0.000
 RMSDP=2.55D-08 MaxDP=3.84D-07 DE=-3.12D-10 OVMax= 1.10D-06

 Cycle  11  Pass 1  IDiag  1:
 E= -683.585531820606     Delta-E=       -0.000000000004 Rises=F Damp=F
 DIIS: error= 1.73D-08 at cycle  11 NSaved=  11.
 NSaved=11 IEnMin=11 EnMin= -683.585531820606     IErMin=11 ErrMin= 1.73D-08
 ErrMax= 1.73D-08  0.00D+00 EMaxC= 1.00D-01 BMatC= 5.99D-14 BMatP= 8.02D-12
 IDIUse=1 WtCom= 1.00D+00 WtEn= 0.00D+00
 Coeff-Com: -0.722D-05 0.999D-05-0.403D-04-0.143D-03 0.229D-03 0.427D-02
 Coeff-Com: -0.717D-02-0.454D-01 0.141D-01 0.192D+00 0.843D+00
 Coeff:     -0.722D-05 0.999D-05-0.403D-04-0.143D-03 0.229D-03 0.427D-02
 Coeff:     -0.717D-02-0.454D-01 0.141D-01 0.192D+00 0.843D+00
 Gap=     0.067 Goal=   None    Shift=    0.000
 Gap=     0.067 Goal=   None    Shift=    0.000
 RMSDP=5.22D-09 MaxDP=5.97D-08 DE=-4.09D-12 OVMax= 1.82D-07

 SCF Done:  E(UM062X) =  -683.585531821     A.U. after   11 cycles
            NFock= 11  Conv=0.52D-08     -V/T= 2.0015
 <Sx>= 0.0000 <Sy>= 0.0000 <Sz>= 0.0000 <S**2>=-0.0000 S=-0.0000
 <L.S>=  0.00000000000    
 KE= 6.825298808295D+02 PE=-1.709338494874D+03 EE= 3.016593674300D+02
 Annihilation of the first spin contaminant:
 S**2 before annihilation    -0.0000,   after    -0.0000
 Leave Link  502 at Mon Apr 21 21:13:29 2025, MaxMem=   536870912 cpu:              45.5 elap:               6.0
 (Enter /home/szhao/Apps/g16/l601.exe)
 Copying SCF densities to generalized density rwf, IOpCl= 1 IROHF=0.

 **********************************************************************

            Population analysis using the SCF density.

 **********************************************************************

 Alpha  occ. eigenvalues --  -78.08271 -78.08271  -6.90330  -6.90330  -5.01736
 Alpha  occ. eigenvalues --   -5.01736  -5.01719  -5.01719  -5.01545  -5.01545
 Alpha  occ. eigenvalues --   -0.68631  -0.68187  -0.40543  -0.40462  -0.25077
 Alpha  occ. eigenvalues --   -0.23841
 Alpha virt. eigenvalues --   -0.17174  -0.15794   0.01910   0.02970   0.03761
 Alpha virt. eigenvalues --    0.04507   0.05660   0.06104   0.06400   0.07238
 Alpha virt. eigenvalues --    0.08618   0.11395   0.28668   0.29340   0.30617
 Alpha virt. eigenvalues --    0.31056   0.33158   0.33956   0.40267   0.42052
 Alpha virt. eigenvalues --    0.51641   0.56162   0.65936   0.65980   0.66154
 Alpha virt. eigenvalues --    0.66201   0.70433   0.70614   0.70687   0.71659
 Alpha virt. eigenvalues --    0.91235   0.91452   1.44191   1.44536   1.45185
 Alpha virt. eigenvalues --    1.46444   1.54482   1.55410   1.56553   1.57046
 Alpha virt. eigenvalues --    1.57847   1.59325   2.02077   2.02513   2.56097
 Alpha virt. eigenvalues --    2.57630   6.83374   6.85956  13.94801  13.96240
 Alpha virt. eigenvalues --   13.96367  13.96588  13.99780  14.00932 163.08238
 Alpha virt. eigenvalues --  163.11212
  Beta  occ. eigenvalues --  -78.08271 -78.08271  -6.90330  -6.90330  -5.01736
  Beta  occ. eigenvalues --   -5.01736  -5.01719  -5.01719  -5.01545  -5.01545
  Beta  occ. eigenvalues --   -0.68631  -0.68187  -0.40543  -0.40462  -0.25077
  Beta  occ. eigenvalues --   -0.23841
  Beta virt. eigenvalues --   -0.17174  -0.15794   0.01910   0.02970   0.03761
  Beta virt. eigenvalues --    0.04507   0.05660   0.06104   0.06400   0.07238
  Beta virt. eigenvalues --    0.08618   0.11395   0.28668   0.29340   0.30617
  Beta virt. eigenvalues --    0.31056   0.33158   0.33956   0.40267   0.42052
  Beta virt. eigenvalues --    0.51641   0.56162   0.65936   0.65980   0.66154
  Beta virt. eigenvalues --    0.66201   0.70433   0.70614   0.70687   0.71659
  Beta virt. eigenvalues --    0.91235   0.91452   1.44191   1.44536   1.45185
  Beta virt. eigenvalues --    1.46444   1.54482   1.55410   1.56553   1.57046
  Beta virt. eigenvalues --    1.57847   1.59325   2.02077   2.02513   2.56097
  Beta virt. eigenvalues --    2.57630   6.83374   6.85956  13.94801  13.96240
  Beta virt. eigenvalues --   13.96367  13.96588  13.99780  14.00932 163.08238
  Beta virt. eigenvalues --  163.11212
          Condensed to atoms (all electrons):
               1          2          3          4
     1  P   14.649700   0.115792   0.218524   0.000713
     2  P    0.115792  14.649700   0.000713   0.218524
     3  H    0.218524   0.000713   0.796018   0.000016
     4  H    0.000713   0.218524   0.000016   0.796018
          Atomic-Atomic Spin Densities.
               1          2          3          4
     1  P   -0.000000  -0.000000  -0.000000   0.000000
     2  P   -0.000000   0.000000  -0.000000   0.000000
     3  H   -0.000000  -0.000000   0.000000  -0.000000
     4  H    0.000000   0.000000  -0.000000  -0.000000
 Mulliken charges and spin densities:
               1          2
     1  P    0.015271  -0.000000
     2  P    0.015271   0.000000
     3  H   -0.015271   0.000000
     4  H   -0.015271  -0.000000
 Sum of Mulliken charges =  -0.00000   0.00000
 Mulliken charges and spin densities with hydrogens summed into heavy atoms:
               1          2
     1  P    0.000000  -0.000000
     2  P   -0.000000   0.000000
 Electronic spatial extent (au):  <R**2>=            639.0745
 Charge=             -0.0000 electrons
 Dipole moment (field-independent basis, Debye):
    X=             -0.0000    Y=             -0.0000    Z=             -0.0000  Tot=              0.0000
 Quadrupole moment (field-independent basis, Debye-Ang):
   XX=            -26.1362   YY=            -28.5788   ZZ=            -30.7465
   XY=              3.6994   XZ=              0.0000   YZ=             -0.0000
 Traceless Quadrupole moment (field-independent basis, Debye-Ang):
   XX=              2.3510   YY=             -0.0917   ZZ=             -2.2593
   XY=              3.6994   XZ=              0.0000   YZ=             -0.0000
 Octapole moment (field-independent basis, Debye-Ang**2):
  XXX=             -0.0000  YYY=              0.0000  ZZZ=             -0.0000  XYY=             -0.0000
  XXY=              0.0000  XXZ=              0.0000  XZZ=             -0.0000  YZZ=             -0.0000
  YYZ=             -0.0000  XYZ=              0.0000
 Hexadecapole moment (field-independent basis, Debye-Ang**3):
 XXXX=           -892.9414 YYYY=            -65.2964 ZZZZ=            -57.2760 XXXY=             10.3764
 XXXZ=              0.0000 YYYX=            -11.6779 YYYZ=             -0.0000 ZZZX=              0.0000
 ZZZY=             -0.0000 XXYY=           -156.5318 XXZZ=           -163.8174 YYZZ=            -20.9700
 XXYZ=             -0.0000 YYXZ=              0.0000 ZZXY=             -3.6253
 N-N= 4.156371479411D+01 E-N=-1.709338494753D+03  KE= 6.825298808295D+02
                          Isotropic Fermi Contact Couplings
        Atom                 a.u.       MegaHertz       Gauss      10(-4) cm-1
     1  P(31)              0.00000       0.00000       0.00000       0.00000
     2  P(31)              0.00000       0.00000       0.00000       0.00000
     3  H(1)               0.00000       0.00000       0.00000       0.00000
     4  H(1)              -0.00000      -0.00000      -0.00000      -0.00000
 --------------------------------------------------------
       Center         ----  Spin Dipole Couplings  ----
                      3XX-RR        3YY-RR        3ZZ-RR
 --------------------------------------------------------
     1   Atom        0.000000      0.000000     -0.000000
     2   Atom       -0.000000     -0.000000      0.000000
     3   Atom        0.000000     -0.000000     -0.000000
     4   Atom       -0.000000      0.000000      0.000000
 --------------------------------------------------------
                        XY            XZ            YZ
 --------------------------------------------------------
     1   Atom        0.000000     -0.000000     -0.000000
     2   Atom       -0.000000     -0.000000     -0.000000
     3   Atom       -0.000000      0.000000     -0.000000
     4   Atom        0.000000      0.000000      0.000000
 --------------------------------------------------------


 ---------------------------------------------------------------------------------
              Anisotropic Spin Dipole Couplings in Principal Axis System
 ---------------------------------------------------------------------------------

       Atom             a.u.   MegaHertz   Gauss  10(-4) cm-1        Axes

              Baa    -0.0000    -0.000    -0.000    -0.000  0.0006  0.0007  1.0000
     1 P(31)  Bbb     0.0000     0.000     0.000     0.000  0.9966 -0.0829 -0.0005
              Bcc     0.0000     0.000     0.000     0.000  0.0829  0.9966 -0.0007
 
              Baa    -0.0000    -0.000    -0.000    -0.000  0.0934  0.9956  0.0001
     2 P(31)  Bbb    -0.0000    -0.000    -0.000    -0.000  0.9956 -0.0934  0.0008
              Bcc     0.0000     0.000     0.000     0.000 -0.0008 -0.0001  1.0000
 
              Baa    -0.0000    -0.000    -0.000    -0.000  0.0480  0.9988  0.0004
     3 H(1)   Bbb    -0.0000    -0.000    -0.000    -0.000 -0.0035 -0.0002  1.0000
              Bcc     0.0000     0.000     0.000     0.000  0.9988 -0.0480  0.0035
 
              Baa    -0.0000    -0.000    -0.000    -0.000  0.9988 -0.0485 -0.0032
     4 H(1)   Bbb     0.0000     0.000     0.000     0.000  0.0031 -0.0018  1.0000
              Bcc     0.0000     0.000     0.000     0.000  0.0485  0.9988  0.0016
 

 ---------------------------------------------------------------------------------

 No NMR shielding tensors so no spin-rotation constants.
 Leave Link  601 at Mon Apr 21 21:13:30 2025, MaxMem=   536870912 cpu:               1.8 elap:               0.3
 (Enter /home/szhao/Apps/g16/l701.exe)
 ... and contract with generalized density number  0.
 Compute integral first derivatives.
 Leave Link  701 at Mon Apr 21 21:13:30 2025, MaxMem=   536870912 cpu:               1.1 elap:               0.2
 (Enter /home/szhao/Apps/g16/l702.exe)
 L702 exits ... SP integral derivatives will be done elsewhere.
 Leave Link  702 at Mon Apr 21 21:13:31 2025, MaxMem=   536870912 cpu:               0.3 elap:               0.1
 (Enter /home/szhao/Apps/g16/l703.exe)
 Integral derivatives from FoFJK, PRISM(SPDF).
 Compute integral first derivatives, UseDBF=F ICtDFT=           0.
 Calling FoFJK, ICntrl=      2127 FMM=F ISym2X=0 I1Cent= 0 IOpClX= 1 NMat=1 NMatS=1 NMatT=0.
 FoFJK:  IHMeth= 1 ICntrl=    2127 DoSepK=F KAlg= 0 I1Cent=           0 FoldK=F
 IRaf=         0 NMat=       1 IRICut=       1 DoRegI=T DoRafI=F ISym2E= 0 IDoP0=0 IntGTp=1.
 FoFCou: FMM=F IPFlag=           0 FMFlag=      100000 FMFlg1=         800
         NFxFlg=           0 DoJE=F BraDBF=F KetDBF=F FulRan=T
         wScrn=  0.000000 ICntrl=      2127 IOpCl=  1 I1Cent=           0 NGrid=           0
         NMat0=    1 NMatS0=      1 NMatT0=    0 NMatD0=    1 NMtDS0=    0 NMtDT0=    0
 Symmetry not used in FoFCou.
 Leave Link  703 at Mon Apr 21 21:13:32 2025, MaxMem=   536870912 cpu:               5.8 elap:               0.8
 (Enter /home/szhao/Apps/g16/l716.exe)
 Dipole        =-7.87519383D-10-2.87769808D-12-3.05244798D-13
 -------------------------------------------------------------------
 Center     Atomic                   Forces (Hartrees/Bohr)
 Number     Number              X              Y              Z
 -------------------------------------------------------------------
      1       15          -0.000000000   -0.000000000   -0.000000000
      2       15          -0.000000000   -0.000000000   -0.000000000
      3        1           0.001671927   -0.001507655   -0.000000000
      4        1          -0.001671927    0.001507655    0.000000000
 -------------------------------------------------------------------
 Cartesian Forces:  Max     0.001671927 RMS     0.000919090
 Leave Link  716 at Mon Apr 21 21:13:32 2025, MaxMem=   536870912 cpu:               0.4 elap:               0.1
 (Enter /home/szhao/Apps/g16/l103.exe)

 GradGradGradGradGradGradGradGradGradGradGradGradGradGradGradGradGradGrad
 Berny optimization.
 FormGI is forming the generalized inverse of G from B-inverse, IUseBI=4.
 Internal  Forces:  Max     0.004770851 RMS     0.002504256
 Search for a local minimum.
 Step number   1 out of a maximum of   21
 All quantities printed in internal units (Hartrees-Bohrs-Radians)
 RMS Force = .31415D-02 SwitMx=.10000D-02 MixMth= 1
 Mixed Optimization -- RFO/linear search
 Second derivative matrix not updated -- first step.
 The second derivative matrix:
                          X1        Y1        Z1        X2        Y2
           X1           0.50000
           Y1           0.00000   0.50000
           Z1           0.00000   0.00000   0.50000
           X2           0.00000   0.00000   0.00000   0.50000
           Y2           0.00000   0.00000   0.00000   0.00000   0.50000
           Z2           0.00000   0.00000   0.00000   0.00000   0.00000
           R1           0.00000   0.00000   0.00000   0.00000   0.00000
           R2           0.00000   0.00000   0.00000   0.00000   0.00000
           A1           0.00000   0.00000   0.00000   0.00000   0.00000
           A2           0.00000   0.00000   0.00000   0.00000   0.00000
           D1           0.00000   0.00000   0.00000   0.00000   0.00000
                          Z2        R1        R2        A1        A2
           Z2           0.50000
           R1           0.00000   0.20874
           R2           0.00000   0.00000   0.20874
           A1           0.00000   0.00000   0.00000   0.16000
           A2           0.00000   0.00000   0.00000   0.00000   0.16000
           D1           0.00000   0.00000   0.00000   0.00000   0.00000
                          D1
           D1           0.00230
 ITU=  0
     Eigenvalues ---    0.00230   0.16000   0.16000   0.20874   0.20874
     Eigenvalues --- 1000.000001000.000001000.000001000.000001000.00000
     Eigenvalues --- 1000.00000
 RFO step:  Lambda=-3.02266313D-04 EMin= 2.30000000D-03
 Linear search not attempted -- first point.
 Iteration  1 RMS(Cart)=  0.03394589 RMS(Int)=  0.00049442
 Iteration  2 RMS(Cart)=  0.00058668 RMS(Int)=  0.00000007
 Iteration  3 RMS(Cart)=  0.00000015 RMS(Int)=  0.00000000
 ITry= 1 IFail=0 DXMaxC= 7.95D-02 DCOld= 1.00D+10 DXMaxT= 3.00D-01 DXLimC= 3.00D+00 Rises=F
 Variable       Old X    -DE/DX   Delta X   Delta X   Delta X     New X
                                 (Linear)    (Quad)   (Total)
    X1       -4.17533   0.00167   0.00000   0.00000   0.00000  -4.17533
    Y1        0.00000  -0.00265   0.00000   0.00000   0.00000   0.00000
    Z1        0.00000   0.00000   0.00000   0.00000   0.00000   0.00000
    X2        4.17533  -0.00167   0.00000   0.00000   0.00000   4.17533
    Y2        0.00000   0.00265   0.00000   0.00000   0.00000   0.00000
    Z2        0.00000   0.00000   0.00000   0.00000   0.00000   0.00000
    R1        2.68527   0.00138   0.00000   0.00661   0.00661   2.69188
    R2        2.68527   0.00138   0.00000   0.00661   0.00661   2.69188
    A1        1.64325  -0.00477   0.00000  -0.02976  -0.02976   1.61349
    A2        1.64325  -0.00477   0.00000  -0.02976  -0.02976   1.61349
    D1        3.14159   0.00000   0.00000   0.00000   0.00000   3.14159
         Item               Value     Threshold  Converged?
 Maximum Force            0.004771     0.000450     NO 
 RMS     Force            0.003142     0.000300     NO 
 Maximum Displacement     0.079500     0.001800     NO 
 RMS     Displacement     0.034234     0.001200     NO 
 Predicted change in Energy=-1.514146D-04
 Lowest energy point so far.  Saving SCF results.
 GradGradGradGradGradGradGradGradGradGradGradGradGradGradGradGradGradGrad

 Leave Link  103 at Mon Apr 21 21:13:33 2025, MaxMem=   536870912 cpu:               0.4 elap:               0.1
 (Enter /home/szhao/Apps/g16/l202.exe)
                          Input orientation:                          
 ---------------------------------------------------------------------
 Center     Atomic      Atomic             Coordinates (Angstroms)
 Number     Number       Type             X           Y           Z
 ---------------------------------------------------------------------
      1         15           0       -2.209490    0.000000    0.000000
      2         15           0        2.209490    0.000000    0.000000
      3          1           0       -2.270281   -1.423185    0.000000
      4          1           0        2.270281    1.423185    0.000000
 ---------------------------------------------------------------------
                    Distance matrix (angstroms):
                    1          2          3          4
     1  P    0.000000
     2  P    4.418979   0.000000
     3  H    1.424483   4.700404   0.000000
     4  H    4.700404   1.424483   5.358967   0.000000
 Symmetry turned off by external request.
 Stoichiometry    H2P2
 Framework group  C2H[SGH(H2P2)]
 Deg. of freedom     3
 Full point group                 C2H     NOp   4
 Rotational constants (GHZ):         128.0968934           1.6149156           1.5948098
 Leave Link  202 at Mon Apr 21 21:13:33 2025, MaxMem=   536870912 cpu:               0.1 elap:               0.1
 (Enter /home/szhao/Apps/g16/l301.exe)
 Standard basis: 6-311+G(d,p) (5D, 7F)
 Ernie: Thresh=  0.10000D-02 Tol=  0.10000D-05 Strict=F.
    72 basis functions,   116 primitive gaussians,    74 cartesian basis functions
    16 alpha electrons       16 beta electrons
       nuclear repulsion energy        41.5647739249 Hartrees.
 IExCor= 4336 DFT=T Ex+Corr=M062X ExCW=0 ScaHFX=  0.540000
 ScaDFX=  1.000000  1.000000  1.000000  1.000000 ScalE2=  1.000000  1.000000
 IRadAn=      7 IRanWt=     -1 IRanGd=            0 ICorTp=0 IEmpDi=  4
 NAtoms=    4 NActive=    4 NUniq=    4 SFac= 1.00D+00 NAtFMM=   60 NAOKFM=F Big=F
 Integral buffers will be    131072 words long.
 Raffenetti 2 integral format.
 Two-electron integral symmetry is turned off.
 Leave Link  301 at Mon Apr 21 21:13:34 2025, MaxMem=   536870912 cpu:               1.0 elap:               0.2
 (Enter /home/szhao/Apps/g16/l302.exe)
 NPDir=0 NMtPBC=     1 NCelOv=     1 NCel=       1 NClECP=     1 NCelD=      1
         NCelK=      1 NCelE2=     1 NClLst=     1 CellRange=     0.0.
 One-electron integrals computed using PRISM.
 NBasis=    72 RedAO= T EigKep=  1.61D-02  NBF=    72
 NBsUse=    72 1.00D-06 EigRej= -1.00D+00 NBFU=    72
 Precomputing XC quadrature grid using
 IXCGrd= 4 IRadAn=           7 IRanWt=          -1 IRanGd=           0 AccXCQ= 0.00D+00.
 Generated NRdTot=       0 NPtTot=           0 NUsed=           0 NTot=          32
 NSgBfM=    67    67    67    67    67 MxSgAt=     4 MxSgA2=     4.
 Leave Link  302 at Mon Apr 21 21:13:34 2025, MaxMem=   536870912 cpu:               3.3 elap:               0.7
 (Enter /home/szhao/Apps/g16/l303.exe)
 DipDrv:  MaxL=1.
 Leave Link  303 at Mon Apr 21 21:13:35 2025, MaxMem=   536870912 cpu:               0.6 elap:               0.2
 (Enter /home/szhao/Apps/g16/l401.exe)
 Initial guess from the checkpoint file:  "opt.chk"
 B after Tr=     0.000000    0.000000    0.000000
         Rot=    1.000000    0.000000   -0.000000   -0.000456 Ang=  -0.05 deg.
 Guess basis will be translated and rotated to current coordinates.
 JPrj=2 DoOrth=T DoCkMO=T.
 Initial guess <Sx>= 0.0000 <Sy>= 0.0000 <Sz>= 0.0000 <S**2>=-0.0000 S=-0.0000
 Generating alternative initial guess.
 ExpMin= 3.48D-02 ExpMax= 7.75D+04 ExpMxC= 2.65D+03 IAcc=3 IRadAn=         5 AccDes= 0.00D+00
 Harris functional with IExCor= 1009 and IRadAn=       5 diagonalized for initial guess.
 HarFok:  IExCor= 1009 AccDes= 0.00D+00 IRadAn=         5 IDoV= 1 UseB2=F ITyADJ=14
 ICtDFT=  3500011 ScaDFX=  1.000000  1.000000  1.000000  1.000000
 FoFCou: FMM=F IPFlag=           0 FMFlag=      100000 FMFlg1=           0
         NFxFlg=           0 DoJE=T BraDBF=F KetDBF=T FulRan=T
         wScrn=  0.000000 ICntrl=       500 IOpCl=  0 I1Cent=   200000004 NGrid=           0
         NMat0=    1 NMatS0=      1 NMatT0=    0 NMatD0=    1 NMtDS0=    0 NMtDT0=    0
 Symmetry not used in FoFCou.
 Harris En= -683.350443606795    
 Leave Link  401 at Mon Apr 21 21:13:36 2025, MaxMem=   536870912 cpu:               2.3 elap:               0.4
 (Enter /home/szhao/Apps/g16/l502.exe)
 Keep R1 and R2 ints in memory in canonical form, NReq=14118010.
 FoFCou: FMM=F IPFlag=           0 FMFlag=           0 FMFlg1=           0
         NFxFlg=           0 DoJE=F BraDBF=F KetDBF=F FulRan=T
         wScrn=  0.000000 ICntrl=       600 IOpCl=  0 I1Cent=           0 NGrid=           0
         NMat0=    1 NMatS0=   2628 NMatT0=    0 NMatD0=    1 NMtDS0=    0 NMtDT0=    0
 Symmetry not used in FoFCou.
 Two-electron integral symmetry not used.
 UHF open shell SCF:
 Using DIIS extrapolation, IDIIS=  1040.
 NGot=   536870912 LenX=   529949706 LenY=   529943789
 Requested convergence on RMS density matrix=1.00D-08 within 128 cycles.
 Requested convergence on MAX density matrix=1.00D-06.
 Requested convergence on             energy=1.00D-06.
 No special actions if energy rises.

 Cycle   1  Pass 1  IDiag  1:
 E= -683.585591789173    
 DIIS: error= 1.20D-03 at cycle   1 NSaved=   1.
 NSaved= 1 IEnMin= 1 EnMin= -683.585591789173     IErMin= 1 ErrMin= 1.20D-03
 ErrMax= 1.20D-03  0.00D+00 EMaxC= 1.00D-01 BMatC= 2.73D-04 BMatP= 2.73D-04
 IDIUse=3 WtCom= 9.88D-01 WtEn= 1.20D-02
 Coeff-Com:  0.100D+01
 Coeff-En:   0.100D+01
 Coeff:      0.100D+01
 Gap=     0.403 Goal=   None    Shift=    0.000
 Gap=     0.403 Goal=   None    Shift=    0.000
 GapD=    0.403 DampG=2.000 DampE=1.000 DampFc=2.0000 IDamp=-1.
 RMSDP=2.13D-04 MaxDP=2.78D-03              OVMax= 8.89D-03

 Cycle   2  Pass 1  IDiag  1:
 E= -683.585780323605     Delta-E=       -0.000188534432 Rises=F Damp=F
 DIIS: error= 3.02D-04 at cycle   2 NSaved=   2.
 NSaved= 2 IEnMin= 2 EnMin= -683.585780323605     IErMin= 2 ErrMin= 3.02D-04
 ErrMax= 3.02D-04  0.00D+00 EMaxC= 1.00D-01 BMatC= 1.51D-05 BMatP= 2.73D-04
 IDIUse=3 WtCom= 9.97D-01 WtEn= 3.02D-03
 Coeff-Com: -0.141D+00 0.114D+01
 Coeff-En:   0.000D+00 0.100D+01
 Coeff:     -0.141D+00 0.114D+01
 Gap=     0.067 Goal=   None    Shift=    0.000
 Gap=     0.067 Goal=   None    Shift=    0.000
 RMSDP=7.23D-05 MaxDP=9.89D-04 DE=-1.89D-04 OVMax= 3.79D-03

 Cycle   3  Pass 1  IDiag  1:
 E= -683.585798261442     Delta-E=       -0.000017937837 Rises=F Damp=F
 DIIS: error= 6.84D-05 at cycle   3 NSaved=   3.
 NSaved= 3 IEnMin= 3 EnMin= -683.585798261442     IErMin= 3 ErrMin= 6.84D-05
 ErrMax= 6.84D-05  0.00D+00 EMaxC= 1.00D-01 BMatC= 9.53D-07 BMatP= 1.51D-05
 IDIUse=1 WtCom= 1.00D+00 WtEn= 0.00D+00
 Coeff-Com: -0.339D-01 0.589D-01 0.975D+00
 Coeff:     -0.339D-01 0.589D-01 0.975D+00
 Gap=     0.067 Goal=   None    Shift=    0.000
 Gap=     0.067 Goal=   None    Shift=    0.000
 RMSDP=2.52D-05 MaxDP=3.37D-04 DE=-1.79D-05 OVMax= 1.41D-03

 Cycle   4  Pass 1  IDiag  1:
 E= -683.585799752524     Delta-E=       -0.000001491082 Rises=F Damp=F
 DIIS: error= 4.17D-05 at cycle   4 NSaved=   4.
 NSaved= 4 IEnMin= 4 EnMin= -683.585799752524     IErMin= 4 ErrMin= 4.17D-05
 ErrMax= 4.17D-05  0.00D+00 EMaxC= 1.00D-01 BMatC= 2.46D-07 BMatP= 9.53D-07
 IDIUse=1 WtCom= 1.00D+00 WtEn= 0.00D+00
 Coeff-Com:  0.125D-01-0.148D+00 0.146D+00 0.990D+00
 Coeff:      0.125D-01-0.148D+00 0.146D+00 0.990D+00
 Gap=     0.067 Goal=   None    Shift=    0.000
 Gap=     0.067 Goal=   None    Shift=    0.000
 RMSDP=7.98D-06 MaxDP=8.03D-05 DE=-1.49D-06 OVMax= 5.45D-04

 Cycle   5  Pass 1  IDiag  1:
 E= -683.585799956678     Delta-E=       -0.000000204154 Rises=F Damp=F
 DIIS: error= 3.63D-06 at cycle   5 NSaved=   5.
 NSaved= 5 IEnMin= 5 EnMin= -683.585799956678     IErMin= 5 ErrMin= 3.63D-06
 ErrMax= 3.63D-06  0.00D+00 EMaxC= 1.00D-01 BMatC= 3.18D-09 BMatP= 2.46D-07
 IDIUse=1 WtCom= 1.00D+00 WtEn= 0.00D+00
 Coeff-Com:  0.210D-03 0.926D-02-0.322D-01-0.106D+00 0.113D+01
 Coeff:      0.210D-03 0.926D-02-0.322D-01-0.106D+00 0.113D+01
 Gap=     0.067 Goal=   None    Shift=    0.000
 Gap=     0.067 Goal=   None    Shift=    0.000
 RMSDP=1.69D-06 MaxDP=1.71D-05 DE=-2.04D-07 OVMax= 9.13D-05

 Cycle   6  Pass 1  IDiag  1:
 E= -683.585799961652     Delta-E=       -0.000000004975 Rises=F Damp=F
 DIIS: error= 1.03D-06 at cycle   6 NSaved=   6.
 NSaved= 6 IEnMin= 6 EnMin= -683.585799961652     IErMin= 6 ErrMin= 1.03D-06
 ErrMax= 1.03D-06  0.00D+00 EMaxC= 1.00D-01 BMatC= 4.63D-10 BMatP= 3.18D-09
 IDIUse=1 WtCom= 1.00D+00 WtEn= 0.00D+00
 Coeff-Com: -0.680D-03 0.107D-01-0.163D-01-0.834D-01 0.263D+00 0.826D+00
 Coeff:     -0.680D-03 0.107D-01-0.163D-01-0.834D-01 0.263D+00 0.826D+00
 Gap=     0.067 Goal=   None    Shift=    0.000
 Gap=     0.067 Goal=   None    Shift=    0.000
 RMSDP=7.22D-07 MaxDP=1.32D-05 DE=-4.97D-09 OVMax= 3.70D-05

 Cycle   7  Pass 1  IDiag  1:
 E= -683.585799959012     Delta-E=        0.000000002640 Rises=F Damp=F
 DIIS: error= 8.53D-06 at cycle   7 NSaved=   7.
 NSaved= 7 IEnMin= 6 EnMin= -683.585799961652     IErMin= 6 ErrMin= 1.03D-06
 ErrMax= 8.53D-06  0.00D+00 EMaxC= 1.00D-01 BMatC= 6.85D-09 BMatP= 4.63D-10
 IDIUse=1 WtCom= 1.00D+00 WtEn= 0.00D+00
 Coeff-Com: -0.651D-03 0.976D-02-0.141D-01-0.742D-01 0.201D+00 0.775D+00
 Coeff-Com:  0.103D+00
 Coeff:     -0.651D-03 0.976D-02-0.141D-01-0.742D-01 0.201D+00 0.775D+00
 Coeff:      0.103D+00
 Gap=     0.067 Goal=   None    Shift=    0.000
 Gap=     0.067 Goal=   None    Shift=    0.000
 RMSDP=5.62D-07 MaxDP=1.31D-05 DE= 2.64D-09 OVMax= 3.69D-05

 Cycle   8  Pass 1  IDiag  1:
 E= -683.585799961901     Delta-E=       -0.000000002888 Rises=F Damp=F
 DIIS: error= 1.01D-06 at cycle   8 NSaved=   8.
 NSaved= 8 IEnMin= 8 EnMin= -683.585799961901     IErMin= 8 ErrMin= 1.01D-06
 ErrMax= 1.01D-06  0.00D+00 EMaxC= 1.00D-01 BMatC= 1.04D-10 BMatP= 4.63D-10
 IDIUse=1 WtCom= 1.00D+00 WtEn= 0.00D+00
 Coeff-Com: -0.307D-04-0.196D-03 0.981D-03 0.382D-02-0.544D-01-0.266D-01
 Coeff-Com:  0.112D+00 0.964D+00
 Coeff:     -0.307D-04-0.196D-03 0.981D-03 0.382D-02-0.544D-01-0.266D-01
 Coeff:      0.112D+00 0.964D+00
 Gap=     0.067 Goal=   None    Shift=    0.000
 Gap=     0.067 Goal=   None    Shift=    0.000
 RMSDP=1.64D-07 MaxDP=1.99D-06 DE=-2.89D-09 OVMax= 4.40D-06

 Cycle   9  Pass 1  IDiag  1:
 E= -683.585799961952     Delta-E=       -0.000000000051 Rises=F Damp=F
 DIIS: error= 3.16D-08 at cycle   9 NSaved=   9.
 NSaved= 9 IEnMin= 9 EnMin= -683.585799961952     IErMin= 9 ErrMin= 3.16D-08
 ErrMax= 3.16D-08  0.00D+00 EMaxC= 1.00D-01 BMatC= 2.36D-13 BMatP= 1.04D-10
 IDIUse=1 WtCom= 1.00D+00 WtEn= 0.00D+00
 Coeff-Com:  0.149D-04-0.284D-03 0.561D-03 0.256D-02-0.108D-01-0.191D-01
 Coeff-Com:  0.669D-02 0.776D-01 0.943D+00
 Coeff:      0.149D-04-0.284D-03 0.561D-03 0.256D-02-0.108D-01-0.191D-01
 Coeff:      0.669D-02 0.776D-01 0.943D+00
 Gap=     0.067 Goal=   None    Shift=    0.000
 Gap=     0.067 Goal=   None    Shift=    0.000
 RMSDP=1.62D-08 MaxDP=1.98D-07 DE=-5.07D-11 OVMax= 3.50D-07

 Cycle  10  Pass 1  IDiag  1:
 E= -683.585799961951     Delta-E=        0.000000000000 Rises=F Damp=F
 DIIS: error= 7.08D-09 at cycle  10 NSaved=  10.
 NSaved=10 IEnMin= 9 EnMin= -683.585799961952     IErMin=10 ErrMin= 7.08D-09
 ErrMax= 7.08D-09  0.00D+00 EMaxC= 1.00D-01 BMatC= 1.73D-14 BMatP= 2.36D-13
 IDIUse=1 WtCom= 1.00D+00 WtEn= 0.00D+00
 Coeff-Com:  0.396D-05-0.410D-04 0.577D-04 0.240D-03 0.492D-03-0.108D-02
 Coeff-Com: -0.381D-02-0.303D-01 0.193D+00 0.841D+00
 Coeff:      0.396D-05-0.410D-04 0.577D-04 0.240D-03 0.492D-03-0.108D-02
 Coeff:     -0.381D-02-0.303D-01 0.193D+00 0.841D+00
 Gap=     0.067 Goal=   None    Shift=    0.000
 Gap=     0.067 Goal=   None    Shift=    0.000
 RMSDP=2.29D-09 MaxDP=2.50D-08 DE= 1.14D-13 OVMax= 5.42D-08

 SCF Done:  E(UM062X) =  -683.585799962     A.U. after   10 cycles
            NFock= 10  Conv=0.23D-08     -V/T= 2.0016
 <Sx>= 0.0000 <Sy>= 0.0000 <Sz>= 0.0000 <S**2>=-0.0000 S=-0.0000
 <L.S>=  0.00000000000    
 KE= 6.825214000937D+02 PE=-1.709328897850D+03 EE= 3.016569238690D+02
 Annihilation of the first spin contaminant:
 S**2 before annihilation    -0.0000,   after    -0.0000
 Leave Link  502 at Mon Apr 21 21:13:41 2025, MaxMem=   536870912 cpu:              43.2 elap:               5.7
 (Enter /home/szhao/Apps/g16/l701.exe)
 ... and contract with generalized density number  0.
 Compute integral first derivatives.
 Leave Link  701 at Mon Apr 21 21:13:42 2025, MaxMem=   536870912 cpu:               0.9 elap:               0.2
 (Enter /home/szhao/Apps/g16/l702.exe)
 L702 exits ... SP integral derivatives will be done elsewhere.
 Leave Link  702 at Mon Apr 21 21:13:43 2025, MaxMem=   536870912 cpu:               1.0 elap:               0.3
 (Enter /home/szhao/Apps/g16/l703.exe)
 Integral derivatives from FoFJK, PRISM(SPDF).
 Compute integral first derivatives, UseDBF=F ICtDFT=           0.
 Calling FoFJK, ICntrl=      2127 FMM=F ISym2X=0 I1Cent= 0 IOpClX= 1 NMat=1 NMatS=1 NMatT=0.
 FoFJK:  IHMeth= 1 ICntrl=    2127 DoSepK=F KAlg= 0 I1Cent=           0 FoldK=F
 IRaf=         0 NMat=       1 IRICut=       1 DoRegI=T DoRafI=F ISym2E= 0 IDoP0=0 IntGTp=1.
 FoFCou: FMM=F IPFlag=           0 FMFlag=      100000 FMFlg1=         800
         NFxFlg=           0 DoJE=F BraDBF=F KetDBF=F FulRan=T
         wScrn=  0.000000 ICntrl=      2127 IOpCl=  1 I1Cent=           0 NGrid=           0
         NMat0=    1 NMatS0=      1 NMatT0=    0 NMatD0=    1 NMtDS0=    0 NMtDT0=    0
 Symmetry not used in FoFCou.
 Leave Link  703 at Mon Apr 21 21:13:44 2025, MaxMem=   536870912 cpu:               7.2 elap:               1.0
 (Enter /home/szhao/Apps/g16/l716.exe)
 Dipole        = 1.88047800D-10-4.90318897D-12 1.17035822D-11
 -------------------------------------------------------------------
 Center     Atomic                   Forces (Hartrees/Bohr)
 Number     Number              X              Y              Z
 -------------------------------------------------------------------
      1       15          -0.000000000   -0.000000000   -0.000000000
      2       15          -0.000000000   -0.000000000   -0.000000000
      3        1           0.001469550    0.000056761    0.000000000
      4        1          -0.001469550   -0.000056761   -0.000000000
 -------------------------------------------------------------------
 Cartesian Forces:  Max     0.001469550 RMS     0.000600389
 Leave Link  716 at Mon Apr 21 21:13:44 2025, MaxMem=   536870912 cpu:               1.1 elap:               0.3
 (Enter /home/szhao/Apps/g16/l103.exe)

 GradGradGradGradGradGradGradGradGradGradGradGradGradGradGradGradGradGrad
 Berny optimization.
 Using GEDIIS/GDIIS optimizer.
 FormGI is forming the generalized inverse of G from B-inverse, IUseBI=4.
 Internal  Forces:  Max     0.003945733 RMS     0.001835589
 Search for a local minimum.
 Step number   2 out of a maximum of   21
 All quantities printed in internal units (Hartrees-Bohrs-Radians)
 RMS Force = .24966D-02 SwitMx=.10000D-02 MixMth= 1
 Mixed Optimization -- RFO/linear search
 Update second derivatives using D2CorX and points    1    2
 DE= -2.68D-04 DEPred=-1.51D-04 R= 1.77D+00
 TightC=F SS=  1.41D+00  RLast= 4.31D-02 DXNew= 5.0454D-01 1.2935D-01
 Trust test= 1.77D+00 RLast= 4.31D-02 DXMaxT set to 3.00D-01
 The second derivative matrix:
                          X1        Y1        Z1        X2        Y2
           X1           0.50059
           Y1          -0.00517   0.54501
           Z1           0.00000  -0.00000   0.50000
           X2          -0.00059   0.00517  -0.00000   0.50059
           Y2           0.00517  -0.04501   0.00000  -0.00517   0.54501
           Z2           0.00000  -0.00000   0.00000  -0.00000   0.00000
           R1           0.00441  -0.03837   0.00000  -0.00441   0.03837
           R2           0.00441  -0.03837   0.00000  -0.00441   0.03837
           A1          -0.00242   0.02108  -0.00000   0.00242  -0.02108
           A2          -0.00242   0.02108  -0.00000   0.00242  -0.02108
           D1           0.00000  -0.00000   0.00000  -0.00000   0.00000
                          Z2        R1        R2        A1        A2
           Z2           0.50000
           R1           0.00000   0.23513
           R2           0.00000   0.02639   0.23513
           A1          -0.00000   0.00382   0.00382   0.09471
           A2          -0.00000   0.00382   0.00382  -0.06529   0.09471
           D1           0.00000   0.00000   0.00000  -0.00000  -0.00000
                          D1
           D1           0.00230
 ITU=  1  0
 Use linear search instead of GDIIS.
     Eigenvalues ---    0.00230   0.02917   0.16000   0.20874   0.26177
     Eigenvalues --- 1000.000001000.000001000.000001000.000001000.00000
     Eigenvalues --- 1000.00000
 RFO step:  Lambda=-1.22148898D-04 EMin= 2.30000000D-03
 Quartic linear search produced a step of  2.00000.
 Iteration  1 RMS(Cart)=  0.09348894 RMS(Int)=  0.00382418
 Iteration  2 RMS(Cart)=  0.00399068 RMS(Int)=  0.00000164
 Iteration  3 RMS(Cart)=  0.00000410 RMS(Int)=  0.00000000
 Iteration  4 RMS(Cart)=  0.00000000 RMS(Int)=  0.00000000
 ITry= 1 IFail=0 DXMaxC= 2.22D-01 DCOld= 1.00D+10 DXMaxT= 3.00D-01 DXLimC= 3.00D+00 Rises=F
 Variable       Old X    -DE/DX   Delta X   Delta X   Delta X     New X
                                 (Linear)    (Quad)   (Total)
    X1       -4.17533   0.00147   0.00000   0.00000   0.00000  -4.17533
    Y1        0.00000  -0.00089   0.00000   0.00000   0.00000   0.00000
    Z1        0.00000  -0.00000   0.00000   0.00000   0.00000   0.00000
    X2        4.17533  -0.00147   0.00000   0.00000   0.00000   4.17533
    Y2        0.00000   0.00089   0.00000   0.00000   0.00000   0.00000
    Z2        0.00000  -0.00000   0.00000   0.00000   0.00000   0.00000
    R1        2.69188  -0.00012   0.01323  -0.01257   0.00066   2.69254
    R2        2.69188  -0.00012   0.01323  -0.01257   0.00066   2.69254
    A1        1.61349  -0.00395  -0.05952  -0.02279  -0.08232   1.53117
    A2        1.61349  -0.00395  -0.05952  -0.02279  -0.08232   1.53117
    D1        3.14159  -0.00000   0.00000  -0.00000   0.00000   3.14159
         Item               Value     Threshold  Converged?
 Maximum Force            0.003946     0.000450     NO 
 RMS     Force            0.002497     0.000300     NO 
 Maximum Displacement     0.221547     0.001800     NO 
 RMS     Displacement     0.094469     0.001200     NO 
 Predicted change in Energy=-4.507747D-04
 Lowest energy point so far.  Saving SCF results.
 GradGradGradGradGradGradGradGradGradGradGradGradGradGradGradGradGradGrad

 Leave Link  103 at Mon Apr 21 21:13:45 2025, MaxMem=   536870912 cpu:               1.9 elap:               0.6
 (Enter /home/szhao/Apps/g16/l202.exe)
                          Input orientation:                          
 ---------------------------------------------------------------------
 Center     Atomic      Atomic             Coordinates (Angstroms)
 Number     Number       Type             X           Y           Z
 ---------------------------------------------------------------------
      1         15           0       -2.209490    0.000000    0.000000
      2         15           0        2.209490    0.000000    0.000000
      3          1           0       -2.153043   -1.423714   -0.000000
      4          1           0        2.153043    1.423714   -0.000000
 ---------------------------------------------------------------------
                    Distance matrix (angstroms):
                    1          2          3          4
     1  P    0.000000
     2  P    4.418979   0.000000
     3  H    1.424833   4.588971   0.000000
     4  H    4.588971   1.424833   5.162386   0.000000
 Symmetry turned off by external request.
 Stoichiometry    H2P2
 Framework group  C2H[SGH(H2P2)]
 Deg. of freedom     3
 Full point group                 C2H     NOp   4
 Rotational constants (GHZ):         127.5688008           1.6203968           1.6000724
 Leave Link  202 at Mon Apr 21 21:13:46 2025, MaxMem=   536870912 cpu:               0.5 elap:               0.3
 (Enter /home/szhao/Apps/g16/l301.exe)
 Standard basis: 6-311+G(d,p) (5D, 7F)
 Ernie: Thresh=  0.10000D-02 Tol=  0.10000D-05 Strict=F.
    72 basis functions,   116 primitive gaussians,    74 cartesian basis functions
    16 alpha electrons       16 beta electrons
       nuclear repulsion energy        41.6478148645 Hartrees.
 IExCor= 4336 DFT=T Ex+Corr=M062X ExCW=0 ScaHFX=  0.540000
 ScaDFX=  1.000000  1.000000  1.000000  1.000000 ScalE2=  1.000000  1.000000
 IRadAn=      7 IRanWt=     -1 IRanGd=            0 ICorTp=0 IEmpDi=  4
 NAtoms=    4 NActive=    4 NUniq=    4 SFac= 1.00D+00 NAtFMM=   60 NAOKFM=F Big=F
 Integral buffers will be    131072 words long.
 Raffenetti 2 integral format.
 Two-electron integral symmetry is turned off.
 Leave Link  301 at Mon Apr 21 21:13:46 2025, MaxMem=   536870912 cpu:               0.6 elap:               0.1
 (Enter /home/szhao/Apps/g16/l302.exe)
 NPDir=0 NMtPBC=     1 NCelOv=     1 NCel=       1 NClECP=     1 NCelD=      1
         NCelK=      1 NCelE2=     1 NClLst=     1 CellRange=     0.0.
 One-electron integrals computed using PRISM.
 NBasis=    72 RedAO= T EigKep=  1.61D-02  NBF=    72
 NBsUse=    72 1.00D-06 EigRej= -1.00D+00 NBFU=    72
 Precomputing XC quadrature grid using
 IXCGrd= 4 IRadAn=           7 IRanWt=          -1 IRanGd=           0 AccXCQ= 0.00D+00.
 Generated NRdTot=       0 NPtTot=           0 NUsed=           0 NTot=          32
 NSgBfM=    67    67    67    67    67 MxSgAt=     4 MxSgA2=     4.
 Leave Link  302 at Mon Apr 21 21:13:47 2025, MaxMem=   536870912 cpu:               1.7 elap:               0.3
 (Enter /home/szhao/Apps/g16/l303.exe)
 DipDrv:  MaxL=1.
 Leave Link  303 at Mon Apr 21 21:13:47 2025, MaxMem=   536870912 cpu:               0.6 elap:               0.1
 (Enter /home/szhao/Apps/g16/l401.exe)
 Initial guess from the checkpoint file:  "opt.chk"
 B after Tr=     0.000000   -0.000000   -0.000000
         Rot=    0.999999    0.000000   -0.000000   -0.001048 Ang=  -0.12 deg.
 Guess basis will be translated and rotated to current coordinates.
 JPrj=2 DoOrth=T DoCkMO=T.
 Initial guess <Sx>= 0.0000 <Sy>= 0.0000 <Sz>= 0.0000 <S**2>= 0.0000 S= 0.0000
 Generating alternative initial guess.
 ExpMin= 3.48D-02 ExpMax= 7.75D+04 ExpMxC= 2.65D+03 IAcc=3 IRadAn=         5 AccDes= 0.00D+00
 Harris functional with IExCor= 1009 and IRadAn=       5 diagonalized for initial guess.
 HarFok:  IExCor= 1009 AccDes= 0.00D+00 IRadAn=         5 IDoV= 1 UseB2=F ITyADJ=14
 ICtDFT=  3500011 ScaDFX=  1.000000  1.000000  1.000000  1.000000
 FoFCou: FMM=F IPFlag=           0 FMFlag=      100000 FMFlg1=           0
         NFxFlg=           0 DoJE=T BraDBF=F KetDBF=T FulRan=T
         wScrn=  0.000000 ICntrl=       500 IOpCl=  0 I1Cent=   200000004 NGrid=           0
         NMat0=    1 NMatS0=      1 NMatT0=    0 NMatD0=    1 NMtDS0=    0 NMtDT0=    0
 Symmetry not used in FoFCou.
 Harris En= -683.350786380017    
 Leave Link  401 at Mon Apr 21 21:13:48 2025, MaxMem=   536870912 cpu:               3.7 elap:               0.8
 (Enter /home/szhao/Apps/g16/l502.exe)
 Keep R1 and R2 ints in memory in canonical form, NReq=14118010.
 FoFCou: FMM=F IPFlag=           0 FMFlag=           0 FMFlg1=           0
         NFxFlg=           0 DoJE=F BraDBF=F KetDBF=F FulRan=T
         wScrn=  0.000000 ICntrl=       600 IOpCl=  0 I1Cent=           0 NGrid=           0
         NMat0=    1 NMatS0=   2628 NMatT0=    0 NMatD0=    1 NMtDS0=    0 NMtDT0=    0
 Symmetry not used in FoFCou.
 Two-electron integral symmetry not used.
 UHF open shell SCF:
 Using DIIS extrapolation, IDIIS=  1040.
 NGot=   536870912 LenX=   529949706 LenY=   529943789
 Requested convergence on RMS density matrix=1.00D-08 within 128 cycles.
 Requested convergence on MAX density matrix=1.00D-06.
 Requested convergence on             energy=1.00D-06.
 No special actions if energy rises.

 Cycle   1  Pass 1  IDiag  1:
 E= -683.584678167655    
 DIIS: error= 3.34D-03 at cycle   1 NSaved=   1.
 NSaved= 1 IEnMin= 1 EnMin= -683.584678167655     IErMin= 1 ErrMin= 3.34D-03
 ErrMax= 3.34D-03  0.00D+00 EMaxC= 1.00D-01 BMatC= 2.04D-03 BMatP= 2.04D-03
 IDIUse=3 WtCom= 9.67D-01 WtEn= 3.34D-02
 Coeff-Com:  0.100D+01
 Coeff-En:   0.100D+01
 Coeff:      0.100D+01
 Gap=     0.396 Goal=   None    Shift=    0.000
 Gap=     0.396 Goal=   None    Shift=    0.000
 GapD=    0.396 DampG=1.000 DampE=1.000 DampFc=1.0000 IDamp=-1.
 RMSDP=5.90D-04 MaxDP=7.75D-03              OVMax= 2.46D-02

 Cycle   2  Pass 1  IDiag  1:
 E= -683.586117232917     Delta-E=       -0.001439065261 Rises=F Damp=F
 DIIS: error= 8.61D-04 at cycle   2 NSaved=   2.
 NSaved= 2 IEnMin= 2 EnMin= -683.586117232917     IErMin= 2 ErrMin= 8.61D-04
 ErrMax= 8.61D-04  0.00D+00 EMaxC= 1.00D-01 BMatC= 1.17D-04 BMatP= 2.04D-03
 IDIUse=3 WtCom= 9.91D-01 WtEn= 8.61D-03
 Coeff-Com: -0.150D+00 0.115D+01
 Coeff-En:   0.000D+00 0.100D+01
 Coeff:     -0.148D+00 0.115D+01
 Gap=     0.067 Goal=   None    Shift=    0.000
 Gap=     0.067 Goal=   None    Shift=    0.000
 RMSDP=2.00D-04 MaxDP=2.74D-03 DE=-1.44D-03 OVMax= 1.05D-02

 Cycle   3  Pass 1  IDiag  1:
 E= -683.586254954170     Delta-E=       -0.000137721253 Rises=F Damp=F
 DIIS: error= 1.94D-04 at cycle   3 NSaved=   3.
 NSaved= 3 IEnMin= 3 EnMin= -683.586254954170     IErMin= 3 ErrMin= 1.94D-04
 ErrMax= 1.94D-04  0.00D+00 EMaxC= 1.00D-01 BMatC= 7.03D-06 BMatP= 1.17D-04
 IDIUse=3 WtCom= 9.98D-01 WtEn= 1.94D-03
 Coeff-Com: -0.344D-01 0.692D-01 0.965D+00
 Coeff-En:   0.000D+00 0.000D+00 0.100D+01
 Coeff:     -0.343D-01 0.691D-01 0.965D+00
 Gap=     0.067 Goal=   None    Shift=    0.000
 Gap=     0.067 Goal=   None    Shift=    0.000
 RMSDP=6.94D-05 MaxDP=9.40D-04 DE=-1.38D-04 OVMax= 3.82D-03

 Cycle   4  Pass 1  IDiag  1:
 E= -683.586265976287     Delta-E=       -0.000011022117 Rises=F Damp=F
 DIIS: error= 1.20D-04 at cycle   4 NSaved=   4.
 NSaved= 4 IEnMin= 4 EnMin= -683.586265976287     IErMin= 4 ErrMin= 1.20D-04
 ErrMax= 1.20D-04  0.00D+00 EMaxC= 1.00D-01 BMatC= 1.95D-06 BMatP= 7.03D-06
 IDIUse=3 WtCom= 9.99D-01 WtEn= 1.20D-03
 Coeff-Com:  0.141D-01-0.155D+00 0.148D+00 0.992D+00
 Coeff-En:   0.000D+00 0.000D+00 0.000D+00 0.100D+01
 Coeff:      0.141D-01-0.154D+00 0.148D+00 0.992D+00
 Gap=     0.067 Goal=   None    Shift=    0.000
 Gap=     0.067 Goal=   None    Shift=    0.000
 RMSDP=2.18D-05 MaxDP=2.20D-04 DE=-1.10D-05 OVMax= 1.51D-03

 Cycle   5  Pass 1  IDiag  1:
 E= -683.586267547453     Delta-E=       -0.000001571166 Rises=F Damp=F
 DIIS: error= 8.53D-06 at cycle   5 NSaved=   5.
 NSaved= 5 IEnMin= 5 EnMin= -683.586267547453     IErMin= 5 ErrMin= 8.53D-06
 ErrMax= 8.53D-06  0.00D+00 EMaxC= 1.00D-01 BMatC= 1.80D-08 BMatP= 1.95D-06
 IDIUse=1 WtCom= 1.00D+00 WtEn= 0.00D+00
 Coeff-Com: -0.193D-02 0.302D-01-0.474D-01-0.241D+00 0.126D+01
 Coeff:     -0.193D-02 0.302D-01-0.474D-01-0.241D+00 0.126D+01
 Gap=     0.067 Goal=   None    Shift=    0.000
 Gap=     0.067 Goal=   None    Shift=    0.000
 RMSDP=5.01D-06 MaxDP=5.36D-05 DE=-1.57D-06 OVMax= 2.55D-04

 Cycle   6  Pass 1  IDiag  1:
 E= -683.586267582815     Delta-E=       -0.000000035362 Rises=F Damp=F
 DIIS: error= 1.54D-06 at cycle   6 NSaved=   6.
 NSaved= 6 IEnMin= 6 EnMin= -683.586267582815     IErMin= 6 ErrMin= 1.54D-06
 ErrMax= 1.54D-06  0.00D+00 EMaxC= 1.00D-01 BMatC= 6.11D-10 BMatP= 1.80D-08
 IDIUse=1 WtCom= 1.00D+00 WtEn= 0.00D+00
 Coeff-Com: -0.417D-03 0.503D-02-0.665D-02-0.329D-01 0.443D-01 0.991D+00
 Coeff:     -0.417D-03 0.503D-02-0.665D-02-0.329D-01 0.443D-01 0.991D+00
 Gap=     0.067 Goal=   None    Shift=    0.000
 Gap=     0.067 Goal=   None    Shift=    0.000
 RMSDP=1.15D-06 MaxDP=1.88D-05 DE=-3.54D-08 OVMax= 5.44D-05

 Cycle   7  Pass 1  IDiag  1:
 E= -683.586267584390     Delta-E=       -0.000000001575 Rises=F Damp=F
 DIIS: error= 5.29D-06 at cycle   7 NSaved=   7.
 NSaved= 7 IEnMin= 7 EnMin= -683.586267584390     IErMin= 6 ErrMin= 1.54D-06
 ErrMax= 5.29D-06  0.00D+00 EMaxC= 1.00D-01 BMatC= 9.58D-10 BMatP= 6.11D-10
 IDIUse=1 WtCom= 1.00D+00 WtEn= 0.00D+00
 Coeff-Com: -0.267D-03 0.305D-02-0.388D-02-0.189D-01 0.343D-02 0.724D+00
 Coeff-Com:  0.293D+00
 Coeff:     -0.267D-03 0.305D-02-0.388D-02-0.189D-01 0.343D-02 0.724D+00
 Coeff:      0.293D+00
 Gap=     0.067 Goal=   None    Shift=    0.000
 Gap=     0.067 Goal=   None    Shift=    0.000
 RMSDP=6.74D-07 MaxDP=2.39D-05 DE=-1.58D-09 OVMax= 6.86D-05

 Cycle   8  Pass 1  IDiag  1:
 E= -683.586267585459     Delta-E=       -0.000000001068 Rises=F Damp=F
 DIIS: error= 9.96D-06 at cycle   8 NSaved=   8.
 NSaved= 8 IEnMin= 8 EnMin= -683.586267585459     IErMin= 6 ErrMin= 1.54D-06
 ErrMax= 9.96D-06  0.00D+00 EMaxC= 1.00D-01 BMatC= 3.63D-09 BMatP= 6.11D-10
 IDIUse=1 WtCom= 1.00D+00 WtEn= 0.00D+00
 Coeff-Com: -0.225D-03 0.253D-02-0.319D-02-0.154D-01-0.312D-02 0.630D+00
 Coeff-Com:  0.318D+00 0.709D-01
 Coeff:     -0.225D-03 0.253D-02-0.319D-02-0.154D-01-0.312D-02 0.630D+00
 Coeff:      0.318D+00 0.709D-01
 Gap=     0.067 Goal=   None    Shift=    0.000
 Gap=     0.067 Goal=   None    Shift=    0.000
 RMSDP=3.19D-07 MaxDP=1.13D-05 DE=-1.07D-09 OVMax= 3.26D-05

 Cycle   9  Pass 1  IDiag  1:
 E= -683.586267587754     Delta-E=       -0.000000002296 Rises=F Damp=F
 DIIS: error= 7.90D-06 at cycle   9 NSaved=   9.
 NSaved= 9 IEnMin= 9 EnMin= -683.586267587754     IErMin= 6 ErrMin= 1.54D-06
 ErrMax= 7.90D-06  0.00D+00 EMaxC= 1.00D-01 BMatC= 1.95D-09 BMatP= 6.11D-10
 IDIUse=1 WtCom= 1.00D+00 WtEn= 0.00D+00
 Coeff-Com:  0.925D-04-0.191D-02 0.326D-02 0.176D-01-0.131D+00 0.234D+00
 Coeff-Com:  0.141D+01 0.146D+01-0.199D+01
 Coeff:      0.925D-04-0.191D-02 0.326D-02 0.176D-01-0.131D+00 0.234D+00
 Coeff:      0.141D+01 0.146D+01-0.199D+01
 Gap=     0.067 Goal=   None    Shift=    0.000
 Gap=     0.067 Goal=   None    Shift=    0.000
 RMSDP=1.59D-06 MaxDP=4.60D-05 DE=-2.30D-09 OVMax= 1.33D-04

 Cycle  10  Pass 1  IDiag  1:
 E= -683.586267583354     Delta-E=        0.000000004400 Rises=F Damp=F
 DIIS: error= 1.58D-07 at cycle  10 NSaved=  10.
 NSaved=10 IEnMin= 9 EnMin= -683.586267587754     IErMin=10 ErrMin= 1.58D-07
 ErrMax= 1.58D-07  0.00D+00 EMaxC= 1.00D-01 BMatC= 2.40D-12 BMatP= 6.11D-10
 IDIUse=1 WtCom= 1.00D+00 WtEn= 0.00D+00
 Coeff-Com:  0.107D-04-0.117D-03 0.263D-03 0.695D-03 0.264D-02-0.425D-01
 Coeff-Com:  0.481D-01 0.701D-01-0.102D+00 0.102D+01
 Coeff:      0.107D-04-0.117D-03 0.263D-03 0.695D-03 0.264D-02-0.425D-01
 Coeff:      0.481D-01 0.701D-01-0.102D+00 0.102D+01
 Gap=     0.067 Goal=   None    Shift=    0.000
 Gap=     0.067 Goal=   None    Shift=    0.000
 RMSDP=5.44D-08 MaxDP=1.14D-06 DE= 4.40D-09 OVMax= 3.26D-06

 Cycle  11  Pass 1  IDiag  1:
 E= -683.586267583353     Delta-E=        0.000000000001 Rises=F Damp=F
 DIIS: error= 1.57D-08 at cycle  11 NSaved=  11.
 NSaved=11 IEnMin= 9 EnMin= -683.586267587754     IErMin=11 ErrMin= 1.57D-08
 ErrMax= 1.57D-08  0.00D+00 EMaxC= 1.00D-01 BMatC= 5.94D-14 BMatP= 2.40D-12
 IDIUse=1 WtCom= 1.00D+00 WtEn= 0.00D+00
 Coeff-Com:  0.304D-06 0.128D-04-0.122D-04-0.175D-03 0.255D-02-0.730D-02
 Coeff-Com: -0.301D-01-0.281D-01 0.364D-01 0.156D+00 0.871D+00
 Coeff:      0.304D-06 0.128D-04-0.122D-04-0.175D-03 0.255D-02-0.730D-02
 Coeff:     -0.301D-01-0.281D-01 0.364D-01 0.156D+00 0.871D+00
 Gap=     0.067 Goal=   None    Shift=    0.000
 Gap=     0.067 Goal=   None    Shift=    0.000
 RMSDP=3.93D-09 MaxDP=6.20D-08 DE= 1.25D-12 OVMax= 1.28D-07

 SCF Done:  E(UM062X) =  -683.586267583     A.U. after   11 cycles
            NFock= 11  Conv=0.39D-08     -V/T= 2.0016
 <Sx>= 0.0000 <Sy>= 0.0000 <Sz>= 0.0000 <S**2>=-0.0000 S=-0.0000
 <L.S>=  0.00000000000    
 KE= 6.825190619303D+02 PE=-1.709486482633D+03 EE= 3.017333382553D+02
 Annihilation of the first spin contaminant:
 S**2 before annihilation    -0.0000,   after     0.0000
 Leave Link  502 at Mon Apr 21 21:13:56 2025, MaxMem=   536870912 cpu:              50.4 elap:               7.0
 (Enter /home/szhao/Apps/g16/l701.exe)
 ... and contract with generalized density number  0.
 Compute integral first derivatives.
 Leave Link  701 at Mon Apr 21 21:13:56 2025, MaxMem=   536870912 cpu:               1.4 elap:               0.3
 (Enter /home/szhao/Apps/g16/l702.exe)
 L702 exits ... SP integral derivatives will be done elsewhere.
 Leave Link  702 at Mon Apr 21 21:13:57 2025, MaxMem=   536870912 cpu:               0.4 elap:               0.1
 (Enter /home/szhao/Apps/g16/l703.exe)
 Integral derivatives from FoFJK, PRISM(SPDF).
 Compute integral first derivatives, UseDBF=F ICtDFT=           0.
 Calling FoFJK, ICntrl=      2127 FMM=F ISym2X=0 I1Cent= 0 IOpClX= 1 NMat=1 NMatS=1 NMatT=0.
 FoFJK:  IHMeth= 1 ICntrl=    2127 DoSepK=F KAlg= 0 I1Cent=           0 FoldK=F
 IRaf=         0 NMat=       1 IRICut=       1 DoRegI=T DoRafI=F ISym2E= 0 IDoP0=0 IntGTp=1.
 FoFCou: FMM=F IPFlag=           0 FMFlag=      100000 FMFlg1=         800
         NFxFlg=           0 DoJE=F BraDBF=F KetDBF=F FulRan=T
         wScrn=  0.000000 ICntrl=      2127 IOpCl=  1 I1Cent=           0 NGrid=           0
         NMat0=    1 NMatS0=      1 NMatT0=    0 NMatD0=    1 NMtDS0=    0 NMtDT0=    0
 Symmetry not used in FoFCou.
 Leave Link  703 at Mon Apr 21 21:13:58 2025, MaxMem=   536870912 cpu:               5.8 elap:               0.8
 (Enter /home/szhao/Apps/g16/l716.exe)
 Dipole        = 4.32533831D-09 9.41646761D-11-3.12298224D-10
 -------------------------------------------------------------------
 Center     Atomic                   Forces (Hartrees/Bohr)
 Number     Number              X              Y              Z
 -------------------------------------------------------------------
      1       15          -0.000000000   -0.000000000   -0.000000000
      2       15          -0.000000000   -0.000000000   -0.000000000
      3        1           0.000636947    0.000411731    0.000000000
      4        1          -0.000636947   -0.000411731   -0.000000000
 -------------------------------------------------------------------
 Cartesian Forces:  Max     0.000636947 RMS     0.000309630
 Leave Link  716 at Mon Apr 21 21:13:58 2025, MaxMem=   536870912 cpu:               0.5 elap:               0.1
 (Enter /home/szhao/Apps/g16/l103.exe)

 GradGradGradGradGradGradGradGradGradGradGradGradGradGradGradGradGradGrad
 Berny optimization.
 Using GEDIIS/GDIIS optimizer.
 FormGI is forming the generalized inverse of G from B-inverse, IUseBI=4.
 Internal  Forces:  Max     0.001757579 RMS     0.000813969
 Search for a local minimum.
 Step number   3 out of a maximum of   21
 All quantities printed in internal units (Hartrees-Bohrs-Radians)
 RMS Force = .11381D-02 SwitMx=.10000D-02 MixMth= 1
 Mixed Optimization -- RFO/linear search
 Update second derivatives using D2CorX and points    1    2    3
 DE= -4.68D-04 DEPred=-4.51D-04 R= 1.04D+00
 TightC=F SS=  1.41D+00  RLast= 1.16D-01 DXNew= 5.0454D-01 3.4925D-01
 Trust test= 1.04D+00 RLast= 1.16D-01 DXMaxT set to 3.49D-01
 The second derivative matrix:
                          X1        Y1        Z1        X2        Y2
           X1           0.50220
           Y1          -0.00373   0.51259
           Z1          -0.00000   0.00000   0.50000
           X2          -0.00220   0.00373   0.00000   0.50220
           Y2           0.00373  -0.01259  -0.00000  -0.00373   0.51259
           Z2          -0.00000   0.00000   0.00000   0.00000  -0.00000
           R1           0.00669  -0.03804  -0.00000  -0.00669   0.03804
           R2           0.00669  -0.03804  -0.00000  -0.00669   0.03804
           A1          -0.00500   0.00503   0.00000   0.00500  -0.00503
           A2          -0.00500   0.00503   0.00000   0.00500  -0.00503
           D1          -0.00000   0.00000   0.00000   0.00000  -0.00000
                          Z2        R1        R2        A1        A2
           Z2           0.50000
           R1          -0.00000   0.23831
           R2          -0.00000   0.02957   0.23831
           A1           0.00000  -0.00055  -0.00055   0.09329
           A2           0.00000  -0.00055  -0.00055  -0.06671   0.09329
           D1           0.00000  -0.00000  -0.00000   0.00000   0.00000
                          D1
           D1           0.00230
 ITU=  1  1  0
 Use linear search instead of GDIIS.
     Eigenvalues ---    0.00230   0.02657   0.16000   0.20874   0.26788
     Eigenvalues --- 1000.000001000.000001000.000001000.000001000.00000
     Eigenvalues --- 1000.00000
 RFO step:  Lambda=-2.77922276D-06 EMin= 2.30000000D-03
 Quartic linear search produced a step of  0.83954.
 Iteration  1 RMS(Cart)=  0.07923201 RMS(Int)=  0.00274266
 Iteration  2 RMS(Cart)=  0.00278294 RMS(Int)=  0.00000046
 Iteration  3 RMS(Cart)=  0.00000121 RMS(Int)=  0.00000000
 Iteration  4 RMS(Cart)=  0.00000000 RMS(Int)=  0.00000000
 ITry= 1 IFail=0 DXMaxC= 1.86D-01 DCOld= 1.00D+10 DXMaxT= 3.49D-01 DXLimC= 3.00D+00 Rises=F
 Variable       Old X    -DE/DX   Delta X   Delta X   Delta X     New X
                                 (Linear)    (Quad)   (Total)
    X1       -4.17533   0.00064   0.00000   0.00000   0.00000  -4.17533
    Y1        0.00000  -0.00001   0.00000   0.00000   0.00000   0.00000
    Z1        0.00000   0.00000   0.00000   0.00000   0.00000   0.00000
    X2        4.17533  -0.00064   0.00000   0.00000   0.00000   4.17533
    Y2        0.00000   0.00001   0.00000   0.00000   0.00000   0.00000
    Z2        0.00000   0.00000   0.00000   0.00000   0.00000   0.00000
    R1        2.69254  -0.00039   0.00055  -0.00228  -0.00172   2.69082
    R2        2.69254  -0.00039   0.00055  -0.00228  -0.00172   2.69082
    A1        1.53117  -0.00176  -0.06911  -0.00028  -0.06938   1.46179
    A2        1.53117  -0.00176  -0.06911  -0.00028  -0.06938   1.46179
    D1        3.14159   0.00000   0.00000   0.00000   0.00000   3.14159
         Item               Value     Threshold  Converged?
 Maximum Force            0.001758     0.000450     NO 
 RMS     Force            0.001138     0.000300     NO 
 Maximum Displacement     0.186080     0.001800     NO 
 RMS     Displacement     0.079622     0.001200     NO 
 Predicted change in Energy=-1.167624D-04
 Lowest energy point so far.  Saving SCF results.
 GradGradGradGradGradGradGradGradGradGradGradGradGradGradGradGradGradGrad

 Leave Link  103 at Mon Apr 21 21:13:58 2025, MaxMem=   536870912 cpu:               0.7 elap:               0.1
 (Enter /home/szhao/Apps/g16/l202.exe)
                          Input orientation:                          
 ---------------------------------------------------------------------
 Center     Atomic      Atomic             Coordinates (Angstroms)
 Number     Number       Type             X           Y           Z
 ---------------------------------------------------------------------
      1         15           0       -2.209490    0.000000    0.000000
      2         15           0        2.209490    0.000000    0.000000
      3          1           0       -2.054574   -1.415469    0.000000
      4          1           0        2.054574    1.415469    0.000000
 ---------------------------------------------------------------------
                    Distance matrix (angstroms):
                    1          2          3          4
     1  P    0.000000
     2  P    4.418979   0.000000
     3  H    1.423921   4.492860   0.000000
     4  H    4.492860   1.423921   4.989921   0.000000
 Symmetry turned off by external request.
 Stoichiometry    H2P2
 Framework group  C2[X(H2P2)]
 Deg. of freedom     4
 Full point group                 C2      NOp   2
 Rotational constants (GHZ):         128.7086558           1.6248105           1.6045547
 Leave Link  202 at Mon Apr 21 21:13:59 2025, MaxMem=   536870912 cpu:               0.1 elap:               0.2
 (Enter /home/szhao/Apps/g16/l301.exe)
 Standard basis: 6-311+G(d,p) (5D, 7F)
 Ernie: Thresh=  0.10000D-02 Tol=  0.10000D-05 Strict=F.
    72 basis functions,   116 primitive gaussians,    74 cartesian basis functions
    16 alpha electrons       16 beta electrons
       nuclear repulsion energy        41.7324916672 Hartrees.
 IExCor= 4336 DFT=T Ex+Corr=M062X ExCW=0 ScaHFX=  0.540000
 ScaDFX=  1.000000  1.000000  1.000000  1.000000 ScalE2=  1.000000  1.000000
 IRadAn=      7 IRanWt=     -1 IRanGd=            0 ICorTp=0 IEmpDi=  4
 NAtoms=    4 NActive=    4 NUniq=    4 SFac= 1.00D+00 NAtFMM=   60 NAOKFM=F Big=F
 Integral buffers will be    131072 words long.
 Raffenetti 2 integral format.
 Two-electron integral symmetry is turned off.
 Leave Link  301 at Mon Apr 21 21:13:59 2025, MaxMem=   536870912 cpu:               0.7 elap:               0.1
 (Enter /home/szhao/Apps/g16/l302.exe)
 NPDir=0 NMtPBC=     1 NCelOv=     1 NCel=       1 NClECP=     1 NCelD=      1
         NCelK=      1 NCelE2=     1 NClLst=     1 CellRange=     0.0.
 One-electron integrals computed using PRISM.
 NBasis=    72 RedAO= T EigKep=  1.63D-02  NBF=    72
 NBsUse=    72 1.00D-06 EigRej= -1.00D+00 NBFU=    72
 Precomputing XC quadrature grid using
 IXCGrd= 4 IRadAn=           7 IRanWt=          -1 IRanGd=           0 AccXCQ= 0.00D+00.
 Generated NRdTot=       0 NPtTot=           0 NUsed=           0 NTot=          32
 NSgBfM=    67    67    67    67    67 MxSgAt=     4 MxSgA2=     4.
 Leave Link  302 at Mon Apr 21 21:14:00 2025, MaxMem=   536870912 cpu:               2.2 elap:               0.3
 (Enter /home/szhao/Apps/g16/l303.exe)
 DipDrv:  MaxL=1.
 Leave Link  303 at Mon Apr 21 21:14:00 2025, MaxMem=   536870912 cpu:               0.4 elap:               0.2
 (Enter /home/szhao/Apps/g16/l401.exe)
 Initial guess from the checkpoint file:  "opt.chk"
 B after Tr=     0.000000   -0.000000    0.000000
         Rot=    1.000000    0.000000   -0.000000   -0.000768 Ang=  -0.09 deg.
 Guess basis will be translated and rotated to current coordinates.
 JPrj=2 DoOrth=T DoCkMO=T.
 Initial guess <Sx>= 0.0000 <Sy>= 0.0000 <Sz>= 0.0000 <S**2>= 0.0000 S= 0.0000
 Generating alternative initial guess.
 ExpMin= 3.48D-02 ExpMax= 7.75D+04 ExpMxC= 2.65D+03 IAcc=3 IRadAn=         5 AccDes= 0.00D+00
 Harris functional with IExCor= 1009 and IRadAn=       5 diagonalized for initial guess.
 HarFok:  IExCor= 1009 AccDes= 0.00D+00 IRadAn=         5 IDoV= 1 UseB2=F ITyADJ=14
 ICtDFT=  3500011 ScaDFX=  1.000000  1.000000  1.000000  1.000000
 FoFCou: FMM=F IPFlag=           0 FMFlag=      100000 FMFlg1=           0
         NFxFlg=           0 DoJE=T BraDBF=F KetDBF=T FulRan=T
         wScrn=  0.000000 ICntrl=       500 IOpCl=  0 I1Cent=   200000004 NGrid=           0
         NMat0=    1 NMatS0=      1 NMatT0=    0 NMatD0=    1 NMtDS0=    0 NMtDT0=    0
 Symmetry not used in FoFCou.
 Harris En= -683.350861653536    
 Leave Link  401 at Mon Apr 21 21:14:01 2025, MaxMem=   536870912 cpu:               3.5 elap:               0.5
 (Enter /home/szhao/Apps/g16/l502.exe)
 Keep R1 and R2 ints in memory in canonical form, NReq=14118010.
 FoFCou: FMM=F IPFlag=           0 FMFlag=           0 FMFlg1=           0
         NFxFlg=           0 DoJE=F BraDBF=F KetDBF=F FulRan=T
         wScrn=  0.000000 ICntrl=       600 IOpCl=  0 I1Cent=           0 NGrid=           0
         NMat0=    1 NMatS0=   2628 NMatT0=    0 NMatD0=    1 NMtDS0=    0 NMtDT0=    0
 Symmetry not used in FoFCou.
 Two-electron integral symmetry not used.
 UHF open shell SCF:
 Using DIIS extrapolation, IDIIS=  1040.
 NGot=   536870912 LenX=   529949706 LenY=   529943789
 Requested convergence on RMS density matrix=1.00D-08 within 128 cycles.
 Requested convergence on MAX density matrix=1.00D-06.
 Requested convergence on             energy=1.00D-06.
 No special actions if energy rises.

 Cycle   1  Pass 1  IDiag  1:
 E= -683.585237078057    
 DIIS: error= 2.80D-03 at cycle   1 NSaved=   1.
 NSaved= 1 IEnMin= 1 EnMin= -683.585237078057     IErMin= 1 ErrMin= 2.80D-03
 ErrMax= 2.80D-03  0.00D+00 EMaxC= 1.00D-01 BMatC= 1.46D-03 BMatP= 1.46D-03
 IDIUse=3 WtCom= 9.72D-01 WtEn= 2.80D-02
 Coeff-Com:  0.100D+01
 Coeff-En:   0.100D+01
 Coeff:      0.100D+01
 Gap=     0.391 Goal=   None    Shift=    0.000
 Gap=     0.391 Goal=   None    Shift=    0.000
 GapD=    0.391 DampG=1.000 DampE=1.000 DampFc=1.0000 IDamp=-1.
 RMSDP=5.02D-04 MaxDP=6.56D-03              OVMax= 2.06D-02

 Cycle   2  Pass 1  IDiag  1:
 E= -683.586270598657     Delta-E=       -0.001033520600 Rises=F Damp=F
 DIIS: error= 7.37D-04 at cycle   2 NSaved=   2.
 NSaved= 2 IEnMin= 2 EnMin= -683.586270598657     IErMin= 2 ErrMin= 7.37D-04
 ErrMax= 7.37D-04  0.00D+00 EMaxC= 1.00D-01 BMatC= 8.35D-05 BMatP= 1.46D-03
 IDIUse=3 WtCom= 9.93D-01 WtEn= 7.37D-03
 Coeff-Com: -0.150D+00 0.115D+01
 Coeff-En:   0.000D+00 0.100D+01
 Coeff:     -0.149D+00 0.115D+01
 Gap=     0.067 Goal=   None    Shift=    0.000
 Gap=     0.067 Goal=   None    Shift=    0.000
 RMSDP=1.70D-04 MaxDP=2.30D-03 DE=-1.03D-03 OVMax= 8.74D-03

 Cycle   3  Pass 1  IDiag  1:
 E= -683.586368520377     Delta-E=       -0.000097921720 Rises=F Damp=F
 DIIS: error= 1.64D-04 at cycle   3 NSaved=   3.
 NSaved= 3 IEnMin= 3 EnMin= -683.586368520377     IErMin= 3 ErrMin= 1.64D-04
[...]
 Gap=     0.067 Goal=   None    Shift=    0.000
 RMSDP=7.31D-08 MaxDP=1.09D-06 DE= 4.27D-11 OVMax= 4.56D-06

 Cycle  13  Pass 1  IDiag  1:
 E= -683.586378130029     Delta-E=        0.000000000006 Rises=F Damp=F
 DIIS: error= 8.51D-09 at cycle  13 NSaved=  13.
 NSaved=13 IEnMin= 7 EnMin= -683.586378134812     IErMin=13 ErrMin= 8.51D-09
 ErrMax= 8.51D-09  0.00D+00 EMaxC= 1.00D-01 BMatC= 1.52D-14 BMatP= 1.54D-12
 IDIUse=1 WtCom= 1.00D+00 WtEn= 0.00D+00
 Coeff-Com:  0.127D-04-0.109D-03 0.241D-03 0.360D-03 0.426D-02 0.349D-02
 Coeff-Com: -0.171D-02-0.571D-02 0.827D-02-0.744D-01-0.449D-01 0.174D+00
 Coeff-Com:  0.937D+00
 Coeff:      0.127D-04-0.109D-03 0.241D-03 0.360D-03 0.426D-02 0.349D-02
 Coeff:     -0.171D-02-0.571D-02 0.827D-02-0.744D-01-0.449D-01 0.174D+00
 Coeff:      0.937D+00
 Gap=     0.067 Goal=   None    Shift=    0.000
 Gap=     0.067 Goal=   None    Shift=    0.000
 RMSDP=4.76D-09 MaxDP=8.49D-08 DE= 5.68D-12 OVMax= 2.49D-07

 SCF Done:  E(UM062X) =  -683.586378130     A.U. after   13 cycles
            NFock= 13  Conv=0.48D-08     -V/T= 2.0016
 <Sx>= 0.0000 <Sy>= 0.0000 <Sz>= 0.0000 <S**2>=-0.0000 S=-0.0000
 <L.S>=  0.00000000000    
 KE= 6.825212738822D+02 PE=-1.709645301960D+03 EE= 3.018099088067D+02
 Annihilation of the first spin contaminant:
 S**2 before annihilation    -0.0000,   after     0.0000
 Leave Link  502 at Mon Apr 21 21:14:21 2025, MaxMem=   536870912 cpu:              55.7 elap:               7.4
 (Enter /home/szhao/Apps/g16/l701.exe)
 ... and contract with generalized density number  0.
 Compute integral first derivatives.
 Leave Link  701 at Mon Apr 21 21:14:22 2025, MaxMem=   536870912 cpu:               1.5 elap:               0.2
 (Enter /home/szhao/Apps/g16/l702.exe)
 L702 exits ... SP integral derivatives will be done elsewhere.
 Leave Link  702 at Mon Apr 21 21:14:22 2025, MaxMem=   536870912 cpu:               0.5 elap:               0.2
 (Enter /home/szhao/Apps/g16/l703.exe)
 Integral derivatives from FoFJK, PRISM(SPDF).
 Compute integral first derivatives, UseDBF=F ICtDFT=           0.
 Calling FoFJK, ICntrl=      2127 FMM=F ISym2X=0 I1Cent= 0 IOpClX= 1 NMat=1 NMatS=1 NMatT=0.
 FoFJK:  IHMeth= 1 ICntrl=    2127 DoSepK=F KAlg= 0 I1Cent=           0 FoldK=F
 IRaf=         0 NMat=       1 IRICut=       1 DoRegI=T DoRafI=F ISym2E= 0 IDoP0=0 IntGTp=1.
 FoFCou: FMM=F IPFlag=           0 FMFlag=      100000 FMFlg1=         800
         NFxFlg=           0 DoJE=F BraDBF=F KetDBF=F FulRan=T
         wScrn=  0.000000 ICntrl=      2127 IOpCl=  1 I1Cent=           0 NGrid=           0
         NMat0=    1 NMatS0=      1 NMatT0=    0 NMatD0=    1 NMtDS0=    0 NMtDT0=    0
 Symmetry not used in FoFCou.
 Leave Link  703 at Mon Apr 21 21:14:23 2025, MaxMem=   536870912 cpu:               7.1 elap:               0.9
 (Enter /home/szhao/Apps/g16/l716.exe)
 Dipole        = 7.01306899D-07 1.38731648D-08-6.79315561D-09
 -------------------------------------------------------------------
 Center     Atomic                   Forces (Hartrees/Bohr)
 Number     Number              X              Y              Z
 -------------------------------------------------------------------
      1       15          -0.000000000   -0.000000000   -0.000000000
      2       15          -0.000000000   -0.000000000   -0.000000000
      3        1          -0.000002466    0.000021480    0.000000000
      4        1           0.000002468   -0.000021484   -0.000000000
 -------------------------------------------------------------------
 Cartesian Forces:  Max     0.000021484 RMS     0.000008828
 Leave Link  716 at Mon Apr 21 21:14:24 2025, MaxMem=   536870912 cpu:               0.5 elap:               0.1
 (Enter /home/szhao/Apps/g16/l103.exe)

 GradGradGradGradGradGradGradGradGradGradGradGradGradGradGradGradGradGrad
 Berny optimization.
 Using GEDIIS/GDIIS optimizer.
 FormGI is forming the generalized inverse of G from B-inverse, IUseBI=4.
 Internal  Forces:  Max     0.000021633 RMS     0.000013086
 Search for a local minimum.
 Step number   5 out of a maximum of   21
 All quantities printed in internal units (Hartrees-Bohrs-Radians)
 RMS Force = .13681D-04 SwitMx=.10000D-02 MixMth= 2
 Mixed Optimization -- En-DIIS/RFO-DIIS
 Swapping is turned off.
 Update second derivatives using D2CorX and points    1    2    3    4    5
 DE= -7.50D-07 DEPred=-6.83D-07 R= 1.10D+00
 Trust test= 1.10D+00 RLast= 7.49D-03 DXMaxT set to 3.49D-01
 The second derivative matrix:
                          X1        Y1        Z1        X2        Y2
           X1           0.50234
           Y1          -0.00485   0.51851
           Z1           0.00000  -0.00000   0.50000
           X2          -0.00234   0.00485  -0.00000   0.50234
           Y2           0.00485  -0.01851   0.00000  -0.00485   0.51851
           Z2           0.00000  -0.00000   0.00000  -0.00000   0.00000
           R1           0.00592  -0.04350   0.00000  -0.00592   0.04350
           R2           0.00592  -0.04350   0.00000  -0.00592   0.04350
           A1          -0.00510   0.00690  -0.00000   0.00510  -0.00690
           A2          -0.00510   0.00690  -0.00000   0.00510  -0.00690
           D1           0.00000  -0.00000   0.00000  -0.00000   0.00000
                          Z2        R1        R2        A1        A2
           Z2           0.50000
           R1           0.00000   0.23465
           R2           0.00000   0.02591   0.23465
           A1          -0.00000   0.00063   0.00063   0.09269
           A2          -0.00000   0.00063   0.00063  -0.06731   0.09269
           D1           0.00000   0.00000   0.00000  -0.00000  -0.00000
                          D1
           D1           0.00230
 ITU=  0  1  1  1  0
     Eigenvalues ---    0.00230   0.02536   0.16000   0.20874   0.26057
     Eigenvalues --- 1000.000001000.000001000.000001000.000001000.00000
     Eigenvalues --- 1000.00000
 En-DIIS/RFO-DIIS/Sim-DIIS IScMMF=       -3 using points:     5    4
 RFO step:  Lambda=-3.04786269D-09.
 NNeg= 0 NGDIIS= 2 SimSw=  2.50D-01 Rises=F DC= -7.50D-07 SmlDif=  1.00D-05
 NRisDI= 0 DoIntr=F SqrtH=F CThrHd= 10.0 CDAdj=  3.0
 RMS Error=  0.3746673971D-04 NUsed= 2 OKEnD=F EnDIS=F
 InvSVX:  RCond= 1.40D-05 Info=           0 Equed=N FErr=  1.01D-15 BErr=  9.82D-17
 DidBck=F Rises=F RFO-DIIS coefs:    1.00628   -0.00628
 Iteration  1 RMS(Cart)=  0.00004821 RMS(Int)=  0.00000000
 Iteration  2 RMS(Cart)=  0.00000001 RMS(Int)=  0.00000000
 ITry= 1 IFail=0 DXMaxC= 8.49D-05 DCOld= 1.00D+10 DXMaxT= 3.49D-01 DXLimC= 3.00D+00 Rises=F
 Variable       Old X    -DE/DX   Delta X   Delta X   Delta X     New X
                                 (Linear)    (Quad)   (Total)
    X1       -4.17533  -0.00000   0.00000   0.00000   0.00000  -4.17533
    Y1        0.00000   0.00002   0.00000   0.00000   0.00000   0.00000
    Z1        0.00000   0.00000   0.00000   0.00000   0.00000   0.00000
    X2        4.17533   0.00000  -0.00000   0.00000   0.00000   4.17533
    Y2        0.00000  -0.00002   0.00000   0.00000   0.00000   0.00000
    Z2        0.00000   0.00000   0.00000   0.00000   0.00000   0.00000
    R1        2.69051  -0.00002  -0.00000  -0.00008  -0.00008   2.69043
    R2        2.69051  -0.00002  -0.00000  -0.00008  -0.00008   2.69043
    A1        1.46707   0.00000   0.00003  -0.00000   0.00003   1.46710
    A2        1.46707   0.00000   0.00003  -0.00000   0.00003   1.46710
    D1        3.14159   0.00000  -0.00000   0.00000   0.00000  -3.14159
         Item               Value     Threshold  Converged?
 Maximum Force            0.000022     0.000450     YES
 RMS     Force            0.000014     0.000300     YES
 Maximum Displacement     0.000085     0.001800     YES
 RMS     Displacement     0.000048     0.001200     YES
 Predicted change in Energy=-1.814856D-09
 Optimization completed.
    -- Stationary point found.
                           ----------------------------
                           !   Optimized Parameters   !
                           ! (Angstroms and Degrees)  !
 --------------------------                            --------------------------
 ! Name  Definition              Value          Derivative Info.                !
 --------------------------------------------------------------------------------
 ! X1    R(1,-1)                -2.2095         -DE/DX =    0.0                 !
 ! Y1    R(1,-2)                 0.0            -DE/DX =    0.0                 !
 ! Z1    R(1,-3)                 0.0            -DE/DX =    0.0                 !
 ! X2    R(2,-1)                 2.2095         -DE/DX =    0.0                 !
 ! Y2    R(2,-2)                 0.0            -DE/DX =    0.0                 !
 ! Z2    R(2,-3)                 0.0            -DE/DX =    0.0                 !
 ! R1    R(1,3)                  1.4238         -DE/DX =    0.0                 !
 ! R2    R(2,4)                  1.4238         -DE/DX =    0.0                 !
 ! A1    A(2,1,3)               84.0571         -DE/DX =    0.0                 !
 ! A2    A(1,2,4)               84.0571         -DE/DX =    0.0                 !
 ! D1    D(3,1,2,4)           -180.0            -DE/DX =    0.0                 !
 --------------------------------------------------------------------------------
 Lowest energy point so far.  Saving SCF results.
 Largest change from initial coordinates is atom    3       0.250 Angstoms.
 GradGradGradGradGradGradGradGradGradGradGradGradGradGradGradGradGradGrad

 Leave Link  103 at Mon Apr 21 21:14:24 2025, MaxMem=   536870912 cpu:               1.4 elap:               0.2
 (Enter /home/szhao/Apps/g16/l202.exe)
                          Input orientation:                          
 ---------------------------------------------------------------------
 Center     Atomic      Atomic             Coordinates (Angstroms)
 Number     Number       Type             X           Y           Z
 ---------------------------------------------------------------------
      1         15           0       -2.209490    0.000000    0.000000
      2         15           0        2.209490    0.000000    0.000000
      3          1           0       -2.062077   -1.416106   -0.000000
      4          1           0        2.062077    1.416106   -0.000000
 ---------------------------------------------------------------------
                    Distance matrix (angstroms):
                    1          2          3          4
     1  P    0.000000
     2  P    4.418979   0.000000
     3  H    1.423758   4.500183   0.000000
     4  H    4.500183   1.423758   5.003007   0.000000
 Symmetry turned off by external request.
 Stoichiometry    H2P2
 Framework group  C2[X(H2P2)]
 Deg. of freedom     4
 Full point group                 C2      NOp   2
 Rotational constants (GHZ):         128.6189599           1.6244806           1.6042191
 Leave Link  202 at Mon Apr 21 21:14:24 2025, MaxMem=   536870912 cpu:               0.1 elap:               0.0
 (Enter /home/szhao/Apps/g16/l601.exe)
 Copying SCF densities to generalized density rwf, IOpCl= 1 IROHF=0.

 **********************************************************************

            Population analysis using the SCF density.

 **********************************************************************

 Alpha  occ. eigenvalues --  -78.08339 -78.08339  -6.90393  -6.90393  -5.01802
 Alpha  occ. eigenvalues --   -5.01802  -5.01784  -5.01784  -5.01607  -5.01607
 Alpha  occ. eigenvalues --   -0.68607  -0.68124  -0.40566  -0.40471  -0.25168
 Alpha  occ. eigenvalues --   -0.23898
 Alpha virt. eigenvalues --   -0.17214  -0.15840   0.01899   0.03040   0.03718
 Alpha virt. eigenvalues --    0.04467   0.05554   0.06012   0.06406   0.07484
 Alpha virt. eigenvalues --    0.08293   0.11439   0.28546   0.29039   0.30560
 Alpha virt. eigenvalues --    0.31223   0.33101   0.33980   0.40365   0.42174
 Alpha virt. eigenvalues --    0.51304   0.56282   0.65908   0.65955   0.66032
 Alpha virt. eigenvalues --    0.66126   0.70368   0.70549   0.70628   0.71700
 Alpha virt. eigenvalues --    0.91132   0.91231   1.44431   1.44470   1.45181
 Alpha virt. eigenvalues --    1.46275   1.54207   1.55430   1.56513   1.57217
 Alpha virt. eigenvalues --    1.57751   1.59002   2.01847   2.02201   2.55959
 Alpha virt. eigenvalues --    2.57842   6.82985   6.86090  13.94740  13.96172
 Alpha virt. eigenvalues --   13.96284  13.96615  13.99645  14.00721 163.07728
 Alpha virt. eigenvalues --  163.11377
  Beta  occ. eigenvalues --  -78.08339 -78.08339  -6.90393  -6.90393  -5.01802
  Beta  occ. eigenvalues --   -5.01802  -5.01784  -5.01784  -5.01607  -5.01607
  Beta  occ. eigenvalues --   -0.68607  -0.68124  -0.40566  -0.40471  -0.25168
  Beta  occ. eigenvalues --   -0.23898
  Beta virt. eigenvalues --   -0.17214  -0.15840   0.01899   0.03040   0.03718
  Beta virt. eigenvalues --    0.04467   0.05554   0.06012   0.06406   0.07484
  Beta virt. eigenvalues --    0.08293   0.11439   0.28546   0.29039   0.30560
  Beta virt. eigenvalues --    0.31223   0.33101   0.33980   0.40365   0.42174
  Beta virt. eigenvalues --    0.51304   0.56282   0.65908   0.65955   0.66032
  Beta virt. eigenvalues --    0.66126   0.70368   0.70549   0.70628   0.71700
  Beta virt. eigenvalues --    0.91132   0.91231   1.44431   1.44470   1.45181
  Beta virt. eigenvalues --    1.46275   1.54207   1.55430   1.56513   1.57217
  Beta virt. eigenvalues --    1.57751   1.59002   2.01847   2.02201   2.55959
  Beta virt. eigenvalues --    2.57842   6.82985   6.86090  13.94740  13.96172
  Beta virt. eigenvalues --   13.96284  13.96615  13.99645  14.00721 163.07728
  Beta virt. eigenvalues --  163.11377
          Condensed to atoms (all electrons):
               1          2          3          4
     1  P   14.651015   0.116815   0.220636   0.000347
     2  P    0.116815  14.651015   0.000347   0.220636
     3  H    0.220636   0.000347   0.790174   0.000031
     4  H    0.000347   0.220636   0.000031   0.790174
          Atomic-Atomic Spin Densities.
               1          2          3          4
     1  P    0.000000  -0.000000  -0.000000   0.000000
     2  P   -0.000000  -0.000000  -0.000000   0.000000
     3  H   -0.000000  -0.000000   0.000000  -0.000000
     4  H    0.000000   0.000000  -0.000000  -0.000000
 Mulliken charges and spin densities:
               1          2
     1  P    0.011188   0.000000
     2  P    0.011188  -0.000000
     3  H   -0.011188  -0.000000
     4  H   -0.011188  -0.000000
 Sum of Mulliken charges =  -0.00000  -0.00000
 Mulliken charges and spin densities with hydrogens summed into heavy atoms:
               1          2
     1  P   -0.000000   0.000000
     2  P    0.000000  -0.000000
 Electronic spatial extent (au):  <R**2>=            631.8788
 Charge=             -0.0000 electrons
 Dipole moment (field-independent basis, Debye):
    X=              0.0000    Y=              0.0000    Z=             -0.0000  Tot=              0.0000
 Quadrupole moment (field-independent basis, Debye-Ang):
   XX=            -27.0423   YY=            -28.5084   ZZ=            -30.7808
   XY=              3.3750   XZ=              0.0000   YZ=              0.0000
 Traceless Quadrupole moment (field-independent basis, Debye-Ang):
   XX=              1.7349   YY=              0.2687   ZZ=             -2.0036
   XY=              3.3750   XZ=              0.0000   YZ=              0.0000
 Octapole moment (field-independent basis, Debye-Ang**2):
  XXX=             -0.0000  YYY=              0.0000  ZZZ=              0.0000  XYY=              0.0000
  XXY=             -0.0000  XXZ=             -0.0000  XZZ=              0.0000  YZZ=              0.0000
  YYZ=              0.0000  XYZ=             -0.0000
 Hexadecapole moment (field-independent basis, Debye-Ang**3):
 XXXX=           -894.4121 YYYY=            -65.0862 ZZZZ=            -57.4632 XXXY=              6.8997
 XXXZ=              0.0001 YYYX=            -10.5955 YYYZ=              0.0000 ZZZX=              0.0000
 ZZZY=              0.0000 XXYY=           -154.6975 XXZZ=           -162.4960 YYZZ=            -20.9898
 XXYZ=              0.0000 YYXZ=              0.0000 ZZXY=             -3.1247
 N-N= 4.172774114114D+01 E-N=-1.709645301524D+03  KE= 6.825212738822D+02
                          Isotropic Fermi Contact Couplings
        Atom                 a.u.       MegaHertz       Gauss      10(-4) cm-1
     1  P(31)             -0.00000      -0.00000      -0.00000      -0.00000
     2  P(31)              0.00000       0.00000       0.00000       0.00000
     3  H(1)               0.00000       0.00000       0.00000       0.00000
     4  H(1)              -0.00000      -0.00000      -0.00000      -0.00000
 --------------------------------------------------------
       Center         ----  Spin Dipole Couplings  ----
                      3XX-RR        3YY-RR        3ZZ-RR
 --------------------------------------------------------
     1   Atom        0.000000     -0.000000     -0.000000
     2   Atom       -0.000000      0.000000      0.000000
     3   Atom        0.000000      0.000000     -0.000000
     4   Atom       -0.000000     -0.000000      0.000000
 --------------------------------------------------------
                        XY            XZ            YZ
 --------------------------------------------------------
     1   Atom       -0.000000     -0.000000     -0.000000
     2   Atom        0.000000     -0.000000     -0.000000
     3   Atom        0.000000     -0.000000     -0.000000
     4   Atom       -0.000000     -0.000000     -0.000000
 --------------------------------------------------------


 ---------------------------------------------------------------------------------
              Anisotropic Spin Dipole Couplings in Principal Axis System
 ---------------------------------------------------------------------------------

       Atom             a.u.   MegaHertz   Gauss  10(-4) cm-1        Axes

              Baa    -0.0000    -0.000    -0.000    -0.000  0.3245  0.2327  0.9168
     1 P(31)  Bbb    -0.0000    -0.000    -0.000    -0.000 -0.0969  0.9724 -0.2124
              Bcc     0.0000     0.000     0.000     0.000  0.9409  0.0199 -0.3381
 
              Baa    -0.0000    -0.000    -0.000    -0.000  0.9409  0.0204  0.3382
     2 P(31)  Bbb     0.0000     0.000     0.000     0.000 -0.0990  0.9712  0.2167
              Bcc     0.0000     0.000     0.000     0.000 -0.3240 -0.2374  0.9158
 
              Baa    -0.0000    -0.000    -0.000    -0.000  0.3630 -0.0133  0.9317
     3 H(1)   Bbb     0.0000     0.000     0.000     0.000 -0.3118  0.9405  0.1349
              Bcc     0.0000     0.000     0.000     0.000  0.8781  0.3395 -0.3373
 
              Baa    -0.0000    -0.000    -0.000    -0.000  0.8805  0.3321  0.3383
     4 H(1)   Bbb    -0.0000    -0.000    -0.000    -0.000 -0.3047  0.9432 -0.1328
              Bcc     0.0000     0.000     0.000     0.000 -0.3631  0.0139  0.9316
 

 ---------------------------------------------------------------------------------

 No NMR shielding tensors so no spin-rotation constants.
 Leave Link  601 at Mon Apr 21 21:14:25 2025, MaxMem=   536870912 cpu:               1.9 elap:               0.3
 (Enter /home/szhao/Apps/g16/l9999.exe)
 1\1\GINC-NODE05\FOpt\UM062X\6-311+G(d,p)\H2P2\SZHAO\21-Apr-2025\0\\#p 
 opt UM062X/6-311+G** nosymm int=superfine\\Title Card Required\\0,1\P,
 -2.20948966,0.,0.\P,2.20948966,0.,0.\H,-2.0620774368,-1.4161064579,-0.
 0000000179\H,2.0620774408,1.4161064569,-0.0000000179\\Version=ES64L-G1
 6RevA.03\HF=-683.5863781\S2=0.\S2-1=0.\S2A=0.\RMSD=4.763e-09\RMSF=8.82
 8e-06\Dipole=0.0000007,0.,0.\Quadrupole=1.2898511,0.199807,-1.4896581,
 2.5092329,0.0000042,0.0000005\PG=C02 [X(H2P2)]\\@


 A people that values its privileges above its principles soon loses both.
 -- Dwight D. Eisenhower
 Job cpu time:       0 days  0 hours  5 minutes 45.7 seconds.
 Elapsed time:       0 days  0 hours  0 minutes 51.3 seconds.
 File lengths (MBytes):  RWF=     22 Int=      0 D2E=      0 Chk=      2 Scr=      2
 Normal termination of Gaussian 16 at Mon Apr 21 21:14:26 2025.
