Title Card Required                                                     
Force     UM062X                                                      6-311+G(d,p)        
Number of atoms                            I                4
Info1-9                                    I   N=           9
          13          13           0           0           0         100
           5          18        -502
Full Title                                 C   N=           2
Title Card Required     
Route                                      C   N=           4
#p UM062X/6-311+G** force int=superfine         
Charge                                     I                1
Multiplicity                               I                2
Number of electrons                        I               13
Number of alpha electrons                  I                7
Number of beta electrons                   I                6
Number of basis functions                  I               56
Number of independent functions            I               56
Number of point charges in /Mol/           I                0
Number of translation vectors              I                0
Atomic numbers                             I   N=           4
           6           6           1           1
Nuclear charges                            R   N=           4
  6.00000000E+00  6.00000000E+00  1.00000000E+00  1.00000000E+00
Current cartesian coordinates              R   N=          12
  0.00000000E+00  0.00000000E+00  1.15068447E+00  1.40918206E-16  0.00000000E+00
 -1.15068447E+00  0.00000000E+00  0.00000000E+00  3.19219340E+00  3.90930943E-16
  0.00000000E+00 -3.19219340E+00
Number of symbols in /Mol/                 I                0
Force Field                                I                0
Atom Types                                 C   N=           4
                                                
Int Atom Types                             I   N=           4
           0           0           0           0
MM charges                                 R   N=           4
  0.00000000E+00  0.00000000E+00  0.00000000E+00  0.00000000E+00
Integer atomic weights                     I   N=           4
          12          12           1           1
Real atomic weights                        R   N=           4
  1.20000000E+01  1.20000000E+01  1.00782504E+00  1.00782504E+00
Atom fragment info                         I   N=           4
           0           0           0           0
Atom residue num                           I   N=           4
           0           0           0           0
Nuclear spins                              I   N=           4
           0           0           1           1
Nuclear ZEff                               R   N=           4
 -3.60000000E+00 -3.60000000E+00 -1.00000000E+00 -1.00000000E+00
Nuclear ZNuc                               R   N=           4
  6.00000000E+00  6.00000000E+00  1.00000000E+00  1.00000000E+00
Nuclear QMom                               R   N=           4
  0.00000000E+00  0.00000000E+00  0.00000000E+00  0.00000000E+00
Nuclear GFac                               R   N=           4
  0.00000000E+00  0.00000000E+00  2.79284600E+00  2.79284600E+00
MicOpt                                     I   N=           4
          -1          -1          -1          -1
Number of residues                         I                0
Number of secondary structures             I                0
SymInf integers                            I   N=          26
           2           8           1           1           1          -1
           1          -1          -1          -1           1           1
          -1          -1          -1           1           1           1
          -1           1           1           1          -1          -1
          -1          -1
RotTr to input orientation                 R   N=          12
  0.00000000E+00  0.00000000E+00  1.00000000E+00  0.00000000E+00  1.00000000E+00
  0.00000000E+00 -1.00000000E+00 -0.00000000E+00 -0.00000000E+00  0.00000000E+00
  0.00000000E+00  0.00000000E+00
Number of contracted shells                I               20
Number of primitive shells                 I               38
Pure/Cartesian d shells                    I                0
Pure/Cartesian f shells                    I                0
Highest angular momentum                   I                2
Largest degree of contraction              I                6
Shell types                                I   N=          20
           0          -1          -1          -1          -1          -2
           0          -1          -1          -1          -1          -2
           0           0           0           1           0           0
           0           1
Number of primitives per shell             I   N=          20
           6           3           1           1           1           1
           6           3           1           1           1           1
           3           1           1           1           3           1
           1           1
Shell to atom map                          I   N=          20
           1           1           1           1           1           1
           2           2           2           2           2           2
           3           3           3           3           4           4
           4           4
Primitive exponents                        R   N=          38
  4.56324000E+03  6.82024000E+02  1.54973000E+02  4.44553000E+01  1.30290000E+01
  1.82773000E+00  2.09642000E+01  4.80331000E+00  1.45933000E+00  4.83456000E-01
  1.45585000E-01  4.38000000E-02  6.26000000E-01  4.56324000E+03  6.82024000E+02
  1.54973000E+02  4.44553000E+01  1.30290000E+01  1.82773000E+00  2.09642000E+01
  4.80331000E+00  1.45933000E+00  4.83456000E-01  1.45585000E-01  4.38000000E-02
  6.26000000E-01  3.38650000E+01  5.09479000E+00  1.15879000E+00  3.25840000E-01
  1.02741000E-01  7.50000000E-01  3.38650000E+01  5.09479000E+00  1.15879000E+00
  3.25840000E-01  1.02741000E-01  7.50000000E-01
Contraction coefficients                   R   N=          38
  1.96665025E-03  1.52306019E-02  7.61269097E-02  2.60801033E-01  6.16462078E-01
  2.21006028E-01  1.14660081E-01  9.19999648E-01 -3.03068213E-03  1.00000000E+00
  1.00000000E+00  1.00000000E+00  1.00000000E+00  1.96665025E-03  1.52306019E-02
  7.61269097E-02  2.60801033E-01  6.16462078E-01  2.21006028E-01  1.14660081E-01
  9.19999648E-01 -3.03068213E-03  1.00000000E+00  1.00000000E+00  1.00000000E+00
  1.00000000E+00  2.54938145E-02  1.90373109E-01  8.52161486E-01  1.00000000E+00
  1.00000000E+00  1.00000000E+00  2.54938145E-02  1.90373109E-01  8.52161486E-01
  1.00000000E+00  1.00000000E+00  1.00000000E+00
P(S=P) Contraction coefficients            R   N=          38
  0.00000000E+00  0.00000000E+00  0.00000000E+00  0.00000000E+00  0.00000000E+00
  0.00000000E+00  4.02486927E-02  2.37593957E-01  8.15853851E-01  1.00000000E+00
  1.00000000E+00  1.00000000E+00  0.00000000E+00  0.00000000E+00  0.00000000E+00
  0.00000000E+00  0.00000000E+00  0.00000000E+00  0.00000000E+00  4.02486927E-02
  2.37593957E-01  8.15853851E-01  1.00000000E+00  1.00000000E+00  1.00000000E+00
  0.00000000E+00  0.00000000E+00  0.00000000E+00  0.00000000E+00  0.00000000E+00
  0.00000000E+00  0.00000000E+00  0.00000000E+00  0.00000000E+00  0.00000000E+00
  0.00000000E+00  0.00000000E+00  0.00000000E+00
Coordinates of each shell                  R   N=          60
  0.00000000E+00  0.00000000E+00  1.15068447E+00  0.00000000E+00  0.00000000E+00
  1.15068447E+00  0.00000000E+00  0.00000000E+00  1.15068447E+00  0.00000000E+00
  0.00000000E+00  1.15068447E+00  0.00000000E+00  0.00000000E+00  1.15068447E+00
  0.00000000E+00  0.00000000E+00  1.15068447E+00  1.40918206E-16  0.00000000E+00
 -1.15068447E+00  1.40918206E-16  0.00000000E+00 -1.15068447E+00  1.40918206E-16
  0.00000000E+00 -1.15068447E+00  1.40918206E-16  0.00000000E+00 -1.15068447E+00
  1.40918206E-16  0.00000000E+00 -1.15068447E+00  1.40918206E-16  0.00000000E+00
 -1.15068447E+00  0.00000000E+00  0.00000000E+00  3.19219340E+00  0.00000000E+00
  0.00000000E+00  3.19219340E+00  0.00000000E+00  0.00000000E+00  3.19219340E+00
  0.00000000E+00  0.00000000E+00  3.19219340E+00  3.90930943E-16  0.00000000E+00
 -3.19219340E+00  3.90930943E-16  0.00000000E+00 -3.19219340E+00  3.90930943E-16
  0.00000000E+00 -3.19219340E+00  3.90930943E-16  0.00000000E+00 -3.19219340E+00
Num ILSW                                   I              100
ILSW                                       I   N=         100
           1           0           0           0           2           0
           0           0           0           0        4336          -1
           7           0           0           0           2           0
           0           0           0           0           1           0
           1           0           0           0           0           0
           0           0      100000           0          -1           0
           0           0           0           0           0           0
           0           0           0           1           0           0
           0 -2000000000           1           0           0           0
           0           0           4          52           0           0
           0           0          55           0           0           0
           0           0           0           4           0           1
           0           0           0           0           0           0
           0           0           0           0           0           0
           0           0           0           0           0           0
           0           0           0           0           0           0
           0           0           0           0
Num RLSW                                   I               52
RLSW                                       R   N=          52
  1.00000000E+00  1.00000000E+00  1.00000000E+00  1.00000000E+00  5.40000000E-01
  0.00000000E+00  0.00000000E+00  1.00000000E+00  0.00000000E+00  0.00000000E+00
  0.00000000E+00  0.00000000E+00  1.00000000E+00  0.00000000E+00  0.00000000E+00
  0.00000000E+00  0.00000000E+00  1.00000000E+00  0.00000000E+00  0.00000000E+00
  0.00000000E+00  0.00000000E+00  1.00000000E+00  0.00000000E+00  0.00000000E+00
  0.00000000E+00  0.00000000E+00  1.00000000E+00  0.00000000E+00  0.00000000E+00
  0.00000000E+00  0.00000000E+00  1.00000000E+00  0.00000000E+00  0.00000000E+00
  0.00000000E+00  0.00000000E+00  0.00000000E+00  1.00000000E+00  1.00000000E+00
  0.00000000E+00  1.00000000E+00  0.00000000E+00  0.00000000E+00  0.00000000E+00
  0.00000000E+00  0.00000000E+00  0.00000000E+00  0.00000000E+00  0.00000000E+00
  0.00000000E+00  0.00000000E+00
MxBond                                     I                2
NBond                                      I   N=           4
           2           2           1           1
IBond                                      I   N=           8
           2           3           1           4           1           0
           2           0
RBond                                      R   N=           8
  3.00000000E+00  1.00000000E+00  3.00000000E+00  1.00000000E+00  1.00000000E+00
  0.00000000E+00  1.00000000E+00  0.00000000E+00
Virial Ratio                               R      2.002125760668352E+00
SCF Energy                                 R     -7.690002893749184E+01
Total Energy                               R     -7.690002893749184E+01
S**2                                       R      7.522024332537089E-01
S**2 after annihilation                    R      7.500035028371118E-01
RMS Force                                  R      1.990085606623093E-02
RMS Density                                R      9.065094139628043E-09
Job Status                                 I                1
Nuclear derivative order                   I                1
External E-field                           R   N=          35
  0.00000000E+00  0.00000000E+00  0.00000000E+00  0.00000000E+00  0.00000000E+00
  0.00000000E+00  0.00000000E+00  0.00000000E+00  0.00000000E+00  0.00000000E+00
  0.00000000E+00  0.00000000E+00  0.00000000E+00  0.00000000E+00  0.00000000E+00
  0.00000000E+00  0.00000000E+00  0.00000000E+00  0.00000000E+00  0.00000000E+00
  0.00000000E+00  0.00000000E+00  0.00000000E+00  0.00000000E+00  0.00000000E+00
  0.00000000E+00  0.00000000E+00  0.00000000E+00  0.00000000E+00  0.00000000E+00
  0.00000000E+00  0.00000000E+00  0.00000000E+00  0.00000000E+00  0.00000000E+00
IOpCl                                      I                1
IROHF                                      I                0
Alpha Orbital Energies                     R   N=          56
 -1.09375105E+01 -1.09349164E+01 -1.23814107E+00 -9.69510835E-01 -8.97923401E-01
 -7.36965447E-01 -7.09234181E-01 -2.66691816E-01 -2.46709838E-01 -1.52221445E-01
 -1.45281686E-01 -1.16083695E-01 -1.04361049E-01 -1.01733087E-01 -5.79985862E-02
 -4.69100478E-02 -4.23325846E-02  2.29877496E-02  4.55959482E-02  1.63691773E-01
  1.84700845E-01  2.89312500E-01  3.00356155E-01  3.80341355E-01  3.86702113E-01
  4.77271022E-01  4.86584395E-01  5.51477931E-01  6.86036528E-01  7.69694177E-01
  7.85275534E-01  8.37069928E-01  8.43082290E-01  8.44843395E-01  1.19441003E+00
  1.20059404E+00  1.24243998E+00  1.24357081E+00  1.40734860E+00  1.53752903E+00
  1.55181311E+00  1.81309546E+00  2.14290191E+00  2.16510889E+00  2.29900771E+00
  2.34886371E+00  2.41560618E+00  2.44630259E+00  2.63743856E+00  2.65831007E+00
  2.67150517E+00  3.00399967E+00  3.02720965E+00  3.45307431E+00  2.32461685E+01
  2.47413842E+01
Beta Orbital Energies                      R   N=          56
 -1.09349687E+01 -1.09326383E+01 -1.18930815E+00 -9.53724707E-01 -8.92269527E-01
 -6.83980817E-01 -4.67444946E-01 -2.30998586E-01 -2.04858749E-01 -1.56375927E-01
 -1.44253894E-01 -1.17012894E-01 -1.06874735E-01 -1.03673685E-01 -5.26080884E-02
 -4.04310741E-02 -3.37887832E-02  2.12096451E-02  4.82135006E-02  1.68939289E-01
  1.92901394E-01  2.73839282E-01  2.99249949E-01  3.76915499E-01  3.87998401E-01
  4.64467992E-01  4.77335247E-01  5.65826544E-01  7.17119366E-01  8.02256353E-01
  8.09914049E-01  8.10854644E-01  8.83279297E-01  9.03936508E-01  1.21035499E+00
  1.22059090E+00  1.27182155E+00  1.29033682E+00  1.42151420E+00  1.56086517E+00
  1.56858985E+00  1.84420177E+00  2.17199706E+00  2.17825192E+00  2.31429305E+00
  2.36806328E+00  2.45003553E+00  2.45487045E+00  2.67666710E+00  2.67795166E+00
  2.74252423E+00  3.02349057E+00  3.11402644E+00  3.47481413E+00  2.32547855E+01
  2.47662185E+01
Alpha MO coefficients                      R   N=        3136
  3.98686531E-01  3.28037550E-01  0.00000000E+00  0.00000000E+00 -5.95836923E-04
  8.00450746E-03  0.00000000E+00  0.00000000E+00  2.24184307E-03 -2.16016069E-03
  0.00000000E+00  0.00000000E+00  2.58103938E-04 -4.65002895E-04  0.00000000E+00
  0.00000000E+00 -1.51496517E-03  1.46461477E-03  0.00000000E+00  0.00000000E+00
  3.89019313E-05  0.00000000E+00  3.98686531E-01  3.28037550E-01  0.00000000E+00
  0.00000000E+00  5.95836923E-04  8.00450746E-03  0.00000000E+00  0.00000000E+00
 -2.24184307E-03 -2.16016069E-03  0.00000000E+00  0.00000000E+00 -2.58103938E-04
 -4.65002895E-04  0.00000000E+00  0.00000000E+00  1.51496517E-03  1.46461477E-03
  0.00000000E+00  0.00000000E+00  3.89019313E-05  0.00000000E+00  6.04677678E-05
 -3.74468053E-03  2.54488043E-03  0.00000000E+00  0.00000000E+00  2.08134216E-03
  6.04677678E-05 -3.74468053E-03  2.54488043E-03  0.00000000E+00  0.00000000E+00
 -2.08134216E-03  3.99105622E-01  3.27267502E-01  0.00000000E+00  0.00000000E+00
  1.24258697E-04  1.42761529E-02  0.00000000E+00  0.00000000E+00 -6.81722747E-03
 -1.25235832E-02  0.00000000E+00  0.00000000E+00  1.19955949E-02 -2.49042048E-02
  0.00000000E+00  0.00000000E+00  6.25452418E-03  5.88250671E-03  0.00000000E+00
  0.00000000E+00  5.35408937E-05  0.00000000E+00 -3.99105622E-01 -3.27267502E-01
  0.00000000E+00  0.00000000E+00  1.24258697E-04 -1.42761529E-02  0.00000000E+00
  0.00000000E+00 -6.81722747E-03  1.25235832E-02  0.00000000E+00  0.00000000E+00
  1.19955949E-02  2.49042048E-02  0.00000000E+00  0.00000000E+00  6.25452418E-03
 -5.88250671E-03  0.00000000E+00  0.00000000E+00 -5.35408937E-05  0.00000000E+00
 -2.77746240E-04 -4.80149721E-03 -2.81427797E-03  0.00000000E+00  0.00000000E+00
  2.14770844E-03  2.77746240E-04  4.80149721E-03  2.81427797E-03  0.00000000E+00
  0.00000000E+00  2.14770844E-03 -9.32055142E-02 -1.51122273E-01  0.00000000E+00
  0.00000000E+00 -9.20938434E-02  3.97675068E-01  0.00000000E+00  0.00000000E+00
 -9.88911867E-02  1.88639465E-01  0.00000000E+00  0.00000000E+00 -1.56116625E-02
 -6.11523740E-03  0.00000000E+00  0.00000000E+00  2.09392358E-02  2.82862666E-02
  0.00000000E+00  0.00000000E+00  5.82185400E-03  0.00000000E+00 -9.32055142E-02
 -1.51122273E-01  0.00000000E+00  0.00000000E+00  9.20938434E-02  3.97675068E-01
  0.00000000E+00  0.00000000E+00  9.88911867E-02  1.88639465E-01  0.00000000E+00
  0.00000000E+00  1.56116625E-02 -6.11523740E-03  0.00000000E+00  0.00000000E+00
 -2.09392358E-02  2.82862666E-02  0.00000000E+00  0.00000000E+00  5.82185400E-03
  0.00000000E+00  3.02484276E-02  2.17474212E-02 -1.46861204E-02  0.00000000E+00
  0.00000000E+00  2.03339020E-03  3.02484276E-02  2.17474212E-02 -1.46861204E-02
  0.00000000E+00  0.00000000E+00 -2.03339020E-03  6.55525725E-02  1.08984657E-01
  0.00000000E+00  0.00000000E+00 -9.76823170E-02 -3.08968936E-01  0.00000000E+00
  0.00000000E+00 -1.30789379E-01 -3.09510592E-01  0.00000000E+00  0.00000000E+00
 -1.12668400E-02  3.48616094E-01  0.00000000E+00  0.00000000E+00 -8.78662840E-02
 -1.24810677E-02  0.00000000E+00  0.00000000E+00 -4.11161046E-03  0.00000000E+00
 -6.55525725E-02 -1.08984657E-01  0.00000000E+00  0.00000000E+00 -9.76823170E-02
  3.08968936E-01  0.00000000E+00  0.00000000E+00 -1.30789379E-01  3.09510592E-01
  0.00000000E+00  0.00000000E+00 -1.12668400E-02 -3.48616094E-01  0.00000000E+00
  0.00000000E+00 -8.78662840E-02  1.24810677E-02  0.00000000E+00  0.00000000E+00
  4.11161046E-03  0.00000000E+00 -1.25040110E-01 -1.63995590E-01 -1.13199552E-03
  0.00000000E+00  0.00000000E+00  2.09348095E-02  1.25040110E-01  1.63995590E-01
  1.13199552E-03  0.00000000E+00  0.00000000E+00  2.09348095E-02 -1.16145538E-02
 -1.87840708E-02  0.00000000E+00  0.00000000E+00  1.92822852E-01  5.66191560E-02
  0.00000000E+00  0.00000000E+00  2.42043711E-01  1.08228963E-01  0.00000000E+00
  0.00000000E+00  9.90553893E-02  9.19687972E-03  0.00000000E+00  0.00000000E+00
  1.03860459E-02 -1.00426167E-02  0.00000000E+00  0.00000000E+00  4.69570091E-04
  0.00000000E+00 -1.16145538E-02 -1.87840708E-02  0.00000000E+00  0.00000000E+00
 -1.92822852E-01  5.66191560E-02  0.00000000E+00  0.00000000E+00 -2.42043711E-01
  1.08228963E-01  0.00000000E+00  0.00000000E+00 -9.90553893E-02  9.19687972E-03
  0.00000000E+00  0.00000000E+00 -1.03860459E-02 -1.00426167E-02  0.00000000E+00
  0.00000000E+00  4.69570091E-04  0.00000000E+00  1.34067032E-01  1.92336489E-01
 -7.01663220E-03  0.00000000E+00  0.00000000E+00 -2.98550444E-02  1.34067032E-01
  1.92336489E-01 -7.01663220E-03  0.00000000E+00  0.00000000E+00  2.98550444E-02
  0.00000000E+00  0.00000000E+00  2.01162708E-01  0.00000000E+00  0.00000000E+00
  0.00000000E+00  3.26501441E-01  0.00000000E+00  0.00000000E+00  0.00000000E+00
  1.92186113E-01  0.00000000E+00  0.00000000E+00  0.00000000E+00 -7.61055525E-03
  0.00000000E+00  0.00000000E+00  0.00000000E+00 -3.50080946E-02  0.00000000E+00
  0.00000000E+00  0.00000000E+00  0.00000000E+00  0.00000000E+00  2.01162708E-01
  0.00000000E+00  0.00000000E+00  0.00000000E+00  3.26501441E-01  0.00000000E+00
  0.00000000E+00  0.00000000E+00  1.92186113E-01  0.00000000E+00  0.00000000E+00
  0.00000000E+00 -7.61055525E-03  0.00000000E+00  0.00000000E+00  0.00000000E+00
  3.50080946E-02  0.00000000E+00  0.00000000E+00  0.00000000E+00  0.00000000E+00
  0.00000000E+00  0.00000000E+00  1.20962117E-02  0.00000000E+00  0.00000000E+00
  0.00000000E+00  0.00000000E+00  0.00000000E+00  1.20962117E-02  0.00000000E+00
  0.00000000E+00  0.00000000E+00  0.00000000E+00  0.00000000E+00  2.00730327E-01
  0.00000000E+00  0.00000000E+00  0.00000000E+00  3.24606707E-01  0.00000000E+00
  0.00000000E+00  0.00000000E+00  1.93018772E-01  0.00000000E+00  0.00000000E+00
  0.00000000E+00 -4.32082139E-03  0.00000000E+00  0.00000000E+00  0.00000000E+00
 -3.33222083E-02  0.00000000E+00  0.00000000E+00  0.00000000E+00  0.00000000E+00
  0.00000000E+00  2.00730327E-01  0.00000000E+00  0.00000000E+00  0.00000000E+00
  3.24606707E-01  0.00000000E+00  0.00000000E+00  0.00000000E+00  1.93018772E-01
  0.00000000E+00  0.00000000E+00  0.00000000E+00 -4.32082139E-03  0.00000000E+00
  0.00000000E+00  0.00000000E+00  3.33222083E-02  0.00000000E+00  0.00000000E+00
  0.00000000E+00  0.00000000E+00  0.00000000E+00  0.00000000E+00  1.34587172E-02
  0.00000000E+00  0.00000000E+00  0.00000000E+00  0.00000000E+00  0.00000000E+00
  1.34587172E-02  0.00000000E+00  0.00000000E+00  0.00000000E+00  2.06272725E-01
  0.00000000E+00  0.00000000E+00  0.00000000E+00  3.45553016E-01  0.00000000E+00
  0.00000000E+00  0.00000000E+00  5.26448904E-01  0.00000000E+00  0.00000000E+00
  0.00000000E+00  2.28327199E-01  0.00000000E+00  0.00000000E+00  0.00000000E+00
  3.68802573E-02  0.00000000E+00  0.00000000E+00  0.00000000E+00  0.00000000E+00
  0.00000000E+00 -2.06272725E-01  0.00000000E+00  0.00000000E+00  0.00000000E+00
 -3.45553016E-01  0.00000000E+00  0.00000000E+00  0.00000000E+00 -5.26448904E-01
  0.00000000E+00  0.00000000E+00  0.00000000E+00 -2.28327199E-01  0.00000000E+00
  0.00000000E+00  0.00000000E+00  3.68802573E-02  0.00000000E+00  0.00000000E+00
  0.00000000E+00  0.00000000E+00  0.00000000E+00  0.00000000E+00  2.73954741E-02
  0.00000000E+00  0.00000000E+00  0.00000000E+00  0.00000000E+00  0.00000000E+00
 -2.73954741E-02  0.00000000E+00  0.00000000E+00  0.00000000E+00  0.00000000E+00
  0.00000000E+00  2.00957887E-01  0.00000000E+00  0.00000000E+00  0.00000000E+00
  3.29438286E-01  0.00000000E+00  0.00000000E+00  0.00000000E+00  5.38240790E-01
  0.00000000E+00  0.00000000E+00  0.00000000E+00  2.85779693E-01  0.00000000E+00
  0.00000000E+00  0.00000000E+00  3.94066805E-02  0.00000000E+00  0.00000000E+00
  0.00000000E+00  0.00000000E+00  0.00000000E+00 -2.00957887E-01  0.00000000E+00
  0.00000000E+00  0.00000000E+00 -3.29438286E-01  0.00000000E+00  0.00000000E+00
  0.00000000E+00 -5.38240790E-01  0.00000000E+00  0.00000000E+00  0.00000000E+00
 -2.85779693E-01  0.00000000E+00  0.00000000E+00  0.00000000E+00  3.94066805E-02
  0.00000000E+00  0.00000000E+00  0.00000000E+00  0.00000000E+00  0.00000000E+00
  0.00000000E+00  2.88514741E-02  0.00000000E+00  0.00000000E+00  0.00000000E+00
  0.00000000E+00  0.00000000E+00 -2.88514741E-02  0.00000000E+00 -4.58511981E-02
 -7.94221339E-02  0.00000000E+00  0.00000000E+00  2.38647674E-02  2.44710371E-01
  0.00000000E+00  0.00000000E+00  4.81645786E-02  8.91241519E-01  0.00000000E+00
  0.00000000E+00 -2.06786605E-02  9.25116750E+00  0.00000000E+00  0.00000000E+00
 -2.67566296E+00 -3.22193997E-02  0.00000000E+00  0.00000000E+00  4.15711138E-03
  0.00000000E+00  4.58511981E-02  7.94221339E-02  0.00000000E+00  0.00000000E+00
  2.38647674E-02 -2.44710371E-01  0.00000000E+00  0.00000000E+00  4.81645786E-02
 -8.91241519E-01  0.00000000E+00  0.00000000E+00 -2.06786605E-02 -9.25116750E+00
  0.00000000E+00  0.00000000E+00 -2.67566296E+00  3.22193997E-02  0.00000000E+00
  0.00000000E+00 -4.15711138E-03  0.00000000E+00 -5.85628827E-02 -2.14497911E-01
 -3.80720101E-01  0.00000000E+00  0.00000000E+00 -2.08590233E-02  5.85628827E-02
  2.14497911E-01  3.80720101E-01  0.00000000E+00  0.00000000E+00 -2.08590233E-02
  2.28462289E-02  3.98964940E-02  0.00000000E+00  0.00000000E+00 -2.89141520E-02
 -1.43981370E-01  0.00000000E+00  0.00000000E+00 -6.00781183E-02 -2.85161939E-01
  0.00000000E+00  0.00000000E+00 -5.44106281E-02  9.53295708E-01  0.00000000E+00
  0.00000000E+00  5.38309987E-01 -2.32829427E-02  0.00000000E+00  0.00000000E+00
  1.02589294E-03  0.00000000E+00  2.28462289E-02  3.98964940E-02  0.00000000E+00
  0.00000000E+00  2.89141520E-02 -1.43981370E-01  0.00000000E+00  0.00000000E+00
  6.00781183E-02 -2.85161939E-01  0.00000000E+00  0.00000000E+00  5.44106281E-02
  9.53295708E-01  0.00000000E+00  0.00000000E+00 -5.38309987E-01 -2.32829427E-02
  0.00000000E+00  0.00000000E+00  1.02589294E-03  0.00000000E+00 -2.86050925E-02
  2.38738129E-02 -3.10492190E-01  0.00000000E+00  0.00000000E+00  7.06166124E-03
 -2.86050925E-02  2.38738129E-02 -3.10492190E-01  0.00000000E+00  0.00000000E+00
 -7.06166124E-03  2.43468256E-05 -6.91698875E-04  0.00000000E+00  0.00000000E+00
 -1.02149479E-01  3.22143978E-02  0.00000000E+00  0.00000000E+00 -1.37873686E-01
 -2.80211201E-01  0.00000000E+00  0.00000000E+00 -2.27842503E-01 -2.23300348E-01
  0.00000000E+00  0.00000000E+00  9.12281375E-01  5.03558963E-02  0.00000000E+00
  0.00000000E+00 -3.87979858E-03  0.00000000E+00  2.43468256E-05 -6.91698875E-04
  0.00000000E+00  0.00000000E+00  1.02149479E-01  3.22143978E-02  0.00000000E+00
  0.00000000E+00  1.37873686E-01 -2.80211201E-01  0.00000000E+00  0.00000000E+00
  2.27842503E-01 -2.23300348E-01  0.00000000E+00  0.00000000E+00 -9.12281375E-01
  5.03558963E-02  0.00000000E+00  0.00000000E+00 -3.87979858E-03  0.00000000E+00
  5.87412440E-02  1.95890309E-01  6.27738173E-01  0.00000000E+00  0.00000000E+00
  2.72908384E-02  5.87412440E-02  1.95890309E-01  6.27738173E-01  0.00000000E+00
  0.00000000E+00 -2.72908384E-02  0.00000000E+00  0.00000000E+00 -6.69220988E-02
  0.00000000E+00  0.00000000E+00  0.00000000E+00 -7.85262794E-02  0.00000000E+00
  0.00000000E+00  0.00000000E+00 -1.77986123E-01  0.00000000E+00  0.00000000E+00
  0.00000000E+00  6.05413344E-01  0.00000000E+00  0.00000000E+00  0.00000000E+00
  2.00745494E-02  0.00000000E+00  0.00000000E+00  0.00000000E+00  0.00000000E+00
  0.00000000E+00 -6.69220988E-02  0.00000000E+00  0.00000000E+00  0.00000000E+00
 -7.85262794E-02  0.00000000E+00  0.00000000E+00  0.00000000E+00 -1.77986123E-01
  0.00000000E+00  0.00000000E+00  0.00000000E+00  6.05413344E-01  0.00000000E+00
  0.00000000E+00  0.00000000E+00 -2.00745494E-02  0.00000000E+00  0.00000000E+00
  0.00000000E+00  0.00000000E+00  0.00000000E+00  0.00000000E+00  8.53800080E-03
  0.00000000E+00  0.00000000E+00  0.00000000E+00  0.00000000E+00  0.00000000E+00
  8.53800080E-03  0.00000000E+00  0.00000000E+00  0.00000000E+00  0.00000000E+00
  0.00000000E+00 -6.67186608E-02  0.00000000E+00  0.00000000E+00  0.00000000E+00
 -8.59162702E-02  0.00000000E+00  0.00000000E+00  0.00000000E+00 -1.74439276E-01
  0.00000000E+00  0.00000000E+00  0.00000000E+00  6.03520724E-01  0.00000000E+00
  0.00000000E+00  0.00000000E+00  1.92875767E-02  0.00000000E+00  0.00000000E+00
  0.00000000E+00  0.00000000E+00  0.00000000E+00 -6.67186608E-02  0.00000000E+00
  0.00000000E+00  0.00000000E+00 -8.59162702E-02  0.00000000E+00  0.00000000E+00
  0.00000000E+00 -1.74439276E-01  0.00000000E+00  0.00000000E+00  0.00000000E+00
  6.03520724E-01  0.00000000E+00  0.00000000E+00  0.00000000E+00 -1.92875767E-02
  0.00000000E+00  0.00000000E+00  0.00000000E+00  0.00000000E+00  0.00000000E+00
  0.00000000E+00  8.03041853E-03  0.00000000E+00  0.00000000E+00  0.00000000E+00
  0.00000000E+00  0.00000000E+00  8.03041853E-03  0.00000000E+00 -3.39058927E-02
 -5.79858226E-02  0.00000000E+00  0.00000000E+00 -2.54387088E-02  1.57950120E-01
  0.00000000E+00  0.00000000E+00 -2.97250110E-02  5.41217229E-01  0.00000000E+00
  0.00000000E+00  3.60666793E-01  3.86718624E+00  0.00000000E+00  0.00000000E+00
  2.52019479E-02 -6.78108976E-02  0.00000000E+00  0.00000000E+00  5.35286346E-03
  0.00000000E+00  3.39058927E-02  5.79858226E-02  0.00000000E+00  0.00000000E+00
 -2.54387088E-02 -1.57950120E-01  0.00000000E+00  0.00000000E+00 -2.97250110E-02
 -5.41217229E-01  0.00000000E+00  0.00000000E+00  3.60666793E-01 -3.86718624E+00
  0.00000000E+00  0.00000000E+00  2.52019479E-02  6.78108976E-02  0.00000000E+00
  0.00000000E+00 -5.35286346E-03  0.00000000E+00 -1.09504665E-01 -3.15016609E-01
 -1.51573420E+00  0.00000000E+00  0.00000000E+00 -6.91360901E-03  1.09504665E-01
  3.15016609E-01  1.51573420E+00  0.00000000E+00  0.00000000E+00 -6.91360901E-03
  0.00000000E+00  0.00000000E+00 -9.04880450E-02  0.00000000E+00  0.00000000E+00
  0.00000000E+00 -1.27791549E-01  0.00000000E+00  0.00000000E+00  0.00000000E+00
 -3.85459146E-01  0.00000000E+00  0.00000000E+00  0.00000000E+00  2.35560934E+00
  0.00000000E+00  0.00000000E+00  0.00000000E+00 -5.52606883E-03  0.00000000E+00
  0.00000000E+00  0.00000000E+00  0.00000000E+00  0.00000000E+00  9.04880450E-02
  0.00000000E+00  0.00000000E+00  0.00000000E+00  1.27791549E-01  0.00000000E+00
  0.00000000E+00  0.00000000E+00  3.85459146E-01  0.00000000E+00  0.00000000E+00
  0.00000000E+00 -2.35560934E+00  0.00000000E+00  0.00000000E+00  0.00000000E+00
 -5.52606883E-03  0.00000000E+00  0.00000000E+00  0.00000000E+00  0.00000000E+00
  0.00000000E+00  0.00000000E+00  6.87843341E-03  0.00000000E+00  0.00000000E+00
  0.00000000E+00  0.00000000E+00  0.00000000E+00 -6.87843341E-03  0.00000000E+00
  0.00000000E+00  0.00000000E+00  0.00000000E+00  0.00000000E+00 -9.53666074E-02
  0.00000000E+00  0.00000000E+00  0.00000000E+00 -1.37801035E-01  0.00000000E+00
  0.00000000E+00  0.00000000E+00 -4.04781860E-01  0.00000000E+00  0.00000000E+00
  0.00000000E+00  2.34959411E+00  0.00000000E+00  0.00000000E+00  0.00000000E+00
 -8.59389715E-03  0.00000000E+00  0.00000000E+00  0.00000000E+00  0.00000000E+00
  0.00000000E+00  9.53666074E-02  0.00000000E+00  0.00000000E+00  0.00000000E+00
  1.37801035E-01  0.00000000E+00  0.00000000E+00  0.00000000E+00  4.04781860E-01
  0.00000000E+00  0.00000000E+00  0.00000000E+00 -2.34959411E+00  0.00000000E+00
  0.00000000E+00  0.00000000E+00 -8.59389715E-03  0.00000000E+00  0.00000000E+00
  0.00000000E+00  0.00000000E+00  0.00000000E+00  0.00000000E+00  4.87821714E-03