 Entering Gaussian System, Link 0=g16
 Initial command:
 /home/szhao/Apps/g16/l1.exe "/home/szhao/tmp/Gau-145636.inp" -scrdir="/home/szhao/tmp/"
 Default is to use a total of  16 processors:
                               16 via shared-memory
                                1 via Linda
 Entering Link 1 = /home/szhao/Apps/g16/l1.exe PID=    145732.
  
 Copyright (c) 1988,1990,1992,1993,1995,1998,2003,2009,2016,
            Gaussian, Inc.  All Rights Reserved.
  
 This is part of the Gaussian(R) 16 program.  It is based on
 the Gaussian(R) 09 system (copyright 2009, Gaussian, Inc.),
 the Gaussian(R) 03 system (copyright 2003, Gaussian, Inc.),
 the Gaussian(R) 98 system (copyright 1998, Gaussian, Inc.),
 the Gaussian(R) 94 system (copyright 1995, Gaussian, Inc.),
 the Gaussian 92(TM) system (copyright 1992, Gaussian, Inc.),
 the Gaussian 90(TM) system (copyright 1990, Gaussian, Inc.),
 the Gaussian 88(TM) system (copyright 1988, Gaussian, Inc.),
 the Gaussian 86(TM) system (copyright 1986, Carnegie Mellon
 University), and the Gaussian 82(TM) system (copyright 1983,
 Carnegie Mellon University). Gaussian is a federally registered
 trademark of Gaussian, Inc.
  
 This software contains proprietary and confidential information,
 including trade secrets, belonging to Gaussian, Inc.
  
 This software is provided under written license and may be
 used, copied, transmitted, or stored only in accord with that
 written license.
  
 The following legend is applicable only to US Government
 contracts under FAR:
  
                    RESTRICTED RIGHTS LEGEND
  
 Use, reproduction and disclosure by the US Government is
 subject to restrictions as set forth in subparagraphs (a)
 and (c) of the Commercial Computer Software - Restricted
 Rights clause in FAR 52.227-19.
  
 Gaussian, Inc.
 340 Quinnipiac St., Bldg. 40, Wallingford CT 06492
  
  
 ---------------------------------------------------------------
 Warning -- This program may not be used in any manner that
 competes with the business of Gaussian, Inc. or will provide
 assistance to any competitor of Gaussian, Inc.  The licensee
 of this program is prohibited from giving any competitor of
 Gaussian, Inc. access to this program.  By using this program,
 the user acknowledges that Gaussian, Inc. is engaged in the
 business of creating and licensing software in the field of
 computational chemistry and represents and warrants to the
 licensee that it is not a competitor of Gaussian, Inc. and that
 it will not use this program in any manner prohibited above.
 ---------------------------------------------------------------
  

 Cite this work as:
 Gaussian 16, Revision A.03,
 M. J. Frisch, G. W. Trucks, H. B. Schlegel, G. E. Scuseria, 
 M. A. Robb, J. R. Cheeseman, G. Scalmani, V. Barone, 
 G. A. Petersson, H. Nakatsuji, X. Li, M. Caricato, A. V. Marenich, 
 J. Bloino, B. G. Janesko, R. Gomperts, B. Mennucci, H. P. Hratchian, 
 J. V. Ortiz, A. F. Izmaylov, J. L. Sonnenberg, D. Williams-Young, 
 F. Ding, F. Lipparini, F. Egidi, J. Goings, B. Peng, A. Petrone, 
 T. Henderson, D. Ranasinghe, V. G. Zakrzewski, J. Gao, N. Rega, 
 G. Zheng, W. Liang, M. Hada, M. Ehara, K. Toyota, R. Fukuda, 
 J. Hasegawa, M. Ishida, T. Nakajima, Y. Honda, O. Kitao, H. Nakai, 
 T. Vreven, K. Throssell, J. A. Montgomery, Jr., J. E. Peralta, 
 F. Ogliaro, M. J. Bearpark, J. J. Heyd, E. N. Brothers, K. N. Kudin, 
 V. N. Staroverov, T. A. Keith, R. Kobayashi, J. Normand, 
 K. Raghavachari, A. P. Rendell, J. C. Burant, S. S. Iyengar, 
 J. Tomasi, M. Cossi, J. M. Millam, M. Klene, C. Adamo, R. Cammi, 
 J. W. Ochterski, R. L. Martin, K. Morokuma, O. Farkas, 
 J. B. Foresman, and D. J. Fox, Gaussian, Inc., Wallingford CT, 2016.
 
 ******************************************
 Gaussian 16:  ES64L-G16RevA.03 25-Dec-2016
                21-Apr-2025 
 ******************************************
 %chk=force.chk
 %mem=4GB
 %nprocshared=8
 Will use up to    8 processors via shared memory.
 ---------------------------------------------------
 #p UM062X/6-311+G** force int=superfine pop=saveNBO
 ---------------------------------------------------
 1/10=7,30=1,38=1/1,3;
 2/12=2,17=6,18=5,40=1/2;
 3/5=4,6=6,7=111,11=2,25=1,30=1,71=1,74=-55,75=-7,116=2/1,2,3;
 4//1;
 5/5=2,38=5/2;
 6/7=2,8=2,9=2,10=2,28=1,40=1,73=1/1,7;
 7/29=1/1,2,3,16;
 1/10=7,30=1/3;
 99//99;
 Leave Link    1 at Mon Apr 21 20:08:26 2025, MaxMem=   536870912 cpu:               4.5 elap:               0.3
 (Enter /home/szhao/Apps/g16/l101.exe)
 -------------------
 Title Card Required
 -------------------
 Symbolic Z-matrix:
 Charge =  0 Multiplicity = 1
 S                    -1.1252    0.        0. 
 S                     1.1252    0.        0. 
 
 ITRead=  0  0
 MicOpt= -1 -1
 NAtoms=      2 NQM=        2 NQMF=       0 NMMI=      0 NMMIF=      0
                NMic=       0 NMicF=      0.
                    Isotopes and Nuclear Properties:
 (Nuclear quadrupole moments (NQMom) in fm**2, nuclear magnetic moments (NMagM)
  in nuclear magnetons)

  Atom         1           2
 IAtWgt=          32          32
 AtmWgt=  31.9720718  31.9720718
 NucSpn=           0           0
 AtZEff=  -0.0000000  -0.0000000
 NQMom=    0.0000000   0.0000000
 NMagM=    0.0000000   0.0000000
 AtZNuc=  16.0000000  16.0000000
 Leave Link  101 at Mon Apr 21 20:08:27 2025, MaxMem=   536870912 cpu:               2.1 elap:               0.3
 (Enter /home/szhao/Apps/g16/l103.exe)

 GradGradGradGradGradGradGradGradGradGradGradGradGradGradGradGradGradGrad
 Berny optimization.
 Initialization pass.
 Trust Radius=3.00D-01 FncErr=1.00D-07 GrdErr=1.00D-07 EigMax=2.50D+02 EigMin=1.00D-04
 Number of steps in this run=      2 maximum allowed number of steps=      2.
 GradGradGradGradGradGradGradGradGradGradGradGradGradGradGradGradGradGrad

 Leave Link  103 at Mon Apr 21 20:08:28 2025, MaxMem=   536870912 cpu:               0.7 elap:               0.6
 (Enter /home/szhao/Apps/g16/l202.exe)
                          Input orientation:                          
 ---------------------------------------------------------------------
 Center     Atomic      Atomic             Coordinates (Angstroms)
 Number     Number       Type             X           Y           Z
 ---------------------------------------------------------------------
      1         16           0       -1.125200    0.000000    0.000000
      2         16           0        1.125200    0.000000    0.000000
 ---------------------------------------------------------------------
 Stoichiometry    S2
 Framework group  D*H[C*(S.S)]
 Deg. of freedom     1
 Full point group                 D*H     NOp   8
 Largest Abelian subgroup         D2H     NOp   8
 Largest concise Abelian subgroup C2      NOp   2
                         Standard orientation:                         
 ---------------------------------------------------------------------
 Center     Atomic      Atomic             Coordinates (Angstroms)
 Number     Number       Type             X           Y           Z
 ---------------------------------------------------------------------
      1         16           0        0.000000    0.000000    1.125200
      2         16           0        0.000000    0.000000   -1.125200
 ---------------------------------------------------------------------
 Rotational constants (GHZ):           0.0000000           6.2424774           6.2424774
 Leave Link  202 at Mon Apr 21 20:08:28 2025, MaxMem=   536870912 cpu:               0.6 elap:               0.4
 (Enter /home/szhao/Apps/g16/l301.exe)
 Standard basis: 6-311+G(d,p) (5D, 7F)
 Ernie: Thresh=  0.10000D-02 Tol=  0.10000D-05 Strict=F.
 There are    16 symmetry adapted cartesian basis functions of AG  symmetry.
 There are     1 symmetry adapted cartesian basis functions of B1G symmetry.
 There are     7 symmetry adapted cartesian basis functions of B2G symmetry.
 There are     7 symmetry adapted cartesian basis functions of B3G symmetry.
 There are     1 symmetry adapted cartesian basis functions of AU  symmetry.
 There are    16 symmetry adapted cartesian basis functions of B1U symmetry.
 There are     7 symmetry adapted cartesian basis functions of B2U symmetry.
 There are     7 symmetry adapted cartesian basis functions of B3U symmetry.
 There are    15 symmetry adapted basis functions of AG  symmetry.
 There are     1 symmetry adapted basis functions of B1G symmetry.
 There are     7 symmetry adapted basis functions of B2G symmetry.
 There are     7 symmetry adapted basis functions of B3G symmetry.
 There are     1 symmetry adapted basis functions of AU  symmetry.
 There are    15 symmetry adapted basis functions of B1U symmetry.
 There are     7 symmetry adapted basis functions of B2U symmetry.
 There are     7 symmetry adapted basis functions of B3U symmetry.
    60 basis functions,   100 primitive gaussians,    62 cartesian basis functions
    16 alpha electrons       16 beta electrons
       nuclear repulsion energy        60.1979052593 Hartrees.
 IExCor= 4336 DFT=T Ex+Corr=M062X ExCW=0 ScaHFX=  0.540000
 ScaDFX=  1.000000  1.000000  1.000000  1.000000 ScalE2=  1.000000  1.000000
 IRadAn=      7 IRanWt=     -1 IRanGd=            0 ICorTp=0 IEmpDi=  4
 NAtoms=    2 NActive=    2 NUniq=    1 SFac= 4.00D+00 NAtFMM=   60 NAOKFM=F Big=F
 Integral buffers will be    131072 words long.
 Raffenetti 2 integral format.
 Two-electron integral symmetry is turned on.
 Leave Link  301 at Mon Apr 21 20:08:29 2025, MaxMem=   536870912 cpu:               1.6 elap:               0.5
 (Enter /home/szhao/Apps/g16/l302.exe)
 NPDir=0 NMtPBC=     1 NCelOv=     1 NCel=       1 NClECP=     1 NCelD=      1
         NCelK=      1 NCelE2=     1 NClLst=     1 CellRange=     0.0.
 One-electron integrals computed using PRISM.
 One-electron integral symmetry used in STVInt
 NBasis=    60 RedAO= T EigKep=  3.29D-03  NBF=    15     1     7     7     1    15     7     7
 NBsUse=    60 1.00D-06 EigRej= -1.00D+00 NBFU=    15     1     7     7     1    15     7     7
 Precomputing XC quadrature grid using
 IXCGrd= 4 IRadAn=           7 IRanWt=          -1 IRanGd=           0 AccXCQ= 0.00D+00.
 Generated NRdTot=       0 NPtTot=           0 NUsed=           0 NTot=          32
 NSgBfM=    56    56    56    56    56 MxSgAt=     2 MxSgA2=     2.
 Leave Link  302 at Mon Apr 21 20:08:31 2025, MaxMem=   536870912 cpu:               1.9 elap:               0.7
 (Enter /home/szhao/Apps/g16/l303.exe)
 DipDrv:  MaxL=1.
 Leave Link  303 at Mon Apr 21 20:08:32 2025, MaxMem=   536870912 cpu:               0.7 elap:               0.4
 (Enter /home/szhao/Apps/g16/l401.exe)
 ExpMin= 4.05D-02 ExpMax= 9.34D+04 ExpMxC= 3.17D+03 IAcc=3 IRadAn=         7 AccDes= 0.00D+00
 Harris functional with IExCor= 1009 and IRadAn=       7 diagonalized for initial guess.
 HarFok:  IExCor= 1009 AccDes= 0.00D+00 IRadAn=         7 IDoV= 1 UseB2=F ITyADJ=14
 ICtDFT=  3500011 ScaDFX=  1.000000  1.000000  1.000000  1.000000
 FoFCou: FMM=F IPFlag=           0 FMFlag=      100000 FMFlg1=           0
         NFxFlg=           0 DoJE=T BraDBF=F KetDBF=T FulRan=T
         wScrn=  0.000000 ICntrl=       500 IOpCl=  0 I1Cent=   200000004 NGrid=           0
         NMat0=    1 NMatS0=      1 NMatT0=    0 NMatD0=    1 NMtDS0=    0 NMtDT0=    0
 Petite list used in FoFCou.
 Harris En= -795.909937935510    
 JPrj=0 DoOrth=F DoCkMO=F.
 Initial guess orbital symmetries:
 Alpha Orbitals:
       Occupied  (SGU) (SGG) (SGU) (SGG) (SGG) (SGU) (PIU) (PIU)
                 (PIG) (PIG) (SGG) (SGU) (SGG) (PIU) (PIU) (PIG)
       Virtual   (PIG) (SGU) (SGG) (SGU) (PIU) (PIU) (SGG) (PIG)
                 (PIG) (SGU) (SGU) (SGG) (PIU) (PIU) (PIG) (PIG)
                 (SGG) (PIU) (PIU) (SGU) (SGG) (DLTG) (DLTG) (DLTU)
                 (DLTU) (PIG) (PIG) (SGU) (PIU) (PIU) (PIG) (PIG)
                 (SGG) (SGU) (SGG) (SGU) (PIU) (PIU) (PIG) (PIG)
                 (SGU) (SGG) (SGG) (SGU)
 Beta  Orbitals:
       Occupied  (SGU) (SGG) (SGU) (SGG) (SGG) (SGU) (PIU) (PIU)
                 (PIG) (PIG) (SGG) (SGU) (SGG) (PIU) (PIU) (PIG)
       Virtual   (PIG) (SGU) (SGG) (SGU) (PIU) (PIU) (SGG) (PIG)
                 (PIG) (SGU) (SGU) (SGG) (PIU) (PIU) (PIG) (PIG)
                 (SGG) (PIU) (PIU) (SGU) (SGG) (DLTG) (DLTG) (DLTU)
                 (DLTU) (PIG) (PIG) (SGU) (PIU) (PIU) (PIG) (PIG)
                 (SGG) (SGU) (SGG) (SGU) (PIU) (PIU) (PIG) (PIG)
                 (SGU) (SGG) (SGG) (SGU)
 Initial guess <Sx>= 0.0000 <Sy>= 0.0000 <Sz>= 0.0000 <S**2>= 0.0000 S= 0.0000
 Leave Link  401 at Mon Apr 21 20:08:33 2025, MaxMem=   536870912 cpu:               2.2 elap:               0.8
 (Enter /home/szhao/Apps/g16/l502.exe)
 Keep R1 and R2 ints in memory in symmetry-blocked form, NReq=8792365.
 FoFCou: FMM=F IPFlag=           0 FMFlag=           0 FMFlg1=           0
         NFxFlg=           0 DoJE=F BraDBF=F KetDBF=F FulRan=T
         wScrn=  0.000000 ICntrl=       600 IOpCl=  0 I1Cent=           0 NGrid=           0
         NMat0=    1 NMatS0=   1830 NMatT0=    0 NMatD0=    1 NMtDS0=    0 NMtDT0=    0
 Petite list used in FoFCou.
 UHF open shell SCF:
 Using DIIS extrapolation, IDIIS=  1040.
 NGot=   536870912 LenX=   536388430 LenY=   536384145
 Requested convergence on RMS density matrix=1.00D-08 within 128 cycles.
 Requested convergence on MAX density matrix=1.00D-06.
 Requested convergence on             energy=1.00D-06.
 No special actions if energy rises.

 Cycle   1  Pass 1  IDiag  1:
 E= -796.250736970151    
 DIIS: error= 3.17D-02 at cycle   1 NSaved=   1.
 NSaved= 1 IEnMin= 1 EnMin= -796.250736970151     IErMin= 1 ErrMin= 3.17D-02
 ErrMax= 3.17D-02  0.00D+00 EMaxC= 1.00D-01 BMatC= 2.88D-01 BMatP= 2.88D-01
 IDIUse=3 WtCom= 6.83D-01 WtEn= 3.17D-01
 Coeff-Com:  0.100D+01
 Coeff-En:   0.100D+01
 Coeff:      0.100D+01
 Gap=     0.120 Goal=   None    Shift=    0.000
 Gap=     0.120 Goal=   None    Shift=    0.000
 GapD=    0.120 DampG=1.000 DampE=0.500 DampFc=0.5000 IDamp=-1.
 Damping current iteration by 5.00D-01
 RMSDP=3.42D-03 MaxDP=6.39D-02              OVMax= 3.02D-02

 Cycle   2  Pass 1  IDiag  1:
 E= -796.258266992032     Delta-E=       -0.007530021881 Rises=F Damp=T
 DIIS: error= 1.09D-02 at cycle   2 NSaved=   2.
 NSaved= 2 IEnMin= 2 EnMin= -796.258266992032     IErMin= 2 ErrMin= 1.09D-02
 ErrMax= 1.09D-02  0.00D+00 EMaxC= 1.00D-01 BMatC= 4.09D-02 BMatP= 2.88D-01
 IDIUse=3 WtCom= 8.91D-01 WtEn= 1.09D-01
 Coeff-Com: -0.535D+00 0.153D+01
 Coeff-En:   0.000D+00 0.100D+01
 Coeff:     -0.477D+00 0.148D+01
 Gap=     0.123 Goal=   None    Shift=    0.000
 Gap=     0.123 Goal=   None    Shift=    0.000
 RMSDP=1.26D-03 MaxDP=1.71D-02 DE=-7.53D-03 OVMax= 1.37D-02

 Cycle   3  Pass 1  IDiag  1:
 E= -796.264903374497     Delta-E=       -0.006636382465 Rises=F Damp=F
 DIIS: error= 1.09D-03 at cycle   3 NSaved=   3.
 NSaved= 3 IEnMin= 3 EnMin= -796.264903374497     IErMin= 3 ErrMin= 1.09D-03
 ErrMax= 1.09D-03  0.00D+00 EMaxC= 1.00D-01 BMatC= 2.17D-04 BMatP= 4.09D-02
 IDIUse=3 WtCom= 9.89D-01 WtEn= 1.09D-02
 Coeff-Com: -0.549D-01 0.119D+00 0.936D+00
 Coeff-En:   0.000D+00 0.000D+00 0.100D+01
 Coeff:     -0.543D-01 0.118D+00 0.937D+00
 Gap=     0.124 Goal=   None    Shift=    0.000
 Gap=     0.124 Goal=   None    Shift=    0.000
 RMSDP=1.78D-04 MaxDP=3.34D-03 DE=-6.64D-03 OVMax= 3.18D-03

 Cycle   4  Pass 1  IDiag  1:
 E= -796.264951416514     Delta-E=       -0.000048042017 Rises=F Damp=F
 DIIS: error= 3.53D-04 at cycle   4 NSaved=   4.
 NSaved= 4 IEnMin= 4 EnMin= -796.264951416514     IErMin= 4 ErrMin= 3.53D-04
 ErrMax= 3.53D-04  0.00D+00 EMaxC= 1.00D-01 BMatC= 2.75D-05 BMatP= 2.17D-04
 IDIUse=3 WtCom= 9.96D-01 WtEn= 3.53D-03
 Coeff-Com: -0.168D-03-0.453D-02 0.269D+00 0.736D+00
 Coeff-En:   0.000D+00 0.000D+00 0.000D+00 0.100D+01
 Coeff:     -0.167D-03-0.451D-02 0.268D+00 0.737D+00
 Gap=     0.124 Goal=   None    Shift=    0.000
 Gap=     0.124 Goal=   None    Shift=    0.000
 RMSDP=4.95D-05 MaxDP=7.64D-04 DE=-4.80D-05 OVMax= 1.26D-03

 Cycle   5  Pass 1  IDiag  1:
 E= -796.264959486697     Delta-E=       -0.000008070183 Rises=F Damp=F
 DIIS: error= 5.68D-05 at cycle   5 NSaved=   5.
 NSaved= 5 IEnMin= 5 EnMin= -796.264959486697     IErMin= 5 ErrMin= 5.68D-05
 ErrMax= 5.68D-05  0.00D+00 EMaxC= 1.00D-01 BMatC= 3.43D-07 BMatP= 2.75D-05
 IDIUse=1 WtCom= 1.00D+00 WtEn= 0.00D+00
 Coeff-Com:  0.168D-02-0.345D-02-0.371D-01 0.686D-02 0.103D+01
 Coeff:      0.168D-02-0.345D-02-0.371D-01 0.686D-02 0.103D+01
 Gap=     0.124 Goal=   None    Shift=    0.000
 Gap=     0.124 Goal=   None    Shift=    0.000
 RMSDP=6.01D-06 MaxDP=6.63D-05 DE=-8.07D-06 OVMax= 1.50D-04

 Cycle   6  Pass 1  IDiag  1:
 E= -796.264959596896     Delta-E=       -0.000000110199 Rises=F Damp=F
 DIIS: error= 1.06D-05 at cycle   6 NSaved=   6.
 NSaved= 6 IEnMin= 6 EnMin= -796.264959596896     IErMin= 6 ErrMin= 1.06D-05
 ErrMax= 1.06D-05  0.00D+00 EMaxC= 1.00D-01 BMatC= 1.50D-08 BMatP= 3.43D-07
 IDIUse=1 WtCom= 1.00D+00 WtEn= 0.00D+00
 Coeff-Com: -0.186D-03 0.574D-03-0.159D-01-0.258D-01 0.137D+00 0.904D+00
 Coeff:     -0.186D-03 0.574D-03-0.159D-01-0.258D-01 0.137D+00 0.904D+00
 Gap=     0.124 Goal=   None    Shift=    0.000
 Gap=     0.124 Goal=   None    Shift=    0.000
 RMSDP=1.50D-06 MaxDP=1.95D-05 DE=-1.10D-07 OVMax= 2.47D-05

 Cycle   7  Pass 1  IDiag  1:
 E= -796.264959600902     Delta-E=       -0.000000004006 Rises=F Damp=F
 DIIS: error= 5.08D-07 at cycle   7 NSaved=   7.
 NSaved= 7 IEnMin= 7 EnMin= -796.264959600902     IErMin= 7 ErrMin= 5.08D-07
 ErrMax= 5.08D-07  0.00D+00 EMaxC= 1.00D-01 BMatC= 6.16D-11 BMatP= 1.50D-08
 IDIUse=1 WtCom= 1.00D+00 WtEn= 0.00D+00
 Coeff-Com:  0.290D-04-0.692D-04 0.119D-02 0.174D-02-0.191D-01-0.456D-01
 Coeff-Com:  0.106D+01
 Coeff:      0.290D-04-0.692D-04 0.119D-02 0.174D-02-0.191D-01-0.456D-01
 Coeff:      0.106D+01
 Gap=     0.124 Goal=   None    Shift=    0.000
 Gap=     0.124 Goal=   None    Shift=    0.000
 RMSDP=1.49D-07 MaxDP=2.92D-06 DE=-4.01D-09 OVMax= 2.46D-06

 Cycle   8  Pass 1  IDiag  1:
 E= -796.264959600921     Delta-E=       -0.000000000019 Rises=F Damp=F
 DIIS: error= 6.24D-08 at cycle   8 NSaved=   8.
 NSaved= 8 IEnMin= 8 EnMin= -796.264959600921     IErMin= 8 ErrMin= 6.24D-08
 ErrMax= 6.24D-08  0.00D+00 EMaxC= 1.00D-01 BMatC= 3.64D-13 BMatP= 6.16D-11
 IDIUse=1 WtCom= 1.00D+00 WtEn= 0.00D+00
 Coeff-Com: -0.105D-05 0.125D-05 0.675D-04 0.590D-04-0.686D-03-0.293D-02
 Coeff-Com: -0.114D-01 0.101D+01
 Coeff:     -0.105D-05 0.125D-05 0.675D-04 0.590D-04-0.686D-03-0.293D-02
 Coeff:     -0.114D-01 0.101D+01
 Gap=     0.124 Goal=   None    Shift=    0.000
 Gap=     0.124 Goal=   None    Shift=    0.000
 RMSDP=2.13D-08 MaxDP=2.05D-07 DE=-1.88D-11 OVMax= 2.82D-07

 Cycle   9  Pass 1  IDiag  1:
 E= -796.264959600921     Delta-E=       -0.000000000000 Rises=F Damp=F
 DIIS: error= 1.03D-08 at cycle   9 NSaved=   9.
 NSaved= 9 IEnMin= 9 EnMin= -796.264959600921     IErMin= 9 ErrMin= 1.03D-08
 ErrMax= 1.03D-08  0.00D+00 EMaxC= 1.00D-01 BMatC= 1.04D-14 BMatP= 3.64D-13
 IDIUse=1 WtCom= 1.00D+00 WtEn= 0.00D+00
 Coeff-Com: -0.474D-06 0.959D-06-0.168D-05-0.108D-04 0.168D-03-0.631D-05
 Coeff-Com: -0.183D-01 0.654D-01 0.953D+00
 Coeff:     -0.474D-06 0.959D-06-0.168D-05-0.108D-04 0.168D-03-0.631D-05
 Coeff:     -0.183D-01 0.654D-01 0.953D+00
 Gap=     0.124 Goal=   None    Shift=    0.000
 Gap=     0.124 Goal=   None    Shift=    0.000
 RMSDP=3.09D-09 MaxDP=3.54D-08 DE=-2.27D-13 OVMax= 5.69D-08

 SCF Done:  E(UM062X) =  -796.264959601     A.U. after    9 cycles
            NFock=  9  Conv=0.31D-08     -V/T= 2.0016
 <Sx>= 0.0000 <Sy>= 0.0000 <Sz>= 0.0000 <S**2>=-0.0000 S=-0.0000
 <L.S>=  0.00000000000    
 KE= 7.949983029834D+02 PE=-2.013898408517D+03 EE= 3.624372406736D+02
 Annihilation of the first spin contaminant:
 S**2 before annihilation    -0.0000,   after     0.0000
 Leave Link  502 at Mon Apr 21 20:08:34 2025, MaxMem=   536870912 cpu:               8.8 elap:               1.2
 (Enter /home/szhao/Apps/g16/l601.exe)
 Copying SCF densities to generalized density rwf, IOpCl= 1 IROHF=0.

 **********************************************************************

            Population analysis using the SCF density.

 **********************************************************************

 Orbital symmetries:
 Alpha Orbitals:
       Occupied  (SGG) (SGU) (SGG) (SGU) (PIU) (PIG) (SGG) (SGU)
                 (PIU) (PIG) (SGG) (SGU) (SGG) (PIU) (PIU) (PIG)
       Virtual   (PIG) (SGU) (SGG) (SGU) (PIU) (PIU) (SGG) (PIG)
                 (PIG) (SGU) (SGG) (SGU) (PIU) (PIU) (PIG) (PIG)
                 (SGG) (?A) (PIU) (?B) (PIU) (?B) (?B) (?A) (?A)
                 (PIG) (PIG) (?A) (PIU) (PIU) (SGG) (PIG) (PIG)
                 (SGU) (SGG) (SGU) (PIU) (PIU) (PIG) (PIG) (SGU)
                 (SGG) (SGG) (SGU)
 Beta  Orbitals:
       Occupied  (SGG) (SGU) (SGG) (SGU) (PIU) (PIG) (SGG) (SGU)
                 (PIU) (PIG) (SGG) (SGU) (SGG) (PIU) (PIU) (PIG)
       Virtual   (PIG) (SGU) (SGG) (SGU) (PIU) (PIU) (SGG) (PIG)
                 (PIG) (SGU) (SGG) (SGU) (PIU) (PIU) (PIG) (PIG)
                 (SGG) (?A) (PIU) (?B) (PIU) (?B) (?B) (?A) (?A)
                 (PIG) (PIG) (?A) (PIU) (PIU) (SGG) (PIG) (PIG)
                 (SGU) (SGG) (SGU) (PIU) (PIU) (PIG) (PIG) (SGU)
                 (SGG) (SGG) (SGU)
 Unable to determine electronic state:  partially filled degenerate orbitals.
 Alpha  occ. eigenvalues --  -89.97697 -89.97697  -8.33535  -8.33530  -6.25615
 Alpha  occ. eigenvalues --   -6.25615  -6.25532  -6.25521  -6.24753  -6.24752
 Alpha  occ. eigenvalues --   -0.85513  -0.72411  -0.42616  -0.38550  -0.37326
 Alpha  occ. eigenvalues --   -0.30306
 Alpha virt. eigenvalues --   -0.17927  -0.06172   0.03157   0.04504   0.04778
 Alpha virt. eigenvalues --    0.05480   0.07188   0.07592   0.08154   0.14660
 Alpha virt. eigenvalues --    0.31853   0.32230   0.33069   0.34224   0.36060
 Alpha virt. eigenvalues --    0.36781   0.60718   0.68438   0.70336   0.71802
 Alpha virt. eigenvalues --    0.72269   0.78525   0.78689   0.80242   0.80659
 Alpha virt. eigenvalues --    0.86639   0.88721   1.08886   1.61490   1.62359
 Alpha virt. eigenvalues --    1.68748   1.68977   1.69867   1.83475   7.72008
 Alpha virt. eigenvalues --    7.82299  17.39128  17.39193  17.43782  17.43821
 Alpha virt. eigenvalues --   17.46000  17.49074 188.97306 189.09184
  Beta  occ. eigenvalues --  -89.97697 -89.97697  -8.33535  -8.33530  -6.25615
  Beta  occ. eigenvalues --   -6.25615  -6.25532  -6.25521  -6.24753  -6.24752
  Beta  occ. eigenvalues --   -0.85513  -0.72411  -0.42616  -0.38550  -0.37326
  Beta  occ. eigenvalues --   -0.30306
  Beta virt. eigenvalues --   -0.17927  -0.06172   0.03157   0.04504   0.04778
  Beta virt. eigenvalues --    0.05480   0.07188   0.07592   0.08154   0.14660
  Beta virt. eigenvalues --    0.31853   0.32230   0.33069   0.34224   0.36060
  Beta virt. eigenvalues --    0.36781   0.60718   0.68438   0.70336   0.71802
  Beta virt. eigenvalues --    0.72269   0.78525   0.78689   0.80242   0.80659
  Beta virt. eigenvalues --    0.86639   0.88721   1.08886   1.61490   1.62359
  Beta virt. eigenvalues --    1.68748   1.68977   1.69867   1.83475   7.72008
  Beta virt. eigenvalues --    7.82299  17.39128  17.39193  17.43782  17.43821
  Beta virt. eigenvalues --   17.46000  17.49074 188.97306 189.09184
          Condensed to atoms (all electrons):
               1          2
     1  S   15.728482   0.271518
     2  S    0.271518  15.728482
          Atomic-Atomic Spin Densities.
               1          2
     1  S    0.000000  -0.000000
     2  S   -0.000000   0.000000
 Mulliken charges and spin densities:
               1          2
     1  S   -0.000000   0.000000
     2  S   -0.000000   0.000000
 Sum of Mulliken charges =  -0.00000   0.00000
 Mulliken charges and spin densities with hydrogens summed into heavy atoms:
               1          2
     1  S   -0.000000   0.000000
     2  S   -0.000000   0.000000
 Electronic spatial extent (au):  <R**2>=            202.8858
 Charge=             -0.0000 electrons
 Dipole moment (field-independent basis, Debye):
    X=             -0.0000    Y=              0.0000    Z=             -0.0000  Tot=              0.0000
 Quadrupole moment (field-independent basis, Debye-Ang):
   XX=            -29.5195   YY=            -24.5273   ZZ=            -24.2426
   XY=              0.0000   XZ=              0.0000   YZ=              0.0000
 Traceless Quadrupole moment (field-independent basis, Debye-Ang):
   XX=             -3.4230   YY=              1.5691   ZZ=              1.8539
   XY=              0.0000   XZ=              0.0000   YZ=              0.0000
 Octapole moment (field-independent basis, Debye-Ang**2):
  XXX=             -0.0000  YYY=              0.0000  ZZZ=             -0.0000  XYY=             -0.0000
  XXY=              0.0000  XXZ=             -0.0000  XZZ=             -0.0000  YZZ=              0.0000
  YYZ=              0.0000  XYZ=              0.0000
 Hexadecapole moment (field-independent basis, Debye-Ang**3):
 XXXX=            -44.3364 YYYY=            -32.8298 ZZZZ=           -212.9313 XXXY=              0.0000
 XXXZ=              0.0000 YYYX=              0.0000 YYYZ=              0.0000 ZZZX=              0.0000
 ZZZY=              0.0000 XXYY=            -12.8609 XXZZ=            -51.2794 YYZZ=            -40.8160
 XXYZ=              0.0000 YYXZ=              0.0000 ZZXY=              0.0000
 N-N= 6.019790525930D+01 E-N=-2.013898408170D+03  KE= 7.949983029834D+02
 Symmetry AG   KE= 3.228604472322D+02
 Symmetry B1G  KE= 3.272285840436D-35
 Symmetry B2G  KE= 3.949984232050D+01
 Symmetry B3G  KE= 3.532487933421D+01
 Symmetry AU   KE= 6.442219874924D-35
 Symmetry B1U  KE= 3.198612906842D+02
 Symmetry B2U  KE= 3.858818581031D+01
 Symmetry B3U  KE= 3.886365760204D+01
 Symmetry AG   SP= 8.914913457148D-15
 Symmetry B1G  SP=-3.274244508489D-49
 Symmetry B2G  SP=-2.867415458873D-17
 Symmetry B3G  SP= 3.275331079419D-15
 Symmetry AU   SP=-1.130011225461D-49
 Symmetry B1U  SP= 6.726720175085D-15
 Symmetry B2U  SP=-9.529676452018D-16
 Symmetry B3U  SP=-6.365560945950D-15
                          Isotropic Fermi Contact Couplings
        Atom                 a.u.       MegaHertz       Gauss      10(-4) cm-1
     1  S(33)              0.00000       0.00000       0.00000       0.00000
     2  S(33)              0.00000       0.00000       0.00000       0.00000
 --------------------------------------------------------
       Center         ----  Spin Dipole Couplings  ----
                      3XX-RR        3YY-RR        3ZZ-RR
 --------------------------------------------------------
     1   Atom        0.000000      0.000000      0.000000
     2   Atom        0.000000      0.000000      0.000000
 --------------------------------------------------------
                        XY            XZ            YZ
 --------------------------------------------------------
     1   Atom        0.000000      0.000000      0.000000
     2   Atom        0.000000      0.000000      0.000000
 --------------------------------------------------------


 ---------------------------------------------------------------------------------
              Anisotropic Spin Dipole Couplings in Principal Axis System
 ---------------------------------------------------------------------------------

       Atom             a.u.   MegaHertz   Gauss  10(-4) cm-1        Axes

              Baa     0.0000     0.000     0.000     0.000  1.0000  0.0000  0.0000
     1 S(33)  Bbb     0.0000     0.000     0.000     0.000 -0.0000  1.0000  0.0000
              Bcc     0.0000     0.000     0.000     0.000  0.0000  0.0000  1.0000
 
              Baa     0.0000     0.000     0.000     0.000  1.0000  0.0000  0.0000
     2 S(33)  Bbb     0.0000     0.000     0.000     0.000 -0.0000  1.0000  0.0000
              Bcc     0.0000     0.000     0.000     0.000  0.0000  0.0000  1.0000
 

 ---------------------------------------------------------------------------------

 No NMR shielding tensors so no spin-rotation constants.
 Leave Link  601 at Mon Apr 21 20:08:36 2025, MaxMem=   536870912 cpu:               3.9 elap:               1.4
 (Enter /home/szhao/Apps/g16/l607.exe)
 ******************************Gaussian NBO Version 3.1******************************
             N A T U R A L   A T O M I C   O R B I T A L   A N D
          N A T U R A L   B O N D   O R B I T A L   A N A L Y S I S
 ******************************Gaussian NBO Version 3.1******************************
       /RESON  / : Allow strongly delocalized NBO set

 Analyzing the SCF density

 Job title: Title Card Required                                             

 Storage needed:     11250 in NPA,     14614 in NBO ( 536870884 available)
 GSVD:  LWork=         720 too small for GESVD, short by        4716 words or        4716 for optimal perf.


 NATURAL POPULATIONS:  Natural atomic orbital occupancies 
                                                          
   NAO  Atom  No  lang   Type(AO)    Occupancy
 --------------------------------------------
     1    S    1  S      Cor( 1S)     2.00000
     2    S    1  S      Cor( 2S)     1.99994
     3    S    1  S      Val( 3S)     1.93420
     4    S    1  S      Ryd( 4S)     0.00272
     5    S    1  S      Ryd( 5S)     0.00005
     6    S    1  S      Ryd( 6S)     0.00000
     7    S    1  S      Ryd( 7S)     0.00000
     8    S    1  px     Cor( 2p)     2.00000
     9    S    1  px     Val( 3p)     1.99615
    10    S    1  px     Ryd( 4p)     0.00208
    11    S    1  px     Ryd( 5p)     0.00010
    12    S    1  px     Ryd( 6p)     0.00002
    13    S    1  px     Ryd( 7p)     0.00000
    14    S    1  py     Cor( 2p)     1.99998
    15    S    1  py     Val( 3p)     0.99723
    16    S    1  py     Ryd( 4p)     0.00025
    17    S    1  py     Ryd( 6p)     0.00001
    18    S    1  py     Ryd( 5p)     0.00005
    19    S    1  py     Ryd( 7p)     0.00000
    20    S    1  pz     Cor( 2p)     1.99997
    21    S    1  pz     Val( 3p)     1.05401
    22    S    1  pz     Ryd( 4p)     0.00392
    23    S    1  pz     Ryd( 5p)     0.00004
    24    S    1  pz     Ryd( 6p)     0.00001
    25    S    1  pz     Ryd( 7p)     0.00000
    26    S    1  dxy    Ryd( 3d)     0.00000
    27    S    1  dxz    Ryd( 3d)     0.00166
    28    S    1  dyz    Ryd( 3d)     0.00248
    29    S    1  dx2y2  Ryd( 3d)     0.00025
    30    S    1  dz2    Ryd( 3d)     0.00488
 
    31    S    2  S      Cor( 1S)     2.00000
    32    S    2  S      Cor( 2S)     1.99994
    33    S    2  S      Val( 3S)     1.93420
    34    S    2  S      Ryd( 4S)     0.00272
    35    S    2  S      Ryd( 5S)     0.00005
    36    S    2  S      Ryd( 6S)     0.00000
    37    S    2  S      Ryd( 7S)     0.00000
    38    S    2  px     Cor( 2p)     2.00000
    39    S    2  px     Val( 3p)     1.99615
    40    S    2  px     Ryd( 4p)     0.00208
    41    S    2  px     Ryd( 5p)     0.00010
    42    S    2  px     Ryd( 6p)     0.00002
    43    S    2  px     Ryd( 7p)     0.00000
    44    S    2  py     Cor( 2p)     1.99998
    45    S    2  py     Val( 3p)     0.99723
    46    S    2  py     Ryd( 4p)     0.00025
    47    S    2  py     Ryd( 6p)     0.00001
    48    S    2  py     Ryd( 5p)     0.00005
    49    S    2  py     Ryd( 7p)     0.00000
    50    S    2  pz     Cor( 2p)     1.99997
    51    S    2  pz     Val( 3p)     1.05401
    52    S    2  pz     Ryd( 4p)     0.00392
    53    S    2  pz     Ryd( 5p)     0.00004
    54    S    2  pz     Ryd( 6p)     0.00001
    55    S    2  pz     Ryd( 7p)     0.00000
    56    S    2  dxy    Ryd( 3d)     0.00000
    57    S    2  dxz    Ryd( 3d)     0.00166
    58    S    2  dyz    Ryd( 3d)     0.00248
    59    S    2  dx2y2  Ryd( 3d)     0.00025
    60    S    2  dz2    Ryd( 3d)     0.00488


 Summary of Natural Population Analysis:                  
                                                          
                                       Natural Population 
                Natural  -----------------------------------------------
    Atom  No    Charge         Core      Valence    Rydberg      Total
 -----------------------------------------------------------------------
      S    1    0.00000      9.99989     5.98159    0.01852    16.00000
      S    2    0.00000      9.99989     5.98159    0.01852    16.00000
 =======================================================================
   * Total *    0.00000     19.99978    11.96318    0.03704    32.00000

                                 Natural Population      
 --------------------------------------------------------
   Core                      19.99978 ( 99.9989% of  20)
   Valence                   11.96318 ( 99.6932% of  12)
   Natural Minimal Basis     31.96296 ( 99.8843% of  32)
   Natural Rydberg Basis      0.03704 (  0.1157% of  32)
 --------------------------------------------------------

    Atom  No          Natural Electron Configuration
 ----------------------------------------------------------------------------
      S    1      [core]3S( 1.93)3p( 4.05)3d( 0.01)4p( 0.01)
      S    2      [core]3S( 1.93)3p( 4.05)3d( 0.01)4p( 0.01)


 ***************************************************
 *******         Alpha spin orbitals         *******
 ***************************************************


 NATURAL POPULATIONS:  Natural atomic orbital occupancies 
                                                          
   NAO  Atom  No  lang   Type(AO)    Occupancy      Energy
 ----------------------------------------------------------
     1    S    1  S      Cor( 1S)     1.00000     -88.92370
     2    S    1  S      Cor( 2S)     0.99997      -9.27279
     3    S    1  S      Val( 3S)     0.96710      -0.86117
     4    S    1  S      Ryd( 4S)     0.00136       0.16331
     5    S    1  S      Ryd( 5S)     0.00002       0.71155
     6    S    1  S      Ryd( 6S)     0.00000      23.64280
     7    S    1  S      Ryd( 7S)     0.00000     173.03697
     8    S    1  px     Cor( 2p)     1.00000      -6.24730
     9    S    1  px     Val( 3p)     0.99807      -0.34291
    10    S    1  px     Ryd( 5p)     0.00104       0.24693
    11    S    1  px     Ryd( 4p)     0.00005       0.20201
    12    S    1  px     Ryd( 6p)     0.00001       1.64436
    13    S    1  px     Ryd( 7p)     0.00000      17.40583
    14    S    1  py     Cor( 2p)     0.99999      -6.25581
    15    S    1  py     Val( 3p)     0.49862      -0.27357
    16    S    1  py     Ryd( 5p)     0.00013       0.23541
    17    S    1  py     Ryd( 4p)     0.00000       0.19652
    18    S    1  py     Ryd( 6p)     0.00002       1.63645
    19    S    1  py     Ryd( 7p)     0.00000      17.40515
    20    S    1  pz     Cor( 2p)     0.99999      -6.25448
    21    S    1  pz     Val( 3p)     0.52700      -0.27290
    22    S    1  pz     Ryd( 5p)     0.00196       0.25017
    23    S    1  pz     Ryd( 4p)     0.00002       0.20225
    24    S    1  pz     Ryd( 6p)     0.00001       1.67889
    25    S    1  pz     Ryd( 7p)     0.00000      17.45613
    26    S    1  dxy    Ryd( 3d)     0.00000       0.79674
    27    S    1  dxz    Ryd( 3d)     0.00083       0.80362
    28    S    1  dyz    Ryd( 3d)     0.00124       0.78269
    29    S    1  dx2y2  Ryd( 3d)     0.00013       0.79251
    30    S    1  dz2    Ryd( 3d)     0.00244       0.90081
 
    31    S    2  S      Cor( 1S)     1.00000     -88.92370
    32    S    2  S      Cor( 2S)     0.99997      -9.27279
    33    S    2  S      Val( 3S)     0.96710      -0.86117
    34    S    2  S      Ryd( 4S)     0.00136       0.16331
    35    S    2  S      Ryd( 5S)     0.00002       0.71155
    36    S    2  S      Ryd( 6S)     0.00000      23.64280
    37    S    2  S      Ryd( 7S)     0.00000     173.03697
    38    S    2  px     Cor( 2p)     1.00000      -6.24730
    39    S    2  px     Val( 3p)     0.99807      -0.34291
    40    S    2  px     Ryd( 5p)     0.00104       0.24693
    41    S    2  px     Ryd( 4p)     0.00005       0.20201
    42    S    2  px     Ryd( 6p)     0.00001       1.64436
    43    S    2  px     Ryd( 7p)     0.00000      17.40583
    44    S    2  py     Cor( 2p)     0.99999      -6.25581
    45    S    2  py     Val( 3p)     0.49862      -0.27357
    46    S    2  py     Ryd( 5p)     0.00013       0.23541
    47    S    2  py     Ryd( 4p)     0.00000       0.19652
    48    S    2  py     Ryd( 6p)     0.00002       1.63645
    49    S    2  py     Ryd( 7p)     0.00000      17.40515
    50    S    2  pz     Cor( 2p)     0.99999      -6.25448
    51    S    2  pz     Val( 3p)     0.52700      -0.27290
    52    S    2  pz     Ryd( 5p)     0.00196       0.25017
    53    S    2  pz     Ryd( 4p)     0.00002       0.20225
    54    S    2  pz     Ryd( 6p)     0.00001       1.67889
    55    S    2  pz     Ryd( 7p)     0.00000      17.45613
    56    S    2  dxy    Ryd( 3d)     0.00000       0.79674
    57    S    2  dxz    Ryd( 3d)     0.00083       0.80362
    58    S    2  dyz    Ryd( 3d)     0.00124       0.78269
    59    S    2  dx2y2  Ryd( 3d)     0.00013       0.79251
    60    S    2  dz2    Ryd( 3d)     0.00244       0.90081

 WARNING:  Population inversion found on atom  S    1
           Population inversion found on atom  S    2


 Summary of Natural Population Analysis:                  
                                                          
                                       Natural Population 
                Natural  -----------------------------------------------
    Atom  No    Charge         Core      Valence    Rydberg      Total
 -----------------------------------------------------------------------
      S    1    0.00000      4.99994     2.99080    0.00926     8.00000
      S    2    0.00000      4.99994     2.99080    0.00926     8.00000
 =======================================================================
   * Total *    0.00000      9.99989     5.98159    0.01852    16.00000

                                 Natural Population      
 --------------------------------------------------------
   Core                       9.99989 ( 99.9989% of  10)
   Valence                    5.98159 ( 99.6932% of   6)
   Natural Minimal Basis     15.98148 ( 99.8843% of  16)
   Natural Rydberg Basis      0.01852 (  0.1157% of  16)
 --------------------------------------------------------

    Atom  No          Natural Electron Configuration
 ----------------------------------------------------------------------------
      S    1      [core]3S( 0.97)3p( 2.02)
      S    2      [core]3S( 0.97)3p( 2.02)


 NATURAL BOND ORBITAL ANALYSIS, alpha spin orbitals:

                       Occupancies       Lewis Structure    Low   High
           Occ.    -------------------  -----------------   occ   occ
  Cycle   Thresh.   Lewis   Non-Lewis     CR  BD  3C  LP    (L)   (NL)   Dev
 =============================================================================
   1(1)    0.90    15.99705   0.00295     10   2   0   4     0      0    0.00
 -----------------------------------------------------------------------------

 Structure accepted: No low occupancy Lewis orbitals

 --------------------------------------------------------
   Core                      9.99989 ( 99.999% of  10)
   Valence Lewis             5.99716 ( 99.953% of   6)
  ==================       ============================
   Total Lewis              15.99705 ( 99.982% of  16)
  -----------------------------------------------------
   Valence non-Lewis         0.00004 (  0.000% of  16)
   Rydberg non-Lewis         0.00291 (  0.018% of  16)
  ==================       ============================
   Total non-Lewis           0.00295 (  0.018% of  16)
 --------------------------------------------------------


       (Occupancy)   Bond orbital/ Coefficients/ Hybrids
 ---------------------------------------------------------------------------------
     1. (1.00000) BD ( 1) S   1 - S   2  
                ( 50.00%)   0.7071* S   1 s(  0.00%)p 1.00( 99.75%)d 0.00(  0.25%)
                                            0.0000  0.0000  0.0000  0.0000  0.0000
                                            0.0000  0.0000  0.0000  0.0000  0.0000
                                            0.0000  0.0000  0.0000  0.0000  0.9986
                                            0.0159 -0.0028 -0.0069 -0.0000  0.0000
                                            0.0000  0.0000  0.0000  0.0000  0.0000
                                            0.0000  0.0000 -0.0498  0.0000  0.0000
                ( 50.00%)   0.7071* S   2 s(  0.00%)p 1.00( 99.75%)d 0.00(  0.25%)
                                            0.0000  0.0000  0.0000  0.0000  0.0000
                                            0.0000  0.0000  0.0000  0.0000  0.0000
                                            0.0000  0.0000  0.0000 -0.0000  0.9986
                                            0.0159 -0.0028 -0.0069 -0.0000  0.0000
                                            0.0000  0.0000  0.0000  0.0000  0.0000
                                            0.0000  0.0000  0.0498  0.0000  0.0000
     2. (1.00000) BD ( 2) S   1 - S   2  
                ( 50.00%)   0.7071* S   1 s(  6.72%)p13.82( 92.80%)d 0.07(  0.48%)
                                            0.0000 -0.0000 -0.2542  0.0507  0.0009
                                           -0.0000 -0.0000  0.0000  0.0000  0.0000
                                            0.0000  0.0000  0.0000  0.0000  0.0000
                                            0.0000  0.0000  0.0000  0.0000  0.0000
                                            0.9614 -0.0615  0.0047 -0.0002 -0.0001
                                            0.0000  0.0000  0.0000  0.0026 -0.0692
                ( 50.00%)   0.7071* S   2 s(  6.72%)p13.82( 92.80%)d 0.07(  0.48%)
                                            0.0000  0.0000 -0.2542  0.0507  0.0009
                                           -0.0000 -0.0000  0.0000  0.0000  0.0000
                                            0.0000  0.0000  0.0000  0.0000  0.0000
                                            0.0000  0.0000  0.0000  0.0000 -0.0000
                                           -0.9614  0.0615 -0.0047  0.0002  0.0001
                                            0.0000  0.0000  0.0000  0.0026 -0.0692
     3. (1.00000) CR ( 1) S   1           s(100.00%)
                                            1.0000 -0.0000  0.0000  0.0000  0.0000
                                           -0.0000 -0.0000  0.0000  0.0000  0.0000
                                            0.0000  0.0000  0.0000  0.0000  0.0000
                                            0.0000  0.0000  0.0000  0.0000  0.0000
                                            0.0000 -0.0000 -0.0000  0.0000  0.0000
                                            0.0000  0.0000  0.0000 -0.0000 -0.0000
     4. (0.99997) CR ( 2) S   1           s(100.00%)
                                           -0.0000  1.0000  0.0000  0.0000  0.0000
                                           -0.0000 -0.0000  0.0000  0.0000  0.0000
                                            0.0000  0.0000  0.0000  0.0000  0.0000
                                            0.0000  0.0000  0.0000  0.0000  0.0000
                                            0.0000 -0.0000 -0.0000  0.0000  0.0000
                                            0.0000  0.0000  0.0000 -0.0000 -0.0000
     5. (1.00000) CR ( 3) S   1           s(  0.00%)p 1.00(100.00%)
                                            0.0000  0.0000  0.0000  0.0000  0.0000
                                            0.0000  0.0000  1.0000 -0.0000 -0.0000
                                            0.0000 -0.0000 -0.0000  0.0000  0.0000
                                            0.0000  0.0000  0.0000  0.0000  0.0000
                                            0.0000  0.0000  0.0000  0.0000  0.0000
                                            0.0000  0.0000  0.0000  0.0000  0.0000
     6. (0.99999) CR ( 4) S   1           s(  0.00%)p 1.00(100.00%)
                                            0.0000  0.0000  0.0000  0.0000  0.0000
                                            0.0000  0.0000  0.0000  0.0000  0.0000
                                            0.0000  0.0000  0.0000  1.0000  0.0000
                                            0.0000  0.0000  0.0000  0.0000  0.0000
                                            0.0000  0.0000  0.0000  0.0000  0.0000
                                            0.0000  0.0000  0.0000  0.0000  0.0000
     7. (0.99999) CR ( 5) S   1           s(  0.00%)p 1.00(100.00%)
                                            0.0000  0.0000 -0.0000 -0.0000 -0.0000
                                            0.0000  0.0000  0.0000  0.0000  0.0000
                                            0.0000  0.0000  0.0000  0.0000  0.0000
                                            0.0000  0.0000  0.0000  0.0000  1.0000
                                           -0.0000  0.0000  0.0000 -0.0000 -0.0000
                                            0.0000  0.0000  0.0000  0.0000  0.0000
     8. (1.00000) CR ( 1) S   2           s(100.00%)
                                            1.0000 -0.0000  0.0000  0.0000  0.0000
                                           -0.0000 -0.0000  0.0000  0.0000  0.0000
                                            0.0000  0.0000  0.0000  0.0000  0.0000
                                            0.0000  0.0000  0.0000  0.0000 -0.0000
                                           -0.0000  0.0000  0.0000 -0.0000 -0.0000
                                            0.0000  0.0000  0.0000 -0.0000 -0.0000
     9. (0.99997) CR ( 2) S   2           s(100.00%)
                                           -0.0000  1.0000  0.0000  0.0000  0.0000
                                           -0.0000 -0.0000  0.0000  0.0000  0.0000
                                            0.0000  0.0000  0.0000  0.0000  0.0000
                                            0.0000  0.0000  0.0000  0.0000 -0.0000
                                           -0.0000  0.0000  0.0000 -0.0000 -0.0000
                                            0.0000  0.0000  0.0000 -0.0000 -0.0000
    10. (1.00000) CR ( 3) S   2           s(  0.00%)p 1.00(100.00%)
                                            0.0000  0.0000  0.0000  0.0000  0.0000
                                            0.0000  0.0000  1.0000 -0.0000 -0.0000
                                            0.0000 -0.0000 -0.0000  0.0000  0.0000
                                            0.0000  0.0000  0.0000  0.0000  0.0000
                                            0.0000  0.0000  0.0000  0.0000  0.0000
                                            0.0000 -0.0000  0.0000  0.0000  0.0000
    11. (0.99999) CR ( 4) S   2           s(  0.00%)p 1.00(100.00%)
                                            0.0000  0.0000  0.0000  0.0000  0.0000
                                            0.0000  0.0000  0.0000  0.0000  0.0000
                                            0.0000  0.0000  0.0000  1.0000  0.0000
                                            0.0000  0.0000  0.0000  0.0000  0.0000
                                            0.0000  0.0000  0.0000  0.0000  0.0000
                                            0.0000  0.0000  0.0000  0.0000  0.0000
    12. (0.99999) CR ( 5) S   2           s(  0.00%)p 1.00(100.00%)
                                           -0.0000 -0.0000  0.0000  0.0000  0.0000
                                           -0.0000 -0.0000  0.0000  0.0000  0.0000
                                            0.0000  0.0000  0.0000  0.0000  0.0000
                                            0.0000  0.0000  0.0000  0.0000  1.0000
                                           -0.0000  0.0000  0.0000 -0.0000 -0.0000
                                            0.0000  0.0000  0.0000 -0.0000 -0.0000
    13. (0.99990) LP ( 1) S   1           s( 93.49%)p 0.07(  6.49%)d 0.00(  0.01%)
                                           -0.0000 -0.0000  0.9669  0.0067  0.0001
                                           -0.0000 -0.0000  0.0000  0.0000  0.0000
                                            0.0000  0.0000  0.0000  0.0000  0.0000
                                            0.0000  0.0000  0.0000  0.0000  0.0000
                                            0.2547 -0.0055 -0.0023  0.0025  0.0001
                                            0.0000  0.0000  0.0000 -0.0111 -0.0032
    14. (0.99868) LP ( 2) S   1           s(  0.00%)p 1.00( 99.99%)d 0.00(  0.01%)
                                            0.0000  0.0000  0.0000  0.0000  0.0000
                                            0.0000  0.0000  0.0000  0.9997  0.0231
                                           -0.0003  0.0029  0.0000  0.0000  0.0000
                                            0.0000  0.0000  0.0000  0.0000  0.0000
                                            0.0000  0.0000  0.0000  0.0000  0.0000
                                            0.0000 -0.0082  0.0000  0.0000  0.0000
    15. (0.99990) LP ( 1) S   2           s( 93.49%)p 0.07(  6.49%)d 0.00(  0.01%)
                                           -0.0000 -0.0000  0.9669  0.0067  0.0001
                                           -0.0000 -0.0000  0.0000  0.0000  0.0000
                                            0.0000  0.0000  0.0000  0.0000  0.0000
                                            0.0000  0.0000  0.0000  0.0000 -0.0000
                                           -0.2547  0.0055  0.0023 -0.0025 -0.0001
                                            0.0000  0.0000  0.0000 -0.0111 -0.0032
    16. (0.99868) LP ( 2) S   2           s(  0.00%)p 1.00( 99.99%)d 0.00(  0.01%)
                                            0.0000  0.0000  0.0000  0.0000  0.0000
                                            0.0000  0.0000  0.0000  0.9997  0.0231
                                           -0.0003  0.0029  0.0000  0.0000  0.0000
                                            0.0000  0.0000  0.0000  0.0000  0.0000
                                            0.0000  0.0000  0.0000  0.0000  0.0000
                                            0.0000  0.0082  0.0000  0.0000  0.0000
    17. (0.00132) RY*( 1) S   1           s(  0.00%)p 1.00( 42.18%)d 1.37( 57.82%)
                                            0.0000  0.0000  0.0000  0.0000  0.0000
                                            0.0000  0.0000 -0.0000 -0.0080  0.6205
                                            0.1915 -0.0033 -0.0005  0.0000  0.0000
                                            0.0000  0.0000  0.0000  0.0000  0.0000
                                            0.0000  0.0000  0.0000  0.0000  0.0000
                                            0.0000  0.7604  0.0000  0.0000  0.0000
    18. (0.00010) RY*( 2) S   1           s( 50.27%)p 0.53( 26.56%)d 0.46( 23.16%)
    19. (0.00003) RY*( 3) S   1           s(  5.90%)p10.99( 64.87%)d 4.95( 29.22%)
    20. (0.00000) RY*( 4) S   1           s(100.00%)
    21. (0.00000) RY*( 5) S   1           s(  0.00%)p 1.00( 57.83%)d 0.73( 42.17%)
    22. (0.00000) RY*( 6) S   1           s(  0.00%)p 1.00(100.00%)
    23. (0.00000) RY*( 7) S   1           s(  0.00%)p 1.00(100.00%)d 0.00(  0.00%)
    24. (0.00000) RY*( 8) S   1           s(  0.00%)p 1.00(100.00%)d 0.00(  0.00%)
    25. (0.00000) RY*( 9) S   1           s(  0.00%)p 1.00(100.00%)d 0.00(  0.00%)
    26. (0.00000) RY*(10) S   1           s(  0.00%)p 1.00(100.00%)d 0.00(  0.00%)
    27. (0.00000) RY*(11) S   1           s(  0.00%)p 1.00(100.00%)d 0.00(  0.00%)
    28. (0.00000) RY*(12) S   1           s(  0.00%)p 1.00(100.00%)
    29. (0.00000) RY*(13) S   1           s( 57.70%)p 0.22( 12.97%)d 0.51( 29.32%)
    30. (0.00000) RY*(14) S   1           s(  0.75%)p99.99( 96.47%)d 3.74(  2.79%)
    31. (0.00000) RY*(15) S   1           s(  0.02%)p99.99( 99.98%)d 0.64(  0.01%)
    32. (0.00000) RY*(16) S   1           s(  0.14%)p99.99( 99.79%)d 0.48(  0.07%)
    33. (0.00000) RY*(17) S   1           s(  0.00%)p 0.00(  0.00%)d 1.00(100.00%)
    34. (0.00000) RY*(18) S   1           s( 84.85%)p 0.00(  0.02%)d 0.18( 15.13%)
    35. (0.00000) RY*(19) S   1           s(  0.00%)p 1.00(  0.25%)d99.99( 99.75%)
    36. (0.00000) RY*(20) S   1           s(  0.16%)p 0.23(  0.04%)d99.99( 99.80%)
    37. (0.00000) RY*(21) S   1           s(100.00%)p 0.00(  0.00%)d 0.00(  0.00%)
    38. (0.00132) RY*( 1) S   2           s(  0.00%)p 1.00( 42.18%)d 1.37( 57.82%)
                                            0.0000  0.0000  0.0000  0.0000  0.0000
                                            0.0000  0.0000 -0.0000  0.0080 -0.6205
                                           -0.1915  0.0033  0.0005  0.0000  0.0000
                                            0.0000  0.0000  0.0000  0.0000  0.0000
                                            0.0000  0.0000  0.0000  0.0000  0.0000
                                            0.0000  0.7604  0.0000  0.0000  0.0000
    39. (0.00010) RY*( 2) S   2           s( 50.27%)p 0.53( 26.56%)d 0.46( 23.16%)
    40. (0.00003) RY*( 3) S   2           s(  5.90%)p10.99( 64.87%)d 4.95( 29.22%)
    41. (0.00000) RY*( 4) S   2           s(100.00%)
    42. (0.00000) RY*( 5) S   2           s(  0.00%)p 1.00( 57.83%)d 0.73( 42.17%)
    43. (0.00000) RY*( 6) S   2           s(  0.00%)p 1.00(100.00%)
    44. (0.00000) RY*( 7) S   2           s(  0.00%)p 1.00(100.00%)d 0.00(  0.00%)
    45. (0.00000) RY*( 8) S   2           s(  0.00%)p 1.00(100.00%)d 0.00(  0.00%)
    46. (0.00000) RY*( 9) S   2           s(  0.00%)p 1.00(100.00%)d 0.00(  0.00%)
    47. (0.00000) RY*(10) S   2           s(  0.00%)p 1.00(100.00%)d 0.00(  0.00%)
    48. (0.00000) RY*(11) S   2           s(  0.00%)p 1.00(100.00%)d 0.00(  0.00%)
    49. (0.00000) RY*(12) S   2           s(  0.00%)p 1.00(100.00%)
    50. (0.00000) RY*(13) S   2           s( 57.70%)p 0.22( 12.97%)d 0.51( 29.32%)
    51. (0.00000) RY*(14) S   2           s(  0.75%)p99.99( 96.47%)d 3.74(  2.79%)
    52. (0.00000) RY*(15) S   2           s(  0.02%)p99.99( 99.98%)d 0.64(  0.01%)
    53. (0.00000) RY*(16) S   2           s(  0.14%)p99.99( 99.79%)d 0.48(  0.07%)
    54. (0.00000) RY*(17) S   2           s(  0.00%)p 0.00(  0.00%)d 1.00(100.00%)
    55. (0.00000) RY*(18) S   2           s( 84.85%)p 0.00(  0.02%)d 0.18( 15.13%)
    56. (0.00000) RY*(19) S   2           s(  0.00%)p 1.00(  0.25%)d99.99( 99.75%)
    57. (0.00000) RY*(20) S   2           s(  0.16%)p 0.23(  0.04%)d99.99( 99.80%)
    58. (0.00000) RY*(21) S   2           s(100.00%)p 0.00(  0.00%)d 0.00(  0.00%)
    59. (0.00002) BD*( 1) S   1 - S   2  
                ( 50.00%)   0.7071* S   1 s(  0.00%)p 1.00( 99.75%)d 0.00(  0.25%)
                ( 50.00%)  -0.7071* S   2 s(  0.00%)p 1.00( 99.75%)d 0.00(  0.25%)
    60. (0.00002) BD*( 2) S   1 - S   2  
                ( 50.00%)   0.7071* S   1 s(  6.72%)p13.82( 92.80%)d 0.07(  0.48%)
                ( 50.00%)  -0.7071* S   2 s(  6.72%)p13.82( 92.80%)d 0.07(  0.48%)


 NHO Directionality and "Bond Bending" (deviations from line of nuclear centers)

         [Thresholds for printing:  angular deviation  >  1.0 degree]
                                    hybrid p-character > 25.0%
                                    orbital occupancy  >  0.10e

                                Line of Centers        Hybrid 1              Hybrid 2
                                ---------------  -------------------   ------------------
                NBO               Theta   Phi    Theta   Phi    Dev    Theta   Phi    Dev
 ========================================================================================
     1. BD (   1) S   1 - S   2   180.0    0.0    90.0   90.0  90.0     90.0   90.0  90.0
    14. LP (   2) S   1             --     --     90.0    0.0   --       --     --    --
    16. LP (   2) S   2             --     --     90.0    0.0   --       --     --    --


 Second Order Perturbation Theory Analysis of Fock Matrix in NBO Basis

     Threshold for printing:   0.25 kcal/mol
                                                                              E(2)  E(j)-E(i) F(i,j)
         Donor NBO (i)                     Acceptor NBO (j)                 kcal/mol   a.u.    a.u. 
 ===================================================================================================

 within unit  1
  14. LP (   2) S   1                / 38. RY*(   1) S   2                    0.77    0.92    0.034
  16. LP (   2) S   2                / 17. RY*(   1) S   1                    0.77    0.92    0.034


 Natural Bond Orbitals (Summary):

                                                            Principal Delocalizations
           NBO                        Occupancy    Energy   (geminal,vicinal,remote)
 ====================================================================================
 Molecular unit  1  (S2)
     1. BD (   1) S   1 - S   2          1.00000    -0.37381   
     2. BD (   2) S   1 - S   2          1.00000    -0.56022   
     3. CR (   1) S   1                  1.00000   -88.92370   
     4. CR (   2) S   1                  0.99997    -9.27280   
     5. CR (   3) S   1                  1.00000    -6.24730   
     6. CR (   4) S   1                  0.99999    -6.25581   
     7. CR (   5) S   1                  0.99999    -6.25448   
     8. CR (   1) S   2                  1.00000   -88.92370   
     9. CR (   2) S   2                  0.99997    -9.27280   
    10. CR (   3) S   2                  1.00000    -6.24730   
    11. CR (   4) S   2                  0.99999    -6.25581   
    12. CR (   5) S   2                  0.99999    -6.25448   
    13. LP (   1) S   1                  0.99990    -0.83868   
    14. LP (   2) S   1                  0.99868    -0.34327  38(v)
    15. LP (   1) S   2                  0.99990    -0.83868   
    16. LP (   2) S   2                  0.99868    -0.34327  17(v)
    17. RY*(   1) S   1                  0.00132     0.58093   
    18. RY*(   2) S   1                  0.00010     0.56664   
    19. RY*(   3) S   1                  0.00003     0.42743   
    20. RY*(   4) S   1                  0.00000   173.03709   
    21. RY*(   5) S   1                  0.00000     0.54225   
    22. RY*(   6) S   1                  0.00000     0.12939   
    23. RY*(   7) S   1                  0.00000     1.64452   
    24. RY*(   8) S   1                  0.00000    17.40601   
    25. RY*(   9) S   1                  0.00000     0.23593   
    26. RY*(  10) S   1                  0.00000     0.19649   
    27. RY*(  11) S   1                  0.00000     1.63650   
    28. RY*(  12) S   1                  0.00000    17.40515   
    29. RY*(  13) S   1                  0.00000     0.34224   
    30. RY*(  14) S   1                  0.00000     0.18976   
    31. RY*(  15) S   1                  0.00000     1.68188   
    32. RY*(  16) S   1                  0.00000    17.41777   
    33. RY*(  17) S   1                  0.00000     0.79674   
    34. RY*(  18) S   1                  0.00000     0.73229   
    35. RY*(  19) S   1                  0.00000     0.78170   
    36. RY*(  20) S   1                  0.00000     0.79095   
    37. RY*(  21) S   1                  0.00000    23.64229   
    38. RY*(   1) S   2                  0.00132     0.58093   
    39. RY*(   2) S   2                  0.00010     0.56664   
    40. RY*(   3) S   2                  0.00003     0.42743   
    41. RY*(   4) S   2                  0.00000   173.03709   
    42. RY*(   5) S   2                  0.00000     0.54225   
    43. RY*(   6) S   2                  0.00000     0.12939   
    44. RY*(   7) S   2                  0.00000     1.64452   
    45. RY*(   8) S   2                  0.00000    17.40601   
    46. RY*(   9) S   2                  0.00000     0.23593   
    47. RY*(  10) S   2                  0.00000     0.19649   
    48. RY*(  11) S   2                  0.00000     1.63650   
    49. RY*(  12) S   2                  0.00000    17.40515   
    50. RY*(  13) S   2                  0.00000     0.34224   
    51. RY*(  14) S   2                  0.00000     0.18976   
    52. RY*(  15) S   2                  0.00000     1.68188   
    53. RY*(  16) S   2                  0.00000    17.41777   
    54. RY*(  17) S   2                  0.00000     0.79674   
    55. RY*(  18) S   2                  0.00000     0.73229   
    56. RY*(  19) S   2                  0.00000     0.78170   
    57. RY*(  20) S   2                  0.00000     0.79095   
    58. RY*(  21) S   2                  0.00000    23.64229   
    59. BD*(   1) S   1 - S   2          0.00002    -0.17241   
    60. BD*(   2) S   1 - S   2          0.00002    -0.01647   
       -------------------------------
              Total Lewis   15.99705  ( 99.9816%)
        Valence non-Lewis    0.00004  (  0.0003%)
        Rydberg non-Lewis    0.00291  (  0.0182%)
       -------------------------------
            Total unit  1   16.00000  (100.0000%)
           Charge unit  1    0.00000
 Sorting of NBOs:                    3    8    9    4    6   11   12    7    5   10
 Sorting of NBOs:                   15   13    2    1   14   16   59   60   22   43
 Sorting of NBOs:                   30   51   26   47   46   25   50   29   40   19
 Sorting of NBOs:                   21   42   39   18   17   38   34   55   56   35
 Sorting of NBOs:                   36   57   54   33   48   27   44   23   52   31
 Sorting of NBOs:                   49   28   45   24   53   32   58   37   20   41
 Reordering of NBOs for storage:     3    8    9    4    6   11   12    7    5   10
 Reordering of NBOs for storage:    15   13    2    1   14   16   59   60   22   43
 Reordering of NBOs for storage:    30   51   26   47   46   25   50   29   40   19
 Reordering of NBOs for storage:    21   42   39   18   17   38   34   55   56   35
 Reordering of NBOs for storage:    36   57   54   33   48   27   44   23   52   31
 Reordering of NBOs for storage:    49   28   45   24   53   32   58   37   20   41
 Labels of output orbitals:  CR  CR  CR  CR  CR  CR  CR  CR  CR  CR  LP  LP  BD  BD  LP  LP  BD* BD* RY* RY* 
 Labels of output orbitals:  RY* RY* RY* RY* RY* RY* RY* RY* RY* RY* RY* RY* RY* RY* RY* RY* RY* RY* RY* RY* 
 Labels of output orbitals:  RY* RY* RY* RY* RY* RY* RY* RY* RY* RY* RY* RY* RY* RY* RY* RY* RY* RY* RY* RY* 
 GSVD:  LWork=       -2288 too small for GESVD, short by       10340 words or       10340 for optimal perf.


 ***************************************************
 *******         Beta  spin orbitals         *******
 ***************************************************


 NATURAL POPULATIONS:  Natural atomic orbital occupancies 
                                                          
   NAO  Atom  No  lang   Type(AO)    Occupancy      Energy
 ----------------------------------------------------------
     1    S    1  S      Cor( 1S)     1.00000     -88.92370
     2    S    1  S      Cor( 2S)     0.99997      -9.27279
     3    S    1  S      Val( 3S)     0.96710      -0.86117
     4    S    1  S      Ryd( 4S)     0.00136       0.16331
     5    S    1  S      Ryd( 5S)     0.00002       0.71155
     6    S    1  S      Ryd( 6S)     0.00000      23.64280
     7    S    1  S      Ryd( 7S)     0.00000     173.03697
     8    S    1  px     Cor( 2p)     1.00000      -6.24730
     9    S    1  px     Val( 3p)     0.99807      -0.34291
    10    S    1  px     Ryd( 5p)     0.00104       0.24693
    11    S    1  px     Ryd( 4p)     0.00005       0.20201
    12    S    1  px     Ryd( 6p)     0.00001       1.64436
    13    S    1  px     Ryd( 7p)     0.00000      17.40583
    14    S    1  py     Cor( 2p)     0.99999      -6.25581
    15    S    1  py     Val( 3p)     0.49862      -0.27357
    16    S    1  py     Ryd( 5p)     0.00013       0.23541
    17    S    1  py     Ryd( 4p)     0.00000       0.19652
    18    S    1  py     Ryd( 6p)     0.00002       1.63645
    19    S    1  py     Ryd( 7p)     0.00000      17.40515
    20    S    1  pz     Cor( 2p)     0.99999      -6.25448
    21    S    1  pz     Val( 3p)     0.52700      -0.27290
    22    S    1  pz     Ryd( 5p)     0.00196       0.25017
    23    S    1  pz     Ryd( 4p)     0.00002       0.20225
    24    S    1  pz     Ryd( 6p)     0.00001       1.67889
    25    S    1  pz     Ryd( 7p)     0.00000      17.45613
    26    S    1  dxy    Ryd( 3d)     0.00000       0.79674
    27    S    1  dxz    Ryd( 3d)     0.00083       0.80362
    28    S    1  dyz    Ryd( 3d)     0.00124       0.78269
    29    S    1  dx2y2  Ryd( 3d)     0.00013       0.79251
    30    S    1  dz2    Ryd( 3d)     0.00244       0.90081
 
    31    S    2  S      Cor( 1S)     1.00000     -88.92370
    32    S    2  S      Cor( 2S)     0.99997      -9.27279
    33    S    2  S      Val( 3S)     0.96710      -0.86117
    34    S    2  S      Ryd( 4S)     0.00136       0.16331
    35    S    2  S      Ryd( 5S)     0.00002       0.71155
    36    S    2  S      Ryd( 6S)     0.00000      23.64280
    37    S    2  S      Ryd( 7S)     0.00000     173.03697
    38    S    2  px     Cor( 2p)     1.00000      -6.24730
    39    S    2  px     Val( 3p)     0.99807      -0.34291
    40    S    2  px     Ryd( 5p)     0.00104       0.24693
    41    S    2  px     Ryd( 4p)     0.00005       0.20201
    42    S    2  px     Ryd( 6p)     0.00001       1.64436
    43    S    2  px     Ryd( 7p)     0.00000      17.40583
    44    S    2  py     Cor( 2p)     0.99999      -6.25581
    45    S    2  py     Val( 3p)     0.49862      -0.27357
    46    S    2  py     Ryd( 5p)     0.00013       0.23541
    47    S    2  py     Ryd( 4p)     0.00000       0.19652
    48    S    2  py     Ryd( 6p)     0.00002       1.63645
    49    S    2  py     Ryd( 7p)     0.00000      17.40515
    50    S    2  pz     Cor( 2p)     0.99999      -6.25448
    51    S    2  pz     Val( 3p)     0.52700      -0.27290
    52    S    2  pz     Ryd( 5p)     0.00196       0.25017
    53    S    2  pz     Ryd( 4p)     0.00002       0.20225
    54    S    2  pz     Ryd( 6p)     0.00001       1.67889
    55    S    2  pz     Ryd( 7p)     0.00000      17.45613
    56    S    2  dxy    Ryd( 3d)     0.00000       0.79674
    57    S    2  dxz    Ryd( 3d)     0.00083       0.80362
    58    S    2  dyz    Ryd( 3d)     0.00124       0.78269
    59    S    2  dx2y2  Ryd( 3d)     0.00013       0.79251
    60    S    2  dz2    Ryd( 3d)     0.00244       0.90081

 WARNING:  Population inversion found on atom  S    1
           Population inversion found on atom  S    2


 Summary of Natural Population Analysis:                  
                                                          
                                       Natural Population 
                Natural  -----------------------------------------------
    Atom  No    Charge         Core      Valence    Rydberg      Total
 -----------------------------------------------------------------------
      S    1    0.00000      4.99994     2.99080    0.00926     8.00000
      S    2    0.00000      4.99994     2.99080    0.00926     8.00000
 =======================================================================
   * Total *    0.00000      9.99989     5.98159    0.01852    16.00000

                                 Natural Population      
 --------------------------------------------------------
   Core                       9.99989 ( 99.9989% of  10)
   Valence                    5.98159 ( 99.6932% of   6)
   Natural Minimal Basis     15.98148 ( 99.8843% of  16)
   Natural Rydberg Basis      0.01852 (  0.1157% of  16)
 --------------------------------------------------------

    Atom  No          Natural Electron Configuration
 ----------------------------------------------------------------------------
      S    1      [core]3S( 0.97)3p( 2.02)
      S    2      [core]3S( 0.97)3p( 2.02)


 NATURAL BOND ORBITAL ANALYSIS, beta spin orbitals:

                       Occupancies       Lewis Structure    Low   High
           Occ.    -------------------  -----------------   occ   occ
  Cycle   Thresh.   Lewis   Non-Lewis     CR  BD  3C  LP    (L)   (NL)   Dev
 =============================================================================
   1(1)    0.90    15.99705   0.00295     10   2   0   4     0      0    0.00
 -----------------------------------------------------------------------------

 Structure accepted: No low occupancy Lewis orbitals

 --------------------------------------------------------
   Core                      9.99989 ( 99.999% of  10)
   Valence Lewis             5.99716 ( 99.953% of   6)
  ==================       ============================
   Total Lewis              15.99705 ( 99.982% of  16)
  -----------------------------------------------------
   Valence non-Lewis         0.00004 (  0.000% of  16)
   Rydberg non-Lewis         0.00291 (  0.018% of  16)
  ==================       ============================
   Total non-Lewis           0.00295 (  0.018% of  16)
 --------------------------------------------------------


       (Occupancy)   Bond orbital/ Coefficients/ Hybrids
 ---------------------------------------------------------------------------------
     1. (1.00000) BD ( 1) S   1 - S   2  
                ( 50.00%)   0.7071* S   1 s(  0.00%)p 1.00( 99.75%)d 0.00(  0.25%)
                                            0.0000  0.0000  0.0000  0.0000  0.0000
                                            0.0000  0.0000  0.0000  0.0000  0.0000
                                            0.0000  0.0000  0.0000  0.0000  0.9986
                                            0.0159 -0.0028 -0.0069 -0.0000  0.0000
                                            0.0000  0.0000  0.0000  0.0000  0.0000
                                            0.0000  0.0000 -0.0498  0.0000  0.0000
                ( 50.00%)   0.7071* S   2 s(  0.00%)p 1.00( 99.75%)d 0.00(  0.25%)
                                            0.0000  0.0000  0.0000  0.0000  0.0000
                                            0.0000  0.0000  0.0000  0.0000  0.0000
                                            0.0000  0.0000  0.0000 -0.0000  0.9986
                                            0.0159 -0.0028 -0.0069 -0.0000  0.0000
                                            0.0000  0.0000  0.0000  0.0000  0.0000
                                            0.0000  0.0000  0.0498  0.0000  0.0000
     2. (1.00000) BD ( 2) S   1 - S   2  
                ( 50.00%)   0.7071* S   1 s(  6.72%)p13.82( 92.80%)d 0.07(  0.48%)
                                            0.0000 -0.0000 -0.2542  0.0507  0.0009
                                           -0.0000 -0.0000  0.0000  0.0000  0.0000
                                            0.0000  0.0000  0.0000  0.0000  0.0000
                                            0.0000  0.0000  0.0000  0.0000  0.0000
                                            0.9614 -0.0615  0.0047 -0.0002 -0.0001
                                            0.0000  0.0000  0.0000  0.0026 -0.0692
                ( 50.00%)   0.7071* S   2 s(  6.72%)p13.82( 92.80%)d 0.07(  0.48%)
                                            0.0000  0.0000 -0.2542  0.0507  0.0009
                                           -0.0000 -0.0000  0.0000  0.0000  0.0000
                                            0.0000  0.0000  0.0000  0.0000  0.0000
                                            0.0000  0.0000  0.0000  0.0000 -0.0000
                                           -0.9614  0.0615 -0.0047  0.0002  0.0001
                                            0.0000  0.0000  0.0000  0.0026 -0.0692
     3. (1.00000) CR ( 1) S   1           s(100.00%)
                                            1.0000 -0.0000  0.0000  0.0000  0.0000
                                           -0.0000 -0.0000  0.0000  0.0000  0.0000
                                            0.0000  0.0000  0.0000  0.0000  0.0000
                                            0.0000  0.0000  0.0000  0.0000  0.0000
                                            0.0000 -0.0000 -0.0000  0.0000  0.0000
                                            0.0000  0.0000  0.0000 -0.0000 -0.0000
     4. (0.99997) CR ( 2) S   1           s(100.00%)
                                           -0.0000  1.0000  0.0000  0.0000  0.0000
                                           -0.0000 -0.0000  0.0000  0.0000  0.0000
                                            0.0000  0.0000  0.0000  0.0000  0.0000
                                            0.0000  0.0000  0.0000  0.0000  0.0000
                                            0.0000 -0.0000 -0.0000  0.0000  0.0000
                                            0.0000  0.0000  0.0000 -0.0000 -0.0000
     5. (1.00000) CR ( 3) S   1           s(  0.00%)p 1.00(100.00%)
                                            0.0000  0.0000  0.0000  0.0000  0.0000
                                            0.0000  0.0000  1.0000 -0.0000 -0.0000
                                            0.0000 -0.0000 -0.0000  0.0000  0.0000
                                            0.0000  0.0000  0.0000  0.0000  0.0000
                                            0.0000  0.0000  0.0000  0.0000  0.0000
                                            0.0000  0.0000  0.0000  0.0000  0.0000
     6. (0.99999) CR ( 4) S   1           s(  0.00%)p 1.00(100.00%)
                                            0.0000  0.0000  0.0000  0.0000  0.0000
                                            0.0000  0.0000  0.0000  0.0000  0.0000
                                            0.0000  0.0000  0.0000  1.0000  0.0000
                                            0.0000  0.0000  0.0000  0.0000  0.0000
                                            0.0000  0.0000  0.0000  0.0000  0.0000
                                            0.0000  0.0000  0.0000  0.0000  0.0000
     7. (0.99999) CR ( 5) S   1           s(  0.00%)p 1.00(100.00%)
                                            0.0000  0.0000 -0.0000 -0.0000 -0.0000
                                            0.0000  0.0000  0.0000  0.0000  0.0000
                                            0.0000  0.0000  0.0000  0.0000  0.0000
                                            0.0000  0.0000  0.0000  0.0000  1.0000
                                           -0.0000  0.0000  0.0000 -0.0000 -0.0000
                                            0.0000  0.0000  0.0000  0.0000  0.0000
     8. (1.00000) CR ( 1) S   2           s(100.00%)
                                            1.0000 -0.0000  0.0000  0.0000  0.0000
                                           -0.0000 -0.0000  0.0000  0.0000  0.0000
                                            0.0000  0.0000  0.0000  0.0000  0.0000
                                            0.0000  0.0000  0.0000  0.0000 -0.0000
                                           -0.0000  0.0000  0.0000 -0.0000 -0.0000
                                            0.0000  0.0000  0.0000 -0.0000 -0.0000
     9. (0.99997) CR ( 2) S   2           s(100.00%)
                                           -0.0000  1.0000  0.0000  0.0000  0.0000
                                           -0.0000 -0.0000  0.0000  0.0000  0.0000
                                            0.0000  0.0000  0.0000  0.0000  0.0000
                                            0.0000  0.0000  0.0000  0.0000 -0.0000
                                           -0.0000  0.0000  0.0000 -0.0000 -0.0000
                                            0.0000  0.0000  0.0000 -0.0000 -0.0000
    10. (1.00000) CR ( 3) S   2           s(  0.00%)p 1.00(100.00%)
                                            0.0000  0.0000  0.0000  0.0000  0.0000
                                            0.0000  0.0000  1.0000 -0.0000 -0.0000
                                            0.0000 -0.0000 -0.0000  0.0000  0.0000
                                            0.0000  0.0000  0.0000  0.0000  0.0000
                                            0.0000  0.0000  0.0000  0.0000  0.0000
                                            0.0000 -0.0000  0.0000  0.0000  0.0000
    11. (0.99999) CR ( 4) S   2           s(  0.00%)p 1.00(100.00%)
                                            0.0000  0.0000  0.0000  0.0000  0.0000
                                            0.0000  0.0000  0.0000  0.0000  0.0000
                                            0.0000  0.0000  0.0000  1.0000  0.0000
                                            0.0000  0.0000  0.0000  0.0000  0.0000
                                            0.0000  0.0000  0.0000  0.0000  0.0000
                                            0.0000  0.0000  0.0000  0.0000  0.0000
    12. (0.99999) CR ( 5) S   2           s(  0.00%)p 1.00(100.00%)
                                           -0.0000 -0.0000  0.0000  0.0000  0.0000
                                           -0.0000 -0.0000  0.0000  0.0000  0.0000
                                            0.0000  0.0000  0.0000  0.0000  0.0000
                                            0.0000  0.0000  0.0000  0.0000  1.0000
                                           -0.0000  0.0000  0.0000 -0.0000 -0.0000
                                            0.0000  0.0000  0.0000 -0.0000 -0.0000
    13. (0.99990) LP ( 1) S   1           s( 93.49%)p 0.07(  6.49%)d 0.00(  0.01%)
                                           -0.0000 -0.0000  0.9669  0.0067  0.0001
                                           -0.0000 -0.0000  0.0000  0.0000  0.0000
                                            0.0000  0.0000  0.0000  0.0000  0.0000
                                            0.0000  0.0000  0.0000  0.0000  0.0000
                                            0.2547 -0.0055 -0.0023  0.0025  0.0001
                                            0.0000  0.0000  0.0000 -0.0111 -0.0032
    14. (0.99868) LP ( 2) S   1           s(  0.00%)p 1.00( 99.99%)d 0.00(  0.01%)
                                            0.0000  0.0000  0.0000  0.0000  0.0000
                                            0.0000  0.0000  0.0000  0.9997  0.0231
                                           -0.0003  0.0029  0.0000  0.0000  0.0000
                                            0.0000  0.0000  0.0000  0.0000  0.0000
                                            0.0000  0.0000  0.0000  0.0000  0.0000
                                            0.0000 -0.0082  0.0000  0.0000  0.0000
    15. (0.99990) LP ( 1) S   2           s( 93.49%)p 0.07(  6.49%)d 0.00(  0.01%)
                                           -0.0000 -0.0000  0.9669  0.0067  0.0001
                                           -0.0000 -0.0000  0.0000  0.0000  0.0000
                                            0.0000  0.0000  0.0000  0.0000  0.0000
                                            0.0000  0.0000  0.0000  0.0000 -0.0000
                                           -0.2547  0.0055  0.0023 -0.0025 -0.0001
                                            0.0000  0.0000  0.0000 -0.0111 -0.0032
    16. (0.99868) LP ( 2) S   2           s(  0.00%)p 1.00( 99.99%)d 0.00(  0.01%)
                                            0.0000  0.0000  0.0000  0.0000  0.0000
                                            0.0000  0.0000  0.0000  0.9997  0.0231
                                           -0.0003  0.0029  0.0000  0.0000  0.0000
                                            0.0000  0.0000  0.0000  0.0000  0.0000
                                            0.0000  0.0000  0.0000  0.0000  0.0000
                                            0.0000  0.0082  0.0000  0.0000  0.0000
    17. (0.00132) RY*( 1) S   1           s(  0.00%)p 1.00( 42.18%)d 1.37( 57.82%)
                                            0.0000  0.0000  0.0000  0.0000  0.0000
                                            0.0000  0.0000 -0.0000 -0.0080  0.6205
                                            0.1915 -0.0033 -0.0005  0.0000  0.0000
                                            0.0000  0.0000  0.0000  0.0000  0.0000
                                            0.0000  0.0000  0.0000  0.0000  0.0000
                                            0.0000  0.7604  0.0000  0.0000  0.0000
    18. (0.00010) RY*( 2) S   1           s( 50.27%)p 0.53( 26.56%)d 0.46( 23.16%)
    19. (0.00003) RY*( 3) S   1           s(  5.90%)p10.99( 64.87%)d 4.95( 29.22%)
    20. (0.00000) RY*( 4) S   1           s(100.00%)
    21. (0.00000) RY*( 5) S   1           s(  0.00%)p 1.00( 57.83%)d 0.73( 42.17%)
    22. (0.00000) RY*( 6) S   1           s(  0.00%)p 1.00(100.00%)
    23. (0.00000) RY*( 7) S   1           s(  0.00%)p 1.00(100.00%)d 0.00(  0.00%)
    24. (0.00000) RY*( 8) S   1           s(  0.00%)p 1.00(100.00%)d 0.00(  0.00%)
    25. (0.00000) RY*( 9) S   1           s(  0.00%)p 1.00(100.00%)d 0.00(  0.00%)
    26. (0.00000) RY*(10) S   1           s(  0.00%)p 1.00(100.00%)d 0.00(  0.00%)
    27. (0.00000) RY*(11) S   1           s(  0.00%)p 1.00(100.00%)d 0.00(  0.00%)
    28. (0.00000) RY*(12) S   1           s(  0.00%)p 1.00(100.00%)
    29. (0.00000) RY*(13) S   1           s( 57.70%)p 0.22( 12.97%)d 0.51( 29.32%)
    30. (0.00000) RY*(14) S   1           s(  0.75%)p99.99( 96.47%)d 3.74(  2.79%)
    31. (0.00000) RY*(15) S   1           s(  0.02%)p99.99( 99.98%)d 0.64(  0.01%)
    32. (0.00000) RY*(16) S   1           s(  0.14%)p99.99( 99.79%)d 0.48(  0.07%)
    33. (0.00000) RY*(17) S   1           s(  0.00%)p 0.00(  0.00%)d 1.00(100.00%)
    34. (0.00000) RY*(18) S   1           s( 84.85%)p 0.00(  0.02%)d 0.18( 15.13%)
    35. (0.00000) RY*(19) S   1           s(  0.00%)p 1.00(  0.25%)d99.99( 99.75%)
    36. (0.00000) RY*(20) S   1           s(  0.16%)p 0.23(  0.04%)d99.99( 99.80%)
    37. (0.00000) RY*(21) S   1           s(100.00%)p 0.00(  0.00%)d 0.00(  0.00%)
    38. (0.00132) RY*( 1) S   2           s(  0.00%)p 1.00( 42.18%)d 1.37( 57.82%)
                                            0.0000  0.0000  0.0000  0.0000  0.0000
                                            0.0000  0.0000  0.0000  0.0080 -0.6205
                                           -0.1915  0.0033  0.0005  0.0000  0.0000
                                            0.0000  0.0000  0.0000  0.0000  0.0000
                                            0.0000  0.0000  0.0000  0.0000  0.0000
                                            0.0000  0.7604  0.0000  0.0000  0.0000
    39. (0.00010) RY*( 2) S   2           s( 50.27%)p 0.53( 26.56%)d 0.46( 23.16%)
    40. (0.00003) RY*( 3) S   2           s(  5.90%)p10.99( 64.87%)d 4.95( 29.22%)
    41. (0.00000) RY*( 4) S   2           s(100.00%)
    42. (0.00000) RY*( 5) S   2           s(  0.00%)p 1.00( 57.83%)d 0.73( 42.17%)
    43. (0.00000) RY*( 6) S   2           s(  0.00%)p 1.00(100.00%)
    44. (0.00000) RY*( 7) S   2           s(  0.00%)p 1.00(100.00%)d 0.00(  0.00%)
    45. (0.00000) RY*( 8) S   2           s(  0.00%)p 1.00(100.00%)d 0.00(  0.00%)
    46. (0.00000) RY*( 9) S   2           s(  0.00%)p 1.00(100.00%)d 0.00(  0.00%)
    47. (0.00000) RY*(10) S   2           s(  0.00%)p 1.00(100.00%)d 0.00(  0.00%)
    48. (0.00000) RY*(11) S   2           s(  0.00%)p 1.00(100.00%)d 0.00(  0.00%)
    49. (0.00000) RY*(12) S   2           s(  0.00%)p 1.00(100.00%)
    50. (0.00000) RY*(13) S   2           s( 57.70%)p 0.22( 12.97%)d 0.51( 29.32%)
    51. (0.00000) RY*(14) S   2           s(  0.75%)p99.99( 96.47%)d 3.74(  2.79%)
    52. (0.00000) RY*(15) S   2           s(  0.02%)p99.99( 99.98%)d 0.64(  0.01%)
    53. (0.00000) RY*(16) S   2           s(  0.14%)p99.99( 99.79%)d 0.48(  0.07%)
    54. (0.00000) RY*(17) S   2           s(  0.00%)p 0.00(  0.00%)d 1.00(100.00%)
    55. (0.00000) RY*(18) S   2           s( 84.85%)p 0.00(  0.02%)d 0.18( 15.13%)
    56. (0.00000) RY*(19) S   2           s(  0.00%)p 1.00(  0.25%)d99.99( 99.75%)
    57. (0.00000) RY*(20) S   2           s(  0.16%)p 0.23(  0.04%)d99.99( 99.80%)
    58. (0.00000) RY*(21) S   2           s(100.00%)p 0.00(  0.00%)d 0.00(  0.00%)
    59. (0.00002) BD*( 1) S   1 - S   2  
                ( 50.00%)   0.7071* S   1 s(  0.00%)p 1.00( 99.75%)d 0.00(  0.25%)
                ( 50.00%)  -0.7071* S   2 s(  0.00%)p 1.00( 99.75%)d 0.00(  0.25%)
    60. (0.00002) BD*( 2) S   1 - S   2  
                ( 50.00%)   0.7071* S   1 s(  6.72%)p13.82( 92.80%)d 0.07(  0.48%)
                ( 50.00%)  -0.7071* S   2 s(  6.72%)p13.82( 92.80%)d 0.07(  0.48%)


 NHO Directionality and "Bond Bending" (deviations from line of nuclear centers)

         [Thresholds for printing:  angular deviation  >  1.0 degree]
                                    hybrid p-character > 25.0%
                                    orbital occupancy  >  0.10e

                                Line of Centers        Hybrid 1              Hybrid 2
                                ---------------  -------------------   ------------------
                NBO               Theta   Phi    Theta   Phi    Dev    Theta   Phi    Dev
 ========================================================================================
     1. BD (   1) S   1 - S   2   180.0    0.0    90.0   90.0  90.0     90.0   90.0  90.0
    14. LP (   2) S   1             --     --     90.0    0.0   --       --     --    --
    16. LP (   2) S   2             --     --     90.0    0.0   --       --     --    --


 Second Order Perturbation Theory Analysis of Fock Matrix in NBO Basis

     Threshold for printing:   0.25 kcal/mol
                                                                              E(2)  E(j)-E(i) F(i,j)
         Donor NBO (i)                     Acceptor NBO (j)                 kcal/mol   a.u.    a.u. 
 ===================================================================================================

 within unit  1
  14. LP (   2) S   1                / 38. RY*(   1) S   2                    0.77    0.92    0.034
  16. LP (   2) S   2                / 17. RY*(   1) S   1                    0.77    0.92    0.034


 Natural Bond Orbitals (Summary):

                                                            Principal Delocalizations
           NBO                        Occupancy    Energy   (geminal,vicinal,remote)
 ====================================================================================
 Molecular unit  1  (S2)
     1. BD (   1) S   1 - S   2          1.00000    -0.37381   
     2. BD (   2) S   1 - S   2          1.00000    -0.56022   
     3. CR (   1) S   1                  1.00000   -88.92370   
     4. CR (   2) S   1                  0.99997    -9.27280   
     5. CR (   3) S   1                  1.00000    -6.24730   
     6. CR (   4) S   1                  0.99999    -6.25581   
     7. CR (   5) S   1                  0.99999    -6.25448   
     8. CR (   1) S   2                  1.00000   -88.92370   
     9. CR (   2) S   2                  0.99997    -9.27280   
    10. CR (   3) S   2                  1.00000    -6.24730   
    11. CR (   4) S   2                  0.99999    -6.25581   
    12. CR (   5) S   2                  0.99999    -6.25448   
    13. LP (   1) S   1                  0.99990    -0.83868   
    14. LP (   2) S   1                  0.99868    -0.34327  38(v)
    15. LP (   1) S   2                  0.99990    -0.83868   
    16. LP (   2) S   2                  0.99868    -0.34327  17(v)
    17. RY*(   1) S   1                  0.00132     0.58093   
    18. RY*(   2) S   1                  0.00010     0.56664   
    19. RY*(   3) S   1                  0.00003     0.42743   
    20. RY*(   4) S   1                  0.00000   173.03709   
    21. RY*(   5) S   1                  0.00000     0.54225   
    22. RY*(   6) S   1                  0.00000     0.12939   
    23. RY*(   7) S   1                  0.00000     1.64452   
    24. RY*(   8) S   1                  0.00000    17.40601   
    25. RY*(   9) S   1                  0.00000     0.23593   
    26. RY*(  10) S   1                  0.00000     0.19649   
    27. RY*(  11) S   1                  0.00000     1.63650   
    28. RY*(  12) S   1                  0.00000    17.40515   
    29. RY*(  13) S   1                  0.00000     0.34224   
    30. RY*(  14) S   1                  0.00000     0.18976   
    31. RY*(  15) S   1                  0.00000     1.68188   
    32. RY*(  16) S   1                  0.00000    17.41777   
    33. RY*(  17) S   1                  0.00000     0.79674   
    34. RY*(  18) S   1                  0.00000     0.73229   
    35. RY*(  19) S   1                  0.00000     0.78170   
    36. RY*(  20) S   1                  0.00000     0.79095   
    37. RY*(  21) S   1                  0.00000    23.64229   
    38. RY*(   1) S   2                  0.00132     0.58093   
    39. RY*(   2) S   2                  0.00010     0.56664   
    40. RY*(   3) S   2                  0.00003     0.42743   
    41. RY*(   4) S   2                  0.00000   173.03709   
    42. RY*(   5) S   2                  0.00000     0.54225   
    43. RY*(   6) S   2                  0.00000     0.12939   
    44. RY*(   7) S   2                  0.00000     1.64452   
    45. RY*(   8) S   2                  0.00000    17.40601   
    46. RY*(   9) S   2                  0.00000     0.23593   
    47. RY*(  10) S   2                  0.00000     0.19649   
    48. RY*(  11) S   2                  0.00000     1.63650   
    49. RY*(  12) S   2                  0.00000    17.40515   
    50. RY*(  13) S   2                  0.00000     0.34224   
    51. RY*(  14) S   2                  0.00000     0.18976   
    52. RY*(  15) S   2                  0.00000     1.68188   
    53. RY*(  16) S   2                  0.00000    17.41777   
    54. RY*(  17) S   2                  0.00000     0.79674   
    55. RY*(  18) S   2                  0.00000     0.73229   
    56. RY*(  19) S   2                  0.00000     0.78170   
    57. RY*(  20) S   2                  0.00000     0.79095   
    58. RY*(  21) S   2                  0.00000    23.64229   
    59. BD*(   1) S   1 - S   2          0.00002    -0.17241   
    60. BD*(   2) S   1 - S   2          0.00002    -0.01647   
       -------------------------------
              Total Lewis   15.99705  ( 99.9816%)
        Valence non-Lewis    0.00004  (  0.0003%)
        Rydberg non-Lewis    0.00291  (  0.0182%)
       -------------------------------
            Total unit  1   16.00000  (100.0000%)
           Charge unit  1    0.00000
 Sorting of NBOs:                    3    8    9    4    6   11    7   12    5   10
 Sorting of NBOs:                   15   13    2    1   14   16   59   60   22   43
 Sorting of NBOs:                   30   51   26   47   46   25   50   29   40   19
 Sorting of NBOs:                   21   42   18   39   17   38   34   55   56   35
 Sorting of NBOs:                   36   57   54   33   48   27   44   23   52   31
 Sorting of NBOs:                   49   28   45   24   53   32   58   37   20   41
 Reordering of NBOs for storage:     3    8    9    4    6   11    7   12    5   10
 Reordering of NBOs for storage:    15   13    2    1   14   16   59   60   22   43
 Reordering of NBOs for storage:    30   51   26   47   46   25   50   29   40   19
 Reordering of NBOs for storage:    21   42   18   39   17   38   34   55   56   35
 Reordering of NBOs for storage:    36   57   54   33   48   27   44   23   52   31
 Reordering of NBOs for storage:    49   28   45   24   53   32   58   37   20   41
 Labels of output orbitals:  CR  CR  CR  CR  CR  CR  CR  CR  CR  CR  LP  LP  BD  BD  LP  LP  BD* BD* RY* RY* 
 Labels of output orbitals:  RY* RY* RY* RY* RY* RY* RY* RY* RY* RY* RY* RY* RY* RY* RY* RY* RY* RY* RY* RY* 
 Labels of output orbitals:  RY* RY* RY* RY* RY* RY* RY* RY* RY* RY* RY* RY* RY* RY* RY* RY* RY* RY* RY* RY* 
 GSVD:  LWork=       -2288 too small for GESVD, short by       10340 words or       10340 for optimal perf.
 Leave Link  607 at Mon Apr 21 20:08:39 2025, MaxMem=   536870912 cpu:              11.8 elap:               1.9
 (Enter /home/szhao/Apps/g16/l701.exe)
 ... and contract with generalized density number  0.
 Compute integral first derivatives.
 Leave Link  701 at Mon Apr 21 20:08:40 2025, MaxMem=   536870912 cpu:               1.3 elap:               0.3
 (Enter /home/szhao/Apps/g16/l702.exe)
 L702 exits ... SP integral derivatives will be done elsewhere.
 Leave Link  702 at Mon Apr 21 20:08:41 2025, MaxMem=   536870912 cpu:               0.5 elap:               0.3
 (Enter /home/szhao/Apps/g16/l703.exe)
 Integral derivatives from FoFJK, PRISM(SPDF).
 Compute integral first derivatives, UseDBF=F ICtDFT=           0.
 Calling FoFJK, ICntrl=      2127 FMM=F ISym2X=1 I1Cent= 0 IOpClX= 1 NMat=1 NMatS=1 NMatT=0.
 FoFJK:  IHMeth= 1 ICntrl=    2127 DoSepK=F KAlg= 0 I1Cent=           0 FoldK=F
 IRaf=         0 NMat=       1 IRICut=       1 DoRegI=T DoRafI=F ISym2E= 1 IDoP0=0 IntGTp=1.
 FoFCou: FMM=F IPFlag=           0 FMFlag=      100000 FMFlg1=         800
         NFxFlg=           0 DoJE=F BraDBF=F KetDBF=F FulRan=T
         wScrn=  0.000000 ICntrl=      2127 IOpCl=  1 I1Cent=           0 NGrid=           0
         NMat0=    1 NMatS0=      1 NMatT0=    0 NMatD0=    1 NMtDS0=    0 NMtDT0=    0
 Petite list used in FoFCou.
 Leave Link  703 at Mon Apr 21 20:08:42 2025, MaxMem=   536870912 cpu:               2.1 elap:               0.4
 (Enter /home/szhao/Apps/g16/l716.exe)
 Dipole        =-1.57772181D-30 1.78894089D-34 0.00000000D+00
 ***** Axes restored to original set *****
 -------------------------------------------------------------------
 Center     Atomic                   Forces (Hartrees/Bohr)
 Number     Number              X              Y              Z
 -------------------------------------------------------------------
      1       16           0.098494588   -0.000000000    0.000000000
      2       16          -0.098494588    0.000000000   -0.000000000
 -------------------------------------------------------------------
 Cartesian Forces:  Max     0.098494588 RMS     0.056865877
 Z-matrix is all fixed cartesians, so copy forces.
 Force constants in Cartesian coordinates: 
                1             2             3             4             5 
      1  0.166307D+00
      2  0.000000D+00  0.100000D+01
      3  0.000000D+00  0.000000D+00  0.100000D+01
      4 -0.166307D+00  0.000000D+00  0.000000D+00  0.166307D+00
      5  0.000000D+00  0.000000D+00  0.000000D+00  0.000000D+00  0.100000D+01
      6  0.000000D+00  0.000000D+00  0.000000D+00  0.000000D+00  0.000000D+00
                6 
      6  0.100000D+01
 Leave Link  716 at Mon Apr 21 20:08:42 2025, MaxMem=   536870912 cpu:               1.0 elap:               0.4
 (Enter /home/szhao/Apps/g16/l103.exe)

 GradGradGradGradGradGradGradGradGradGradGradGradGradGradGradGradGradGrad
 Berny optimization.
 Search for a local minimum.
 Step number   1 out of a maximum of    2
 All quantities printed in internal units (Hartrees-Bohrs-Radians)
 Second derivative matrix not updated -- first step.
 The second derivative matrix:
                          X1        Y1        Z1        X2        Y2
           X1           0.16631
           Y1           0.00000   1.00000
           Z1           0.00000   0.00000   1.00000
           X2          -0.16631   0.00000  -0.00000   0.16631
           Y2           0.00000   0.00000   0.00000   0.00000   1.00000
           Z2          -0.00000   0.00000  -0.00000   0.00000   0.00000
                          Z2
           Z2           1.00000
 ITU=  0
     Eigenvalues ---    0.33261
 Quadratic step=4.188D-01 exceeds max=3.000D-01 adjusted using Lamda=-1.316D-01.
 Angle between NR and scaled steps=   0.00 degrees.
 Angle between quadratic step and forces=   0.00 degrees.
 ClnCor:  largest displacement from symmetrization is 1.30D-17 for atom     1.
 Linear search not attempted -- first point.
 ClnCor:  largest displacement from symmetrization is 0.00D+00 for atom     0.
 B after Tr=     0.000000    0.000000    0.000000
         Rot=    1.000000    0.000000    0.000000    0.000000 Ang=   0.00 deg.
 Variable       Old X    -DE/DX   Delta X   Delta X   Delta X     New X
                                 (Linear)    (Quad)   (Total)
    X1       -2.12632   0.09849   0.00000   0.21217   0.21217  -1.91415
    Y1        0.00000  -0.00000   0.00000   0.00000   0.00000   0.00000
    Z1        0.00000   0.00000   0.00000   0.00000   0.00000   0.00000
    X2        2.12632  -0.09849   0.00000  -0.21217  -0.21217   1.91415
    Y2        0.00000   0.00000   0.00000   0.00000   0.00000   0.00000
    Z2        0.00000  -0.00000   0.00000  -0.00000  -0.00000   0.00000
         Item               Value     Threshold  Converged?
 Maximum Force            0.098495     0.000450     NO 
 RMS     Force            0.056866     0.000300     NO 
 Maximum Displacement     0.212172     0.001800     NO 
 RMS     Displacement     0.122498     0.001200     NO 
 Predicted change in Energy=-2.682236D-02
 GradGradGradGradGradGradGradGradGradGradGradGradGradGradGradGradGradGrad

 Leave Link  103 at Mon Apr 21 20:08:43 2025, MaxMem=   536870912 cpu:               2.5 elap:               0.4
 (Enter /home/szhao/Apps/g16/l9999.exe)
 1\1\GINC-NODE05\Force\UM062X\6-311+G(d,p)\S2\SZHAO\21-Apr-2025\0\\#p U
 M062X/6-311+G** force int=superfine pop=saveNBO\\Title Card Required\\
 0,1\S,-1.1252,0.,0.\S,1.1252,0.,0.\\Version=ES64L-G16RevA.03\HF=-796.2
 649596\S2=0.\S2-1=0.\S2A=0.\RMSD=3.094e-09\RMSF=5.687e-02\Dipole=0.,0.
 ,0.\Quadrupole=1.3783127,1.1666076,-2.5449203,0.,0.,0.\PG=D*H [C*(S1.S
 1)]\\@



 IN THIS SHORT LIFE

 THAT ONLY LASTS AN HOUR

 HOW MUCH, HOW LITTLE, IS WITHIN OUR POWER....


 EMILY DICKINSON BOLTS OF MELODY NO. 521
 Job cpu time:       0 days  0 hours  0 minutes 48.5 seconds.
 Elapsed time:       0 days  0 hours  0 minutes 10.9 seconds.
 File lengths (MBytes):  RWF=     17 Int=      0 D2E=      0 Chk=      2 Scr=      2
 Normal termination of Gaussian 16 at Mon Apr 21 20:08:44 2025.
