 Entering Gaussian System, Link 0=g16
 Initial command:
 /home/szhao/Apps/g16/l1.exe "/home/szhao/tmp/Gau-40992.inp" -scrdir="/home/szhao/tmp/"
 Default is to use a total of  16 processors:
                               16 via shared-memory
                                1 via Linda
 Entering Link 1 = /home/szhao/Apps/g16/l1.exe PID=     40994.
  
 Copyright (c) 1988,1990,1992,1993,1995,1998,2003,2009,2016,
            Gaussian, Inc.  All Rights Reserved.
  
 This is part of the Gaussian(R) 16 program.  It is based on
 the Gaussian(R) 09 system (copyright 2009, Gaussian, Inc.),
 the Gaussian(R) 03 system (copyright 2003, Gaussian, Inc.),
 the Gaussian(R) 98 system (copyright 1998, Gaussian, Inc.),
 the Gaussian(R) 94 system (copyright 1995, Gaussian, Inc.),
 the Gaussian 92(TM) system (copyright 1992, Gaussian, Inc.),
 the Gaussian 90(TM) system (copyright 1990, Gaussian, Inc.),
 the Gaussian 88(TM) system (copyright 1988, Gaussian, Inc.),
 the Gaussian 86(TM) system (copyright 1986, Carnegie Mellon
 University), and the Gaussian 82(TM) system (copyright 1983,
 Carnegie Mellon University). Gaussian is a federally registered
 trademark of Gaussian, Inc.
  
 This software contains proprietary and confidential information,
 including trade secrets, belonging to Gaussian, Inc.
  
 This software is provided under written license and may be
 used, copied, transmitted, or stored only in accord with that
 written license.
  
 The following legend is applicable only to US Government
 contracts under FAR:
  
                    RESTRICTED RIGHTS LEGEND
  
 Use, reproduction and disclosure by the US Government is
 subject to restrictions as set forth in subparagraphs (a)
 and (c) of the Commercial Computer Software - Restricted
 Rights clause in FAR 52.227-19.
  
 Gaussian, Inc.
 340 Quinnipiac St., Bldg. 40, Wallingford CT 06492
  
  
 ---------------------------------------------------------------
 Warning -- This program may not be used in any manner that
 competes with the business of Gaussian, Inc. or will provide
 assistance to any competitor of Gaussian, Inc.  The licensee
 of this program is prohibited from giving any competitor of
 Gaussian, Inc. access to this program.  By using this program,
 the user acknowledges that Gaussian, Inc. is engaged in the
 business of creating and licensing software in the field of
 computational chemistry and represents and warrants to the
 licensee that it is not a competitor of Gaussian, Inc. and that
 it will not use this program in any manner prohibited above.
 ---------------------------------------------------------------
  

 Cite this work as:
 Gaussian 16, Revision A.03,
 M. J. Frisch, G. W. Trucks, H. B. Schlegel, G. E. Scuseria, 
 M. A. Robb, J. R. Cheeseman, G. Scalmani, V. Barone, 
 G. A. Petersson, H. Nakatsuji, X. Li, M. Caricato, A. V. Marenich, 
 J. Bloino, B. G. Janesko, R. Gomperts, B. Mennucci, H. P. Hratchian, 
 J. V. Ortiz, A. F. Izmaylov, J. L. Sonnenberg, D. Williams-Young, 
 F. Ding, F. Lipparini, F. Egidi, J. Goings, B. Peng, A. Petrone, 
 T. Henderson, D. Ranasinghe, V. G. Zakrzewski, J. Gao, N. Rega, 
 G. Zheng, W. Liang, M. Hada, M. Ehara, K. Toyota, R. Fukuda, 
 J. Hasegawa, M. Ishida, T. Nakajima, Y. Honda, O. Kitao, H. Nakai, 
 T. Vreven, K. Throssell, J. A. Montgomery, Jr., J. E. Peralta, 
 F. Ogliaro, M. J. Bearpark, J. J. Heyd, E. N. Brothers, K. N. Kudin, 
 V. N. Staroverov, T. A. Keith, R. Kobayashi, J. Normand, 
 K. Raghavachari, A. P. Rendell, J. C. Burant, S. S. Iyengar, 
 J. Tomasi, M. Cossi, J. M. Millam, M. Klene, C. Adamo, R. Cammi, 
 J. W. Ochterski, R. L. Martin, K. Morokuma, O. Farkas, 
 J. B. Foresman, and D. J. Fox, Gaussian, Inc., Wallingford CT, 2016.
 
 ******************************************
 Gaussian 16:  ES64L-G16RevA.03 25-Dec-2016
                13-Nov-2024 
 ******************************************
 %chk=opt.chk
 %mem=16GB
 %nprocshared=28
 Will use up to   28 processors via shared memory.
 ---------------------------------------
 #p UM062X/6-311+G** force int=superfine
 ---------------------------------------
 1/10=7,30=1,38=1/1,3;
 2/12=2,17=6,18=5,40=1/2;
 3/5=4,6=6,7=111,11=2,25=1,30=1,71=1,74=-55,75=-7,116=2/1,2,3;
 4//1;
 5/5=2,38=5/2;
 6/7=2,8=2,9=2,10=2,28=1/1;
 7/29=1/1,2,3,16;
 1/10=7,30=1/3;
 99//99;
 Leave Link    1 at Wed Nov 13 12:57:50 2024, MaxMem=  2147483648 cpu:               2.1 elap:               0.1
 (Enter /home/szhao/Apps/g16/l101.exe)
 -------------------
 Title Card Required
 -------------------
 Symbolic Z-matrix:
 Charge =  1 Multiplicity = 2
 C                    -1.48374   0.        0. 
 C                     1.48374   0.        0. 
 H                     1.53727  -0.93713   0.54238 
 H                    -1.53603  -0.93825  -0.54058 
 H                     1.53675   0.93833   0.54035 
 H                     1.53602  -0.00116  -1.08283 
 H                    -1.5373    0.93722  -0.54223 
 H                    -1.53669   0.00093   1.0828 
 
 ITRead=  0  0  0  0  0  0  0  0
 MicOpt= -1 -1 -1 -1 -1 -1 -1 -1
 NAtoms=      8 NQM=        8 NQMF=       0 NMMI=      0 NMMIF=      0
                NMic=       0 NMicF=      0.
                    Isotopes and Nuclear Properties:
 (Nuclear quadrupole moments (NQMom) in fm**2, nuclear magnetic moments (NMagM)
  in nuclear magnetons)

  Atom         1           2           3           4           5           6           7           8
 IAtWgt=          12          12           1           1           1           1           1           1
 AtmWgt=  12.0000000  12.0000000   1.0078250   1.0078250   1.0078250   1.0078250   1.0078250   1.0078250
 NucSpn=           0           0           1           1           1           1           1           1
 AtZEff=  -0.0000000  -0.0000000  -0.0000000  -0.0000000  -0.0000000  -0.0000000  -0.0000000  -0.0000000
 NQMom=    0.0000000   0.0000000   0.0000000   0.0000000   0.0000000   0.0000000   0.0000000   0.0000000
 NMagM=    0.0000000   0.0000000   2.7928460   2.7928460   2.7928460   2.7928460   2.7928460   2.7928460
 AtZNuc=   6.0000000   6.0000000   1.0000000   1.0000000   1.0000000   1.0000000   1.0000000   1.0000000
 Leave Link  101 at Wed Nov 13 12:57:51 2024, MaxMem=  2147483648 cpu:               4.8 elap:               0.2
 (Enter /home/szhao/Apps/g16/l103.exe)

 GradGradGradGradGradGradGradGradGradGradGradGradGradGradGradGradGradGrad
 Berny optimization.
 Initialization pass.
 Trust Radius=3.00D-01 FncErr=1.00D-07 GrdErr=1.00D-07 EigMax=2.50D+02 EigMin=1.00D-04
 Number of steps in this run=      2 maximum allowed number of steps=      2.
 GradGradGradGradGradGradGradGradGradGradGradGradGradGradGradGradGradGrad

 Leave Link  103 at Wed Nov 13 12:57:51 2024, MaxMem=  2147483648 cpu:               1.5 elap:               0.1
 (Enter /home/szhao/Apps/g16/l202.exe)
                          Input orientation:                          
 ---------------------------------------------------------------------
 Center     Atomic      Atomic             Coordinates (Angstroms)
 Number     Number       Type             X           Y           Z
 ---------------------------------------------------------------------
      1          6           0       -1.483739    0.000000    0.000000
      2          6           0        1.483739    0.000000    0.000000
      3          1           0        1.537268   -0.937132    0.542382
      4          1           0       -1.536027   -0.938245   -0.540576
      5          1           0        1.536749    0.938334    0.540353
      6          1           0        1.536016   -0.001155   -1.082831
      7          1           0       -1.537302    0.937222   -0.542226
      8          1           0       -1.536690    0.000929    1.082799
 ---------------------------------------------------------------------
                    Distance matrix (angstroms):
                    1          2          3          4          5
     1  C    0.000000
     2  C    2.967478   0.000000
     3  H    3.209186   1.084094   0.000000
     4  H    1.084094   3.208039   3.258518   0.000000
     5  H    3.208707   1.084095   1.875467   3.759243   0.000000
     6  H    3.208028   1.084093   1.875466   3.257242   1.875464
     7  H    1.084096   3.209218   3.760659   1.875468   3.259105
     8  H    1.084093   3.208652   3.259022   1.875472   3.258681
                    6          7          8
     6  H    0.000000
     7  H    3.258541   0.000000
     8  H    3.759186   1.875460   0.000000
 This structure is nearly, but not quite of a higher symmetry.
 Consider Symm=Loose if the higher symmetry is desired.
 Stoichiometry    C2H6(1+,2)
 Framework group  C1[X(C2H6)]
 Deg. of freedom    18
 Full point group                 C1      NOp   1
 Largest Abelian subgroup         C1      NOp   1
 Largest concise Abelian subgroup C1      NOp   1
                         Standard orientation:                         
 ---------------------------------------------------------------------
 Center     Atomic      Atomic             Coordinates (Angstroms)
 Number     Number       Type             X           Y           Z
 ---------------------------------------------------------------------
      1          6           0        0.487024   -0.637434    1.248186
      2          6           0       -0.487017    0.637444   -1.248182
      3          1           0        0.404982    0.363214   -1.799903
      4          1           0        0.553744   -1.615288    0.784926
      5          1           0       -0.554197    1.615532   -0.785481
      6          1           0       -1.364066    0.001789   -1.292740
      7          1           0       -0.404886   -0.363064    1.799985
      8          1           0        1.364384   -0.002239    1.293189
 ---------------------------------------------------------------------
 Rotational constants (GHZ):          71.2826202           7.1523118           7.1523092
 Leave Link  202 at Wed Nov 13 12:57:51 2024, MaxMem=  2147483648 cpu:               1.7 elap:               0.1
 (Enter /home/szhao/Apps/g16/l301.exe)
 Standard basis: 6-311+G(d,p) (5D, 7F)
 Ernie: Thresh=  0.10000D-02 Tol=  0.10000D-05 Strict=F.
 There are    82 symmetry adapted cartesian basis functions of A   symmetry.
 There are    80 symmetry adapted basis functions of A   symmetry.
    80 basis functions,   120 primitive gaussians,    82 cartesian basis functions
     9 alpha electrons        8 beta electrons
       nuclear repulsion energy        33.0191460949 Hartrees.
 IExCor= 4336 DFT=T Ex+Corr=M062X ExCW=0 ScaHFX=  0.540000
 ScaDFX=  1.000000  1.000000  1.000000  1.000000 ScalE2=  1.000000  1.000000
 IRadAn=      7 IRanWt=     -1 IRanGd=            0 ICorTp=0 IEmpDi=  4
 NAtoms=    8 NActive=    8 NUniq=    8 SFac= 1.00D+00 NAtFMM=   60 NAOKFM=F Big=F
 Integral buffers will be    131072 words long.
 Raffenetti 2 integral format.
 Two-electron integral symmetry is turned on.
 Leave Link  301 at Wed Nov 13 12:57:51 2024, MaxMem=  2147483648 cpu:               2.9 elap:               0.1
 (Enter /home/szhao/Apps/g16/l302.exe)
 NPDir=0 NMtPBC=     1 NCelOv=     1 NCel=       1 NClECP=     1 NCelD=      1
         NCelK=      1 NCelE2=     1 NClLst=     1 CellRange=     0.0.
 One-electron integrals computed using PRISM.
 One-electron integral symmetry used in STVInt
 NBasis=    80 RedAO= T EigKep=  2.64D-03  NBF=    80
 NBsUse=    80 1.00D-06 EigRej= -1.00D+00 NBFU=    80
 Precomputing XC quadrature grid using
 IXCGrd= 4 IRadAn=           7 IRanWt=          -1 IRanGd=           0 AccXCQ= 0.00D+00.
 Generated NRdTot=       0 NPtTot=           0 NUsed=           0 NTot=          32
 NSgBfM=    82    82    82    82    82 MxSgAt=     8 MxSgA2=     8.
 Leave Link  302 at Wed Nov 13 12:57:51 2024, MaxMem=  2147483648 cpu:               6.0 elap:               0.2
 (Enter /home/szhao/Apps/g16/l303.exe)
 DipDrv:  MaxL=1.
 Leave Link  303 at Wed Nov 13 12:57:51 2024, MaxMem=  2147483648 cpu:               0.8 elap:               0.0
 (Enter /home/szhao/Apps/g16/l401.exe)
 ExpMin= 4.38D-02 ExpMax= 4.56D+03 ExpMxC= 6.82D+02 IAcc=3 IRadAn=         7 AccDes= 0.00D+00
 Harris functional with IExCor= 1009 and IRadAn=       7 diagonalized for initial guess.
 HarFok:  IExCor= 1009 AccDes= 0.00D+00 IRadAn=         7 IDoV= 1 UseB2=F ITyADJ=14
 ICtDFT=  3500011 ScaDFX=  1.000000  1.000000  1.000000  1.000000
 FoFCou: FMM=F IPFlag=           0 FMFlag=      100000 FMFlg1=           0
         NFxFlg=           0 DoJE=T BraDBF=F KetDBF=T FulRan=T
         wScrn=  0.000000 ICntrl=       500 IOpCl=  0 I1Cent=   200000004 NGrid=           0
         NMat0=    1 NMatS0=      1 NMatT0=    0 NMatD0=    1 NMtDS0=    0 NMtDT0=    0
 Petite list used in FoFCou.
 Harris En= -79.3605485229771    
 JPrj=0 DoOrth=F DoCkMO=F.
 Initial guess <Sx>= 0.0000 <Sy>= 0.0000 <Sz>= 0.5000 <S**2>= 0.7500 S= 0.5000
 Leave Link  401 at Wed Nov 13 12:57:52 2024, MaxMem=  2147483648 cpu:               9.3 elap:               0.4
 (Enter /home/szhao/Apps/g16/l502.exe)
 Keep R1 and R2 ints in memory in canonical form, NReq=35964544.
 FoFCou: FMM=F IPFlag=           0 FMFlag=           0 FMFlg1=           0
         NFxFlg=           0 DoJE=F BraDBF=F KetDBF=F FulRan=T
         wScrn=  0.000000 ICntrl=       600 IOpCl=  0 I1Cent=           0 NGrid=           0
         NMat0=    1 NMatS0=   3240 NMatT0=    0 NMatD0=    1 NMtDS0=    0 NMtDT0=    0
 Symmetry not used in FoFCou.
 Two-electron integral symmetry not used.
 UHF open shell SCF:
 Using DIIS extrapolation, IDIIS=  1040.
 NGot=  2147483648 LenX=  2136966052 LenY=  2136958887
 Requested convergence on RMS density matrix=1.00D-08 within 128 cycles.
 Requested convergence on MAX density matrix=1.00D-06.
 Requested convergence on             energy=1.00D-06.
 No special actions if energy rises.

 Cycle   1  Pass 1  IDiag  1:
 E= -79.3213560242987    
 DIIS: error= 2.51D-02 at cycle   1 NSaved=   1.
 NSaved= 1 IEnMin= 1 EnMin= -79.3213560242987     IErMin= 1 ErrMin= 2.51D-02
 ErrMax= 2.51D-02  0.00D+00 EMaxC= 1.00D-01 BMatC= 1.07D-01 BMatP= 1.07D-01
 IDIUse=3 WtCom= 7.49D-01 WtEn= 2.51D-01
 Coeff-Com:  0.100D+01
 Coeff-En:   0.100D+01
 Coeff:      0.100D+01
 Gap=     0.182 Goal=   None    Shift=    0.000
 Gap=     0.417 Goal=   None    Shift=    0.000
 GapD=    0.182 DampG=1.000 DampE=0.500 DampFc=0.5000 IDamp=-1.
 Damping current iteration by 5.00D-01
 RMSDP=1.87D-03 MaxDP=4.70D-02              OVMax= 8.28D-02

 Cycle   2  Pass 1  IDiag  1:
 E= -79.3318241384860     Delta-E=       -0.010468114187 Rises=F Damp=T
 DIIS: error= 1.00D-02 at cycle   2 NSaved=   2.
 NSaved= 2 IEnMin= 2 EnMin= -79.3318241384860     IErMin= 2 ErrMin= 1.00D-02
 ErrMax= 1.00D-02  0.00D+00 EMaxC= 1.00D-01 BMatC= 1.66D-02 BMatP= 1.07D-01
 IDIUse=3 WtCom= 9.00D-01 WtEn= 1.00D-01
 Coeff-Com: -0.456D+00 0.146D+01
 Coeff-En:   0.000D+00 0.100D+01
 Coeff:     -0.410D+00 0.141D+01
 Gap=     0.180 Goal=   None    Shift=    0.000
 Gap=     0.407 Goal=   None    Shift=    0.000
 RMSDP=7.68D-04 MaxDP=1.36D-02 DE=-1.05D-02 OVMax= 2.10D-02

 Cycle   3  Pass 1  IDiag  1:
 E= -79.3410473479733     Delta-E=       -0.009223209487 Rises=F Damp=F
 DIIS: error= 2.07D-03 at cycle   3 NSaved=   3.
 NSaved= 3 IEnMin= 3 EnMin= -79.3410473479733     IErMin= 3 ErrMin= 2.07D-03
 ErrMax= 2.07D-03  0.00D+00 EMaxC= 1.00D-01 BMatC= 5.51D-04 BMatP= 1.66D-02
 IDIUse=3 WtCom= 9.79D-01 WtEn= 2.07D-02
 Coeff-Com: -0.127D+00 0.241D+00 0.885D+00
 Coeff-En:   0.000D+00 0.000D+00 0.100D+01
 Coeff:     -0.124D+00 0.236D+00 0.888D+00
 Gap=     0.182 Goal=   None    Shift=    0.000
 Gap=     0.408 Goal=   None    Shift=    0.000
 RMSDP=1.06D-04 MaxDP=3.49D-03 DE=-9.22D-03 OVMax= 5.33D-03

 Cycle   4  Pass 1  IDiag  1:
 E= -79.3412038462210     Delta-E=       -0.000156498248 Rises=F Damp=F
 DIIS: error= 3.27D-04 at cycle   4 NSaved=   4.
 NSaved= 4 IEnMin= 4 EnMin= -79.3412038462210     IErMin= 4 ErrMin= 3.27D-04
 ErrMax= 3.27D-04  0.00D+00 EMaxC= 1.00D-01 BMatC= 1.68D-05 BMatP= 5.51D-04
 IDIUse=3 WtCom= 9.97D-01 WtEn= 3.27D-03
 Coeff-Com:  0.477D-02-0.164D-01 0.389D-01 0.973D+00
 Coeff-En:   0.000D+00 0.000D+00 0.000D+00 0.100D+01
 Coeff:      0.476D-02-0.163D-01 0.388D-01 0.973D+00
 Gap=     0.182 Goal=   None    Shift=    0.000
 Gap=     0.408 Goal=   None    Shift=    0.000
 RMSDP=2.63D-05 MaxDP=6.09D-04 DE=-1.56D-04 OVMax= 1.00D-03

 Cycle   5  Pass 1  IDiag  1:
 E= -79.3412111734482     Delta-E=       -0.000007327227 Rises=F Damp=F
 DIIS: error= 1.01D-04 at cycle   5 NSaved=   5.
 NSaved= 5 IEnMin= 5 EnMin= -79.3412111734482     IErMin= 5 ErrMin= 1.01D-04
 ErrMax= 1.01D-04  0.00D+00 EMaxC= 1.00D-01 BMatC= 2.17D-06 BMatP= 1.68D-05
 IDIUse=3 WtCom= 9.99D-01 WtEn= 1.01D-03
 Coeff-Com:  0.152D-01-0.293D-01-0.105D+00-0.668D-02 0.113D+01
 Coeff-En:   0.000D+00 0.000D+00 0.000D+00 0.000D+00 0.100D+01
 Coeff:      0.151D-01-0.292D-01-0.105D+00-0.668D-02 0.113D+01
 Gap=     0.182 Goal=   None    Shift=    0.000
 Gap=     0.408 Goal=   None    Shift=    0.000
 RMSDP=1.40D-05 MaxDP=2.64D-04 DE=-7.33D-06 OVMax= 4.83D-04

 Cycle   6  Pass 1  IDiag  1:
 E= -79.3412125897162     Delta-E=       -0.000001416268 Rises=F Damp=F
 DIIS: error= 2.35D-05 at cycle   6 NSaved=   6.
 NSaved= 6 IEnMin= 6 EnMin= -79.3412125897162     IErMin= 6 ErrMin= 2.35D-05
 ErrMax= 2.35D-05  0.00D+00 EMaxC= 1.00D-01 BMatC= 1.15D-07 BMatP= 2.17D-06
 IDIUse=1 WtCom= 1.00D+00 WtEn= 0.00D+00
 Coeff-Com: -0.406D-02 0.827D-02 0.209D-01-0.596D-01-0.279D+00 0.131D+01
 Coeff:     -0.406D-02 0.827D-02 0.209D-01-0.596D-01-0.279D+00 0.131D+01
 Gap=     0.182 Goal=   None    Shift=    0.000
 Gap=     0.408 Goal=   None    Shift=    0.000
 RMSDP=3.80D-06 MaxDP=8.69D-05 DE=-1.42D-06 OVMax= 1.16D-04

 Cycle   7  Pass 1  IDiag  1:
 E= -79.3412126742638     Delta-E=       -0.000000084548 Rises=F Damp=F
 DIIS: error= 5.78D-06 at cycle   7 NSaved=   7.
 NSaved= 7 IEnMin= 7 EnMin= -79.3412126742638     IErMin= 7 ErrMin= 5.78D-06
 ErrMax= 5.78D-06  0.00D+00 EMaxC= 1.00D-01 BMatC= 1.69D-09 BMatP= 1.15D-07
 IDIUse=1 WtCom= 1.00D+00 WtEn= 0.00D+00
 Coeff-Com: -0.415D-04 0.851D-04 0.815D-03 0.932D-02-0.183D-01-0.995D-01
 Coeff-Com:  0.111D+01
 Coeff:     -0.415D-04 0.851D-04 0.815D-03 0.932D-02-0.183D-01-0.995D-01
 Coeff:      0.111D+01
 Gap=     0.182 Goal=   None    Shift=    0.000
 Gap=     0.408 Goal=   None    Shift=    0.000
 RMSDP=3.96D-07 MaxDP=7.94D-06 DE=-8.45D-08 OVMax= 2.48D-05

 Cycle   8  Pass 1  IDiag  1:
 E= -79.3412126752130     Delta-E=       -0.000000000949 Rises=F Damp=F
 DIIS: error= 5.49D-07 at cycle   8 NSaved=   8.
 NSaved= 8 IEnMin= 8 EnMin= -79.3412126752130     IErMin= 8 ErrMin= 5.49D-07
 ErrMax= 5.49D-07  0.00D+00 EMaxC= 1.00D-01 BMatC= 5.17D-11 BMatP= 1.69D-09
 IDIUse=1 WtCom= 1.00D+00 WtEn= 0.00D+00
 Coeff-Com:  0.249D-04-0.520D-04-0.915D-05 0.178D-02-0.108D-02-0.195D-01
 Coeff-Com:  0.100D+00 0.918D+00
 Coeff:      0.249D-04-0.520D-04-0.915D-05 0.178D-02-0.108D-02-0.195D-01
 Coeff:      0.100D+00 0.918D+00
 Gap=     0.182 Goal=   None    Shift=    0.000
 Gap=     0.408 Goal=   None    Shift=    0.000
 RMSDP=6.48D-08 MaxDP=1.45D-06 DE=-9.49D-10 OVMax= 8.02D-06

 Cycle   9  Pass 1  IDiag  1:
 E= -79.3412126752186     Delta-E=       -0.000000000006 Rises=F Damp=F
 DIIS: error= 6.43D-07 at cycle   9 NSaved=   9.
 NSaved= 9 IEnMin= 9 EnMin= -79.3412126752186     IErMin= 8 ErrMin= 5.49D-07
 ErrMax= 6.43D-07  0.00D+00 EMaxC= 1.00D-01 BMatC= 5.01D-11 BMatP= 5.17D-11
 IDIUse=1 WtCom= 1.00D+00 WtEn= 0.00D+00
 Coeff-Com:  0.196D-04-0.411D-04-0.110D-03-0.246D-03 0.171D-02 0.348D-02
 Coeff-Com: -0.103D+00 0.554D+00 0.545D+00
 Coeff:      0.196D-04-0.411D-04-0.110D-03-0.246D-03 0.171D-02 0.348D-02
 Coeff:     -0.103D+00 0.554D+00 0.545D+00
 Gap=     0.182 Goal=   None    Shift=    0.000
 Gap=     0.408 Goal=   None    Shift=    0.000
 RMSDP=3.24D-08 MaxDP=7.30D-07 DE=-5.66D-12 OVMax= 4.17D-06

 Cycle  10  Pass 1  IDiag  1:
 E= -79.3412126752341     Delta-E=       -0.000000000016 Rises=F Damp=F
 DIIS: error= 2.86D-08 at cycle  10 NSaved=  10.
 NSaved=10 IEnMin=10 EnMin= -79.3412126752341     IErMin=10 ErrMin= 2.86D-08
 ErrMax= 2.86D-08  0.00D+00 EMaxC= 1.00D-01 BMatC= 9.73D-14 BMatP= 5.01D-11
 IDIUse=1 WtCom= 1.00D+00 WtEn= 0.00D+00
 Coeff-Com: -0.195D-05 0.381D-05 0.760D-05 0.293D-04-0.246D-03 0.167D-03
 Coeff-Com:  0.814D-02-0.783D-01-0.476D-01 0.112D+01
 Coeff:     -0.195D-05 0.381D-05 0.760D-05 0.293D-04-0.246D-03 0.167D-03
 Coeff:      0.814D-02-0.783D-01-0.476D-01 0.112D+01
 Gap=     0.182 Goal=   None    Shift=    0.000
 Gap=     0.408 Goal=   None    Shift=    0.000
 RMSDP=4.35D-09 MaxDP=7.12D-08 DE=-1.55D-11 OVMax= 2.77D-07

 SCF Done:  E(UM062X) =  -79.3412126752     A.U. after   10 cycles
            NFock= 10  Conv=0.43D-08     -V/T= 2.0057
 <Sx>= 0.0000 <Sy>= 0.0000 <Sz>= 0.5000 <S**2>= 0.7529 S= 0.5014
 <L.S>=  0.00000000000    
 KE= 7.888937403563D+01 PE=-2.446884020617D+02 EE= 5.343866925593D+01
 Annihilation of the first spin contaminant:
 S**2 before annihilation     0.7529,   after     0.7500
 Leave Link  502 at Wed Nov 13 12:57:57 2024, MaxMem=  2147483648 cpu:             142.3 elap:               5.3
 (Enter /home/szhao/Apps/g16/l601.exe)
 Copying SCF densities to generalized density rwf, IOpCl= 1 IROHF=0.

 **********************************************************************

            Population analysis using the SCF density.

 **********************************************************************

 Orbital symmetries:
 Alpha Orbitals:
       Occupied  (A) (A) (A) (A) (A) (A) (A) (A) (A)
       Virtual   (A) (A) (A) (A) (A) (A) (A) (A) (A) (A) (A) (A)
                 (A) (A) (A) (A) (A) (A) (A) (A) (A) (A) (A) (A)
                 (A) (A) (A) (A) (A) (A) (A) (A) (A) (A) (A) (A)
                 (A) (A) (A) (A) (A) (A) (A) (A) (A) (A) (A) (A)
                 (A) (A) (A) (A) (A) (A) (A) (A) (A) (A) (A) (A)
                 (A) (A) (A) (A) (A) (A) (A) (A) (A) (A) (A)
 Beta  Orbitals:
       Occupied  (A) (A) (A) (A) (A) (A) (A) (A)
       Virtual   (A) (A) (A) (A) (A) (A) (A) (A) (A) (A) (A) (A)
                 (A) (A) (A) (A) (A) (A) (A) (A) (A) (A) (A) (A)
                 (A) (A) (A) (A) (A) (A) (A) (A) (A) (A) (A) (A)
                 (A) (A) (A) (A) (A) (A) (A) (A) (A) (A) (A) (A)
                 (A) (A) (A) (A) (A) (A) (A) (A) (A) (A) (A) (A)
                 (A) (A) (A) (A) (A) (A) (A) (A) (A) (A) (A) (A)
 The electronic state is 2-A.
 Alpha  occ. eigenvalues --  -10.85148 -10.85145  -1.04352  -1.02615  -0.74932
 Alpha  occ. eigenvalues --   -0.74931  -0.74080  -0.74080  -0.53175
 Alpha virt. eigenvalues --   -0.35010  -0.14236  -0.10335  -0.10335  -0.10132
 Alpha virt. eigenvalues --   -0.06222  -0.06222  -0.05461  -0.03219  -0.02410
 Alpha virt. eigenvalues --   -0.02407   0.01377   0.01380   0.05133   0.07586
 Alpha virt. eigenvalues --    0.19389   0.20308   0.20311   0.28053   0.28058
 Alpha virt. eigenvalues --    0.31371   0.36685   0.41341   0.41342   0.44920
 Alpha virt. eigenvalues --    0.44921   0.52816   0.58134   0.68512   0.84095
 Alpha virt. eigenvalues --    0.84096   0.85494   0.85494   1.20177   1.20181
 Alpha virt. eigenvalues --    1.20939   1.20946   1.27509   1.29580   1.29582
 Alpha virt. eigenvalues --    1.31040   1.47701   1.58211   1.67496   1.67497
 Alpha virt. eigenvalues --    1.69508   1.69508   1.76492   1.76496   1.77498
 Alpha virt. eigenvalues --    1.77504   2.19629   2.24468   2.24480   2.25158
 Alpha virt. eigenvalues --    2.25167   2.26004   2.41995   2.41997   2.42381
 Alpha virt. eigenvalues --    2.42386   2.49740   2.51392   2.61694   2.78035
 Alpha virt. eigenvalues --    3.49373   3.49373   3.50040   3.50041  23.68701
 Alpha virt. eigenvalues --   23.69800
  Beta  occ. eigenvalues --  -10.84951 -10.84951  -1.01415  -1.00223  -0.74364
  Beta  occ. eigenvalues --   -0.74363  -0.73573  -0.73573
  Beta virt. eigenvalues --   -0.32744  -0.25271  -0.15434  -0.11127  -0.11126
  Beta virt. eigenvalues --   -0.09896  -0.06459  -0.06458  -0.05574  -0.02611
  Beta virt. eigenvalues --   -0.02608  -0.02372   0.01701   0.01703   0.06022
  Beta virt. eigenvalues --    0.07979   0.19775   0.19778   0.20747   0.27430
  Beta virt. eigenvalues --    0.27434   0.31541   0.37487   0.42267   0.42269
  Beta virt. eigenvalues --    0.46001   0.46002   0.53700   0.58922   0.69236
  Beta virt. eigenvalues --    0.86689   0.86690   0.87944   0.87945   1.21247
  Beta virt. eigenvalues --    1.21251   1.22084   1.22090   1.30688   1.30689
  Beta virt. eigenvalues --    1.32408   1.35172   1.49411   1.59136   1.68892
  Beta virt. eigenvalues --    1.68892   1.71013   1.71013   1.77769   1.77773
  Beta virt. eigenvalues --    1.78914   1.78919   2.23078   2.25751   2.25764
  Beta virt. eigenvalues --    2.26217   2.26227   2.29502   2.44490   2.44491
  Beta virt. eigenvalues --    2.44817   2.44822   2.52752   2.52991   2.64785
  Beta virt. eigenvalues --    2.79967   3.53315   3.53315   3.53972   3.53973
  Beta virt. eigenvalues --   23.69882  23.70982
          Condensed to atoms (all electrons):
               1          2          3          4          5          6
     1  C    5.095024   0.063919  -0.002890   0.374514  -0.002877  -0.002879
     2  C    0.063919   5.095025   0.374550  -0.002880   0.374526   0.374510
     3  H   -0.002890   0.374550   0.404287  -0.000115  -0.016943  -0.016947
     4  H    0.374514  -0.002880  -0.000115   0.404361   0.000194  -0.000115
     5  H   -0.002877   0.374526  -0.016943   0.000194   0.404318  -0.016946
     6  H   -0.002879   0.374510  -0.016947  -0.000115  -0.016946   0.404346
     7  H    0.374551  -0.002890   0.000194  -0.016945  -0.000115  -0.000115
     8  H    0.374522  -0.002876  -0.000115  -0.016945  -0.000115   0.000194
               7          8
     1  C    0.374551   0.374522
     2  C   -0.002890  -0.002876
     3  H    0.000194  -0.000115
     4  H   -0.016945  -0.016945
     5  H   -0.000115  -0.000115
     6  H   -0.000115   0.000194
     7  H    0.404286  -0.016946
     8  H   -0.016946   0.404304
          Atomic-Atomic Spin Densities.
               1          2          3          4          5          6
     1  C    0.519896   0.079722  -0.002311  -0.007767  -0.002317  -0.002319
     2  C    0.079722   0.519897  -0.007772  -0.002319  -0.007767  -0.007763
     3  H   -0.002311  -0.007772  -0.015840   0.000054   0.001322   0.001323
     4  H   -0.007767  -0.002319   0.000054  -0.015834   0.000037   0.000054
     5  H   -0.002317  -0.007767   0.001322   0.000037  -0.015838   0.001324
     6  H   -0.002319  -0.007763   0.001323   0.000054   0.001324  -0.015815
     7  H   -0.007772  -0.002311   0.000037   0.001321   0.000054   0.000054
     8  H   -0.007764  -0.002317   0.000054   0.001324   0.000054   0.000037
               7          8
     1  C   -0.007772  -0.007764
     2  C   -0.002311  -0.002317
     3  H    0.000037   0.000054
     4  H    0.001321   0.001324
     5  H    0.000054   0.000054
     6  H    0.000054   0.000037
     7  H   -0.015840   0.001324
     8  H    0.001324  -0.015819
 Mulliken charges and spin densities:
               1          2
     1  C   -0.273884   0.569368
     2  C   -0.273885   0.569369
     3  H    0.257977  -0.023133
     4  H    0.257930  -0.023129
     5  H    0.257957  -0.023130
     6  H    0.257950  -0.023105
     7  H    0.257978  -0.023133
     8  H    0.257977  -0.023107
 Sum of Mulliken charges =   1.00000   1.00000
 Mulliken charges and spin densities with hydrogens summed into heavy atoms:
               1          2
     1  C    0.500001   0.499999
     2  C    0.499999   0.500001
 Electronic spatial extent (au):  <R**2>=            186.8730
 Charge=              1.0000 electrons
 Dipole moment (field-independent basis, Debye):
    X=             -0.0000    Y=             -0.0001    Z=             -0.0000  Tot=              0.0001
 Quadrupole moment (field-independent basis, Debye-Ang):
   XX=             -9.8951   YY=             -9.0927   ZZ=             -3.6305
   XY=             -1.4713   XZ=              2.8815   YZ=             -3.7725
 Traceless Quadrupole moment (field-independent basis, Debye-Ang):
   XX=             -2.3557   YY=             -1.5533   ZZ=              3.9089
   XY=             -1.4713   XZ=              2.8815   YZ=             -3.7725
 Octapole moment (field-independent basis, Debye-Ang**2):
  XXX=              0.0018  YYY=              0.0018  ZZZ=              0.0016  XYY=             -0.0020
  XXY=              0.0002  XXZ=              0.0014  XZZ=              0.0014  YZZ=              0.0008
  YYZ=             -0.0021  XYZ=              0.0002
 Hexadecapole moment (field-independent basis, Debye-Ang**3):
 XXXX=            -36.9007 YYYY=            -42.1489 ZZZZ=           -119.0921 XXXY=             13.2447
 XXXZ=            -17.3632 YYYX=              6.7395 YYYZ=             25.0616 ZZZX=            -21.9525
 ZZZY=             23.2697 XXYY=            -15.7581 XXZZ=            -23.2242 YYZZ=            -30.3787
 XXYZ=              9.9940 YYXZ=             -5.2534 ZZXY=              2.7741
 N-N= 3.301914609489D+01 E-N=-2.446884016957D+02  KE= 7.888937403563D+01
                          Isotropic Fermi Contact Couplings
        Atom                 a.u.       MegaHertz       Gauss      10(-4) cm-1
     1  C(13)              0.08096      91.00942      32.47442      30.35748
     2  C(13)              0.08096      91.00894      32.47425      30.35731
     3  H(1)              -0.00684     -30.55337     -10.90220     -10.19151
     4  H(1)              -0.00683     -30.53824     -10.89680     -10.18646
     5  H(1)              -0.00683     -30.54384     -10.89880     -10.18833
     6  H(1)              -0.00683     -30.52729     -10.89290     -10.18281
     7  H(1)              -0.00684     -30.55400     -10.90243     -10.19172
     8  H(1)              -0.00683     -30.53301     -10.89494     -10.18471
 --------------------------------------------------------
       Center         ----  Spin Dipole Couplings  ----
                      3XX-RR        3YY-RR        3ZZ-RR
 --------------------------------------------------------
     1   Atom       -0.172447     -0.113520      0.285968
     2   Atom       -0.172279     -0.114016      0.286294
     3   Atom        0.017563     -0.024848      0.007284
     4   Atom       -0.033333      0.025937      0.007396
     5   Atom       -0.033321      0.025955      0.007366
     6   Atom        0.012067     -0.003527     -0.008540
     7   Atom        0.017541     -0.024819      0.007277
     8   Atom        0.012099     -0.003542     -0.008557
 --------------------------------------------------------
                        XY            XZ            YZ
 --------------------------------------------------------
     1   Atom       -0.108225      0.211549     -0.276838
     2   Atom       -0.108147      0.211831     -0.276437
     3   Atom       -0.022544     -0.016925     -0.005731
     4   Atom       -0.008761      0.009957      0.014899
     5   Atom       -0.008784      0.009954      0.014892
     6   Atom        0.029045      0.011464     -0.015058
     7   Atom       -0.022557     -0.016939     -0.005739
     8   Atom        0.029033      0.011479     -0.015049
 --------------------------------------------------------


 ---------------------------------------------------------------------------------
              Anisotropic Spin Dipole Couplings in Principal Axis System
 ---------------------------------------------------------------------------------

       Atom             a.u.   MegaHertz   Gauss  10(-4) cm-1        Axes

              Baa    -0.2552   -34.239   -12.217   -11.421  0.6200 -0.5733 -0.5357
     1 C(13)  Bbb    -0.2551   -34.238   -12.217   -11.421  0.7124  0.6974  0.0783
              Bcc     0.5103    68.478    24.435    22.842  0.3287 -0.4301  0.8408
 
              Baa    -0.2552   -34.239   -12.217   -11.421  0.7000 -0.4869 -0.5224
     2 C(13)  Bbb    -0.2551   -34.238   -12.217   -11.421  0.6339  0.7606  0.1403
              Bcc     0.5103    68.478    24.435    22.842  0.3290 -0.4294  0.8410
 
              Baa    -0.0380   -20.255    -7.228    -6.756  0.4318  0.8604  0.2705
     3 H(1)   Bbb     0.0036     1.929     0.688     0.643  0.3278 -0.4291  0.8417
              Bcc     0.0343    18.326     6.539     6.113  0.8403 -0.2748 -0.4673
 
              Baa    -0.0380   -20.260    -7.229    -6.758  0.9434  0.1923 -0.2702
     4 H(1)   Bbb     0.0036     1.937     0.691     0.646  0.3286 -0.4319  0.8399
              Bcc     0.0343    18.323     6.538     6.112 -0.0448  0.8812  0.4707
 
              Baa    -0.0380   -20.258    -7.229    -6.757  0.9433  0.1926 -0.2704
     5 H(1)   Bbb     0.0036     1.933     0.690     0.645  0.3289 -0.4310  0.8403
              Bcc     0.0343    18.325     6.539     6.112 -0.0453  0.8816  0.4699
 
              Baa    -0.0380   -20.261    -7.229    -6.758 -0.5115  0.6677  0.5408
     6 H(1)   Bbb     0.0036     1.936     0.691     0.646  0.3306 -0.4280  0.8411
              Bcc     0.0343    18.324     6.539     6.112  0.7931  0.6090 -0.0018
 
              Baa    -0.0380   -20.255    -7.227    -6.756  0.4322  0.8601  0.2709
     7 H(1)   Bbb     0.0036     1.929     0.688     0.643  0.3275 -0.4297  0.8415
              Bcc     0.0343    18.326     6.539     6.113  0.8402 -0.2750 -0.4674
 
              Baa    -0.0380   -20.259    -7.229    -6.758 -0.5112  0.6677  0.5412
     8 H(1)   Bbb     0.0036     1.933     0.690     0.645  0.3301 -0.4288  0.8409
              Bcc     0.0343    18.326     6.539     6.113  0.7935  0.6085 -0.0011
 

 ---------------------------------------------------------------------------------

 No NMR shielding tensors so no spin-rotation constants.
 Leave Link  601 at Wed Nov 13 12:57:57 2024, MaxMem=  2147483648 cpu:               8.4 elap:               0.3
 (Enter /home/szhao/Apps/g16/l701.exe)
 ... and contract with generalized density number  0.
 Compute integral first derivatives.
 Leave Link  701 at Wed Nov 13 12:57:58 2024, MaxMem=  2147483648 cpu:               8.3 elap:               0.3
 (Enter /home/szhao/Apps/g16/l702.exe)
 L702 exits ... SP integral derivatives will be done elsewhere.
 Leave Link  702 at Wed Nov 13 12:57:58 2024, MaxMem=  2147483648 cpu:               1.8 elap:               0.1
 (Enter /home/szhao/Apps/g16/l703.exe)
 Integral derivatives from FoFJK, PRISM(SPDF).
 Compute integral first derivatives, UseDBF=F ICtDFT=           0.
 Calling FoFJK, ICntrl=      2127 FMM=F ISym2X=0 I1Cent= 0 IOpClX= 1 NMat=1 NMatS=1 NMatT=0.
 FoFJK:  IHMeth= 1 ICntrl=    2127 DoSepK=F KAlg= 0 I1Cent=           0 FoldK=F
 IRaf=         0 NMat=       1 IRICut=       1 DoRegI=T DoRafI=F ISym2E= 0 IDoP0=0 IntGTp=1.
 FoFCou: FMM=F IPFlag=           0 FMFlag=      100000 FMFlg1=         800
         NFxFlg=           0 DoJE=F BraDBF=F KetDBF=F FulRan=T
         wScrn=  0.000000 ICntrl=      2127 IOpCl=  1 I1Cent=           0 NGrid=           0
         NMat0=    1 NMatS0=      1 NMatT0=    0 NMatD0=    1 NMtDS0=    0 NMtDT0=    0
 Symmetry not used in FoFCou.
 Leave Link  703 at Wed Nov 13 12:57:59 2024, MaxMem=  2147483648 cpu:              30.1 elap:               1.1
 (Enter /home/szhao/Apps/g16/l716.exe)
 Dipole        =-9.63102386D-06-1.97559017D-05-4.31995600D-06
 ***** Axes restored to original set *****
 -------------------------------------------------------------------
 Center     Atomic                   Forces (Hartrees/Bohr)
 Number     Number              X              Y              Z
 -------------------------------------------------------------------
      1        6           0.017302590   -0.000007869   -0.000005745
      2        6          -0.017301557    0.000009910    0.000004284
      3        1          -0.000000592    0.000021824   -0.000017701
      4        1          -0.000011449    0.000024200    0.000017978
      5        1           0.000005121   -0.000024296   -0.000017045
      6        1           0.000006389   -0.000000259    0.000025662
      7        1           0.000000653   -0.000022720    0.000017807
      8        1          -0.000001154   -0.000000789   -0.000025242
 -------------------------------------------------------------------
 Cartesian Forces:  Max     0.017302590 RMS     0.004994700
 Z-matrix is all fixed cartesians, so copy forces.
 Force constants in Cartesian coordinates: 
                1             2             3             4             5 
      1  0.960289D-01
      2 -0.410995D-03  0.700816D+00
      3 -0.925030D-05  0.343688D-05  0.700817D+00
      4  0.000000D+00  0.000000D+00  0.000000D+00  0.960289D-01
      5  0.000000D+00  0.000000D+00  0.000000D+00 -0.167046D-03  0.700816D+00
      6  0.000000D+00  0.000000D+00  0.000000D+00  0.369609D-03  0.000000D+00
      7  0.000000D+00  0.000000D+00  0.000000D+00 -0.320307D-01  0.199055D-01
      8  0.000000D+00  0.000000D+00  0.000000D+00  0.138048D-01 -0.293530D+00
      9  0.000000D+00  0.000000D+00  0.000000D+00 -0.802677D-02  0.104315D+00
     10 -0.319866D-01 -0.196106D-01 -0.113297D-01  0.000000D+00  0.000000D+00
     11 -0.135034D-01 -0.293971D+00 -0.104101D+00  0.000000D+00  0.000000D+00
     12 -0.781089D-02 -0.104099D+00 -0.173263D+00  0.000000D+00  0.000000D+00
     13  0.000000D+00  0.000000D+00  0.000000D+00 -0.320121D-01 -0.197855D-01
     14  0.000000D+00  0.000000D+00  0.000000D+00 -0.136771D-01 -0.293999D+00
     15  0.000000D+00  0.000000D+00  0.000000D+00 -0.793937D-02 -0.104059D+00
     16  0.000000D+00  0.000000D+00  0.000000D+00 -0.319861D-01  0.469950D-04
     17  0.000000D+00  0.000000D+00  0.000000D+00  0.393793D-04 -0.113287D+00
     18  0.000000D+00  0.000000D+00  0.000000D+00  0.155965D-01 -0.255600D-03
     19 -0.320320D-01  0.199462D-01 -0.115063D-01  0.000000D+00  0.000000D+00
     20  0.138453D-01 -0.293558D+00  0.104297D+00  0.000000D+00  0.000000D+00
     21 -0.797672D-02  0.104299D+00 -0.173629D+00  0.000000D+00  0.000000D+00
     22 -0.320102D-01  0.754096D-04  0.228452D-01  0.000000D+00  0.000000D+00
     23  0.691526D-04 -0.113287D+00 -0.199345D-03  0.000000D+00  0.000000D+00
     24  0.157969D-01 -0.203730D-03 -0.353925D+00  0.000000D+00  0.000000D+00
                6             7             8             9            10 
      6  0.700817D+00
      7 -0.115579D-01  0.114328D-01
      8  0.104318D+00 -0.146894D-01  0.284322D+00
      9 -0.173660D+00  0.853114D-02 -0.120740D+00  0.145584D+00
     10  0.000000D+00  0.000000D+00  0.000000D+00  0.000000D+00  0.113943D-01
     11  0.000000D+00  0.000000D+00  0.000000D+00  0.000000D+00  0.143677D-01
     12  0.000000D+00  0.000000D+00  0.000000D+00  0.000000D+00  0.830255D-02
     13 -0.114573D-01  0.103007D-01  0.205317D-02  0.253089D-02  0.000000D+00
     14 -0.104064D+00 -0.203668D-02 -0.961687D-02 -0.164151D-01  0.000000D+00
     15 -0.173208D+00  0.252621D-02  0.164985D-01  0.282569D-01  0.000000D+00
     16  0.226455D-01  0.102973D-01 -0.116853D-02 -0.303526D-02  0.000000D+00
     17 -0.253599D-03 -0.317947D-02  0.188251D-01  0.328399D-01  0.000000D+00
     18 -0.353950D+00  0.500523D-03 -0.764942D-04 -0.181565D-03  0.000000D+00
     19  0.000000D+00  0.000000D+00  0.000000D+00  0.000000D+00  0.102976D-01
     20  0.000000D+00  0.000000D+00  0.000000D+00  0.000000D+00  0.205019D-02
     21  0.000000D+00  0.000000D+00  0.000000D+00  0.000000D+00  0.252647D-02
     22  0.000000D+00  0.000000D+00  0.000000D+00  0.000000D+00  0.102948D-01
     23  0.000000D+00  0.000000D+00  0.000000D+00  0.000000D+00  0.319268D-02
     24  0.000000D+00  0.000000D+00  0.000000D+00  0.000000D+00  0.500694D-03
               11            12            13            14            15 
     11  0.284823D+00
     12  0.120484D+00  0.145122D+00
     13  0.000000D+00  0.000000D+00  0.114166D-01
     14  0.000000D+00  0.000000D+00  0.145565D-01  0.284859D+00
     15  0.000000D+00  0.000000D+00  0.843273D-02  0.120443D+00  0.145062D+00
     16  0.000000D+00  0.000000D+00  0.102948D-01  0.115727D-02 -0.301957D-02
     17  0.000000D+00  0.000000D+00  0.317582D-02  0.187564D-01 -0.328825D-01
     18  0.000000D+00  0.000000D+00  0.493628D-03  0.358642D-04 -0.110705D-03
     19 -0.201869D-02  0.250767D-02  0.000000D+00  0.000000D+00  0.000000D+00
     20 -0.961685D-02  0.164931D-01  0.000000D+00  0.000000D+00  0.000000D+00
     21 -0.164230D-01  0.282601D-01  0.000000D+00  0.000000D+00  0.000000D+00
     22  0.115436D-02 -0.299933D-02  0.000000D+00  0.000000D+00  0.000000D+00
     23  0.187649D-01 -0.328779D-01  0.000000D+00  0.000000D+00  0.000000D+00
     24  0.403509D-04 -0.118465D-03  0.000000D+00  0.000000D+00  0.000000D+00
               16            17            18            19            20 
     16  0.113940D-01
     17 -0.357322D-04  0.757051D-01
     18 -0.165907D-01  0.296230D-03  0.354242D+00
     19  0.000000D+00  0.000000D+00  0.000000D+00  0.114338D-01
     20  0.000000D+00  0.000000D+00  0.000000D+00 -0.147243D-01  0.284358D+00
     21  0.000000D+00  0.000000D+00  0.000000D+00  0.849213D-02 -0.120717D+00
     22  0.000000D+00  0.000000D+00  0.000000D+00  0.103007D-01 -0.117118D-02
     23  0.000000D+00  0.000000D+00  0.000000D+00 -0.320324D-02  0.188167D-01
     24  0.000000D+00  0.000000D+00  0.000000D+00  0.506470D-03 -0.734168D-04
               21            22            23            24 
     21  0.145545D+00
     22 -0.304188D-02  0.114148D-01
     23  0.328405D-01 -0.585937D-04  0.757050D-01
     24 -0.176930D-03 -0.168040D-01  0.236796D-03  0.354221D+00
 Leave Link  716 at Wed Nov 13 12:57:59 2024, MaxMem=  2147483648 cpu:               1.6 elap:               0.1
 (Enter /home/szhao/Apps/g16/l103.exe)

 GradGradGradGradGradGradGradGradGradGradGradGradGradGradGradGradGradGrad
 Berny optimization.
 Search for a local minimum.
 Step number   1 out of a maximum of    2
 All quantities printed in internal units (Hartrees-Bohrs-Radians)
 Second derivative matrix not updated -- first step.
 ITU=  0
     Eigenvalues ---   -0.00000  -0.00000   0.00000   0.00000   0.00000
     Eigenvalues ---    0.00000   0.10235   0.12371   0.15643   0.15643
     Eigenvalues ---    0.15680   0.15680   0.35754   0.35860   0.84965
     Eigenvalues ---    0.84966   0.86589   0.86590
 Eigenvalue     1 is  -1.11D-15 should be greater than     0.000000 Eigenvector:
                          X6        X5        Z4        Y8        Z3
   1                    0.70232  -0.55299   0.20057   0.19107  -0.18513
                          Y6        Y3        Y5        Z5        Z2
   1                    0.13487  -0.10457  -0.10442   0.09129  -0.07926
 Eigenvalue     2 is  -3.33D-16 should be greater than     0.000000 Eigenvector:
                          X5        X3        X8        X2        X1
   1                    0.46742   0.38527  -0.35353   0.33250  -0.33250
                          X7        X4        X6        Z7        Y6
   1                   -0.32518  -0.31878   0.14479  -0.10091   0.10033
 Eigenvalue     3 is   2.22D-16 Eigenvector:
                          X8        X7        X4        Z3        Y6
   1                    0.57693  -0.41864  -0.35152   0.23784  -0.22659
                          Z4        Y8        X3        X6        Z7
   1                   -0.22240  -0.18759   0.18221   0.14467   0.13956
 Eigenvalue     4 is   4.44D-16 Eigenvector:
                          X8        X3        Y6        Z5        X5
   1                    0.53461  -0.36178   0.28431   0.27459   0.26956
                          Z7        Y8        X7        Z4        Z3
   1                   -0.26504   0.22703  -0.19765   0.18496  -0.17550
 Eigenvalue     5 is   8.88D-16 Eigenvector:
                          X3        X6        X5        Y8        Z7
   1                    0.66981  -0.46280  -0.38274   0.20408  -0.16922
                          Z5        X8        Y5        Y3        Y6
   1                    0.16202   0.12458  -0.11903  -0.11901   0.09586
 Eigenvalue     6 is   3.20D-14 Eigenvector:
                          X4        X7        Y1        Y6        Y2
   1                    0.71803  -0.66125   0.09654  -0.08141  -0.07415
                          Y3        Y5        Y4        Y7        X8
   1                   -0.07313  -0.07312   0.06085   0.05992  -0.05338
 Quadratic step=1.223D+02 exceeds max=3.000D-01 adjusted using Lamda=-4.471D-02.
 Angle between NR and scaled steps=  24.52 degrees.
 Angle between quadratic step and forces=  35.53 degrees.
 Linear search not attempted -- first point.
 B after Tr=     0.000001    0.000003    0.000004
         Rot=    1.000000   -0.000000    0.000001   -0.000001 Ang=   0.00 deg.
 Variable       Old X    -DE/DX   Delta X   Delta X   Delta X     New X
                                 (Linear)    (Quad)   (Total)
    X1       -2.80386   0.01730   0.00000   0.17273   0.17273  -2.63113
    Y1       -0.00000  -0.00001   0.00000  -0.00000  -0.00000  -0.00000
    Z1       -0.00000  -0.00001   0.00000  -0.00001  -0.00001  -0.00001
    X2        2.80386  -0.01730   0.00000  -0.17273  -0.17273   2.63113
    Y2       -0.00000   0.00001   0.00000   0.00002   0.00003   0.00003
    Z2        0.00000   0.00000   0.00000   0.00003   0.00004   0.00004
    X3        2.90502  -0.00000   0.00000  -0.07117  -0.07117   2.83385
    Y3       -1.77092   0.00002   0.00000   0.00357   0.00358  -1.76734
    Z3        1.02495  -0.00002   0.00000  -0.00209  -0.00208   1.02288
    X4       -2.90267  -0.00001   0.00000   0.07087   0.07088  -2.83179
    Y4       -1.77303   0.00002   0.00000   0.00349   0.00349  -1.76953
    Z4       -1.02154   0.00002   0.00000   0.00205   0.00205  -1.01949
    X5        2.90403   0.00001   0.00000  -0.07102  -0.07102   2.83302
    Y5        1.77319  -0.00002   0.00000  -0.00351  -0.00351   1.76969
    Z5        1.02112  -0.00002   0.00000  -0.00206  -0.00205   1.01906
    X6        2.90265   0.00001   0.00000  -0.07098  -0.07097   2.83167
    Y6       -0.00218  -0.00000   0.00000   0.00002   0.00003  -0.00215
    Z6       -2.04625   0.00003   0.00000   0.00407   0.00408  -2.04217
    X7       -2.90508   0.00000   0.00000   0.07117   0.07117  -2.83391
    Y7        1.77109  -0.00002   0.00000  -0.00358  -0.00358   1.76751
    Z7       -1.02466   0.00002   0.00000   0.00207   0.00207  -1.02259
    X8       -2.90392  -0.00000   0.00000   0.07111   0.07111  -2.83282
    Y8        0.00176  -0.00000   0.00000  -0.00004  -0.00004   0.00172
    Z8        2.04619  -0.00003   0.00000  -0.00410  -0.00410   2.04210
         Item               Value     Threshold  Converged?
 Maximum Force            0.017303     0.000450     NO 
 RMS     Force            0.004995     0.000300     NO 
 Maximum Displacement     0.172734     0.001800     NO 
 RMS     Displacement     0.061259     0.001200     NO 
 Predicted change in Energy=-5.005123D-03
 GradGradGradGradGradGradGradGradGradGradGradGradGradGradGradGradGradGrad

 Leave Link  103 at Wed Nov 13 12:57:59 2024, MaxMem=  2147483648 cpu:               7.5 elap:               0.3
 (Enter /home/szhao/Apps/g16/l9999.exe)
 1\1\GINC-NODE01\Force\UM062X\6-311+G(d,p)\C2H6(1+,2)\SZHAO\13-Nov-2024
 \0\\#p UM062X/6-311+G** force int=superfine\\Title Card Required\\1,2\
 C,-1.483739,0.,0.\C,1.483739,0.,0.\H,1.537268,-0.937132,0.542382\H,-1.
 536027,-0.938245,-0.540576\H,1.536749,0.938334,0.540353\H,1.536016,-0.
 001155,-1.082831\H,-1.537302,0.937222,-0.542226\H,-1.53669,0.000929,1.
 082799\\Version=ES64L-G16RevA.03\State=2-A\HF=-79.3412127\S2=0.752902\
 S2-1=0.\S2A=0.750007\RMSD=4.347e-09\RMSF=4.995e-03\Dipole=-0.0000017,-
 0.0000106,-0.0000196\Quadrupole=5.1738024,-2.5869099,-2.5868925,-0.001
 0274,0.0005862,-0.0000173\PG=C01 [X(C2H6)]\\@


 THERE'S NOTHING SO GREAT AS THE GREAT OUTDOORS.

                                       -- ZIGGY
 Job cpu time:       0 days  0 hours  3 minutes 51.5 seconds.
 Elapsed time:       0 days  0 hours  0 minutes  8.9 seconds.
 File lengths (MBytes):  RWF=     10 Int=      0 D2E=      0 Chk=      2 Scr=      1
 Normal termination of Gaussian 16 at Wed Nov 13 12:57:59 2024.
