 Entering Gaussian System, Link 0=g16
 Initial command:
 /home/szhao/Apps/g16/l1.exe "/home/szhao/tmp/Gau-168417.inp" -scrdir="/home/szhao/tmp/"
 Default is to use a total of  16 processors:
                               16 via shared-memory
                                1 via Linda
 Entering Link 1 = /home/szhao/Apps/g16/l1.exe PID=    168418.
  
 Copyright (c) 1988,1990,1992,1993,1995,1998,2003,2009,2016,
            Gaussian, Inc.  All Rights Reserved.
  
 This is part of the Gaussian(R) 16 program.  It is based on
 the Gaussian(R) 09 system (copyright 2009, Gaussian, Inc.),
 the Gaussian(R) 03 system (copyright 2003, Gaussian, Inc.),
 the Gaussian(R) 98 system (copyright 1998, Gaussian, Inc.),
 the Gaussian(R) 94 system (copyright 1995, Gaussian, Inc.),
 the Gaussian 92(TM) system (copyright 1992, Gaussian, Inc.),
 the Gaussian 90(TM) system (copyright 1990, Gaussian, Inc.),
 the Gaussian 88(TM) system (copyright 1988, Gaussian, Inc.),
 the Gaussian 86(TM) system (copyright 1986, Carnegie Mellon
 University), and the Gaussian 82(TM) system (copyright 1983,
 Carnegie Mellon University). Gaussian is a federally registered
 trademark of Gaussian, Inc.
  
 This software contains proprietary and confidential information,
 including trade secrets, belonging to Gaussian, Inc.
  
 This software is provided under written license and may be
 used, copied, transmitted, or stored only in accord with that
 written license.
  
 The following legend is applicable only to US Government
 contracts under FAR:
  
                    RESTRICTED RIGHTS LEGEND
  
 Use, reproduction and disclosure by the US Government is
 subject to restrictions as set forth in subparagraphs (a)
 and (c) of the Commercial Computer Software - Restricted
 Rights clause in FAR 52.227-19.
  
 Gaussian, Inc.
 340 Quinnipiac St., Bldg. 40, Wallingford CT 06492
  
  
 ---------------------------------------------------------------
 Warning -- This program may not be used in any manner that
 competes with the business of Gaussian, Inc. or will provide
 assistance to any competitor of Gaussian, Inc.  The licensee
 of this program is prohibited from giving any competitor of
 Gaussian, Inc. access to this program.  By using this program,
 the user acknowledges that Gaussian, Inc. is engaged in the
 business of creating and licensing software in the field of
 computational chemistry and represents and warrants to the
 licensee that it is not a competitor of Gaussian, Inc. and that
 it will not use this program in any manner prohibited above.
 ---------------------------------------------------------------
  

 Cite this work as:
 Gaussian 16, Revision A.03,
 M. J. Frisch, G. W. Trucks, H. B. Schlegel, G. E. Scuseria, 
 M. A. Robb, J. R. Cheeseman, G. Scalmani, V. Barone, 
 G. A. Petersson, H. Nakatsuji, X. Li, M. Caricato, A. V. Marenich, 
 J. Bloino, B. G. Janesko, R. Gomperts, B. Mennucci, H. P. Hratchian, 
 J. V. Ortiz, A. F. Izmaylov, J. L. Sonnenberg, D. Williams-Young, 
 F. Ding, F. Lipparini, F. Egidi, J. Goings, B. Peng, A. Petrone, 
 T. Henderson, D. Ranasinghe, V. G. Zakrzewski, J. Gao, N. Rega, 
 G. Zheng, W. Liang, M. Hada, M. Ehara, K. Toyota, R. Fukuda, 
 J. Hasegawa, M. Ishida, T. Nakajima, Y. Honda, O. Kitao, H. Nakai, 
 T. Vreven, K. Throssell, J. A. Montgomery, Jr., J. E. Peralta, 
 F. Ogliaro, M. J. Bearpark, J. J. Heyd, E. N. Brothers, K. N. Kudin, 
 V. N. Staroverov, T. A. Keith, R. Kobayashi, J. Normand, 
 K. Raghavachari, A. P. Rendell, J. C. Burant, S. S. Iyengar, 
 J. Tomasi, M. Cossi, J. M. Millam, M. Klene, C. Adamo, R. Cammi, 
 J. W. Ochterski, R. L. Martin, K. Morokuma, O. Farkas, 
 J. B. Foresman, and D. J. Fox, Gaussian, Inc., Wallingford CT, 2016.
 
 ******************************************
 Gaussian 16:  ES64L-G16RevA.03 25-Dec-2016
                21-Apr-2025 
 ******************************************
 %chk=opt.chk
 %mem=4GB
 %nprocshared=8
 Will use up to    8 processors via shared memory.
 --------------------------------------------
 #p opt UM062X/6-311+G** nosymm int=superfine
 --------------------------------------------
 1/18=20,19=15,26=5,38=1/1,3;
 2/9=110,12=2,15=1,17=6,18=5,40=1/2;
 3/5=4,6=6,7=111,11=2,25=1,30=1,71=1,74=-55,75=-7,116=2/1,2,3;
 4//1;
 5/5=2,38=5/2;
 6/7=2,8=2,9=2,10=2,28=1/1;
 7/30=1/1,2,3,16;
 1/18=20,19=15,26=5/3(2);
 2/9=110,15=1/2;
 99//99;
 2/9=110,15=1/2;
 3/5=4,6=6,7=111,11=2,25=1,30=1,71=1,74=-55,75=-7,116=2/1,2,3;
 4/5=5,16=3,69=1/1;
 5/5=2,38=5/2;
 7/30=1/1,2,3,16;
 1/18=20,19=15,26=5/3(-5);
 2/9=110,15=1/2;
 6/7=2,8=2,9=2,10=2,19=2,28=1/1;
 99/9=1/99;
 Leave Link    1 at Mon Apr 21 18:47:23 2025, MaxMem=   536870912 cpu:               1.9 elap:               0.3
 (Enter /home/szhao/Apps/g16/l101.exe)
 -------------------
 Title Card Required
 -------------------
 Symbolic Z-matrix:
 Charge =  0 Multiplicity = 1
 C                    -1   -0.92331   0.        0. 
 O                    -1    0.92331   0.        0. 
 H                    0    -1.50521  -0.9393    0. 
 H                    0    -1.50521   0.9393    0. 
 
 Add virtual bond connecting atoms O2         and C1         Dist= 3.49D+00.
 ITRead=  2  2  0  0
 MicOpt= -2 -2 -1 -1
 NAtoms=      4 NQM=        2 NQMF=       2 NMMI=      0 NMMIF=      0
                NMic=       0 NMicF=      0.
                    Isotopes and Nuclear Properties:
 (Nuclear quadrupole moments (NQMom) in fm**2, nuclear magnetic moments (NMagM)
  in nuclear magnetons)

  Atom         1           2           3           4
 IAtWgt=          12          16           1           1
 AtmWgt=  12.0000000  15.9949146   1.0078250   1.0078250
 NucSpn=           0           0           1           1
 AtZEff=  -0.0000000  -0.0000000  -0.0000000  -0.0000000
 NQMom=    0.0000000   0.0000000   0.0000000   0.0000000
 NMagM=    0.0000000   0.0000000   2.7928460   2.7928460
 AtZNuc=   6.0000000   8.0000000   1.0000000   1.0000000
 Leave Link  101 at Mon Apr 21 18:47:23 2025, MaxMem=   536870912 cpu:               2.4 elap:               0.3
 (Enter /home/szhao/Apps/g16/l103.exe)

 GradGradGradGradGradGradGradGradGradGradGradGradGradGradGradGradGradGrad
 Berny optimization.
 Initialization pass.
                           ----------------------------
                           !    Initial Parameters    !
                           ! (Angstroms and Degrees)  !
 --------------------------                            --------------------------
 ! Name  Definition              Value          Derivative Info.                !
 --------------------------------------------------------------------------------
 ! X1    R(1,-1)                -0.9233         Frozen                          !
 ! Y1    R(1,-2)                 0.0            Frozen                          !
 ! Z1    R(1,-3)                 0.0            Frozen                          !
 ! X2    R(2,-1)                 0.9233         Frozen                          !
 ! Y2    R(2,-2)                 0.0            Frozen                          !
 ! Z2    R(2,-3)                 0.0            Frozen                          !
 ! R1    R(1,3)                  1.1049         estimate D2E/DX2                !
 ! R2    R(1,4)                  1.1049         estimate D2E/DX2                !
 ! A1    A(2,1,3)              121.7782         estimate D2E/DX2                !
 ! A2    A(2,1,4)              121.7786         estimate D2E/DX2                !
 ! A3    A(3,1,4)              116.4432         estimate D2E/DX2                !
 ! D1    D(2,1,4,3)           -180.0            estimate D2E/DX2                !
 --------------------------------------------------------------------------------
 Trust Radius=3.00D-01 FncErr=1.00D-07 GrdErr=1.00D-07 EigMax=2.50D+02 EigMin=1.00D-04
 Number of steps in this run=     22 maximum allowed number of steps=    100.
 GradGradGradGradGradGradGradGradGradGradGradGradGradGradGradGradGradGrad

 Leave Link  103 at Mon Apr 21 18:47:24 2025, MaxMem=   536870912 cpu:               0.2 elap:               0.0
 (Enter /home/szhao/Apps/g16/l202.exe)
                          Input orientation:                          
 ---------------------------------------------------------------------
 Center     Atomic      Atomic             Coordinates (Angstroms)
 Number     Number       Type             X           Y           Z
 ---------------------------------------------------------------------
      1          6           0       -0.923311    0.000000    0.000000
      2          8           0        0.923311    0.000000    0.000000
      3          1           0       -1.505206   -0.939299    0.000000
      4          1           0       -1.505213    0.939296    0.000001
 ---------------------------------------------------------------------
                    Distance matrix (angstroms):
                    1          2          3          4
     1  C    0.000000
     2  O    1.846622   0.000000
     3  H    1.104937   2.603839   0.000000
     4  H    1.104937   2.603844   1.878595   0.000000
 Symmetry turned off by external request.
 Stoichiometry    CH2O
 Framework group  CS[SG(CH2O)]
 Deg. of freedom     5
 Full point group                 CS      NOp   2
 Rotational constants (GHZ):         284.1814423          17.7836100          16.7362809
 Leave Link  202 at Mon Apr 21 18:47:24 2025, MaxMem=   536870912 cpu:               0.0 elap:               0.0
 (Enter /home/szhao/Apps/g16/l301.exe)
 Standard basis: 6-311+G(d,p) (5D, 7F)
 Ernie: Thresh=  0.10000D-02 Tol=  0.10000D-05 Strict=F.
    56 basis functions,    88 primitive gaussians,    58 cartesian basis functions
     8 alpha electrons        8 beta electrons
       nuclear repulsion energy        23.0355263779 Hartrees.
 IExCor= 4336 DFT=T Ex+Corr=M062X ExCW=0 ScaHFX=  0.540000
 ScaDFX=  1.000000  1.000000  1.000000  1.000000 ScalE2=  1.000000  1.000000
 IRadAn=      7 IRanWt=     -1 IRanGd=            0 ICorTp=0 IEmpDi=  4
 NAtoms=    4 NActive=    4 NUniq=    4 SFac= 1.00D+00 NAtFMM=   60 NAOKFM=F Big=F
 Integral buffers will be    131072 words long.
 Raffenetti 2 integral format.
 Two-electron integral symmetry is turned off.
 Leave Link  301 at Mon Apr 21 18:47:24 2025, MaxMem=   536870912 cpu:               0.6 elap:               0.1
 (Enter /home/szhao/Apps/g16/l302.exe)
 NPDir=0 NMtPBC=     1 NCelOv=     1 NCel=       1 NClECP=     1 NCelD=      1
         NCelK=      1 NCelE2=     1 NClLst=     1 CellRange=     0.0.
 One-electron integrals computed using PRISM.
 NBasis=    56 RedAO= T EigKep=  1.33D-02  NBF=    56
 NBsUse=    56 1.00D-06 EigRej= -1.00D+00 NBFU=    56
 Precomputing XC quadrature grid using
 IXCGrd= 4 IRadAn=           7 IRanWt=          -1 IRanGd=           0 AccXCQ= 0.00D+00.
 Generated NRdTot=       0 NPtTot=           0 NUsed=           0 NTot=          32
 NSgBfM=    58    58    58    58    58 MxSgAt=     4 MxSgA2=     4.
 Leave Link  302 at Mon Apr 21 18:47:24 2025, MaxMem=   536870912 cpu:               1.3 elap:               0.2
 (Enter /home/szhao/Apps/g16/l303.exe)
 DipDrv:  MaxL=1.
 Leave Link  303 at Mon Apr 21 18:47:25 2025, MaxMem=   536870912 cpu:               0.9 elap:               0.2
 (Enter /home/szhao/Apps/g16/l401.exe)
 ExpMin= 4.38D-02 ExpMax= 8.59D+03 ExpMxC= 1.30D+03 IAcc=3 IRadAn=         7 AccDes= 0.00D+00
 Harris functional with IExCor= 1009 and IRadAn=       7 diagonalized for initial guess.
 HarFok:  IExCor= 1009 AccDes= 0.00D+00 IRadAn=         7 IDoV= 1 UseB2=F ITyADJ=14
 ICtDFT=  3500011 ScaDFX=  1.000000  1.000000  1.000000  1.000000
 FoFCou: FMM=F IPFlag=           0 FMFlag=      100000 FMFlg1=           0
         NFxFlg=           0 DoJE=T BraDBF=F KetDBF=T FulRan=T
         wScrn=  0.000000 ICntrl=       500 IOpCl=  0 I1Cent=   200000004 NGrid=           0
         NMat0=    1 NMatS0=      1 NMatT0=    0 NMatD0=    1 NMtDS0=    0 NMtDT0=    0
 Symmetry not used in FoFCou.
 Harris En= -114.253922803788    
 JPrj=0 DoOrth=F DoCkMO=F.
 Initial guess <Sx>= 0.0000 <Sy>= 0.0000 <Sz>= 0.0000 <S**2>=-0.0000 S=-0.0000
 Leave Link  401 at Mon Apr 21 18:47:25 2025, MaxMem=   536870912 cpu:               2.3 elap:               0.3
 (Enter /home/szhao/Apps/g16/l502.exe)
 Keep R1 and R2 ints in memory in canonical form, NReq=9624206.
 FoFCou: FMM=F IPFlag=           0 FMFlag=           0 FMFlg1=           0
         NFxFlg=           0 DoJE=F BraDBF=F KetDBF=F FulRan=T
         wScrn=  0.000000 ICntrl=       600 IOpCl=  0 I1Cent=           0 NGrid=           0
         NMat0=    1 NMatS0=   1596 NMatT0=    0 NMatD0=    1 NMtDS0=    0 NMtDT0=    0
 Symmetry not used in FoFCou.
 Two-electron integral symmetry not used.
 UHF open shell SCF:
 Using DIIS extrapolation, IDIIS=  1040.
 NGot=   536870912 LenX=   534314330 LenY=   534310525
 Requested convergence on RMS density matrix=1.00D-08 within 128 cycles.
 Requested convergence on MAX density matrix=1.00D-06.
 Requested convergence on             energy=1.00D-06.
 No special actions if energy rises.

 Cycle   1  Pass 1  IDiag  1:
 E= -114.124280033246    
 DIIS: error= 6.64D-02 at cycle   1 NSaved=   1.
 NSaved= 1 IEnMin= 1 EnMin= -114.124280033246     IErMin= 1 ErrMin= 6.64D-02
 ErrMax= 6.64D-02  0.00D+00 EMaxC= 1.00D-01 BMatC= 6.31D-01 BMatP= 6.31D-01
 IDIUse=3 WtCom= 3.36D-01 WtEn= 6.64D-01
 Coeff-Com:  0.100D+01
 Coeff-En:   0.100D+01
 Coeff:      0.100D+01
 Gap=    -0.092 Goal=   None    Shift=    0.000
 Gap=    -0.092 Goal=   None    Shift=    0.000
 GapD=   -0.092 DampG=0.250 DampE=0.500 DampFc=0.2500 IDamp=-1.
 Damping current iteration by 2.50D-01
 RMSDP=1.53D-02 MaxDP=1.61D-01              OVMax= 7.61D-01

 Cycle   2  Pass 1  IDiag  1:
 E= -114.150463666730     Delta-E=       -0.026183633484 Rises=F Damp=T
 DIIS: error= 1.70D-02 at cycle   2 NSaved=   2.
 NSaved= 2 IEnMin= 2 EnMin= -114.150463666730     IErMin= 2 ErrMin= 1.70D-02
 ErrMax= 1.70D-02  0.00D+00 EMaxC= 1.00D-01 BMatC= 6.22D-02 BMatP= 6.31D-01
 IDIUse=3 WtCom= 8.30D-01 WtEn= 1.70D-01
 Coeff-Com:  0.713D-01 0.929D+00
 Coeff-En:   0.398D+00 0.602D+00
 Coeff:      0.127D+00 0.873D+00
 Gap=     0.128 Goal=   None    Shift=    0.000
 Gap=     0.128 Goal=   None    Shift=    0.000
 RMSDP=2.36D-03 MaxDP=2.74D-02 DE=-2.62D-02 OVMax= 6.28D-01

 Cycle   3  Pass 1  IDiag  1:
 E= -114.262027345428     Delta-E=       -0.111563678699 Rises=F Damp=F
 DIIS: error= 7.47D-03 at cycle   3 NSaved=   3.
 NSaved= 3 IEnMin= 3 EnMin= -114.262027345428     IErMin= 3 ErrMin= 7.47D-03
 ErrMax= 7.47D-03  0.00D+00 EMaxC= 1.00D-01 BMatC= 8.80D-03 BMatP= 6.22D-02
 IDIUse=3 WtCom= 9.25D-01 WtEn= 7.47D-02
 Coeff-Com:  0.221D-01 0.178D+00 0.799D+00
 Coeff-En:   0.000D+00 0.000D+00 0.100D+01
 Coeff:      0.205D-01 0.165D+00 0.814D+00
 Gap=     0.214 Goal=   None    Shift=    0.000
 Gap=     0.214 Goal=   None    Shift=    0.000
 RMSDP=8.26D-04 MaxDP=1.72D-02 DE=-1.12D-01 OVMax= 2.97D-02

 Cycle   4  Pass 1  IDiag  1:
 E= -114.263629532971     Delta-E=       -0.001602187543 Rises=F Damp=F
 DIIS: error= 4.73D-03 at cycle   4 NSaved=   4.
 NSaved= 4 IEnMin= 4 EnMin= -114.263629532971     IErMin= 4 ErrMin= 4.73D-03
 ErrMax= 4.73D-03  0.00D+00 EMaxC= 1.00D-01 BMatC= 3.19D-03 BMatP= 8.80D-03
 IDIUse=3 WtCom= 9.53D-01 WtEn= 4.73D-02
 Coeff-Com:  0.425D-01-0.650D-01 0.247D+00 0.776D+00
 Coeff-En:   0.000D+00 0.000D+00 0.106D+00 0.894D+00
 Coeff:      0.404D-01-0.620D-01 0.240D+00 0.781D+00
 Gap=     0.226 Goal=   None    Shift=    0.000
 Gap=     0.226 Goal=   None    Shift=    0.000
 RMSDP=2.72D-04 MaxDP=6.31D-03 DE=-1.60D-03 OVMax= 6.60D-03

 Cycle   5  Pass 1  IDiag  1:
 E= -114.264337550194     Delta-E=       -0.000708017223 Rises=F Damp=F
 DIIS: error= 1.87D-03 at cycle   5 NSaved=   5.
 NSaved= 5 IEnMin= 5 EnMin= -114.264337550194     IErMin= 5 ErrMin= 1.87D-03
 ErrMax= 1.87D-03  0.00D+00 EMaxC= 1.00D-01 BMatC= 3.75D-04 BMatP= 3.19D-03
 IDIUse=3 WtCom= 9.81D-01 WtEn= 1.87D-02
 Coeff-Com:  0.244D-01-0.390D-01 0.310D-01 0.956D-01 0.888D+00
 Coeff-En:   0.000D+00 0.000D+00 0.000D+00 0.000D+00 0.100D+01
 Coeff:      0.240D-01-0.383D-01 0.304D-01 0.938D-01 0.890D+00
 Gap=     0.226 Goal=   None    Shift=    0.000
 Gap=     0.226 Goal=   None    Shift=    0.000
 RMSDP=8.26D-05 MaxDP=7.62D-04 DE=-7.08D-04 OVMax= 2.47D-03

 Cycle   6  Pass 1  IDiag  1:
 E= -114.264412432146     Delta-E=       -0.000074881952 Rises=F Damp=F
 DIIS: error= 6.61D-04 at cycle   6 NSaved=   6.
 NSaved= 6 IEnMin= 6 EnMin= -114.264412432146     IErMin= 6 ErrMin= 6.61D-04
 ErrMax= 6.61D-04  0.00D+00 EMaxC= 1.00D-01 BMatC= 5.76D-05 BMatP= 3.75D-04
 IDIUse=3 WtCom= 9.93D-01 WtEn= 6.61D-03
 Coeff-Com:  0.681D-02-0.867D-02 0.678D-02-0.473D-01 0.219D-01 0.102D+01
 Coeff-En:   0.000D+00 0.000D+00 0.000D+00 0.000D+00 0.000D+00 0.100D+01
 Coeff:      0.676D-02-0.861D-02 0.674D-02-0.470D-01 0.218D-01 0.102D+01
 Gap=     0.226 Goal=   None    Shift=    0.000
 Gap=     0.226 Goal=   None    Shift=    0.000
 RMSDP=3.60D-05 MaxDP=4.51D-04 DE=-7.49D-05 OVMax= 1.33D-03

 Cycle   7  Pass 1  IDiag  1:
 E= -114.264425452765     Delta-E=       -0.000013020619 Rises=F Damp=F
 DIIS: error= 1.91D-04 at cycle   7 NSaved=   7.
 NSaved= 7 IEnMin= 7 EnMin= -114.264425452765     IErMin= 7 ErrMin= 1.91D-04
 ErrMax= 1.91D-04  0.00D+00 EMaxC= 1.00D-01 BMatC= 6.66D-06 BMatP= 5.76D-05
 IDIUse=3 WtCom= 9.98D-01 WtEn= 1.91D-03
 Coeff-Com:  0.190D-02-0.263D-02 0.608D-02 0.133D-01-0.389D-01-0.180D+00
 Coeff-Com:  0.120D+01
 Coeff-En:   0.000D+00 0.000D+00 0.000D+00 0.000D+00 0.000D+00 0.000D+00
 Coeff-En:   0.100D+01
 Coeff:      0.190D-02-0.262D-02 0.607D-02 0.132D-01-0.388D-01-0.180D+00
 Coeff:      0.120D+01
 Gap=     0.225 Goal=   None    Shift=    0.000
 Gap=     0.225 Goal=   None    Shift=    0.000
 RMSDP=1.45D-05 MaxDP=1.47D-04 DE=-1.30D-05 OVMax= 6.84D-04

 Cycle   8  Pass 1  IDiag  1:
 E= -114.264427048999     Delta-E=       -0.000001596234 Rises=F Damp=F
 DIIS: error= 1.11D-04 at cycle   8 NSaved=   8.
 NSaved= 8 IEnMin= 8 EnMin= -114.264427048999     IErMin= 8 ErrMin= 1.11D-04
 ErrMax= 1.11D-04  0.00D+00 EMaxC= 1.00D-01 BMatC= 2.21D-06 BMatP= 6.66D-06
 IDIUse=3 WtCom= 9.99D-01 WtEn= 1.11D-03
 Coeff-Com:  0.567D-03-0.631D-03 0.794D-04 0.720D-02-0.775D-02-0.749D-01
 Coeff-Com: -0.709D+00 0.178D+01
 Coeff-En:   0.000D+00 0.000D+00 0.000D+00 0.000D+00 0.000D+00 0.000D+00
 Coeff-En:   0.000D+00 0.100D+01
 Coeff:      0.566D-03-0.630D-03 0.793D-04 0.719D-02-0.774D-02-0.748D-01
 Coeff:     -0.709D+00 0.178D+01
 Gap=     0.225 Goal=   None    Shift=    0.000
 Gap=     0.225 Goal=   None    Shift=    0.000
 RMSDP=1.61D-05 MaxDP=1.66D-04 DE=-1.60D-06 OVMax= 7.59D-04

 Cycle   9  Pass 1  IDiag  1:
 E= -114.264427829020     Delta-E=       -0.000000780021 Rises=F Damp=F
 DIIS: error= 2.14D-05 at cycle   9 NSaved=   9.
 NSaved= 9 IEnMin= 9 EnMin= -114.264427829020     IErMin= 9 ErrMin= 2.14D-05
 ErrMax= 2.14D-05  0.00D+00 EMaxC= 1.00D-01 BMatC= 8.13D-08 BMatP= 2.21D-06
 IDIUse=1 WtCom= 1.00D+00 WtEn= 0.00D+00
 Coeff-Com:  0.830D-05-0.464D-04 0.358D-04-0.226D-02 0.303D-02 0.667D-01
 Coeff-Com: -0.115D+00-0.356D+00 0.140D+01
 Coeff:      0.830D-05-0.464D-04 0.358D-04-0.226D-02 0.303D-02 0.667D-01
 Coeff:     -0.115D+00-0.356D+00 0.140D+01
 Gap=     0.225 Goal=   None    Shift=    0.000
 Gap=     0.225 Goal=   None    Shift=    0.000
 RMSDP=5.69D-06 MaxDP=5.78D-05 DE=-7.80D-07 OVMax= 2.63D-04

 Cycle  10  Pass 1  IDiag  1:
 E= -114.264427872850     Delta-E=       -0.000000043829 Rises=F Damp=F
 DIIS: error= 5.75D-07 at cycle  10 NSaved=  10.
 NSaved=10 IEnMin=10 EnMin= -114.264427872850     IErMin=10 ErrMin= 5.75D-07
 ErrMax= 5.75D-07  0.00D+00 EMaxC= 1.00D-01 BMatC= 6.46D-11 BMatP= 8.13D-08
 IDIUse=1 WtCom= 1.00D+00 WtEn= 0.00D+00
 Coeff-Com: -0.703D-05 0.576D-05 0.510D-04-0.577D-04-0.424D-03 0.317D-02
 Coeff-Com:  0.438D-02-0.122D-01-0.264D-01 0.103D+01
 Coeff:     -0.703D-05 0.576D-05 0.510D-04-0.577D-04-0.424D-03 0.317D-02
 Coeff:      0.438D-02-0.122D-01-0.264D-01 0.103D+01
 Gap=     0.225 Goal=   None    Shift=    0.000
 Gap=     0.225 Goal=   None    Shift=    0.000
 RMSDP=1.20D-07 MaxDP=1.13D-06 DE=-4.38D-08 OVMax= 5.46D-06

 Cycle  11  Pass 1  IDiag  1:
 E= -114.264427872870     Delta-E=       -0.000000000020 Rises=F Damp=F
 DIIS: error= 9.61D-08 at cycle  11 NSaved=  11.
 NSaved=11 IEnMin=11 EnMin= -114.264427872870     IErMin=11 ErrMin= 9.61D-08
 ErrMax= 9.61D-08  0.00D+00 EMaxC= 1.00D-01 BMatC= 2.02D-12 BMatP= 6.46D-11
 IDIUse=1 WtCom= 1.00D+00 WtEn= 0.00D+00
 Coeff-Com: -0.971D-07 0.111D-05-0.727D-05 0.185D-04-0.120D-03-0.754D-03
 Coeff-Com: -0.108D-03 0.991D-02-0.240D-01-0.278D-01 0.104D+01
 Coeff:     -0.971D-07 0.111D-05-0.727D-05 0.185D-04-0.120D-03-0.754D-03
 Coeff:     -0.108D-03 0.991D-02-0.240D-01-0.278D-01 0.104D+01
 Gap=     0.225 Goal=   None    Shift=    0.000
 Gap=     0.225 Goal=   None    Shift=    0.000
 RMSDP=1.65D-08 MaxDP=1.70D-07 DE=-2.03D-11 OVMax= 7.94D-07

 Cycle  12  Pass 1  IDiag  1:
 E= -114.264427872871     Delta-E=       -0.000000000001 Rises=F Damp=F
 DIIS: error= 2.25D-08 at cycle  12 NSaved=  12.
 NSaved=12 IEnMin=12 EnMin= -114.264427872871     IErMin=12 ErrMin= 2.25D-08
 ErrMax= 2.25D-08  0.00D+00 EMaxC= 1.00D-01 BMatC= 4.75D-14 BMatP= 2.02D-12
 IDIUse=1 WtCom= 1.00D+00 WtEn= 0.00D+00
 Coeff-Com: -0.122D-06 0.127D-06-0.624D-06-0.951D-06 0.115D-04 0.391D-04
 Coeff-Com: -0.124D-03-0.475D-03 0.206D-02-0.129D-01-0.547D-01 0.107D+01
 Coeff:     -0.122D-06 0.127D-06-0.624D-06-0.951D-06 0.115D-04 0.391D-04
 Coeff:     -0.124D-03-0.475D-03 0.206D-02-0.129D-01-0.547D-01 0.107D+01
 Gap=     0.225 Goal=   None    Shift=    0.000
 Gap=     0.225 Goal=   None    Shift=    0.000
 RMSDP=1.33D-09 MaxDP=1.09D-08 DE=-7.96D-13 OVMax= 5.00D-08

 SCF Done:  E(UM062X) =  -114.264427873     A.U. after   12 cycles
            NFock= 12  Conv=0.13D-08     -V/T= 2.0092
 <Sx>= 0.0000 <Sy>= 0.0000 <Sz>= 0.0000 <S**2>=-0.0000 S=-0.0000
 <L.S>=  0.00000000000    
 KE= 1.132218135570D+02 PE=-3.142855402672D+02 EE= 6.376377245940D+01
 Annihilation of the first spin contaminant:
 S**2 before annihilation    -0.0000,   after     0.0000
 Leave Link  502 at Mon Apr 21 18:47:30 2025, MaxMem=   536870912 cpu:              36.5 elap:               4.8
 (Enter /home/szhao/Apps/g16/l601.exe)
 Copying SCF densities to generalized density rwf, IOpCl= 1 IROHF=0.

 **********************************************************************

            Population analysis using the SCF density.

 **********************************************************************

 Alpha  occ. eigenvalues --  -19.67692 -10.71597  -1.00380  -0.80443  -0.56221
 Alpha  occ. eigenvalues --   -0.43740  -0.36399  -0.35404
 Alpha virt. eigenvalues --   -0.12864  -0.02468   0.01575   0.04542   0.06609
 Alpha virt. eigenvalues --    0.07618   0.15065   0.16825   0.21069   0.23856
 Alpha virt. eigenvalues --    0.26591   0.33128   0.41581   0.43025   0.53788
 Alpha virt. eigenvalues --    0.58212   0.62733   0.73366   1.03326   1.06875
 Alpha virt. eigenvalues --    1.14020   1.15404   1.26491   1.27884   1.42462
 Alpha virt. eigenvalues --    1.46853   1.63655   1.65987   1.75412   1.88007
 Alpha virt. eigenvalues --    2.00788   2.37459   2.42661   2.43827   2.57817
 Alpha virt. eigenvalues --    2.69263   2.74812   2.92410   2.92486   2.92644
 Alpha virt. eigenvalues --    2.98305   3.44306   3.63658   5.06476   5.10084
 Alpha virt. eigenvalues --    5.10683  23.67243  49.86942
  Beta  occ. eigenvalues --  -19.67692 -10.71597  -1.00380  -0.80443  -0.56221
  Beta  occ. eigenvalues --   -0.43740  -0.36399  -0.35404
  Beta virt. eigenvalues --   -0.12864  -0.02468   0.01575   0.04542   0.06609
  Beta virt. eigenvalues --    0.07618   0.15065   0.16825   0.21069   0.23856
  Beta virt. eigenvalues --    0.26591   0.33128   0.41581   0.43025   0.53788
  Beta virt. eigenvalues --    0.58212   0.62733   0.73366   1.03326   1.06875
  Beta virt. eigenvalues --    1.14020   1.15404   1.26491   1.27884   1.42462
  Beta virt. eigenvalues --    1.46853   1.63655   1.65987   1.75412   1.88007
  Beta virt. eigenvalues --    2.00788   2.37459   2.42661   2.43827   2.57817
  Beta virt. eigenvalues --    2.69263   2.74812   2.92410   2.92486   2.92644
  Beta virt. eigenvalues --    2.98305   3.44306   3.63658   5.06476   5.10084
  Beta virt. eigenvalues --    5.10683  23.67243  49.86942
          Condensed to atoms (all electrons):
               1          2          3          4
     1  C    5.144102   0.251763   0.354908   0.354908
     2  O    0.251763   8.072949  -0.012635  -0.012635
     3  H    0.354908  -0.012635   0.496081  -0.040915
     4  H    0.354908  -0.012635  -0.040915   0.496081
          Atomic-Atomic Spin Densities.
               1          2          3          4
     1  C   -0.000000  -0.000000   0.000000   0.000000
     2  O   -0.000000   0.000000   0.000000  -0.000000
     3  H    0.000000   0.000000   0.000000  -0.000000
     4  H    0.000000  -0.000000  -0.000000   0.000000
 Mulliken charges and spin densities:
               1          2
     1  C   -0.105681  -0.000000
     2  O   -0.299441   0.000000
     3  H    0.202561   0.000000
     4  H    0.202561   0.000000
 Sum of Mulliken charges =  -0.00000  -0.00000
 Mulliken charges and spin densities with hydrogens summed into heavy atoms:
               1          2
     1  C    0.299441  -0.000000
     2  O   -0.299441   0.000000
 Electronic spatial extent (au):  <R**2>=             91.0011
 Charge=             -0.0000 electrons
 Dipole moment (field-independent basis, Debye):
    X=             -4.4752    Y=             -0.0000    Z=              0.0000  Tot=              4.4752
 Quadrupole moment (field-independent basis, Debye-Ang):
   XX=             -9.8735   YY=            -11.8950   ZZ=            -13.0644
   XY=             -0.0000   XZ=             -0.0000   YZ=              0.0000
 Traceless Quadrupole moment (field-independent basis, Debye-Ang):
   XX=              1.7375   YY=             -0.2840   ZZ=             -1.4535
   XY=             -0.0000   XZ=             -0.0000   YZ=              0.0000
 Octapole moment (field-independent basis, Debye-Ang**2):
  XXX=             -1.1505  YYY=             -0.0000  ZZZ=             -0.0000  XYY=             -1.9695
  XXY=              0.0000  XXZ=              0.0000  XZZ=              1.1330  YZZ=              0.0000
  YYZ=              0.0000  XYZ=             -0.0000
 Hexadecapole moment (field-independent basis, Debye-Ang**3):
 XXXX=            -77.3799 YYYY=            -17.8188 ZZZZ=            -13.9133 XXXY=             -0.0000
 XXXZ=              0.0000 YYYX=              0.0000 YYYZ=             -0.0000 ZZZX=              0.0000
 ZZZY=             -0.0000 XXYY=            -13.8622 XXZZ=            -16.6505 YYZZ=             -5.7619
 XXYZ=              0.0000 YYXZ=             -0.0000 ZZXY=              0.0000
 N-N= 2.303552637795D+01 E-N=-3.142855401300D+02  KE= 1.132218135570D+02
                          Isotropic Fermi Contact Couplings
        Atom                 a.u.       MegaHertz       Gauss      10(-4) cm-1
     1  C(13)              0.00000       0.00000       0.00000       0.00000
     2  O(17)              0.00000      -0.00000      -0.00000      -0.00000
     3  H(1)              -0.00000      -0.00000      -0.00000      -0.00000
     4  H(1)              -0.00000      -0.00000      -0.00000      -0.00000
 --------------------------------------------------------
       Center         ----  Spin Dipole Couplings  ----
                      3XX-RR        3YY-RR        3ZZ-RR
 --------------------------------------------------------
     1   Atom        0.000000      0.000000      0.000000
     2   Atom        0.000000      0.000000      0.000000
     3   Atom        0.000000      0.000000      0.000000
     4   Atom        0.000000      0.000000      0.000000
 --------------------------------------------------------
                        XY            XZ            YZ
 --------------------------------------------------------
     1   Atom        0.000000      0.000000      0.000000
     2   Atom        0.000000      0.000000      0.000000
     3   Atom        0.000000      0.000000      0.000000
     4   Atom        0.000000      0.000000      0.000000
 --------------------------------------------------------


 ---------------------------------------------------------------------------------
              Anisotropic Spin Dipole Couplings in Principal Axis System
 ---------------------------------------------------------------------------------

       Atom             a.u.   MegaHertz   Gauss  10(-4) cm-1        Axes

              Baa     0.0000     0.000     0.000     0.000  1.0000  0.0000  0.0000
     1 C(13)  Bbb     0.0000     0.000     0.000     0.000 -0.0000  1.0000  0.0000
              Bcc     0.0000     0.000     0.000     0.000  0.0000  0.0000  1.0000
 
              Baa     0.0000    -0.000    -0.000    -0.000  1.0000  0.0000  0.0000
     2 O(17)  Bbb     0.0000    -0.000    -0.000    -0.000 -0.0000  1.0000  0.0000
              Bcc     0.0000    -0.000    -0.000    -0.000  0.0000  0.0000  1.0000
 
              Baa     0.0000     0.000     0.000     0.000  1.0000  0.0000  0.0000
     3 H(1)   Bbb     0.0000     0.000     0.000     0.000 -0.0000  1.0000  0.0000
              Bcc     0.0000     0.000     0.000     0.000  0.0000  0.0000  1.0000
 
              Baa     0.0000     0.000     0.000     0.000  1.0000  0.0000  0.0000
     4 H(1)   Bbb     0.0000     0.000     0.000     0.000 -0.0000  1.0000  0.0000
              Bcc     0.0000     0.000     0.000     0.000  0.0000  0.0000  1.0000
 

 ---------------------------------------------------------------------------------

 No NMR shielding tensors so no spin-rotation constants.
 Leave Link  601 at Mon Apr 21 18:47:31 2025, MaxMem=   536870912 cpu:               1.5 elap:               0.3
 (Enter /home/szhao/Apps/g16/l701.exe)
 ... and contract with generalized density number  0.
 Compute integral first derivatives.
 Leave Link  701 at Mon Apr 21 18:47:31 2025, MaxMem=   536870912 cpu:               1.7 elap:               0.3
 (Enter /home/szhao/Apps/g16/l702.exe)
 L702 exits ... SP integral derivatives will be done elsewhere.
 Leave Link  702 at Mon Apr 21 18:47:31 2025, MaxMem=   536870912 cpu:               0.3 elap:               0.1
 (Enter /home/szhao/Apps/g16/l703.exe)
 Integral derivatives from FoFJK, PRISM(SPDF).
 Compute integral first derivatives, UseDBF=F ICtDFT=           0.
 Calling FoFJK, ICntrl=      2127 FMM=F ISym2X=0 I1Cent= 0 IOpClX= 1 NMat=1 NMatS=1 NMatT=0.
 FoFJK:  IHMeth= 1 ICntrl=    2127 DoSepK=F KAlg= 0 I1Cent=           0 FoldK=F
 IRaf=         0 NMat=       1 IRICut=       1 DoRegI=T DoRafI=F ISym2E= 0 IDoP0=0 IntGTp=1.
 FoFCou: FMM=F IPFlag=           0 FMFlag=      100000 FMFlg1=         800
         NFxFlg=           0 DoJE=F BraDBF=F KetDBF=F FulRan=T
         wScrn=  0.000000 ICntrl=      2127 IOpCl=  1 I1Cent=           0 NGrid=           0
         NMat0=    1 NMatS0=      1 NMatT0=    0 NMatD0=    1 NMtDS0=    0 NMtDT0=    0
 Symmetry not used in FoFCou.
 Leave Link  703 at Mon Apr 21 18:47:32 2025, MaxMem=   536870912 cpu:               5.3 elap:               0.7
 (Enter /home/szhao/Apps/g16/l716.exe)
 Dipole        =-1.76068682D+00-9.03503386D-07 1.89258300D-07
 -------------------------------------------------------------------
 Center     Atomic                   Forces (Hartrees/Bohr)
 Number     Number              X              Y              Z
 -------------------------------------------------------------------
      1        6          -0.000000000   -0.000000000   -0.000000000
      2        8          -0.000000000   -0.000000000   -0.000000000
      3        1           0.017749125    0.002982478   -0.000000013
      4        1           0.017749518   -0.002982613   -0.000000015
 -------------------------------------------------------------------
 Cartesian Forces:  Max     0.017749518 RMS     0.007347721
 Leave Link  716 at Mon Apr 21 18:47:32 2025, MaxMem=   536870912 cpu:               0.4 elap:               0.1
 (Enter /home/szhao/Apps/g16/l103.exe)

 GradGradGradGradGradGradGradGradGradGradGradGradGradGradGradGradGradGrad
 Berny optimization.
 FormGI is forming the generalized inverse of G from B-inverse, IUseBI=4.
 Internal  Forces:  Max     0.035498644 RMS     0.013145601
 Search for a local minimum.
 Step number   1 out of a maximum of   22
 All quantities printed in internal units (Hartrees-Bohrs-Radians)
 RMS Force = .11644D-01 SwitMx=.10000D-02 MixMth= 1
 Mixed Optimization -- RFO/linear search
 Second derivative matrix not updated -- first step.
 The second derivative matrix:
                          X1        Y1        Z1        X2        Y2
           X1           0.50000
           Y1           0.00000   0.50000
           Z1           0.00000   0.00000   0.50000
           X2           0.00000   0.00000   0.00000   0.50000
           Y2           0.00000   0.00000   0.00000   0.00000   0.50000
           Z2           0.00000   0.00000   0.00000   0.00000   0.00000
           R1           0.00000   0.00000   0.00000   0.00000   0.00000
           R2           0.00000   0.00000   0.00000   0.00000   0.00000
           A1           0.00000   0.00000   0.00000   0.00000   0.00000
           A2           0.00000   0.00000   0.00000   0.00000   0.00000
           A3           0.00000   0.00000   0.00000   0.00000   0.00000
           D1           0.00000   0.00000   0.00000   0.00000   0.00000
                          Z2        R1        R2        A1        A2
           Z2           0.50000
           R1           0.00000   0.33142
           R2           0.00000   0.00000   0.33142
           A1           0.00000   0.00000   0.00000   0.16000
           A2           0.00000   0.00000   0.00000   0.00000   0.16000
           A3           0.00000   0.00000   0.00000   0.00000   0.00000
           D1           0.00000   0.00000   0.00000   0.00000   0.00000
                          A3        D1
           A3           0.16000
           D1           0.00000   0.00230
 ITU=  0
     Eigenvalues ---    0.00230   0.16000   0.16000   0.33142   0.33142
     Eigenvalues --- 1000.000001000.000001000.000001000.000001000.00000
     Eigenvalues --- 1000.000001000.00000
 RFO step:  Lambda=-4.07874892D-03 EMin= 2.30000000D-03
 Linear search not attempted -- first point.
 Iteration  1 RMS(Cart)=  0.05074627 RMS(Int)=  0.00154806
 Iteration  2 RMS(Cart)=  0.00157648 RMS(Int)=  0.00000084
 Iteration  3 RMS(Cart)=  0.00000098 RMS(Int)=  0.00000000
 ITry= 1 IFail=0 DXMaxC= 1.20D-01 DCOld= 1.00D+10 DXMaxT= 3.00D-01 DXLimC= 3.00D+00 Rises=F
 Variable       Old X    -DE/DX   Delta X   Delta X   Delta X     New X
                                 (Linear)    (Quad)   (Total)
    X1       -1.74480   0.03550   0.00000   0.00000   0.00000  -1.74480
    Y1        0.00000  -0.00000   0.00000   0.00000   0.00000   0.00000
    Z1        0.00000  -0.00000   0.00000   0.00000   0.00000   0.00000
    X2        1.74480   0.00000   0.00000   0.00000   0.00000   1.74480
    Y2        0.00000  -0.00000   0.00000   0.00000   0.00000   0.00000
    Z2        0.00000   0.00000   0.00000   0.00000   0.00000   0.00000
    R1        2.08803  -0.01188   0.00000  -0.03542  -0.03542   2.05261
    R2        2.08803  -0.01188   0.00000  -0.03542  -0.03542   2.05261
    A1        2.12543  -0.00941   0.00000  -0.05734  -0.05734   2.06809
    A2        2.12544  -0.00941   0.00000  -0.05734  -0.05734   2.06809
    A3        2.03232   0.01882   0.00000   0.11468   0.11468   2.14700
    D1       -3.14159  -0.00000   0.00000  -0.00000  -0.00000   3.14159
         Item               Value     Threshold  Converged?
 Maximum Force            0.018817     0.000450     NO 
 RMS     Force            0.011644     0.000300     NO 
 Maximum Displacement     0.120433     0.001800     NO 
 RMS     Displacement     0.050568     0.001200     NO 
 Predicted change in Energy=-2.084725D-03
 Lowest energy point so far.  Saving SCF results.
 GradGradGradGradGradGradGradGradGradGradGradGradGradGradGradGradGradGrad

 Leave Link  103 at Mon Apr 21 18:47:32 2025, MaxMem=   536870912 cpu:               0.3 elap:               0.1
 (Enter /home/szhao/Apps/g16/l202.exe)
                          Input orientation:                          
 ---------------------------------------------------------------------
 Center     Atomic      Atomic             Coordinates (Angstroms)
 Number     Number       Type             X           Y           Z
 ---------------------------------------------------------------------
      1          6           0       -0.923311    0.000000    0.000000
      2          8           0        0.923311    0.000000    0.000000
      3          1           0       -1.441479   -0.954631   -0.000001
      4          1           0       -1.441482    0.954629   -0.000001
 ---------------------------------------------------------------------
                    Distance matrix (angstroms):
                    1          2          3          4
     1  C    0.000000
     2  O    1.846622   0.000000
     3  H    1.086194   2.550206   0.000000
     4  H    1.086194   2.550209   1.909260   0.000000
 Symmetry turned off by external request.
 Stoichiometry    CH2O
 Framework group  C1[X(CH2O)]
 Deg. of freedom     6
 Full point group                 C1      NOp   1
 Rotational constants (GHZ):         275.1261919          18.0276331          16.9190153
 Leave Link  202 at Mon Apr 21 18:47:33 2025, MaxMem=   536870912 cpu:               0.1 elap:               0.2
 (Enter /home/szhao/Apps/g16/l301.exe)
 Standard basis: 6-311+G(d,p) (5D, 7F)
 Ernie: Thresh=  0.10000D-02 Tol=  0.10000D-05 Strict=F.
    56 basis functions,    88 primitive gaussians,    58 cartesian basis functions
     8 alpha electrons        8 beta electrons
       nuclear repulsion energy        23.1985564507 Hartrees.
 IExCor= 4336 DFT=T Ex+Corr=M062X ExCW=0 ScaHFX=  0.540000
 ScaDFX=  1.000000  1.000000  1.000000  1.000000 ScalE2=  1.000000  1.000000
 IRadAn=      7 IRanWt=     -1 IRanGd=            0 ICorTp=0 IEmpDi=  4
 NAtoms=    4 NActive=    4 NUniq=    4 SFac= 1.00D+00 NAtFMM=   60 NAOKFM=F Big=F
 Integral buffers will be    131072 words long.
 Raffenetti 2 integral format.
 Two-electron integral symmetry is turned off.
 Leave Link  301 at Mon Apr 21 18:47:33 2025, MaxMem=   536870912 cpu:               0.6 elap:               0.1
 (Enter /home/szhao/Apps/g16/l302.exe)
 NPDir=0 NMtPBC=     1 NCelOv=     1 NCel=       1 NClECP=     1 NCelD=      1
         NCelK=      1 NCelE2=     1 NClLst=     1 CellRange=     0.0.
 One-electron integrals computed using PRISM.
 NBasis=    56 RedAO= T EigKep=  1.31D-02  NBF=    56
 NBsUse=    56 1.00D-06 EigRej= -1.00D+00 NBFU=    56
 Precomputing XC quadrature grid using
 IXCGrd= 4 IRadAn=           7 IRanWt=          -1 IRanGd=           0 AccXCQ= 0.00D+00.
 Generated NRdTot=       0 NPtTot=           0 NUsed=           0 NTot=          32
 NSgBfM=    58    58    58    58    58 MxSgAt=     4 MxSgA2=     4.
 Leave Link  302 at Mon Apr 21 18:47:34 2025, MaxMem=   536870912 cpu:               1.7 elap:               0.4
 (Enter /home/szhao/Apps/g16/l303.exe)
 DipDrv:  MaxL=1.
 Leave Link  303 at Mon Apr 21 18:47:34 2025, MaxMem=   536870912 cpu:               0.6 elap:               0.1
 (Enter /home/szhao/Apps/g16/l401.exe)
 Initial guess from the checkpoint file:  "opt.chk"
 B after Tr=     0.015054    0.000000   -0.000000
         Rot=    1.000000   -0.000000    0.000000    0.000000 Ang=   0.00 deg.
 Guess basis will be translated and rotated to current coordinates.
 JPrj=2 DoOrth=T DoCkMO=T.
 Initial guess <Sx>= 0.0000 <Sy>= 0.0000 <Sz>= 0.0000 <S**2>=-0.0000 S=-0.0000
 Generating alternative initial guess.
 ExpMin= 4.38D-02 ExpMax= 8.59D+03 ExpMxC= 1.30D+03 IAcc=3 IRadAn=         5 AccDes= 0.00D+00
 Harris functional with IExCor= 1009 and IRadAn=       5 diagonalized for initial guess.
 HarFok:  IExCor= 1009 AccDes= 0.00D+00 IRadAn=         5 IDoV= 1 UseB2=F ITyADJ=14
 ICtDFT=  3500011 ScaDFX=  1.000000  1.000000  1.000000  1.000000
 FoFCou: FMM=F IPFlag=           0 FMFlag=      100000 FMFlg1=           0
         NFxFlg=           0 DoJE=T BraDBF=F KetDBF=T FulRan=T
         wScrn=  0.000000 ICntrl=       500 IOpCl=  0 I1Cent=   200000004 NGrid=           0
         NMat0=    1 NMatS0=      1 NMatT0=    0 NMatD0=    1 NMtDS0=    0 NMtDT0=    0
 Symmetry not used in FoFCou.
 Harris En= -114.257718653354    
 Leave Link  401 at Mon Apr 21 18:47:35 2025, MaxMem=   536870912 cpu:               2.7 elap:               0.5
 (Enter /home/szhao/Apps/g16/l502.exe)
 Keep R1 and R2 ints in memory in canonical form, NReq=9624206.
 FoFCou: FMM=F IPFlag=           0 FMFlag=           0 FMFlg1=           0
         NFxFlg=           0 DoJE=F BraDBF=F KetDBF=F FulRan=T
         wScrn=  0.000000 ICntrl=       600 IOpCl=  0 I1Cent=           0 NGrid=           0
         NMat0=    1 NMatS0=   1596 NMatT0=    0 NMatD0=    1 NMtDS0=    0 NMtDT0=    0
 Symmetry not used in FoFCou.
 Two-electron integral symmetry not used.
 UHF open shell SCF:
 Using DIIS extrapolation, IDIIS=  1040.
 NGot=   536870912 LenX=   534314330 LenY=   534310525
 Requested convergence on RMS density matrix=1.00D-08 within 128 cycles.
 Requested convergence on MAX density matrix=1.00D-06.
 Requested convergence on             energy=1.00D-06.
 No special actions if energy rises.

 Cycle   1  Pass 1  IDiag  1:
 E= -114.266875795092    
 DIIS: error= 2.99D-03 at cycle   1 NSaved=   1.
 NSaved= 1 IEnMin= 1 EnMin= -114.266875795092     IErMin= 1 ErrMin= 2.99D-03
 ErrMax= 2.99D-03  0.00D+00 EMaxC= 1.00D-01 BMatC= 1.52D-03 BMatP= 1.52D-03
 IDIUse=3 WtCom= 9.70D-01 WtEn= 2.99D-02
 Coeff-Com:  0.100D+01
 Coeff-En:   0.100D+01
 Coeff:      0.100D+01
 Gap=     0.584 Goal=   None    Shift=    0.000
 Gap=     0.584 Goal=   None    Shift=    0.000
 GapD=    0.584 DampG=2.000 DampE=1.000 DampFc=2.0000 IDamp=-1.
 RMSDP=3.50D-04 MaxDP=3.60D-03              OVMax= 1.33D-02

 Cycle   2  Pass 1  IDiag  1:
 E= -114.267107953039     Delta-E=       -0.000232157947 Rises=F Damp=F
 DIIS: error= 3.22D-03 at cycle   2 NSaved=   2.
 NSaved= 2 IEnMin= 2 EnMin= -114.267107953039     IErMin= 1 ErrMin= 2.99D-03
 ErrMax= 3.22D-03  0.00D+00 EMaxC= 1.00D-01 BMatC= 1.19D-03 BMatP= 1.52D-03
 IDIUse=3 WtCom= 9.68D-01 WtEn= 3.22D-02
 Coeff-Com:  0.447D+00 0.553D+00
 Coeff-En:   0.497D-01 0.950D+00
 Coeff:      0.434D+00 0.566D+00
 Gap=     0.227 Goal=   None    Shift=    0.000
 Gap=     0.227 Goal=   None    Shift=    0.000
 RMSDP=3.38D-04 MaxDP=3.77D-03 DE=-2.32D-04 OVMax= 1.72D-02

 Cycle   3  Pass 1  IDiag  1:
 E= -114.266816235858     Delta-E=        0.000291717182 Rises=F Damp=F
 DIIS: error= 5.69D-03 at cycle   3 NSaved=   3.
 NSaved= 3 IEnMin= 2 EnMin= -114.267107953039     IErMin= 1 ErrMin= 2.99D-03
 ErrMax= 5.69D-03  0.00D+00 EMaxC= 1.00D-01 BMatC= 2.55D-03 BMatP= 1.19D-03
 IDIUse=3 WtCom= 1.17D-01 WtEn= 8.83D-01
 Coeff-Com: -0.507D-01 0.621D+00 0.430D+00
 Coeff-En:   0.000D+00 0.622D+00 0.378D+00
 Coeff:     -0.593D-02 0.622D+00 0.384D+00
 Gap=     0.225 Goal=   None    Shift=    0.000
 Gap=     0.225 Goal=   None    Shift=    0.000
 RMSDP=1.88D-04 MaxDP=2.82D-03 DE= 2.92D-04 OVMax= 1.25D-02

 Cycle   4  Pass 1  IDiag  1:
 E= -114.267386722664     Delta-E=       -0.000570486807 Rises=F Damp=F
 DIIS: error= 6.94D-04 at cycle   4 NSaved=   4.
 NSaved= 4 IEnMin= 4 EnMin= -114.267386722664     IErMin= 4 ErrMin= 6.94D-04
 ErrMax= 6.94D-04  0.00D+00 EMaxC= 1.00D-01 BMatC= 2.34D-05 BMatP= 1.19D-03
 IDIUse=3 WtCom= 9.93D-01 WtEn= 6.94D-03
 Coeff-Com: -0.351D-01 0.184D+00 0.742D-01 0.777D+00
 Coeff-En:   0.000D+00 0.000D+00 0.000D+00 0.100D+01
 Coeff:     -0.349D-01 0.183D+00 0.737D-01 0.778D+00
 Gap=     0.224 Goal=   None    Shift=    0.000
 Gap=     0.224 Goal=   None    Shift=    0.000
 RMSDP=4.95D-05 MaxDP=6.62D-04 DE=-5.70D-04 OVMax= 3.56D-03

 Cycle   5  Pass 1  IDiag  1:
 E= -114.267398622330     Delta-E=       -0.000011899665 Rises=F Damp=F
 DIIS: error= 2.94D-04 at cycle   5 NSaved=   5.
 NSaved= 5 IEnMin= 5 EnMin= -114.267398622330     IErMin= 5 ErrMin= 2.94D-04
 ErrMax= 2.94D-04  0.00D+00 EMaxC= 1.00D-01 BMatC= 1.26D-05 BMatP= 2.34D-05
 IDIUse=3 WtCom= 9.97D-01 WtEn= 2.94D-03
 Coeff-Com:  0.152D-01-0.208D+00-0.305D-01-0.257D+00 0.148D+01
 Coeff-En:   0.000D+00 0.000D+00 0.000D+00 0.000D+00 0.100D+01
 Coeff:      0.152D-01-0.207D+00-0.304D-01-0.256D+00 0.148D+01
 Gap=     0.224 Goal=   None    Shift=    0.000
 Gap=     0.224 Goal=   None    Shift=    0.000
 RMSDP=5.59D-05 MaxDP=5.62D-04 DE=-1.19D-05 OVMax= 2.56D-03

 Cycle   6  Pass 1  IDiag  1:
 E= -114.267407105646     Delta-E=       -0.000008483316 Rises=F Damp=F
 DIIS: error= 7.88D-05 at cycle   6 NSaved=   6.
 NSaved= 6 IEnMin= 6 EnMin= -114.267407105646     IErMin= 6 ErrMin= 7.88D-05
 ErrMax= 7.88D-05  0.00D+00 EMaxC= 1.00D-01 BMatC= 1.11D-06 BMatP= 1.26D-05
 IDIUse=1 WtCom= 1.00D+00 WtEn= 0.00D+00
 Coeff-Com:  0.140D-03 0.344D-01 0.949D-02-0.359D-01-0.697D+00 0.169D+01
 Coeff:      0.140D-03 0.344D-01 0.949D-02-0.359D-01-0.697D+00 0.169D+01
 Gap=     0.224 Goal=   None    Shift=    0.000
 Gap=     0.224 Goal=   None    Shift=    0.000
 RMSDP=3.53D-05 MaxDP=3.29D-04 DE=-8.48D-06 OVMax= 1.76D-03

 Cycle   7  Pass 1  IDiag  1:
 E= -114.267408640334     Delta-E=       -0.000001534688 Rises=F Damp=F
 DIIS: error= 2.37D-05 at cycle   7 NSaved=   7.
 NSaved= 7 IEnMin= 7 EnMin= -114.267408640334     IErMin= 7 ErrMin= 2.37D-05
 ErrMax= 2.37D-05  0.00D+00 EMaxC= 1.00D-01 BMatC= 9.85D-08 BMatP= 1.11D-06
 IDIUse=1 WtCom= 1.00D+00 WtEn= 0.00D+00
 Coeff-Com: -0.102D-02 0.141D-01 0.794D-02 0.102D-01-0.137D+00 0.103D+00
 Coeff-Com:  0.100D+01
 Coeff:     -0.102D-02 0.141D-01 0.794D-02 0.102D-01-0.137D+00 0.103D+00
 Coeff:      0.100D+01
 Gap=     0.224 Goal=   None    Shift=    0.000
 Gap=     0.224 Goal=   None    Shift=    0.000
 RMSDP=3.96D-06 MaxDP=4.47D-05 DE=-1.53D-06 OVMax= 1.73D-04

 Cycle   8  Pass 1  IDiag  1:
 E= -114.267408673325     Delta-E=       -0.000000032991 Rises=F Damp=F
 DIIS: error= 1.98D-06 at cycle   8 NSaved=   8.
 NSaved= 8 IEnMin= 8 EnMin= -114.267408673325     IErMin= 8 ErrMin= 1.98D-06
 ErrMax= 1.98D-06  0.00D+00 EMaxC= 1.00D-01 BMatC= 6.98D-10 BMatP= 9.85D-08
 IDIUse=1 WtCom= 1.00D+00 WtEn= 0.00D+00
 Coeff-Com:  0.176D-04-0.133D-02-0.206D-03 0.907D-03 0.195D-01-0.457D-01
 Coeff-Com: -0.397D-01 0.107D+01
 Coeff:      0.176D-04-0.133D-02-0.206D-03 0.907D-03 0.195D-01-0.457D-01
 Coeff:     -0.397D-01 0.107D+01
 Gap=     0.224 Goal=   None    Shift=    0.000
 Gap=     0.224 Goal=   None    Shift=    0.000
 RMSDP=3.59D-07 MaxDP=3.50D-06 DE=-3.30D-08 OVMax= 1.35D-05

 Cycle   9  Pass 1  IDiag  1:
 E= -114.267408673570     Delta-E=       -0.000000000245 Rises=F Damp=F
 DIIS: error= 1.57D-07 at cycle   9 NSaved=   9.
 NSaved= 9 IEnMin= 9 EnMin= -114.267408673570     IErMin= 9 ErrMin= 1.57D-07
 ErrMax= 1.57D-07  0.00D+00 EMaxC= 1.00D-01 BMatC= 4.43D-12 BMatP= 6.98D-10
 IDIUse=1 WtCom= 1.00D+00 WtEn= 0.00D+00
 Coeff-Com:  0.231D-04-0.280D-03-0.255D-03 0.235D-04 0.184D-02 0.125D-02
 Coeff-Com: -0.270D-01-0.465D-01 0.107D+01
 Coeff:      0.231D-04-0.280D-03-0.255D-03 0.235D-04 0.184D-02 0.125D-02
 Coeff:     -0.270D-01-0.465D-01 0.107D+01
 Gap=     0.224 Goal=   None    Shift=    0.000
 Gap=     0.224 Goal=   None    Shift=    0.000
 RMSDP=3.06D-08 MaxDP=2.62D-07 DE=-2.45D-10 OVMax= 9.30D-07

 Cycle  10  Pass 1  IDiag  1:
 E= -114.267408673572     Delta-E=       -0.000000000002 Rises=F Damp=F
 DIIS: error= 9.25D-08 at cycle  10 NSaved=  10.
 NSaved=10 IEnMin=10 EnMin= -114.267408673572     IErMin=10 ErrMin= 9.25D-08
 ErrMax= 9.25D-08  0.00D+00 EMaxC= 1.00D-01 BMatC= 9.23D-13 BMatP= 4.43D-12
 IDIUse=1 WtCom= 1.00D+00 WtEn= 0.00D+00
 Coeff-Com:  0.560D-06 0.246D-04-0.345D-05-0.171D-04-0.610D-03 0.164D-02
 Coeff-Com: -0.118D-02-0.369D-01 0.107D+00 0.930D+00
 Coeff:      0.560D-06 0.246D-04-0.345D-05-0.171D-04-0.610D-03 0.164D-02
 Coeff:     -0.118D-02-0.369D-01 0.107D+00 0.930D+00
 Gap=     0.224 Goal=   None    Shift=    0.000
 Gap=     0.224 Goal=   None    Shift=    0.000
 RMSDP=8.55D-09 MaxDP=7.60D-08 DE=-1.71D-12 OVMax= 3.25D-07

 SCF Done:  E(UM062X) =  -114.267408674     A.U. after   10 cycles
            NFock= 10  Conv=0.86D-08     -V/T= 2.0089
 <Sx>= 0.0000 <Sy>= 0.0000 <Sz>= 0.0000 <S**2>=-0.0000 S=-0.0000
 <L.S>=  0.00000000000    
 KE= 1.132624263930D+02 PE=-3.146409489664D+02 EE= 6.391255744921D+01
 Annihilation of the first spin contaminant:
 S**2 before annihilation    -0.0000,   after     0.0000
 Leave Link  502 at Mon Apr 21 18:47:39 2025, MaxMem=   536870912 cpu:              30.9 elap:               4.1
 (Enter /home/szhao/Apps/g16/l701.exe)
 ... and contract with generalized density number  0.
 Compute integral first derivatives.
 Leave Link  701 at Mon Apr 21 18:47:39 2025, MaxMem=   536870912 cpu:               1.5 elap:               0.2
 (Enter /home/szhao/Apps/g16/l702.exe)
 L702 exits ... SP integral derivatives will be done elsewhere.
 Leave Link  702 at Mon Apr 21 18:47:40 2025, MaxMem=   536870912 cpu:               0.3 elap:               0.1
 (Enter /home/szhao/Apps/g16/l703.exe)
 Integral derivatives from FoFJK, PRISM(SPDF).
 Compute integral first derivatives, UseDBF=F ICtDFT=           0.
 Calling FoFJK, ICntrl=      2127 FMM=F ISym2X=0 I1Cent= 0 IOpClX= 1 NMat=1 NMatS=1 NMatT=0.
 FoFJK:  IHMeth= 1 ICntrl=    2127 DoSepK=F KAlg= 0 I1Cent=           0 FoldK=F
 IRaf=         0 NMat=       1 IRICut=       1 DoRegI=T DoRafI=F ISym2E= 0 IDoP0=0 IntGTp=1.
 FoFCou: FMM=F IPFlag=           0 FMFlag=      100000 FMFlg1=         800
         NFxFlg=           0 DoJE=F BraDBF=F KetDBF=F FulRan=T
         wScrn=  0.000000 ICntrl=      2127 IOpCl=  1 I1Cent=           0 NGrid=           0
         NMat0=    1 NMatS0=      1 NMatT0=    0 NMatD0=    1 NMtDS0=    0 NMtDT0=    0
 Symmetry not used in FoFCou.
 Leave Link  703 at Mon Apr 21 18:47:41 2025, MaxMem=   536870912 cpu:               5.9 elap:               0.8
 (Enter /home/szhao/Apps/g16/l716.exe)
 Dipole        =-1.74144332D+00-5.06461968D-07-6.78319641D-07
 -------------------------------------------------------------------
 Center     Atomic                   Forces (Hartrees/Bohr)
 Number     Number              X              Y              Z
 -------------------------------------------------------------------
      1        6          -0.000000000   -0.000000000   -0.000000000
      2        8          -0.000000000   -0.000000000   -0.000000000
      3        1           0.007353754   -0.002339058    0.000000040
      4        1           0.007353851    0.002339159    0.000000041
 -------------------------------------------------------------------
 Cartesian Forces:  Max     0.007353851 RMS     0.003150393
 Leave Link  716 at Mon Apr 21 18:47:41 2025, MaxMem=   536870912 cpu:               0.4 elap:               0.1
 (Enter /home/szhao/Apps/g16/l103.exe)

 GradGradGradGradGradGradGradGradGradGradGradGradGradGradGradGradGradGrad
 Berny optimization.
 Using GEDIIS/GDIIS optimizer.
 FormGI is forming the generalized inverse of G from B-inverse, IUseBI=4.
 Internal  Forces:  Max     0.014707605 RMS     0.005641154
 Search for a local minimum.
 Step number   2 out of a maximum of   22
 All quantities printed in internal units (Hartrees-Bohrs-Radians)
 RMS Force = .52529D-02 SwitMx=.10000D-02 MixMth= 1
 Mixed Optimization -- RFO/linear search
 Update second derivatives using D2CorX and points    1    2
 DE= -2.98D-03 DEPred=-2.08D-03 R= 1.43D+00
 TightC=F SS=  1.41D+00  RLast= 1.49D-01 DXNew= 5.0454D-01 4.4737D-01
 Trust test= 1.43D+00 RLast= 1.49D-01 DXMaxT set to 4.47D-01
 The second derivative matrix:
                          X1        Y1        Z1        X2        Y2
           X1           0.69722
           Y1          -0.00000   0.50000
           Z1          -0.00000   0.00000   0.50000
           X2           0.00000  -0.00000  -0.00000   0.50000
           Y2          -0.00000   0.00000   0.00000  -0.00000   0.50000
           Z2           0.00000  -0.00000  -0.00000   0.00000  -0.00000
           R1          -0.09894   0.00000   0.00000  -0.00000   0.00000
           R2          -0.09894   0.00000   0.00000  -0.00000   0.00000
           A1          -0.04006   0.00000   0.00000  -0.00000   0.00000
           A2          -0.04006   0.00000   0.00000  -0.00000   0.00000
           A3           0.08012  -0.00000  -0.00000   0.00000  -0.00000
           D1          -0.00000   0.00000   0.00000  -0.00000   0.00000
                          Z2        R1        R2        A1        A2
           Z2           0.50000
           R1          -0.00000   0.34651
           R2          -0.00000   0.01509   0.34651
           A1          -0.00000  -0.00691  -0.00691   0.14703
           A2          -0.00000  -0.00691  -0.00691  -0.01297   0.14703
           A3           0.00000   0.01382   0.01382   0.02594   0.02594
           D1          -0.00000   0.00000   0.00000   0.00000   0.00000
                          A3        D1
           A3           0.10812
           D1          -0.00000   0.00230
 ITU=  1  0
 Use linear search instead of GDIIS.
     Eigenvalues ---    0.00230   0.08015   0.16000   0.33142   0.36363
     Eigenvalues --- 1000.000001000.000001000.000001000.000001000.00000
     Eigenvalues --- 1000.000001000.00000
 RFO step:  Lambda=-4.38681132D-04 EMin= 2.30000000D-03
 Quartic linear search produced a step of  0.87006.
 Iteration  1 RMS(Cart)=  0.05508095 RMS(Int)=  0.00181712
 Iteration  2 RMS(Cart)=  0.00181853 RMS(Int)=  0.00000025
 Iteration  3 RMS(Cart)=  0.00000029 RMS(Int)=  0.00000000
 ITry= 1 IFail=0 DXMaxC= 1.25D-01 DCOld= 1.00D+10 DXMaxT= 4.47D-01 DXLimC= 3.00D+00 Rises=F
 Variable       Old X    -DE/DX   Delta X   Delta X   Delta X     New X
                                 (Linear)    (Quad)   (Total)
    X1       -1.74480   0.01471   0.00000   0.00000   0.00000  -1.74480
    Y1        0.00000   0.00000   0.00000   0.00000   0.00000   0.00000
    Z1        0.00000   0.00000   0.00000   0.00000   0.00000   0.00000
    X2        1.74480   0.00000   0.00000   0.00000   0.00000   1.74480
    Y2        0.00000  -0.00000   0.00000   0.00000   0.00000   0.00000
    Z2        0.00000  -0.00000   0.00000   0.00000   0.00000   0.00000
    R1        2.05261  -0.00145  -0.03082   0.01917  -0.01165   2.04096
    R2        2.05261  -0.00145  -0.03082   0.01917  -0.01165   2.04096
    A1        2.06809  -0.00519  -0.04989  -0.01571  -0.06560   2.00249
    A2        2.06809  -0.00519  -0.04989  -0.01571  -0.06560   2.00249
    A3        2.14700   0.01037   0.09978   0.03142   0.13121   2.27821
    D1        3.14159   0.00000  -0.00000   0.00004   0.00004  -3.14155
         Item               Value     Threshold  Converged?
 Maximum Force            0.010371     0.000450     NO 
 RMS     Force            0.005253     0.000300     NO 
 Maximum Displacement     0.125244     0.001800     NO 
 RMS     Displacement     0.055013     0.001200     NO 
 Predicted change in Energy=-1.028196D-03
 Lowest energy point so far.  Saving SCF results.
 GradGradGradGradGradGradGradGradGradGradGradGradGradGradGradGradGradGrad

 Leave Link  103 at Mon Apr 21 18:47:41 2025, MaxMem=   536870912 cpu:               0.3 elap:               0.1
 (Enter /home/szhao/Apps/g16/l202.exe)
                          Input orientation:                          
 ---------------------------------------------------------------------
 Center     Atomic      Atomic             Coordinates (Angstroms)
 Number     Number       Type             X           Y           Z
 ---------------------------------------------------------------------
      1          6           0       -0.923311    0.000000    0.000000
      2          8           0        0.923311    0.000000    0.000000
      3          1           0       -1.375206   -0.980947    0.000015
      4          1           0       -1.375206    0.980947    0.000016
 ---------------------------------------------------------------------
                    Distance matrix (angstroms):
                    1          2          3          4
     1  C    0.000000
     2  O    1.846622   0.000000
     3  H    1.080031   2.499087   0.000000
     4  H    1.080031   2.499087   1.961895   0.000000
 Symmetry turned off by external request.
 Stoichiometry    CH2O
 Framework group  C1[X(CH2O)]
 Deg. of freedom     6
 Full point group                 C1      NOp   1
 Rotational constants (GHZ):         260.5617974          18.2778956          17.0797825
 Leave Link  202 at Mon Apr 21 18:47:41 2025, MaxMem=   536870912 cpu:               0.1 elap:               0.0
 (Enter /home/szhao/Apps/g16/l301.exe)
 Standard basis: 6-311+G(d,p) (5D, 7F)
 Ernie: Thresh=  0.10000D-02 Tol=  0.10000D-05 Strict=F.
    56 basis functions,    88 primitive gaussians,    58 cartesian basis functions
     8 alpha electrons        8 beta electrons
       nuclear repulsion energy        23.2923976305 Hartrees.
 IExCor= 4336 DFT=T Ex+Corr=M062X ExCW=0 ScaHFX=  0.540000
 ScaDFX=  1.000000  1.000000  1.000000  1.000000 ScalE2=  1.000000  1.000000
 IRadAn=      7 IRanWt=     -1 IRanGd=            0 ICorTp=0 IEmpDi=  4
 NAtoms=    4 NActive=    4 NUniq=    4 SFac= 1.00D+00 NAtFMM=   60 NAOKFM=F Big=F
 Integral buffers will be    131072 words long.
 Raffenetti 2 integral format.
 Two-electron integral symmetry is turned off.
 Leave Link  301 at Mon Apr 21 18:47:41 2025, MaxMem=   536870912 cpu:               0.7 elap:               0.1
 (Enter /home/szhao/Apps/g16/l302.exe)
 NPDir=0 NMtPBC=     1 NCelOv=     1 NCel=       1 NClECP=     1 NCelD=      1
         NCelK=      1 NCelE2=     1 NClLst=     1 CellRange=     0.0.
 One-electron integrals computed using PRISM.
 NBasis=    56 RedAO= T EigKep=  1.29D-02  NBF=    56
 NBsUse=    56 1.00D-06 EigRej= -1.00D+00 NBFU=    56
 Precomputing XC quadrature grid using
 IXCGrd= 4 IRadAn=           7 IRanWt=          -1 IRanGd=           0 AccXCQ= 0.00D+00.
 Generated NRdTot=       0 NPtTot=           0 NUsed=           0 NTot=          32
 NSgBfM=    58    58    58    58    58 MxSgAt=     4 MxSgA2=     4.
 Leave Link  302 at Mon Apr 21 18:47:42 2025, MaxMem=   536870912 cpu:               1.4 elap:               0.2
 (Enter /home/szhao/Apps/g16/l303.exe)
 DipDrv:  MaxL=1.
 Leave Link  303 at Mon Apr 21 18:47:42 2025, MaxMem=   536870912 cpu:               0.5 elap:               0.1
 (Enter /home/szhao/Apps/g16/l401.exe)
 Initial guess from the checkpoint file:  "opt.chk"
 B after Tr=     0.015655    0.000000    0.000004
         Rot=    1.000000   -0.000000   -0.000001    0.000000 Ang=  -0.00 deg.
 Guess basis will be translated and rotated to current coordinates.
 JPrj=2 DoOrth=T DoCkMO=T.
 Initial guess <Sx>= 0.0000 <Sy>= 0.0000 <Sz>= 0.0000 <S**2>=-0.0000 S=-0.0000
 Generating alternative initial guess.
 ExpMin= 4.38D-02 ExpMax= 8.59D+03 ExpMxC= 1.30D+03 IAcc=3 IRadAn=         5 AccDes= 0.00D+00
 Harris functional with IExCor= 1009 and IRadAn=       5 diagonalized for initial guess.
 HarFok:  IExCor= 1009 AccDes= 0.00D+00 IRadAn=         5 IDoV= 1 UseB2=F ITyADJ=14
 ICtDFT=  3500011 ScaDFX=  1.000000  1.000000  1.000000  1.000000
 FoFCou: FMM=F IPFlag=           0 FMFlag=      100000 FMFlg1=           0
         NFxFlg=           0 DoJE=T BraDBF=F KetDBF=T FulRan=T
         wScrn=  0.000000 ICntrl=       500 IOpCl=  0 I1Cent=   200000004 NGrid=           0
         NMat0=    1 NMatS0=      1 NMatT0=    0 NMatD0=    1 NMtDS0=    0 NMtDT0=    0
 Symmetry not used in FoFCou.
 Harris En= -114.259842846104    
 Leave Link  401 at Mon Apr 21 18:47:42 2025, MaxMem=   536870912 cpu:               2.2 elap:               0.3
 (Enter /home/szhao/Apps/g16/l502.exe)
 Keep R1 and R2 ints in memory in canonical form, NReq=9624206.
 FoFCou: FMM=F IPFlag=           0 FMFlag=           0 FMFlg1=           0
         NFxFlg=           0 DoJE=F BraDBF=F KetDBF=F FulRan=T
         wScrn=  0.000000 ICntrl=       600 IOpCl=  0 I1Cent=           0 NGrid=           0
         NMat0=    1 NMatS0=   1596 NMatT0=    0 NMatD0=    1 NMtDS0=    0 NMtDT0=    0
 Symmetry not used in FoFCou.
 Two-electron integral symmetry not used.
 UHF open shell SCF:
 Using DIIS extrapolation, IDIIS=  1040.
 NGot=   536870912 LenX=   534314330 LenY=   534310525
 Requested convergence on RMS density matrix=1.00D-08 within 128 cycles.
 Requested convergence on MAX density matrix=1.00D-06.
 Requested convergence on             energy=1.00D-06.
 No special actions if energy rises.

 Cycle   1  Pass 1  IDiag  1:
 E= -114.267995184621    
 DIIS: error= 2.78D-03 at cycle   1 NSaved=   1.
 NSaved= 1 IEnMin= 1 EnMin= -114.267995184621     IErMin= 1 ErrMin= 2.78D-03
 ErrMax= 2.78D-03  0.00D+00 EMaxC= 1.00D-01 BMatC= 1.41D-03 BMatP= 1.41D-03
 IDIUse=3 WtCom= 9.72D-01 WtEn= 2.78D-02
 Coeff-Com:  0.100D+01
 Coeff-En:   0.100D+01
 Coeff:      0.100D+01
 Gap=     0.590 Goal=   None    Shift=    0.000
 Gap=     0.590 Goal=   None    Shift=    0.000
 GapD=    0.590 DampG=2.000 DampE=1.000 DampFc=2.0000 IDamp=-1.
 RMSDP=3.35D-04 MaxDP=2.51D-03              OVMax= 1.11D-02

 Cycle   2  Pass 1  IDiag  1:
 E= -114.268336211613     Delta-E=       -0.000341026992 Rises=F Damp=F
 DIIS: error= 2.32D-03 at cycle   2 NSaved=   2.
 NSaved= 2 IEnMin= 2 EnMin= -114.268336211613     IErMin= 2 ErrMin= 2.32D-03
 ErrMax= 2.32D-03  0.00D+00 EMaxC= 1.00D-01 BMatC= 6.91D-04 BMatP= 1.41D-03
 IDIUse=3 WtCom= 9.77D-01 WtEn= 2.32D-02
 Coeff-Com:  0.340D+00 0.660D+00
 Coeff-En:   0.000D+00 0.100D+01
 Coeff:      0.332D+00 0.668D+00
 Gap=     0.226 Goal=   None    Shift=    0.000
 Gap=     0.226 Goal=   None    Shift=    0.000
 RMSDP=2.99D-04 MaxDP=3.23D-03 DE=-3.41D-04 OVMax= 1.42D-02

 Cycle   3  Pass 1  IDiag  1:
 E= -114.267966245064     Delta-E=        0.000369966550 Rises=F Damp=F
 DIIS: error= 5.66D-03 at cycle   3 NSaved=   3.
 NSaved= 3 IEnMin= 2 EnMin= -114.268336211613     IErMin= 2 ErrMin= 2.32D-03
 ErrMax= 5.66D-03  0.00D+00 EMaxC= 1.00D-01 BMatC= 2.40D-03 BMatP= 6.91D-04
 IDIUse=3 WtCom= 1.17D-01 WtEn= 8.83D-01
 Coeff-Com: -0.781D-01 0.697D+00 0.381D+00
 Coeff-En:   0.000D+00 0.702D+00 0.298D+00
 Coeff:     -0.916D-02 0.701D+00 0.308D+00
 Gap=     0.224 Goal=   None    Shift=    0.000
 Gap=     0.224 Goal=   None    Shift=    0.000
 RMSDP=1.70D-04 MaxDP=2.52D-03 DE= 3.70D-04 OVMax= 1.15D-02

 Cycle   4  Pass 1  IDiag  1:
 E= -114.268498505704     Delta-E=       -0.000532260640 Rises=F Damp=F
 DIIS: error= 1.00D-03 at cycle   4 NSaved=   4.
 NSaved= 4 IEnMin= 4 EnMin= -114.268498505704     IErMin= 4 ErrMin= 1.00D-03
 ErrMax= 1.00D-03  0.00D+00 EMaxC= 1.00D-01 BMatC= 4.82D-05 BMatP= 6.91D-04
 IDIUse=3 WtCom= 9.90D-01 WtEn= 1.00D-02
 Coeff-Com: -0.221D-01 0.481D-01-0.115D+00 0.109D+01
 Coeff-En:   0.000D+00 0.000D+00 0.000D+00 0.100D+01
 Coeff:     -0.219D-01 0.477D-01-0.114D+00 0.109D+01
 Gap=     0.223 Goal=   None    Shift=    0.000
 Gap=     0.223 Goal=   None    Shift=    0.000
 RMSDP=6.33D-05 MaxDP=9.34D-04 DE=-5.32D-04 OVMax= 4.71D-03

 Cycle   5  Pass 1  IDiag  1:
 E= -114.268519165154     Delta-E=       -0.000020659450 Rises=F Damp=F
 DIIS: error= 3.05D-04 at cycle   5 NSaved=   5.
 NSaved= 5 IEnMin= 5 EnMin= -114.268519165154     IErMin= 5 ErrMin= 3.05D-04
 ErrMax= 3.05D-04  0.00D+00 EMaxC= 1.00D-01 BMatC= 1.08D-05 BMatP= 4.82D-05
 IDIUse=3 WtCom= 9.97D-01 WtEn= 3.05D-03
 Coeff-Com:  0.139D-01-0.179D+00 0.811D-02-0.185D+00 0.134D+01
 Coeff-En:   0.000D+00 0.000D+00 0.000D+00 0.000D+00 0.100D+01
 Coeff:      0.139D-01-0.178D+00 0.809D-02-0.185D+00 0.134D+01
 Gap=     0.224 Goal=   None    Shift=    0.000
 Gap=     0.224 Goal=   None    Shift=    0.000
 RMSDP=5.14D-05 MaxDP=5.26D-04 DE=-2.07D-05 OVMax= 2.40D-03

 Cycle   6  Pass 1  IDiag  1:
 E= -114.268526549080     Delta-E=       -0.000007383925 Rises=F Damp=F
 DIIS: error= 6.12D-05 at cycle   6 NSaved=   6.
 NSaved= 6 IEnMin= 6 EnMin= -114.268526549080     IErMin= 6 ErrMin= 6.12D-05
 ErrMax= 6.12D-05  0.00D+00 EMaxC= 1.00D-01 BMatC= 8.33D-07 BMatP= 1.08D-05
 IDIUse=1 WtCom= 1.00D+00 WtEn= 0.00D+00
 Coeff-Com:  0.503D-02-0.172D-01 0.662D-01-0.407D+00 0.123D+00 0.123D+01
 Coeff:      0.503D-02-0.172D-01 0.662D-01-0.407D+00 0.123D+00 0.123D+01
 Gap=     0.224 Goal=   None    Shift=    0.000
 Gap=     0.224 Goal=   None    Shift=    0.000
 RMSDP=3.05D-05 MaxDP=2.94D-04 DE=-7.38D-06 OVMax= 1.60D-03

 Cycle   7  Pass 1  IDiag  1:
 E= -114.268527847530     Delta-E=       -0.000001298450 Rises=F Damp=F
 DIIS: error= 3.45D-05 at cycle   7 NSaved=   7.
 NSaved= 7 IEnMin= 7 EnMin= -114.268527847530     IErMin= 7 ErrMin= 3.45D-05
 ErrMax= 3.45D-05  0.00D+00 EMaxC= 1.00D-01 BMatC= 2.10D-07 BMatP= 8.33D-07
 IDIUse=1 WtCom= 1.00D+00 WtEn= 0.00D+00
 Coeff-Com: -0.172D-02 0.197D-01 0.139D-01-0.138D-01-0.146D+00 0.477D-01
 Coeff-Com:  0.108D+01
 Coeff:     -0.172D-02 0.197D-01 0.139D-01-0.138D-01-0.146D+00 0.477D-01
 Coeff:      0.108D+01
 Gap=     0.224 Goal=   None    Shift=    0.000
 Gap=     0.224 Goal=   None    Shift=    0.000
 RMSDP=6.35D-06 MaxDP=7.43D-05 DE=-1.30D-06 OVMax= 2.98D-04

 Cycle   8  Pass 1  IDiag  1:
 E= -114.268527926705     Delta-E=       -0.000000079175 Rises=F Damp=F
 DIIS: error= 1.81D-06 at cycle   8 NSaved=   8.
 NSaved= 8 IEnMin= 8 EnMin= -114.268527926705     IErMin= 8 ErrMin= 1.81D-06
 ErrMax= 1.81D-06  0.00D+00 EMaxC= 1.00D-01 BMatC= 5.95D-10 BMatP= 2.10D-07
 IDIUse=1 WtCom= 1.00D+00 WtEn= 0.00D+00
 Coeff-Com: -0.261D-03 0.222D-02 0.524D-03 0.605D-02-0.186D-01-0.161D-01
 Coeff-Com:  0.118D+00 0.908D+00
 Coeff:     -0.261D-03 0.222D-02 0.524D-03 0.605D-02-0.186D-01-0.161D-01
 Coeff:      0.118D+00 0.908D+00
 Gap=     0.224 Goal=   None    Shift=    0.000
 Gap=     0.224 Goal=   None    Shift=    0.000
 RMSDP=2.75D-07 MaxDP=2.75D-06 DE=-7.92D-08 OVMax= 8.01D-06

 Cycle   9  Pass 1  IDiag  1:
 E= -114.268527926874     Delta-E=       -0.000000000169 Rises=F Damp=F
 DIIS: error= 3.07D-07 at cycle   9 NSaved=   9.
 NSaved= 9 IEnMin= 9 EnMin= -114.268527926874     IErMin= 9 ErrMin= 3.07D-07
 ErrMax= 3.07D-07  0.00D+00 EMaxC= 1.00D-01 BMatC= 1.43D-11 BMatP= 5.95D-10
 IDIUse=1 WtCom= 1.00D+00 WtEn= 0.00D+00
 Coeff-Com:  0.879D-04-0.103D-02-0.825D-03 0.132D-02 0.628D-02-0.216D-02
 Coeff-Com: -0.541D-01-0.391D-01 0.109D+01
 Coeff:      0.879D-04-0.103D-02-0.825D-03 0.132D-02 0.628D-02-0.216D-02
 Coeff:     -0.541D-01-0.391D-01 0.109D+01
 Gap=     0.224 Goal=   None    Shift=    0.000
 Gap=     0.224 Goal=   None    Shift=    0.000
 RMSDP=6.31D-08 MaxDP=5.84D-07 DE=-1.69D-10 OVMax= 2.04D-06

 Cycle  10  Pass 1  IDiag  1:
 E= -114.268527926881     Delta-E=       -0.000000000007 Rises=F Damp=F
 DIIS: error= 2.14D-08 at cycle  10 NSaved=  10.
 NSaved=10 IEnMin=10 EnMin= -114.268527926881     IErMin=10 ErrMin= 2.14D-08
 ErrMax= 2.14D-08  0.00D+00 EMaxC= 1.00D-01 BMatC= 1.05D-13 BMatP= 1.43D-11
 IDIUse=1 WtCom= 1.00D+00 WtEn= 0.00D+00
 Coeff-Com: -0.505D-05 0.693D-04 0.723D-04-0.227D-03-0.334D-03 0.736D-03
 Coeff-Com:  0.309D-02-0.149D-01-0.954D-01 0.111D+01
 Coeff:     -0.505D-05 0.693D-04 0.723D-04-0.227D-03-0.334D-03 0.736D-03
 Coeff:      0.309D-02-0.149D-01-0.954D-01 0.111D+01
 Gap=     0.224 Goal=   None    Shift=    0.000
 Gap=     0.224 Goal=   None    Shift=    0.000
 RMSDP=8.58D-09 MaxDP=9.63D-08 DE=-6.59D-12 OVMax= 3.09D-07

 SCF Done:  E(UM062X) =  -114.268527927     A.U. after   10 cycles
            NFock= 10  Conv=0.86D-08     -V/T= 2.0088
 <Sx>= 0.0000 <Sy>= 0.0000 <Sz>= 0.0000 <S**2>=-0.0000 S=-0.0000
 <L.S>=  0.00000000000    
 KE= 1.132732494905D+02 PE=-3.148427808688D+02 EE= 6.400860582085D+01
 Annihilation of the first spin contaminant:
 S**2 before annihilation    -0.0000,   after     0.0000
 Leave Link  502 at Mon Apr 21 18:47:47 2025, MaxMem=   536870912 cpu:              30.7 elap:               4.1
 (Enter /home/szhao/Apps/g16/l701.exe)
 ... and contract with generalized density number  0.
 Compute integral first derivatives.
 Leave Link  701 at Mon Apr 21 18:47:47 2025, MaxMem=   536870912 cpu:               1.2 elap:               0.2
 (Enter /home/szhao/Apps/g16/l702.exe)
 L702 exits ... SP integral derivatives will be done elsewhere.
 Leave Link  702 at Mon Apr 21 18:47:48 2025, MaxMem=   536870912 cpu:               0.5 elap:               0.1
 (Enter /home/szhao/Apps/g16/l703.exe)
 Integral derivatives from FoFJK, PRISM(SPDF).
 Compute integral first derivatives, UseDBF=F ICtDFT=           0.
 Calling FoFJK, ICntrl=      2127 FMM=F ISym2X=0 I1Cent= 0 IOpClX= 1 NMat=1 NMatS=1 NMatT=0.
 FoFJK:  IHMeth= 1 ICntrl=    2127 DoSepK=F KAlg= 0 I1Cent=           0 FoldK=F
 IRaf=         0 NMat=       1 IRICut=       1 DoRegI=T DoRafI=F ISym2E= 0 IDoP0=0 IntGTp=1.
 FoFCou: FMM=F IPFlag=           0 FMFlag=      100000 FMFlg1=         800
         NFxFlg=           0 DoJE=F BraDBF=F KetDBF=F FulRan=T
         wScrn=  0.000000 ICntrl=      2127 IOpCl=  1 I1Cent=           0 NGrid=           0
         NMat0=    1 NMatS0=      1 NMatT0=    0 NMatD0=    1 NMtDS0=    0 NMtDT0=    0
 Symmetry not used in FoFCou.
 Leave Link  703 at Mon Apr 21 18:47:49 2025, MaxMem=   536870912 cpu:               6.1 elap:               0.8
 (Enter /home/szhao/Apps/g16/l716.exe)
 Dipole        =-1.72067058D+00-5.09786624D-08 1.17463651D-05
 -------------------------------------------------------------------
 Center     Atomic                   Forces (Hartrees/Bohr)
 Number     Number              X              Y              Z
 -------------------------------------------------------------------
      1        6          -0.000000000   -0.000000000   -0.000000000
      2        8          -0.000000000   -0.000000000   -0.000000000
      3        1           0.000312358   -0.001320506   -0.000000587
      4        1           0.000312358    0.001320537   -0.000000587
 -------------------------------------------------------------------
 Cartesian Forces:  Max     0.001320537 RMS     0.000553977
 Leave Link  716 at Mon Apr 21 18:47:49 2025, MaxMem=   536870912 cpu:               0.5 elap:               0.1
 (Enter /home/szhao/Apps/g16/l103.exe)

 GradGradGradGradGradGradGradGradGradGradGradGradGradGradGradGradGradGrad
 Berny optimization.
 Using GEDIIS/GDIIS optimizer.
 FormGI is forming the generalized inverse of G from B-inverse, IUseBI=4.
 Internal  Forces:  Max     0.001137796 RMS     0.000620235
 Search for a local minimum.
 Step number   3 out of a maximum of   22
 All quantities printed in internal units (Hartrees-Bohrs-Radians)
 RMS Force = .83925D-03 SwitMx=.10000D-02 MixMth= 2
 Mixed Optimization -- En-DIIS/RFO-DIIS
 Update second derivatives using D2CorX and points    1    2    3
 DE= -1.12D-03 DEPred=-1.03D-03 R= 1.09D+00
 TightC=F SS=  1.41D+00  RLast= 1.62D-01 DXNew= 7.5238D-01 4.8460D-01
 Trust test= 1.09D+00 RLast= 1.62D-01 DXMaxT set to 4.85D-01
 The second derivative matrix:
                          X1        Y1        Z1        X2        Y2
           X1           0.64467
           Y1           0.00000   0.50000
           Z1           0.00001   0.00000   0.50000
           X2           0.00000  -0.00000   0.00000   0.50000
           Y2          -0.00000  -0.00000  -0.00000  -0.00000   0.50000
           Z2          -0.00000  -0.00000  -0.00000  -0.00000   0.00000
           R1          -0.10336   0.00000  -0.00000  -0.00000   0.00000
           R2          -0.10336   0.00000  -0.00000  -0.00000   0.00000
           A1          -0.02966  -0.00000  -0.00000   0.00000   0.00000
           A2          -0.02966  -0.00000  -0.00000   0.00000   0.00000
           A3           0.05932   0.00000   0.00001  -0.00000  -0.00000
           D1           0.00001   0.00000   0.00000  -0.00000  -0.00000
                          Z2        R1        R2        A1        A2
           Z2           0.50000
           R1           0.00000   0.35211
           R2           0.00000   0.02069   0.35211
           A1           0.00000  -0.00463  -0.00463   0.14534
           A2           0.00000  -0.00463  -0.00463  -0.01466   0.14534
           A3          -0.00000   0.00925   0.00925   0.02933   0.02933
           D1          -0.00000  -0.00000  -0.00000  -0.00000  -0.00000
                          A3        D1
           A3           0.10134
           D1           0.00000   0.00230
 ITU=  1  1  0
 Use linear search instead of GDIIS.
     Eigenvalues ---    0.00230   0.07116   0.16000   0.33142   0.37365
     Eigenvalues --- 1000.000001000.000001000.000001000.000001000.00000
     Eigenvalues --- 1000.000001000.00000
 RFO step:  Lambda=-9.93252800D-06 EMin= 2.30000010D-03
 Quartic linear search produced a step of  0.11316.
 Iteration  1 RMS(Cart)=  0.00679033 RMS(Int)=  0.00002793
 Iteration  2 RMS(Cart)=  0.00002822 RMS(Int)=  0.00000001
 Iteration  3 RMS(Cart)=  0.00000000 RMS(Int)=  0.00000001
 ITry= 1 IFail=0 DXMaxC= 1.41D-02 DCOld= 1.00D+10 DXMaxT= 4.85D-01 DXLimC= 3.00D+00 Rises=F
 Variable       Old X    -DE/DX   Delta X   Delta X   Delta X     New X
                                 (Linear)    (Quad)   (Total)
    X1       -1.74480   0.00062   0.00000   0.00000   0.00000  -1.74480
    Y1        0.00000   0.00000   0.00000   0.00000   0.00000   0.00000
    Z1        0.00000  -0.00000   0.00000   0.00000   0.00000   0.00000
    X2        1.74480  -0.00000   0.00000   0.00000   0.00000   1.74480
    Y2        0.00000  -0.00000   0.00000   0.00000   0.00000   0.00000
    Z2        0.00000   0.00000   0.00000   0.00000   0.00000   0.00000
    R1        2.04096   0.00107  -0.00132   0.00357   0.00225   2.04321
    R2        2.04096   0.00107  -0.00132   0.00357   0.00225   2.04321
    A1        2.00249  -0.00057  -0.00742  -0.00065  -0.00807   1.99442
    A2        2.00249  -0.00057  -0.00742  -0.00065  -0.00807   1.99442
    A3        2.27821   0.00114   0.01485   0.00130   0.01615   2.29435
    D1       -3.14155  -0.00000   0.00000  -0.00043  -0.00043   3.14121
         Item               Value     Threshold  Converged?
 Maximum Force            0.001138     0.000450     NO 
 RMS     Force            0.000839     0.000300     NO 
 Maximum Displacement     0.014068     0.001800     NO 
 RMS     Displacement     0.006794     0.001200     NO 
 Predicted change in Energy=-1.538919D-05
 Lowest energy point so far.  Saving SCF results.
 GradGradGradGradGradGradGradGradGradGradGradGradGradGradGradGradGradGrad

 Leave Link  103 at Mon Apr 21 18:47:49 2025, MaxMem=   536870912 cpu:               0.8 elap:               0.1
 (Enter /home/szhao/Apps/g16/l202.exe)
                          Input orientation:                          
 ---------------------------------------------------------------------
 Center     Atomic      Atomic             Coordinates (Angstroms)
 Number     Number       Type             X           Y           Z
 ---------------------------------------------------------------------
      1          6           0       -0.923311    0.000000    0.000000
      2          8           0        0.923311    0.000000    0.000000
      3          1           0       -1.367761   -0.985649   -0.000157
      4          1           0       -1.367761    0.985649   -0.000157
 ---------------------------------------------------------------------
                    Distance matrix (angstroms):
                    1          2          3          4
     1  C    0.000000
     2  O    1.846622   0.000000
     3  H    1.081221   2.494096   0.000000
     4  H    1.081221   2.494096   1.971297   0.000000
 Symmetry turned off by external request.
 Stoichiometry    CH2O
 Framework group  C1[X(CH2O)]
 Deg. of freedom     6
 Full point group                 C1      NOp   1
 Rotational constants (GHZ):         258.0820869          18.3057576          17.0933282
 Leave Link  202 at Mon Apr 21 18:47:49 2025, MaxMem=   536870912 cpu:               0.1 elap:               0.1
 (Enter /home/szhao/Apps/g16/l301.exe)
 Standard basis: 6-311+G(d,p) (5D, 7F)
 Ernie: Thresh=  0.10000D-02 Tol=  0.10000D-05 Strict=F.
    56 basis functions,    88 primitive gaussians,    58 cartesian basis functions
     8 alpha electrons        8 beta electrons
       nuclear repulsion energy        23.2914178743 Hartrees.
 IExCor= 4336 DFT=T Ex+Corr=M062X ExCW=0 ScaHFX=  0.540000
 ScaDFX=  1.000000  1.000000  1.000000  1.000000 ScalE2=  1.000000  1.000000
 IRadAn=      7 IRanWt=     -1 IRanGd=            0 ICorTp=0 IEmpDi=  4
 NAtoms=    4 NActive=    4 NUniq=    4 SFac= 1.00D+00 NAtFMM=   60 NAOKFM=F Big=F
 Integral buffers will be    131072 words long.
 Raffenetti 2 integral format.
 Two-electron integral symmetry is turned off.
 Leave Link  301 at Mon Apr 21 18:47:50 2025, MaxMem=   536870912 cpu:               0.5 elap:               0.3
 (Enter /home/szhao/Apps/g16/l302.exe)
 NPDir=0 NMtPBC=     1 NCelOv=     1 NCel=       1 NClECP=     1 NCelD=      1
         NCelK=      1 NCelE2=     1 NClLst=     1 CellRange=     0.0.
 One-electron integrals computed using PRISM.
 NBasis=    56 RedAO= T EigKep=  1.29D-02  NBF=    56
 NBsUse=    56 1.00D-06 EigRej= -1.00D+00 NBFU=    56
 Precomputing XC quadrature grid using
 IXCGrd= 4 IRadAn=           7 IRanWt=          -1 IRanGd=           0 AccXCQ= 0.00D+00.
 Generated NRdTot=       0 NPtTot=           0 NUsed=           0 NTot=          32
 NSgBfM=    58    58    58    58    58 MxSgAt=     4 MxSgA2=     4.
 Leave Link  302 at Mon Apr 21 18:47:50 2025, MaxMem=   536870912 cpu:               1.4 elap:               0.2
 (Enter /home/szhao/Apps/g16/l303.exe)
 DipDrv:  MaxL=1.
 Leave Link  303 at Mon Apr 21 18:47:50 2025, MaxMem=   536870912 cpu:               0.4 elap:               0.1
 (Enter /home/szhao/Apps/g16/l401.exe)
 Initial guess from the checkpoint file:  "opt.chk"
 B after Tr=     0.001759    0.000000   -0.000038
         Rot=    1.000000   -0.000000    0.000015    0.000000 Ang=   0.00 deg.
 Guess basis will be translated and rotated to current coordinates.
 JPrj=2 DoOrth=T DoCkMO=T.
 Initial guess <Sx>= 0.0000 <Sy>= 0.0000 <Sz>= 0.0000 <S**2>=-0.0000 S=-0.0000
 Leave Link  401 at Mon Apr 21 18:47:51 2025, MaxMem=   536870912 cpu:               1.7 elap:               0.3
 (Enter /home/szhao/Apps/g16/l502.exe)
 Keep R1 and R2 ints in memory in canonical form, NReq=9624206.
 FoFCou: FMM=F IPFlag=           0 FMFlag=           0 FMFlg1=           0
         NFxFlg=           0 DoJE=F BraDBF=F KetDBF=F FulRan=T
         wScrn=  0.000000 ICntrl=       600 IOpCl=  0 I1Cent=           0 NGrid=           0
         NMat0=    1 NMatS0=   1596 NMatT0=    0 NMatD0=    1 NMtDS0=    0 NMtDT0=    0
 Symmetry not used in FoFCou.
 Two-electron integral symmetry not used.
 UHF open shell SCF:
 Using DIIS extrapolation, IDIIS=  1040.
 NGot=   536870912 LenX=   534314330 LenY=   534310525
 Requested convergence on RMS density matrix=1.00D-08 within 128 cycles.
 Requested convergence on MAX density matrix=1.00D-06.
 Requested convergence on             energy=1.00D-06.
 No special actions if energy rises.

 Cycle   1  Pass 1  IDiag  1:
 E= -114.268536577443    
 DIIS: error= 3.70D-04 at cycle   1 NSaved=   1.
 NSaved= 1 IEnMin= 1 EnMin= -114.268536577443     IErMin= 1 ErrMin= 3.70D-04
 ErrMax= 3.70D-04  0.00D+00 EMaxC= 1.00D-01 BMatC= 2.12D-05 BMatP= 2.12D-05
 IDIUse=3 WtCom= 9.96D-01 WtEn= 3.70D-03
 Coeff-Com:  0.100D+01
 Coeff-En:   0.100D+01
 Coeff:      0.100D+01
 Gap=     0.593 Goal=   None    Shift=    0.000
 Gap=     0.593 Goal=   None    Shift=    0.000
 RMSDP=3.73D-05 MaxDP=3.16D-04              OVMax= 1.15D-03

 Cycle   2  Pass 1  IDiag  1:
 E= -114.268543271702     Delta-E=       -0.000006694259 Rises=F Damp=F
 DIIS: error= 1.50D-04 at cycle   2 NSaved=   2.
 NSaved= 2 IEnMin= 2 EnMin= -114.268543271702     IErMin= 2 ErrMin= 1.50D-04
 ErrMax= 1.50D-04  0.00D+00 EMaxC= 1.00D-01 BMatC= 2.34D-06 BMatP= 2.12D-05
 IDIUse=3 WtCom= 9.99D-01 WtEn= 1.50D-03
 Coeff-Com:  0.721D-01 0.928D+00
 Coeff-En:   0.000D+00 0.100D+01
 Coeff:      0.720D-01 0.928D+00
 Gap=     0.224 Goal=   None    Shift=    0.000
 Gap=     0.224 Goal=   None    Shift=    0.000
 RMSDP=2.12D-05 MaxDP=2.36D-04 DE=-6.69D-06 OVMax= 9.70D-04

 Cycle   3  Pass 1  IDiag  1:
 E= -114.268541485193     Delta-E=        0.000001786510 Rises=F Damp=F
 DIIS: error= 4.09D-04 at cycle   3 NSaved=   3.
 NSaved= 3 IEnMin= 2 EnMin= -114.268543271702     IErMin= 2 ErrMin= 1.50D-04
[...]
 E= -114.268544377322     Delta-E=       -0.000000000000 Rises=F Damp=F
 DIIS: error= 4.73D-09 at cycle   9 NSaved=   9.
 NSaved= 9 IEnMin= 9 EnMin= -114.268544377322     IErMin= 9 ErrMin= 4.73D-09
 ErrMax= 4.73D-09  0.00D+00 EMaxC= 1.00D-01 BMatC= 2.30D-15 BMatP= 1.52D-13
 IDIUse=1 WtCom= 1.00D+00 WtEn= 0.00D+00
 Coeff-Com: -0.472D-04 0.643D-03-0.294D-03-0.359D-02 0.608D-03 0.154D-01
 Coeff-Com: -0.259D-02-0.191D+00 0.118D+01
 Coeff:     -0.472D-04 0.643D-03-0.294D-03-0.359D-02 0.608D-03 0.154D-01
 Coeff:     -0.259D-02-0.191D+00 0.118D+01
 Gap=     0.224 Goal=   None    Shift=    0.000
 Gap=     0.224 Goal=   None    Shift=    0.000
 RMSDP=1.77D-09 MaxDP=1.67D-08 DE=-2.84D-13 OVMax= 9.31D-08

 SCF Done:  E(UM062X) =  -114.268544377     A.U. after    9 cycles
            NFock=  9  Conv=0.18D-08     -V/T= 2.0088
 <Sx>= 0.0000 <Sy>= 0.0000 <Sz>= 0.0000 <S**2>=-0.0000 S=-0.0000
 <L.S>=  0.00000000000    
 KE= 1.132694238567D+02 PE=-3.148398879453D+02 EE= 6.401062482444D+01
 Annihilation of the first spin contaminant:
 S**2 before annihilation    -0.0000,   after    -0.0000
 Leave Link  502 at Mon Apr 21 18:48:10 2025, MaxMem=   536870912 cpu:              30.0 elap:               4.0
 (Enter /home/szhao/Apps/g16/l701.exe)
 ... and contract with generalized density number  0.
 Compute integral first derivatives.
 Leave Link  701 at Mon Apr 21 18:48:10 2025, MaxMem=   536870912 cpu:               1.2 elap:               0.2
 (Enter /home/szhao/Apps/g16/l702.exe)
 L702 exits ... SP integral derivatives will be done elsewhere.
 Leave Link  702 at Mon Apr 21 18:48:11 2025, MaxMem=   536870912 cpu:               0.4 elap:               0.1
 (Enter /home/szhao/Apps/g16/l703.exe)
 Integral derivatives from FoFJK, PRISM(SPDF).
 Compute integral first derivatives, UseDBF=F ICtDFT=           0.
 Calling FoFJK, ICntrl=      2127 FMM=F ISym2X=0 I1Cent= 0 IOpClX= 1 NMat=1 NMatS=1 NMatT=0.
 FoFJK:  IHMeth= 1 ICntrl=    2127 DoSepK=F KAlg= 0 I1Cent=           0 FoldK=F
 IRaf=         0 NMat=       1 IRICut=       1 DoRegI=T DoRafI=F ISym2E= 0 IDoP0=0 IntGTp=1.
 FoFCou: FMM=F IPFlag=           0 FMFlag=      100000 FMFlg1=         800
         NFxFlg=           0 DoJE=F BraDBF=F KetDBF=F FulRan=T
         wScrn=  0.000000 ICntrl=      2127 IOpCl=  1 I1Cent=           0 NGrid=           0
         NMat0=    1 NMatS0=      1 NMatT0=    0 NMatD0=    1 NMtDS0=    0 NMtDT0=    0
 Symmetry not used in FoFCou.
 Leave Link  703 at Mon Apr 21 18:48:12 2025, MaxMem=   536870912 cpu:               5.7 elap:               0.8
 (Enter /home/szhao/Apps/g16/l716.exe)
 Dipole        =-1.71846096D+00-9.84740756D-09-1.71250569D-06
 -------------------------------------------------------------------
 Center     Atomic                   Forces (Hartrees/Bohr)
 Number     Number              X              Y              Z
 -------------------------------------------------------------------
      1        6          -0.000000000   -0.000000000   -0.000000000
      2        8          -0.000000000   -0.000000000   -0.000000000
      3        1           0.000000016    0.000001023    0.000000086
      4        1           0.000000019   -0.000001021    0.000000086
 -------------------------------------------------------------------
 Cartesian Forces:  Max     0.000001023 RMS     0.000000419
 Leave Link  716 at Mon Apr 21 18:48:12 2025, MaxMem=   536870912 cpu:               0.5 elap:               0.1
 (Enter /home/szhao/Apps/g16/l103.exe)

 GradGradGradGradGradGradGradGradGradGradGradGradGradGradGradGradGradGrad
 Berny optimization.
 Using GEDIIS/GDIIS optimizer.
 FormGI is forming the generalized inverse of G from B-inverse, IUseBI=4.
 Internal  Forces:  Max     0.000000939 RMS     0.000000436
 Search for a local minimum.
 Step number   6 out of a maximum of   22
 All quantities printed in internal units (Hartrees-Bohrs-Radians)
 RMS Force = .61030D-06 SwitMx=.10000D-02 MixMth= 2
 Mixed Optimization -- En-DIIS/RFO-DIIS
 Swapping is turned off.
 Update second derivatives using D2CorX and points    1    2    3    5    6
 DE= -1.58D-07 DEPred=-1.60D-07 R= 9.87D-01
 Trust test= 9.87D-01 RLast= 3.66D-03 DXMaxT set to 2.42D-01
 The second derivative matrix:
                          X1        Y1        Z1        X2        Y2
           X1           0.62812
           Y1          -0.00000   0.50000
           Z1          -0.01299   0.00000   0.56356
           X2          -0.00000   0.00000   0.00000   0.50000
           Y2          -0.00000  -0.00000  -0.00000  -0.00000   0.50000
           Z2           0.00252  -0.00000  -0.01233  -0.00000   0.00000
           R1          -0.09530   0.00000   0.01300   0.00000   0.00000
           R2          -0.09530   0.00000   0.01300   0.00000   0.00000
           A1          -0.02188  -0.00000   0.00128   0.00000   0.00000
           A2          -0.02186  -0.00000   0.00122   0.00000   0.00000
           A3           0.04307   0.00000  -0.00249  -0.00000  -0.00000
           D1           0.00009   0.00000   0.03829   0.00000  -0.00000
                          Z2        R1        R2        A1        A2
           Z2           0.50239
           R1          -0.00252   0.31512
           R2          -0.00252  -0.01630   0.31512
           A1          -0.00025  -0.00739  -0.00739   0.14420
           A2          -0.00024  -0.00741  -0.00741  -0.01580   0.14420
           A3           0.00048   0.01547   0.01547   0.03166   0.03166
           D1          -0.00743  -0.00004  -0.00004   0.00008   0.00005
                          A3        D1
           A3           0.09655
           D1           0.00002   0.02362
 ITU=  0 -1  1  1  1  0
     Eigenvalues ---    0.02362   0.06201   0.16000   0.30176   0.33142
     Eigenvalues --- 1000.000001000.000001000.000001000.000001000.00000
     Eigenvalues --- 1000.000001000.00000
 En-DIIS/RFO-DIIS/Sim-DIIS IScMMF=       -3 using points:     6    5    4    3
 RFO step:  Lambda=-9.36295842D-12.
 NNeg= 0 NGDIIS= 4 SimSw=  2.50D-03 Rises=F DC= -1.58D-07 SmlDif=  1.00D-05
 NRisDI= 0 DoIntr=F SqrtH=F CThrHd= 10.0 CDAdj=  3.0
 RMS Error=  0.3204698825D-05 NUsed= 4 OKEnD=F EnDIS=F
 InvSVX:  RCond= 3.18D-10 Info=           0 Equed=N FErr=  1.35D-14 BErr=  5.26D-17
 DIIS inversion failure, remove point   4.
 InvSVX:  RCond= 3.94D-08 Info=           0 Equed=N FErr=  1.26D-15 BErr=  8.92D-17
 DIIS inversion failure, remove point   3.
 InvSVX:  RCond= 1.51D-05 Info=           0 Equed=N FErr=  8.90D-16 BErr=  4.21D-17
 RFO-DIIS uses    2 points instead of    4
 DidBck=F Rises=F RFO-DIIS coefs:    0.99849    0.00151    0.00000    0.00000
 Iteration  1 RMS(Cart)=  0.00000365 RMS(Int)=  0.00000000
 Iteration  2 RMS(Cart)=  0.00000000 RMS(Int)=  0.00000000
 ITry= 1 IFail=0 DXMaxC= 5.73D-06 DCOld= 1.00D+10 DXMaxT= 2.42D-01 DXLimC= 3.00D+00 Rises=F
 Variable       Old X    -DE/DX   Delta X   Delta X   Delta X     New X
                                 (Linear)    (Quad)   (Total)
    X1       -1.74480   0.00000   0.00000   0.00000   0.00000  -1.74480
    Y1        0.00000   0.00000   0.00000   0.00000   0.00000   0.00000
    Z1        0.00000   0.00000   0.00000   0.00000   0.00000   0.00000
    X2        1.74480   0.00000   0.00000   0.00000   0.00000   1.74480
    Y2        0.00000  -0.00000   0.00000   0.00000   0.00000   0.00000
    Z2        0.00000  -0.00000   0.00000   0.00000   0.00000   0.00000
    R1        2.04328  -0.00000  -0.00000  -0.00000  -0.00000   2.04328
    R2        2.04328  -0.00000  -0.00000  -0.00000  -0.00000   2.04328
    A1        1.99427   0.00000  -0.00000   0.00000   0.00000   1.99427
    A2        1.99427   0.00000  -0.00000   0.00000   0.00000   1.99427
    A3        2.29464  -0.00000   0.00000  -0.00001  -0.00001   2.29464
    D1        3.14159   0.00000   0.00001   0.00000   0.00001   3.14159
         Item               Value     Threshold  Converged?
 Maximum Force            0.000001     0.000450     YES
 RMS     Force            0.000001     0.000300     YES
 Maximum Displacement     0.000006     0.001800     YES
 RMS     Displacement     0.000004     0.001200     YES
 Predicted change in Energy=-5.790273D-12
 Optimization completed.
    -- Stationary point found.
                           ----------------------------
                           !   Optimized Parameters   !
                           ! (Angstroms and Degrees)  !
 --------------------------                            --------------------------
 ! Name  Definition              Value          Derivative Info.                !
 --------------------------------------------------------------------------------
 ! X1    R(1,-1)                -0.9233         -DE/DX =    0.0                 !
 ! Y1    R(1,-2)                 0.0            -DE/DX =    0.0                 !
 ! Z1    R(1,-3)                 0.0            -DE/DX =    0.0                 !
 ! X2    R(2,-1)                 0.9233         -DE/DX =    0.0                 !
 ! Y2    R(2,-2)                 0.0            -DE/DX =    0.0                 !
 ! Z2    R(2,-3)                 0.0            -DE/DX =    0.0                 !
 ! R1    R(1,3)                  1.0813         -DE/DX =    0.0                 !
 ! R2    R(1,4)                  1.0813         -DE/DX =    0.0                 !
 ! A1    A(2,1,3)              114.2633         -DE/DX =    0.0                 !
 ! A2    A(2,1,4)              114.2633         -DE/DX =    0.0                 !
 ! A3    A(3,1,4)              131.4734         -DE/DX =    0.0                 !
 ! D1    D(2,1,4,3)            179.9997         -DE/DX =    0.0                 !
 --------------------------------------------------------------------------------
 Lowest energy point so far.  Saving SCF results.
 Largest change from initial coordinates is atom    4       0.145 Angstoms.
 GradGradGradGradGradGradGradGradGradGradGradGradGradGradGradGradGradGrad

 Leave Link  103 at Mon Apr 21 18:48:13 2025, MaxMem=   536870912 cpu:               0.4 elap:               0.2
 (Enter /home/szhao/Apps/g16/l202.exe)
                          Input orientation:                          
 ---------------------------------------------------------------------
 Center     Atomic      Atomic             Coordinates (Angstroms)
 Number     Number       Type             X           Y           Z
 ---------------------------------------------------------------------
      1          6           0       -0.923311    0.000000    0.000000
      2          8           0        0.923311    0.000000    0.000000
      3          1           0       -1.367633   -0.985747   -0.000003
      4          1           0       -1.367633    0.985747   -0.000002
 ---------------------------------------------------------------------
                    Distance matrix (angstroms):
                    1          2          3          4
     1  C    0.000000
     2  O    1.846622   0.000000
     3  H    1.081258   2.494018   0.000000
     4  H    1.081258   2.494018   1.971494   0.000000
 Symmetry turned off by external request.
 Stoichiometry    CH2O
 Framework group  C1[X(CH2O)]
 Deg. of freedom     6
 Full point group                 C1      NOp   1
 Rotational constants (GHZ):         258.0304554          18.3062355          17.0935183
 Leave Link  202 at Mon Apr 21 18:48:13 2025, MaxMem=   536870912 cpu:               0.1 elap:               0.1
 (Enter /home/szhao/Apps/g16/l601.exe)
 Copying SCF densities to generalized density rwf, IOpCl= 1 IROHF=0.

 **********************************************************************

            Population analysis using the SCF density.

 **********************************************************************

 Alpha  occ. eigenvalues --  -19.67422 -10.71065  -1.00265  -0.80441  -0.58793
 Alpha  occ. eigenvalues --   -0.42701  -0.36309  -0.35164
 Alpha virt. eigenvalues --   -0.12813  -0.01607   0.01879   0.04168   0.06647
 Alpha virt. eigenvalues --    0.07814   0.13306   0.18691   0.21354   0.23888
 Alpha virt. eigenvalues --    0.26493   0.33076   0.39904   0.46369   0.53878
 Alpha virt. eigenvalues --    0.57863   0.65875   0.73410   1.01965   1.07720
 Alpha virt. eigenvalues --    1.14601   1.16235   1.29678   1.30774   1.33137
 Alpha virt. eigenvalues --    1.47247   1.67633   1.68376   1.74117   1.89890
 Alpha virt. eigenvalues --    1.97291   2.36872   2.47847   2.54633   2.60358
 Alpha virt. eigenvalues --    2.69411   2.71600   2.92267   2.92464   2.92708
 Alpha virt. eigenvalues --    3.01228   3.45289   3.64390   5.06293   5.10068
 Alpha virt. eigenvalues --    5.11002  23.73276  49.87228
  Beta  occ. eigenvalues --  -19.67422 -10.71065  -1.00265  -0.80441  -0.58793
  Beta  occ. eigenvalues --   -0.42701  -0.36309  -0.35164
  Beta virt. eigenvalues --   -0.12813  -0.01607   0.01879   0.04168   0.06647
  Beta virt. eigenvalues --    0.07814   0.13306   0.18691   0.21354   0.23888
  Beta virt. eigenvalues --    0.26493   0.33076   0.39904   0.46369   0.53878
  Beta virt. eigenvalues --    0.57863   0.65875   0.73410   1.01965   1.07720
  Beta virt. eigenvalues --    1.14601   1.16235   1.29678   1.30774   1.33137
  Beta virt. eigenvalues --    1.47247   1.67633   1.68376   1.74117   1.89890
  Beta virt. eigenvalues --    1.97291   2.36872   2.47847   2.54633   2.60358
  Beta virt. eigenvalues --    2.69411   2.71600   2.92267   2.92464   2.92708
  Beta virt. eigenvalues --    3.01228   3.45289   3.64390   5.06293   5.10068
  Beta virt. eigenvalues --    5.11002  23.73276  49.87228
          Condensed to atoms (all electrons):
               1          2          3          4
     1  C    5.106513   0.278611   0.360658   0.360658
     2  O    0.278611   8.073903  -0.018859  -0.018859
     3  H    0.360658  -0.018859   0.480256  -0.032672
     4  H    0.360658  -0.018859  -0.032672   0.480256
          Atomic-Atomic Spin Densities.
               1          2          3          4
     1  C    0.000000   0.000000  -0.000000  -0.000000
     2  O    0.000000  -0.000000   0.000000   0.000000
     3  H   -0.000000   0.000000  -0.000000   0.000000
     4  H   -0.000000   0.000000   0.000000  -0.000000
 Mulliken charges and spin densities:
               1          2
     1  C   -0.106441   0.000000
     2  O   -0.314795  -0.000000
     3  H    0.210618  -0.000000
     4  H    0.210618  -0.000000
 Sum of Mulliken charges =  -0.00000  -0.00000
 Mulliken charges and spin densities with hydrogens summed into heavy atoms:
               1          2
     1  C    0.314795   0.000000
     2  O   -0.314795  -0.000000
 Electronic spatial extent (au):  <R**2>=             89.0659
 Charge=             -0.0000 electrons
 Dipole moment (field-independent basis, Debye):
    X=             -4.3679    Y=             -0.0000    Z=             -0.0000  Tot=              4.3679
 Quadrupole moment (field-independent basis, Debye-Ang):
   XX=            -10.6622   YY=            -11.3867   ZZ=            -13.1187
   XY=             -0.0000   XZ=              0.0000   YZ=              0.0000
 Traceless Quadrupole moment (field-independent basis, Debye-Ang):
   XX=              1.0603   YY=              0.3358   ZZ=             -1.3962
   XY=             -0.0000   XZ=              0.0000   YZ=              0.0000
 Octapole moment (field-independent basis, Debye-Ang**2):
  XXX=             -0.5627  YYY=             -0.0000  ZZZ=              0.0000  XYY=             -2.5316
  XXY=              0.0000  XXZ=             -0.0000  XZZ=              1.0638  YZZ=              0.0000
  YYZ=             -0.0000  XYZ=             -0.0000
 Hexadecapole moment (field-independent basis, Debye-Ang**3):
 XXXX=            -78.2197 YYYY=            -16.9616 ZZZZ=            -14.1950 XXXY=             -0.0000
 XXXZ=             -0.0000 YYYX=              0.0000 YYYZ=              0.0000 ZZZX=             -0.0000
 ZZZY=             -0.0000 XXYY=            -13.5790 XXZZ=            -16.2128 YYZZ=             -5.8199
 XXYZ=              0.0000 YYXZ=              0.0000 ZZXY=              0.0000
 N-N= 2.329129488676D+01 E-N=-3.148398880041D+02  KE= 1.132694238567D+02
                          Isotropic Fermi Contact Couplings
        Atom                 a.u.       MegaHertz       Gauss      10(-4) cm-1
     1  C(13)              0.00000       0.00000       0.00000       0.00000
     2  O(17)             -0.00000       0.00000       0.00000       0.00000
     3  H(1)              -0.00000      -0.00000      -0.00000      -0.00000
     4  H(1)              -0.00000      -0.00000      -0.00000      -0.00000
 --------------------------------------------------------
       Center         ----  Spin Dipole Couplings  ----
                      3XX-RR        3YY-RR        3ZZ-RR
 --------------------------------------------------------
     1   Atom       -0.000000     -0.000000      0.000000
     2   Atom        0.000000      0.000000     -0.000000
     3   Atom       -0.000000      0.000000     -0.000000
     4   Atom       -0.000000      0.000000     -0.000000
 --------------------------------------------------------
                        XY            XZ            YZ
 --------------------------------------------------------
     1   Atom        0.000000     -0.000000     -0.000000
     2   Atom       -0.000000     -0.000000     -0.000000
     3   Atom        0.000000      0.000000      0.000000
     4   Atom       -0.000000      0.000000     -0.000000
 --------------------------------------------------------


 ---------------------------------------------------------------------------------
              Anisotropic Spin Dipole Couplings in Principal Axis System
 ---------------------------------------------------------------------------------

       Atom             a.u.   MegaHertz   Gauss  10(-4) cm-1        Axes

              Baa    -0.0000    -0.000    -0.000    -0.000 -0.0001  1.0000  0.0000
     1 C(13)  Bbb    -0.0000    -0.000    -0.000    -0.000  1.0000  0.0001  0.0000
              Bcc     0.0000     0.000     0.000     0.000 -0.0000 -0.0000  1.0000
 
              Baa    -0.0000     0.000     0.000     0.000  0.0000  0.0000  1.0000
     2 O(17)  Bbb     0.0000    -0.000    -0.000    -0.000  1.0000  0.0000 -0.0000
              Bcc     0.0000    -0.000    -0.000    -0.000 -0.0000  1.0000 -0.0000
 
              Baa    -0.0000    -0.000    -0.000    -0.000  0.9437 -0.3308  0.0000
     3 H(1)   Bbb    -0.0000    -0.000    -0.000    -0.000 -0.0000 -0.0001  1.0000
              Bcc     0.0000     0.000     0.000     0.000  0.3308  0.9437  0.0001
 
              Baa    -0.0000    -0.000    -0.000    -0.000  0.9437  0.3309  0.0000
     4 H(1)   Bbb    -0.0000    -0.000    -0.000    -0.000 -0.0000  0.0001  1.0000
              Bcc     0.0000     0.000     0.000     0.000 -0.3309  0.9437 -0.0001
 

 ---------------------------------------------------------------------------------

 No NMR shielding tensors so no spin-rotation constants.
 Leave Link  601 at Mon Apr 21 18:48:13 2025, MaxMem=   536870912 cpu:               1.9 elap:               0.3
 (Enter /home/szhao/Apps/g16/l9999.exe)
 1\1\GINC-NODE06\FOpt\UM062X\6-311+G(d,p)\C1H2O1\SZHAO\21-Apr-2025\0\\#
 p opt UM062X/6-311+G** nosymm int=superfine\\Title Card Required\\0,1\
 C,-0.923311,0.,0.\O,0.923311,0.,0.\H,-1.3676333648,-0.9857472044,-0.00
 00025459\H,-1.3676334462,0.9857471676,-0.0000019583\\Version=ES64L-G16
 RevA.03\HF=-114.2685444\S2=0.\S2-1=0.\S2A=0.\RMSD=1.767e-09\RMSF=4.188
 e-07\Dipole=-1.718461,0.,-0.0000017\Quadrupole=0.7883241,0.2496897,-1.
 0380138,0.,0.0000021,0.0000004\PG=C01 [X(C1H2O1)]\\@


 CONTRAIWISE...CONTINUED TWEEDLEDEE, IF IT WAS SO, IT MIGHT BE,
 AND IF IT WERE SO, IT WOULD BE.....
 BUT AS IT ISN'T, IT AIN'T....
 THAT'S LOGIC.....
 ALICE THROUGH THE LOOKING GLASS
 Job cpu time:       0 days  0 hours  4 minutes 32.8 seconds.
 Elapsed time:       0 days  0 hours  0 minutes 39.4 seconds.
 File lengths (MBytes):  RWF=     17 Int=      0 D2E=      0 Chk=      2 Scr=      2
 Normal termination of Gaussian 16 at Mon Apr 21 18:48:14 2025.
