Title Card Required                                                     
FOpt      UM062X                                                      6-311+G(d,p)        
Number of atoms                            I                6
Info1-9                                    I   N=           9
          15          15           0           0           0         110
           2          18        -502
Full Title                                 C   N=           2
Title Card Required     
Route                                      C   N=           4
#p opt UM062X/6-311+G** nosymm int=superfine    
Charge                                     I                0
Multiplicity                               I                1
Number of electrons                        I               16
Number of alpha electrons                  I                8
Number of beta electrons                   I                8
Number of basis functions                  I               68
Number of independent functions            I               68
Number of point charges in /Mol/           I                0
Number of translation vectors              I                0
Atomic numbers                             I   N=           6
           6           6           1           1           1           1
Nuclear charges                            R   N=           6
  6.00000000E+00  6.00000000E+00  1.00000000E+00  1.00000000E+00  1.00000000E+00
  1.00000000E+00
Current cartesian coordinates              R   N=          18
 -2.94909714E+00  0.00000000E+00  0.00000000E+00  2.94909714E+00  0.00000000E+00
  0.00000000E+00 -3.64952835E+00 -1.91213049E+00 -1.38038635E-06 -3.64950762E+00
  1.91213964E+00 -1.39380350E-06  3.64952941E+00  1.91213015E+00  1.41117175E-06
  3.64950868E+00 -1.91213931E+00  1.39780911E-06
Number of symbols in /Mol/                 I                0
Force Field                                I                0
Atom Types                                 C   N=           6
                                                            
            
Int Atom Types                             I   N=           6
           0           0           0           0           0           0
MM charges                                 R   N=           6
  0.00000000E+00  0.00000000E+00  0.00000000E+00  0.00000000E+00  0.00000000E+00
  0.00000000E+00
Integer atomic weights                     I   N=           6
          12          12           1           1           1           1
Real atomic weights                        R   N=           6
  1.20000000E+01  1.20000000E+01  1.00782504E+00  1.00782504E+00  1.00782504E+00
  1.00782504E+00
Atom fragment info                         I   N=           6
           0           0           0           0           0           0
Atom residue num                           I   N=           6
           0           0           0           0           0           0
Nuclear spins                              I   N=           6
           0           0           1           1           1           1
Nuclear ZEff                               R   N=           6
 -3.60000000E+00 -3.60000000E+00 -1.00000000E+00 -1.00000000E+00 -1.00000000E+00
 -1.00000000E+00
Nuclear ZNuc                               R   N=           6
  6.00000000E+00  6.00000000E+00  1.00000000E+00  1.00000000E+00  1.00000000E+00
  1.00000000E+00
Nuclear QMom                               R   N=           6
  0.00000000E+00  0.00000000E+00  0.00000000E+00  0.00000000E+00  0.00000000E+00
  0.00000000E+00
Nuclear GFac                               R   N=           6
  0.00000000E+00  0.00000000E+00  2.79284600E+00  2.79284600E+00  2.79284600E+00
  2.79284600E+00
MicOpt                                     I   N=           6
          -2          -2          -1          -1          -1          -1
Number of residues                         I                0
Number of secondary structures             I                0
Redundant internal dimensions              I   N=           4
          20          10           6           4
Redundant internal coordinate indices      I   N=          80
           1          -1           0           0           1          -2
           0           0           1          -3           0           0
           2          -1           0           0           2          -2
           0           0           2          -3           0           0
           1           3           0           0           1           4
           0           0           2           5           0           0
           2           6           0           0           2           1
           3           0           2           1           4           0
           3           1           4           0           1           2
           5           0           1           2           6           0
           5           2           6           0           3           1
           2           5           3           1           2           6
           4           1           2           5           4           1
           2           6
Redundant internal coordinates             R   N=          20
 -2.94909714E+00  0.00000000E+00  0.00000000E+00  2.94909714E+00  0.00000000E+00
  0.00000000E+00  2.03638083E+00  2.03638230E+00  2.03638088E+00  2.03638235E+00
  1.92192608E+00  1.92191498E+00  2.43934425E+00  1.92192663E+00  1.92191552E+00
  2.43934316E+00 -3.14159264E+00 -1.45299694E-06  1.46683749E-06  3.14159265E+00
ZRed-IntVec                                I   N=          20
          -1          -1          -1          -1          -1          -1
           0           0           0           0           0           0
           0           0           0           0           0           0
           0           0
ZRed-FPVec                                 R   N=          20
  0.00000000E+00  0.00000000E+00  0.00000000E+00  0.00000000E+00  0.00000000E+00
  0.00000000E+00  0.00000000E+00  0.00000000E+00  0.00000000E+00  0.00000000E+00
  0.00000000E+00  0.00000000E+00  0.00000000E+00  0.00000000E+00  0.00000000E+00
  0.00000000E+00  0.00000000E+00  0.00000000E+00  0.00000000E+00  0.00000000E+00
ZRed-Constraint1                           R   N=          20
 -2.94909714E+00  0.00000000E+00  0.00000000E+00  2.94909714E+00  0.00000000E+00
  0.00000000E+00  2.03694512E+00  2.03669844E+00  2.03694512E+00  2.03669844E+00
  2.00316847E+00  2.00313852E+00  2.27687832E+00  2.00316847E+00  2.00313852E+00
  2.27687832E+00  3.14159265E+00  0.00000000E+00  0.00000000E+00  3.14159265E+00
ZRed-Constraint2                           R   N=          20
 -2.94909714E+00  0.00000000E+00  0.00000000E+00  2.94909714E+00  0.00000000E+00
  0.00000000E+00  0.00000000E+00  0.00000000E+00  0.00000000E+00  0.00000000E+00
  0.00000000E+00  0.00000000E+00  0.00000000E+00  0.00000000E+00  0.00000000E+00
  0.00000000E+00  0.00000000E+00  0.00000000E+00  0.00000000E+00  0.00000000E+00
Number of contracted shells                I               28
Number of primitive shells                 I               50
Pure/Cartesian d shells                    I                0
Pure/Cartesian f shells                    I                0
Highest angular momentum                   I                2
Largest degree of contraction              I                6
Shell types                                I   N=          28
           0          -1          -1          -1          -1          -2
           0          -1          -1          -1          -1          -2
           0           0           0           1           0           0
           0           1           0           0           0           1
           0           0           0           1
Number of primitives per shell             I   N=          28
           6           3           1           1           1           1
           6           3           1           1           1           1
           3           1           1           1           3           1
           1           1           3           1           1           1
           3           1           1           1
Shell to atom map                          I   N=          28
           1           1           1           1           1           1
           2           2           2           2           2           2
           3           3           3           3           4           4
           4           4           5           5           5           5
           6           6           6           6
Primitive exponents                        R   N=          50
  4.56324000E+03  6.82024000E+02  1.54973000E+02  4.44553000E+01  1.30290000E+01
  1.82773000E+00  2.09642000E+01  4.80331000E+00  1.45933000E+00  4.83456000E-01
  1.45585000E-01  4.38000000E-02  6.26000000E-01  4.56324000E+03  6.82024000E+02
  1.54973000E+02  4.44553000E+01  1.30290000E+01  1.82773000E+00  2.09642000E+01
  4.80331000E+00  1.45933000E+00  4.83456000E-01  1.45585000E-01  4.38000000E-02
  6.26000000E-01  3.38650000E+01  5.09479000E+00  1.15879000E+00  3.25840000E-01
  1.02741000E-01  7.50000000E-01  3.38650000E+01  5.09479000E+00  1.15879000E+00
  3.25840000E-01  1.02741000E-01  7.50000000E-01  3.38650000E+01  5.09479000E+00
  1.15879000E+00  3.25840000E-01  1.02741000E-01  7.50000000E-01  3.38650000E+01
  5.09479000E+00  1.15879000E+00  3.25840000E-01  1.02741000E-01  7.50000000E-01
Contraction coefficients                   R   N=          50
  1.96665025E-03  1.52306019E-02  7.61269097E-02  2.60801033E-01  6.16462078E-01
  2.21006028E-01  1.14660081E-01  9.19999648E-01 -3.03068213E-03  1.00000000E+00
  1.00000000E+00  1.00000000E+00  1.00000000E+00  1.96665025E-03  1.52306019E-02
  7.61269097E-02  2.60801033E-01  6.16462078E-01  2.21006028E-01  1.14660081E-01
  9.19999648E-01 -3.03068213E-03  1.00000000E+00  1.00000000E+00  1.00000000E+00
  1.00000000E+00  2.54938145E-02  1.90373109E-01  8.52161486E-01  1.00000000E+00
  1.00000000E+00  1.00000000E+00  2.54938145E-02  1.90373109E-01  8.52161486E-01
  1.00000000E+00  1.00000000E+00  1.00000000E+00  2.54938145E-02  1.90373109E-01
  8.52161486E-01  1.00000000E+00  1.00000000E+00  1.00000000E+00  2.54938145E-02
  1.90373109E-01  8.52161486E-01  1.00000000E+00  1.00000000E+00  1.00000000E+00
P(S=P) Contraction coefficients            R   N=          50
  0.00000000E+00  0.00000000E+00  0.00000000E+00  0.00000000E+00  0.00000000E+00
  0.00000000E+00  4.02486927E-02  2.37593957E-01  8.15853851E-01  1.00000000E+00
  1.00000000E+00  1.00000000E+00  0.00000000E+00  0.00000000E+00  0.00000000E+00
  0.00000000E+00  0.00000000E+00  0.00000000E+00  0.00000000E+00  4.02486927E-02
  2.37593957E-01  8.15853851E-01  1.00000000E+00  1.00000000E+00  1.00000000E+00
  0.00000000E+00  0.00000000E+00  0.00000000E+00  0.00000000E+00  0.00000000E+00
  0.00000000E+00  0.00000000E+00  0.00000000E+00  0.00000000E+00  0.00000000E+00
  0.00000000E+00  0.00000000E+00  0.00000000E+00  0.00000000E+00  0.00000000E+00
  0.00000000E+00  0.00000000E+00  0.00000000E+00  0.00000000E+00  0.00000000E+00
  0.00000000E+00  0.00000000E+00  0.00000000E+00  0.00000000E+00  0.00000000E+00
Coordinates of each shell                  R   N=          84
 -2.94909714E+00  0.00000000E+00  0.00000000E+00 -2.94909714E+00  0.00000000E+00
  0.00000000E+00 -2.94909714E+00  0.00000000E+00  0.00000000E+00 -2.94909714E+00
  0.00000000E+00  0.00000000E+00 -2.94909714E+00  0.00000000E+00  0.00000000E+00
 -2.94909714E+00  0.00000000E+00  0.00000000E+00  2.94909714E+00  0.00000000E+00
  0.00000000E+00  2.94909714E+00  0.00000000E+00  0.00000000E+00  2.94909714E+00
  0.00000000E+00  0.00000000E+00  2.94909714E+00  0.00000000E+00  0.00000000E+00
  2.94909714E+00  0.00000000E+00  0.00000000E+00  2.94909714E+00  0.00000000E+00
  0.00000000E+00 -3.64952835E+00 -1.91213049E+00 -1.38038635E-06 -3.64952835E+00
 -1.91213049E+00 -1.38038635E-06 -3.64952835E+00 -1.91213049E+00 -1.38038635E-06
 -3.64952835E+00 -1.91213049E+00 -1.38038635E-06 -3.64950762E+00  1.91213964E+00
 -1.39380350E-06 -3.64950762E+00  1.91213964E+00 -1.39380350E-06 -3.64950762E+00
  1.91213964E+00 -1.39380350E-06 -3.64950762E+00  1.91213964E+00 -1.39380350E-06
  3.64952941E+00  1.91213015E+00  1.41117175E-06  3.64952941E+00  1.91213015E+00
  1.41117175E-06  3.64952941E+00  1.91213015E+00  1.41117175E-06  3.64952941E+00
  1.91213015E+00  1.41117175E-06  3.64950868E+00 -1.91213931E+00  1.39780911E-06
  3.64950868E+00 -1.91213931E+00  1.39780911E-06  3.64950868E+00 -1.91213931E+00
  1.39780911E-06  3.64950868E+00 -1.91213931E+00  1.39780911E-06
Num ILSW                                   I              100
ILSW                                       I   N=         100
           1           0           0           1           2           0
           0           0           0           0        4336          -1
           7           0           0           0           2           0
           0           0           0           0           1           0
           1           1           0           0           0           0
           0           0      100000           0          -1           0
           0           0           0           0           0           0
           0           0           0           1           0           0
           0 -2000000000           1           0           0           0
           0           0           4          52           0           0
           0           0          55           0           0           0
           0           0           0           6           0           1
           0           0           0           0           0           0
           0           0           0           0           0           0
           0           0           0           0           0           0
           0           0           0           0           0           0
           0           0           0           0
Num RLSW                                   I               52
RLSW                                       R   N=          52
  1.00000000E+00  1.00000000E+00  1.00000000E+00  1.00000000E+00  5.40000000E-01
  0.00000000E+00  0.00000000E+00  1.00000000E+00  0.00000000E+00  0.00000000E+00
  0.00000000E+00  0.00000000E+00  1.00000000E+00  0.00000000E+00  0.00000000E+00
  0.00000000E+00  0.00000000E+00  1.00000000E+00  0.00000000E+00  0.00000000E+00
  0.00000000E+00  0.00000000E+00  1.00000000E+00  0.00000000E+00  0.00000000E+00
  0.00000000E+00  0.00000000E+00  1.00000000E+00  0.00000000E+00  0.00000000E+00
  0.00000000E+00  0.00000000E+00  1.00000000E+00  0.00000000E+00  0.00000000E+00
  0.00000000E+00  0.00000000E+00  0.00000000E+00  1.00000000E+00  1.00000000E+00
  0.00000000E+00  1.00000000E+00  0.00000000E+00  0.00000000E+00  0.00000000E+00
  0.00000000E+00  0.00000000E+00  0.00000000E+00  0.00000000E+00  0.00000000E+00
  0.00000000E+00  0.00000000E+00
MxBond                                     I                3
NBond                                      I   N=           6
           3           3           1           1           1           1
IBond                                      I   N=          18
           2           3           4           1           5           6
           1           0           0           1           0           0
           2           0           0           2           0           0
RBond                                      R   N=          18
  1.00000000E-01  1.00000000E+00  1.00000000E+00  1.00000000E-01  1.00000000E+00
  1.00000000E+00  1.00000000E+00  0.00000000E+00  0.00000000E+00  1.00000000E+00
  0.00000000E+00  0.00000000E+00  1.00000000E+00  0.00000000E+00  0.00000000E+00
  1.00000000E+00  0.00000000E+00  0.00000000E+00
Virial Ratio                               R      2.008754143976486E+00
SCF Energy                                 R     -7.815161324061341E+01
Total Energy                               R     -7.815161324061341E+01
S**2                                       R     -6.572520305780927E-14
S**2 after annihilation                    R      2.486899575160276E-14
RMS Force                                  R      1.227973018665567E-05
RMS Density                                R      8.125368055678935E-09
Job Status                                 I                1
Nuclear derivative order                   I                1
External E-field                           R   N=          35
  0.00000000E+00  0.00000000E+00  0.00000000E+00  0.00000000E+00  0.00000000E+00
  0.00000000E+00  0.00000000E+00  0.00000000E+00  0.00000000E+00  0.00000000E+00
  0.00000000E+00  0.00000000E+00  0.00000000E+00  0.00000000E+00  0.00000000E+00
  0.00000000E+00  0.00000000E+00  0.00000000E+00  0.00000000E+00  0.00000000E+00
  0.00000000E+00  0.00000000E+00  0.00000000E+00  0.00000000E+00  0.00000000E+00
  0.00000000E+00  0.00000000E+00  0.00000000E+00  0.00000000E+00  0.00000000E+00
  0.00000000E+00  0.00000000E+00  0.00000000E+00  0.00000000E+00  0.00000000E+00
IOpCl                                      I                1
IROHF                                      I                0
Alpha Orbital Energies                     R   N=          68
 -1.06332849E+01 -1.06332504E+01 -7.56739493E-01 -7.46797958E-01 -5.41533432E-01
 -5.38297855E-01 -2.82866747E-01 -2.25506387E-01 -1.25089265E-01 -1.10479241E-01
  3.39485928E-02  4.99402993E-02  5.22315970E-02  6.84739595E-02  9.24798366E-02
  1.05625893E-01  1.10126244E-01  1.33501567E-01  1.61352869E-01  1.81127978E-01
  2.14109160E-01  2.67139805E-01  4.18031454E-01  4.18410097E-01  4.26449909E-01
  5.54874584E-01  5.61132848E-01  5.69574847E-01  6.11418928E-01  6.52756649E-01
  6.83419624E-01  6.87597585E-01  7.44686013E-01  8.20065527E-01  1.06355014E+00
  1.06450863E+00  1.26307581E+00  1.27782484E+00  1.28383666E+00  1.29949618E+00
  1.34270353E+00  1.35618334E+00  1.51864731E+00  1.52021253E+00  1.68905378E+00
  1.68917319E+00  1.85145124E+00  1.85555048E+00  1.87125172E+00  1.89478045E+00
  2.06759309E+00  2.06809167E+00  2.37757362E+00  2.46161807E+00  2.50004565E+00
  2.50299838E+00  2.53311640E+00  2.59330142E+00  2.72466417E+00  2.72691676E+00
  2.73876683E+00  2.76192464E+00  2.99330770E+00  3.01444547E+00  3.61887818E+00
  3.64162680E+00  2.38183574E+01  2.38232876E+01
Beta Orbital Energies                      R   N=          68
 -1.06332849E+01 -1.06332504E+01 -7.56739493E-01 -7.46797958E-01 -5.41533432E-01
 -5.38297855E-01 -2.82866747E-01 -2.25506387E-01 -1.25089265E-01 -1.10479241E-01
  3.39485928E-02  4.99402993E-02  5.22315970E-02  6.84739595E-02  9.24798366E-02
  1.05625893E-01  1.10126244E-01  1.33501567E-01  1.61352869E-01  1.81127978E-01
  2.14109160E-01  2.67139805E-01  4.18031454E-01  4.18410097E-01  4.26449909E-01
  5.54874584E-01  5.61132848E-01  5.69574847E-01  6.11418928E-01  6.52756649E-01
  6.83419624E-01  6.87597585E-01  7.44686013E-01  8.20065527E-01  1.06355014E+00
  1.06450863E+00  1.26307581E+00  1.27782484E+00  1.28383666E+00  1.29949618E+00
  1.34270353E+00  1.35618334E+00  1.51864731E+00  1.52021253E+00  1.68905378E+00
  1.68917319E+00  1.85145124E+00  1.85555048E+00  1.87125172E+00  1.89478045E+00
  2.06759309E+00  2.06809167E+00  2.37757362E+00  2.46161807E+00  2.50004565E+00
  2.50299838E+00  2.53311640E+00  2.59330142E+00  2.72466417E+00  2.72691676E+00
  2.73876683E+00  2.76192464E+00  2.99330770E+00  3.01444547E+00  3.61887818E+00
  3.64162680E+00  2.38183574E+01  2.38232876E+01
Alpha MO coefficients                      R   N=        4624
  3.98495163E-01  3.27783472E-01  3.89190033E-04 -2.43907708E-09 -5.37782976E-09
  8.09044990E-03 -1.44078328E-03 -1.47184602E-09 -5.58403248E-10 -1.78109883E-03
  2.52370824E-04  8.10650093E-09 -7.92988725E-10 -6.07931210E-04  1.78921727E-04
  8.09355459E-09  9.74261073E-10 -1.00157249E-03 -6.69671392E-10 -1.09331106E-11
 -1.35945409E-03  1.71766379E-08  3.99364012E-01  3.28498141E-01 -3.89934799E-04
  2.44496316E-09  5.38502602E-09  8.10821750E-03  1.44371607E-03  1.47256633E-09
  5.93143939E-10 -1.78577333E-03 -2.52458147E-04 -8.09683391E-09  7.91012166E-10
 -6.08961901E-04 -1.79704195E-04 -8.09162701E-09 -9.80754600E-10 -1.00368847E-03
 -6.62006363E-10  1.09259923E-11 -1.36237183E-03  1.72145648E-08  3.91071397E-05
 -2.50416728E-03  1.56892185E-03 -6.75145317E-04 -1.48655909E-03 -1.63001307E-09
  3.91095691E-05 -2.50415754E-03  1.56889303E-03 -6.75127745E-04  1.48656122E-03
 -1.64040230E-09  3.92054466E-05 -2.50950621E-03  1.57254793E-03  6.76540541E-04
  1.48972542E-03  1.66057536E-09  3.92078791E-05 -2.50949643E-03  1.57251910E-03
  6.76522929E-04 -1.48972756E-03  1.65019902E-09  3.99367570E-01  3.28497870E-01
  3.44986418E-04 -2.69385353E-09 -5.34280296E-09  8.16713738E-03 -1.34881477E-03
 -8.08905423E-10 -6.18234893E-10 -2.14670660E-03  4.11849035E-05 -4.38176132E-09
 -5.14443495E-10 -4.74836646E-04  3.58724617E-04 -8.02526525E-10  7.28204001E-10
 -9.73751563E-04 -6.67122550E-10 -1.05966059E-11 -1.34191815E-03  1.75697626E-08
 -3.98498727E-01 -3.27783202E-01  3.44132521E-04 -2.68856190E-09 -5.32680742E-09
 -8.14949662E-03 -1.34567317E-03 -8.04658667E-10 -6.49259991E-10  2.14282414E-03
  4.06349011E-05 -4.39948189E-09 -5.09763951E-10  4.73511405E-04  3.58334734E-04
 -8.20438668E-10  7.34642893E-10  9.71565870E-04  6.56567765E-10 -1.05486686E-11
  1.33895284E-03 -1.75320142E-08  4.48730795E-05 -2.45500109E-03  1.66675244E-03
 -6.41189941E-04 -1.45610566E-03 -1.61896341E-09  4.48746671E-05 -2.45498458E-03
  1.66674916E-03 -6.41171304E-04  1.45610640E-03 -1.62912324E-09 -4.47885173E-05
  2.44954032E-03 -1.66333163E-03 -6.39718649E-04 -1.45286343E-03 -1.64176178E-09
 -4.47900994E-05  2.44952383E-03 -1.66332841E-03 -6.39700051E-04  1.45286417E-03
 -1.63165317E-09 -7.79543268E-02 -1.25886501E-01 -2.29077799E-02 -2.40887275E-08
 -6.79911881E-08  3.43919184E-01 -3.26487615E-02  5.94817461E-09 -1.60367444E-07
  2.36571749E-01 -1.24774148E-02 -4.44733654E-08 -3.44834411E-08  4.24406005E-03
 -9.04489056E-04 -5.66961849E-08 -1.53263025E-08 -7.49192949E-03 -4.91281727E-08
 -7.55894308E-11 -8.33541557E-03  1.06020075E-07 -7.79552052E-02 -1.25887920E-01
  2.29081715E-02  2.40749882E-08  6.85985464E-08  3.43923079E-01  3.26493902E-02
 -5.96324185E-09  1.61214369E-07  2.36574342E-01  1.24776923E-02  4.44680080E-08
  3.48357121E-08  4.24395481E-03  9.04573967E-04  5.66959513E-08  1.53570423E-08
 -7.49194992E-03 -4.90142996E-08  7.59254045E-11 -8.33553817E-03  1.06020694E-07
  7.82579853E-02  9.14759209E-02  5.76917649E-03  2.67973887E-03  1.15981290E-02
  1.93976212E-09  7.82577317E-02  9.14756316E-02  5.76930097E-03  2.67959593E-03
 -1.15981262E-02  2.02115168E-09  7.82589030E-02  9.14770088E-02  5.76927730E-03
 -2.67977139E-03 -1.15982684E-02 -2.09265668E-09  7.82586494E-02  9.14767195E-02
  5.76940178E-03 -2.67962845E-03  1.15982656E-02 -2.01155832E-09 -7.76839568E-02
 -1.25465549E-01 -3.03250144E-02 -2.64055993E-08 -7.36667189E-08  3.43464173E-01
 -4.59431746E-02  1.15290186E-08 -1.66922849E-07  2.32321458E-01 -2.09160369E-02
  2.78390096E-08 -3.90409346E-08 -8.58766724E-03 -6.77910988E-03 -3.95008542E-09
 -3.29648611E-09 -7.71871578E-03 -4.53437791E-08 -7.94127287E-11 -9.74281350E-03
  1.11114046E-07  7.76830673E-02  1.25464112E-01 -3.03248166E-02 -2.63904768E-08
 -7.42985232E-08 -3.43460254E-01 -4.59429326E-02  1.15449479E-08 -1.67807869E-07
 -2.32318723E-01 -2.09159400E-02  2.78448984E-08 -3.93945752E-08  8.58771255E-03
 -6.77910425E-03 -3.94873443E-09 -3.33249119E-09  7.71856608E-03  4.52190098E-08
 -7.97095611E-11  9.74272641E-03 -1.11112024E-07  8.07624222E-02  9.52408844E-02
  9.23743194E-03  2.22432773E-03  1.17277846E-02  1.25726137E-09  8.07621180E-02
  9.52404920E-02  9.23742641E-03  2.22416802E-03 -1.17277657E-02  1.34110211E-09
 -8.07615405E-02 -9.52398598E-02 -9.23736422E-03  2.22430376E-03  1.17276611E-02
  1.41435970E-09 -8.07612363E-02 -9.52394675E-02 -9.23735868E-03  2.22414405E-03
 -1.17276422E-02  1.33079207E-09 -8.30011229E-08 -1.37635394E-07  7.63495180E-07
  1.52555541E-01 -5.23379112E-10  4.02835372E-07  9.89437149E-07  2.06304390E-01
 -7.04904212E-10  4.54031483E-07  4.42945319E-07  1.04585908E-01 -3.48563833E-10
  1.34500120E-07  3.75360666E-08  1.73637264E-03 -5.92527095E-12 -2.10879737E-09
  4.48665290E-11 -5.25221363E-08 -1.38039453E-07 -1.22940258E-02  8.29965911E-08
  1.37627706E-07  7.63497470E-07  1.52556328E-01  5.21132069E-10 -4.02812059E-07
  9.89442221E-07  2.06305495E-01  7.01576988E-10 -4.54000052E-07  4.42948406E-07
  1.04586499E-01  3.46929880E-10 -1.34497638E-07  3.75365272E-08  1.73639067E-03
  5.84239930E-12  2.10844510E-09  4.53609159E-11  5.28067513E-08  1.38040450E-07
  1.22941440E-02 -1.09549950E-01 -1.58526737E-01 -4.73606377E-02 -6.93572674E-03
 -1.29319971E-02 -1.59714747E-08  1.09550103E-01  1.58526946E-01  4.73605631E-02
  6.93556418E-03 -1.29321014E-02  1.60647543E-08  1.09550514E-01  1.58527544E-01
  4.73608895E-02 -6.93576896E-03 -1.29320452E-02 -1.62462036E-08 -1.09550668E-01
 -1.58527753E-01 -4.73608149E-02  6.93560640E-03 -1.29321494E-02  1.61532523E-08
 -6.29267336E-08 -1.05476121E-07  8.86428022E-07  1.53518351E-01 -5.39380498E-10
  3.17302945E-07  1.17850314E-06  2.06955980E-01 -7.30482000E-10  3.84324959E-07
  6.00448776E-07  1.09425991E-01 -3.83553350E-10  3.12415778E-08  3.81469110E-08
  6.47301165E-03 -1.30794944E-11  2.91187643E-09  4.41677628E-11 -5.35431566E-08
 -1.30518078E-07 -1.32411010E-02 -6.29212505E-08 -1.05466860E-07 -8.86423812E-07
 -1.53517552E-01 -5.37472772E-10  3.17274929E-07 -1.17850029E-06 -2.06954944E-01
 -7.27590720E-10  3.84290257E-07 -6.00448897E-07 -1.09425452E-01 -3.82307591E-10
  3.12397592E-08 -3.81478615E-08 -6.47298401E-03 -1.31190608E-11  2.91224719E-09
 -4.47409656E-11 -5.38354679E-08 -1.30517519E-07 -1.32410868E-02 -1.10522899E-01
 -1.59169579E-01 -4.26226507E-02 -6.64257924E-03 -1.29077816E-02 -1.58951955E-08
  1.10522931E-01  1.59169590E-01  4.26226453E-02  6.64242490E-03 -1.29078715E-02
  1.59862381E-08 -1.10522323E-01 -1.59168750E-01 -4.26224493E-02  6.64255201E-03
  1.29076966E-02  1.61670710E-08  1.10522356E-01  1.59168762E-01  4.26224440E-02
 -6.64239766E-03  1.29077865E-02 -1.60764010E-08 -1.71274316E-02 -2.82755474E-02
  1.64843567E-01 -9.98178316E-07  3.91919385E-07  7.79464300E-02  2.51349308E-01
 -1.52690177E-06  4.92211002E-07  1.62975799E-01  2.59935704E-01 -1.37522878E-06
  6.22295409E-07  3.09427961E-02  5.23879663E-02 -3.17448131E-07  1.68961670E-07
  4.68666127E-03 -1.04343137E-07  3.67142927E-11  2.62570017E-03  3.03654435E-10
 -1.71275538E-02 -2.82757531E-02 -1.64844105E-01  9.98181447E-07 -3.94102343E-07
  7.79470537E-02 -2.51349948E-01  1.52690326E-06 -4.95509630E-07  1.62976572E-01
 -2.59936574E-01  1.37522935E-06 -6.25487221E-07  3.09433203E-02 -5.23883573E-02
  3.17447420E-07 -1.69508859E-07  4.68673000E-03 -1.04534642E-07 -3.56097894E-11
  2.62559805E-03  3.04759871E-10 -3.95932724E-02 -6.84982451E-02 -4.46202276E-02
  1.12044684E-02 -6.65312911E-03  3.54558047E-08 -3.95934412E-02 -6.84986383E-02
 -4.46205473E-02  1.12045489E-02  6.65302747E-03  3.54075582E-08 -3.95933832E-02
 -6.84984366E-02 -4.46203736E-02 -1.12044946E-02  6.65316940E-03 -3.55204367E-08
 -3.95935519E-02 -6.84988299E-02 -4.46206933E-02 -1.12045751E-02 -6.65306776E-03
 -3.55682957E-08 -1.46604316E-07 -2.45700098E-07  5.81088683E-07  6.39986138E-10
  1.76907605E-01  7.27534969E-07  7.42573352E-07  9.78092521E-10  2.73819063E-01
  1.08711269E-06  9.67966511E-07  1.02865953E-09  3.14656673E-01  1.80962688E-07
  2.84147981E-07  3.40032172E-10  8.62556330E-02 -3.61011642E-08 -3.15057039E-03
  7.19921064E-09 -4.50190663E-08 -2.21152619E-11  1.46912839E-07  2.46215000E-07
  5.78676957E-07 -6.43061440E-10  1.76907024E-01 -7.29046575E-07  7.38745860E-07
 -9.81986882E-10  2.73818250E-01 -1.08963651E-06  9.63771495E-07 -1.03469619E-09
  3.14655699E-01 -1.81018360E-07  2.82792989E-07 -3.41877331E-10  8.62553628E-02
  3.62641290E-08  3.15057331E-03 -7.19998738E-09  4.49292327E-08 -2.23715944E-11
 -1.52728238E-07 -2.79752942E-07 -1.41225574E-07  3.73997676E-08 -4.99057380E-08
  1.64992889E-02 -1.52690122E-07 -2.79596314E-07 -1.41167586E-07  3.73964975E-08
  5.00074443E-08  1.64992730E-02  1.53042164E-07  2.80199430E-07  1.41414006E-07
  3.71284120E-08 -5.00618437E-08  1.64992193E-02  1.53078573E-07  2.80353359E-07
  1.41469759E-07  3.71324741E-08  4.99594433E-08  1.64992035E-02 -1.35952668E-08
 -2.56350647E-08 -3.19837235E-07  6.16079680E-10  1.83666997E-01  8.75278865E-08
 -6.20898542E-07  9.72399807E-10  2.85021620E-01  1.14104268E-08 -5.32412253E-07
  1.08391842E-09  3.20887165E-01 -4.80014399E-08 -2.10580179E-07  3.53673315E-10
  1.37828514E-01 -7.73655641E-08 -1.10367906E-02  1.23713520E-08 -2.46070098E-08
 -2.27718034E-11 -1.52572049E-08 -2.83973207E-08  3.13882281E-07  6.09939934E-10
 -1.83667466E-01  9.56481952E-08  6.12271051E-07  9.61914737E-10 -2.85022444E-01
  2.51392356E-08  5.22849849E-07  1.07481262E-09 -3.20888035E-01 -4.31432064E-08
  2.05349105E-07  3.49894382E-10 -1.37828850E-01 -7.71203446E-08 -1.10368359E-02
  1.23721388E-08 -2.47966409E-08  2.30356758E-11  1.95323445E-08  1.20669537E-08
  1.16517243E-07 -3.18332889E-08 -2.04448362E-08  1.84851522E-02  1.94836248E-08
  1.19584562E-08  1.16645946E-07 -3.18260653E-08  2.05802652E-08  1.84851071E-02
  1.74563687E-08  8.29153459E-09  1.13437914E-07  3.13905369E-08  2.09363934E-08
 -1.84851860E-02  1.75056183E-08  8.40173185E-09  1.13312576E-07  3.13972615E-08
 -2.08019608E-08 -1.84851409E-02 -3.18071879E-02 -5.28581347E-02  1.82312439E-01
 -8.78390555E-07 -5.02493096E-07  1.57185458E-01  2.67656024E-01 -1.37891252E-06
 -9.25157946E-07  2.51209396E-01  3.15088668E-01 -1.50501543E-06 -9.28478487E-07
  1.86204677E-01  2.12087085E-01 -6.01427802E-07 -3.76213400E-07  9.82309392E-03
 -9.36732564E-08  2.93813252E-11 -9.41960284E-03 -1.89005284E-08  3.18071792E-02
  5.28581257E-02  1.82312014E-01 -8.78390709E-07 -5.08957669E-07 -1.57185489E-01
  2.67655250E-01 -1.37890877E-06 -9.35269971E-07 -2.51209052E-01  3.15087859E-01