 running on   28 total cores
 distrk:  each k-point on   28 cores,    1 groups
 distr:  one band on   14 cores,    2 groups
 vasp.6.3.1 04May22 (build Aug 04 2022 13:02:54) complex                        
  
 POSCAR found type information on POSCAR C 
 POSCAR found :  1 types and       2 ions
 scaLAPACK will be used
 -----------------------------------------------------------------------------
|                                                                             |
|           W    W    AA    RRRRR   N    N  II  N    N   GGGG   !!!           |
|           W    W   A  A   R    R  NN   N  II  NN   N  G    G  !!!           |
|           W    W  A    A  R    R  N N  N  II  N N  N  G       !!!           |
|           W WW W  AAAAAA  RRRRR   N  N N  II  N  N N  G  GGG   !            |
|           WW  WW  A    A  R   R   N   NN  II  N   NN  G    G                |
|           W    W  A    A  R    R  N    N  II  N    N   GGGG   !!!           |
|                                                                             |
|     For optimal performance we recommend to set                             |
|       NCORE = 2 up to number-of-cores-per-socket                            |
|     NCORE specifies how many cores store one orbital (NPAR=cpu/NCORE).      |
|     This setting can greatly improve the performance of VASP for DFT.       |
|     The default, NCORE=1 might be grossly inefficient on modern             |
|     multi-core architectures or massively parallel machines. Do your        |
|     own testing! More info at https://www.vasp.at/wiki/index.php/NCORE      |
|     Unfortunately you need to use the default for GW and RPA                |
|     calculations (for HF NCORE is supported but not extensively tested      |
|     yet).                                                                   |
|                                                                             |
 -----------------------------------------------------------------------------

 LDA part: xc-table for Pade appr. of Perdew
 POSCAR, INCAR and KPOINTS ok, starting setup
 FFT: planning ... GRIDC
 FFT: planning ... GRID_SOFT
 FFT: planning ... GRID
 WAVECAR not read
 WARNING: random wavefunctions but no delay for mixing, default for NELMDL
 entering main loop
       N       E                     dE             d eps       ncg     rms          rms(c)
DAV:   1     0.420681974865E+02    0.42068E+02   -0.21785E+03   656   0.606E+02
DAV:   2     0.196968318184E+01   -0.40099E+02   -0.38477E+02  1064   0.782E+01
DAV:   3    -0.355965092103E+01   -0.55293E+01   -0.50985E+01  1128   0.409E+01
DAV:   4    -0.370618212718E+01   -0.14653E+00   -0.14178E+00   808   0.646E+00
DAV:   5    -0.370960220027E+01   -0.34201E-02   -0.34080E-02   968   0.900E-01    0.248E+00
DAV:   6    -0.363337219309E+01    0.76230E-01   -0.62305E-02   752   0.163E+00    0.101E+00
DAV:   7    -0.362206409521E+01    0.11308E-01   -0.37837E-02   888   0.129E+00    0.195E-01
DAV:   8    -0.362372022807E+01   -0.16561E-02   -0.16525E-03   800   0.334E-01    0.103E-01
DAV:   9    -0.362426542070E+01   -0.54519E-03   -0.49819E-03  1024   0.196E-01    0.169E-01
DAV:  10    -0.362392215731E+01    0.34326E-03   -0.33928E-03  1136   0.150E-01    0.277E-02
DAV:  11    -0.362403691699E+01   -0.11476E-03   -0.55048E-05   656   0.603E-02    0.151E-02
DAV:  12    -0.362407327851E+01   -0.36362E-04   -0.70556E-06   784   0.172E-02    0.146E-02
DAV:  13    -0.362412495213E+01   -0.51674E-04   -0.22431E-05   656   0.218E-02    0.520E-03
DAV:  14    -0.362414159516E+01   -0.16643E-04   -0.57716E-06   688   0.971E-03    0.480E-03
DAV:  15    -0.362416979452E+01   -0.28199E-04   -0.33195E-06   656   0.868E-03    0.258E-03
DAV:  16    -0.362419465029E+01   -0.24856E-04   -0.13270E-06   656   0.393E-03    0.715E-04
DAV:  17    -0.362420173688E+01   -0.70866E-05   -0.33308E-07   984   0.183E-03    0.301E-04
DAV:  18    -0.362420736472E+01   -0.56278E-05   -0.45294E-07   656   0.171E-03    0.128E-04
DAV:  19    -0.362420822552E+01   -0.86080E-06   -0.83019E-08   960   0.685E-04    0.712E-05
DAV:  20    -0.362420837834E+01   -0.15282E-06   -0.48652E-09   456   0.205E-04    0.233E-05
DAV:  21    -0.362420838326E+01   -0.49152E-08   -0.27816E-10   328   0.792E-05
   1 F= -.36932670E+01 E0= -.36907083E+01  d E =-.511728E-02
