Title Card Required                                                     
FOpt      UM062X                                                      6-311+G(d,p)        
Number of atoms                            I                6
Info1-9                                    I   N=           9
          15          15           0           0           0         110
           2          18        -502
Full Title                                 C   N=           2
Title Card Required     
Route                                      C   N=           4
#p opt UM062X/6-311+G** nosymm int=superfine    
Charge                                     I                1
Multiplicity                               I                2
Number of electrons                        I               15
Number of alpha electrons                  I                8
Number of beta electrons                   I                7
Number of basis functions                  I               68
Number of independent functions            I               68
Number of point charges in /Mol/           I                0
Number of translation vectors              I                0
Atomic numbers                             I   N=           6
           6           6           1           1           1           1
Nuclear charges                            R   N=           6
  6.00000000E+00  6.00000000E+00  1.00000000E+00  1.00000000E+00  1.00000000E+00
  1.00000000E+00
Current cartesian coordinates              R   N=          18
 -2.13733165E+00  0.00000000E+00  0.00000000E+00  2.13733165E+00  0.00000000E+00
  0.00000000E+00 -2.95630779E+00 -1.88004289E+00 -3.95817760E-08 -2.95609833E+00
  1.87992177E+00 -3.78073060E-08  2.95630796E+00  1.88004291E+00  2.00936042E-08
  2.95609850E+00 -1.87992180E+00  2.19726207E-08
Number of symbols in /Mol/                 I                0
Force Field                                I                0
Atom Types                                 C   N=           6
                                                            
            
Int Atom Types                             I   N=           6
           0           0           0           0           0           0
MM charges                                 R   N=           6
  0.00000000E+00  0.00000000E+00  0.00000000E+00  0.00000000E+00  0.00000000E+00
  0.00000000E+00
Integer atomic weights                     I   N=           6
          12          12           1           1           1           1
Real atomic weights                        R   N=           6
  1.20000000E+01  1.20000000E+01  1.00782504E+00  1.00782504E+00  1.00782504E+00
  1.00782504E+00
Atom fragment info                         I   N=           6
           0           0           0           0           0           0
Atom residue num                           I   N=           6
           0           0           0           0           0           0
Nuclear spins                              I   N=           6
           0           0           1           1           1           1
Nuclear ZEff                               R   N=           6
 -3.60000000E+00 -3.60000000E+00 -1.00000000E+00 -1.00000000E+00 -1.00000000E+00
 -1.00000000E+00
Nuclear ZNuc                               R   N=           6
  6.00000000E+00  6.00000000E+00  1.00000000E+00  1.00000000E+00  1.00000000E+00
  1.00000000E+00
Nuclear QMom                               R   N=           6
  0.00000000E+00  0.00000000E+00  0.00000000E+00  0.00000000E+00  0.00000000E+00
  0.00000000E+00
Nuclear GFac                               R   N=           6
  0.00000000E+00  0.00000000E+00  2.79284600E+00  2.79284600E+00  2.79284600E+00
  2.79284600E+00
MicOpt                                     I   N=           6
          -2          -2          -1          -1          -1          -1
Number of residues                         I                0
Number of secondary structures             I                0
Redundant internal dimensions              I   N=           4
          20          10           6           4
Redundant internal coordinate indices      I   N=          80
           1          -1           0           0           1          -2
           0           0           1          -3           0           0
           2          -1           0           0           2          -2
           0           0           2          -3           0           0
           1           3           0           0           1           4
           0           0           2           5           0           0
           2           6           0           0           2           1
           3           0           2           1           4           0
           3           1           4           0           1           2
           5           0           1           2           6           0
           5           2           6           0           3           1
           2           5           3           1           2           6
           4           1           2           5           4           1
           2           6
Redundant internal coordinates             R   N=          20
 -2.13733165E+00  0.00000000E+00  0.00000000E+00  2.13733165E+00  0.00000000E+00
  0.00000000E+00  2.05067871E+00  2.05048403E+00  2.05067880E+00  2.05048412E+00
  1.98162407E+00  1.98155401E+00  2.32000722E+00  1.98162414E+00  1.98155408E+00
  2.32000708E+00  3.14159264E+00 -3.33200094E-08  3.33200094E-08 -3.14159264E+00
ZRed-IntVec                                I   N=          20
          -1          -1          -1          -1          -1          -1
           0           0           0           0           0           0
           0           0           0           0           0           0
           0           0
ZRed-FPVec                                 R   N=          20
  0.00000000E+00  0.00000000E+00  0.00000000E+00  0.00000000E+00  0.00000000E+00
  0.00000000E+00  0.00000000E+00  0.00000000E+00  0.00000000E+00  0.00000000E+00
  0.00000000E+00  0.00000000E+00  0.00000000E+00  0.00000000E+00  0.00000000E+00
  0.00000000E+00  0.00000000E+00  0.00000000E+00  0.00000000E+00  0.00000000E+00
ZRed-Constraint1                           R   N=          20
 -2.13733165E+00  0.00000000E+00  0.00000000E+00  2.13733165E+00  0.00000000E+00
  0.00000000E+00  2.43479357E+00  2.43393304E+00  2.43479357E+00  2.43393304E+00
  2.33260699E+00  2.32731618E+00  1.62326214E+00  2.33260699E+00  2.32731618E+00
  1.62326214E+00  3.14159265E+00  0.00000000E+00  0.00000000E+00  3.14159265E+00
ZRed-Constraint2                           R   N=          20
 -2.13733165E+00  0.00000000E+00  0.00000000E+00  2.13733165E+00  0.00000000E+00
  0.00000000E+00  0.00000000E+00  0.00000000E+00  0.00000000E+00  0.00000000E+00
  0.00000000E+00  0.00000000E+00  0.00000000E+00  0.00000000E+00  0.00000000E+00
  0.00000000E+00  0.00000000E+00  0.00000000E+00  0.00000000E+00  0.00000000E+00
Number of contracted shells                I               28
Number of primitive shells                 I               50
Pure/Cartesian d shells                    I                0
Pure/Cartesian f shells                    I                0
Highest angular momentum                   I                2
Largest degree of contraction              I                6
Shell types                                I   N=          28
           0          -1          -1          -1          -1          -2
           0          -1          -1          -1          -1          -2
           0           0           0           1           0           0
           0           1           0           0           0           1
           0           0           0           1
Number of primitives per shell             I   N=          28
           6           3           1           1           1           1
           6           3           1           1           1           1
           3           1           1           1           3           1
           1           1           3           1           1           1
           3           1           1           1
Shell to atom map                          I   N=          28
           1           1           1           1           1           1
           2           2           2           2           2           2
           3           3           3           3           4           4
           4           4           5           5           5           5
           6           6           6           6
Primitive exponents                        R   N=          50
  4.56324000E+03  6.82024000E+02  1.54973000E+02  4.44553000E+01  1.30290000E+01
  1.82773000E+00  2.09642000E+01  4.80331000E+00  1.45933000E+00  4.83456000E-01
  1.45585000E-01  4.38000000E-02  6.26000000E-01  4.56324000E+03  6.82024000E+02
  1.54973000E+02  4.44553000E+01  1.30290000E+01  1.82773000E+00  2.09642000E+01
  4.80331000E+00  1.45933000E+00  4.83456000E-01  1.45585000E-01  4.38000000E-02
  6.26000000E-01  3.38650000E+01  5.09479000E+00  1.15879000E+00  3.25840000E-01
  1.02741000E-01  7.50000000E-01  3.38650000E+01  5.09479000E+00  1.15879000E+00
  3.25840000E-01  1.02741000E-01  7.50000000E-01  3.38650000E+01  5.09479000E+00
  1.15879000E+00  3.25840000E-01  1.02741000E-01  7.50000000E-01  3.38650000E+01
  5.09479000E+00  1.15879000E+00  3.25840000E-01  1.02741000E-01  7.50000000E-01
Contraction coefficients                   R   N=          50
  1.96665025E-03  1.52306019E-02  7.61269097E-02  2.60801033E-01  6.16462078E-01
  2.21006028E-01  1.14660081E-01  9.19999648E-01 -3.03068213E-03  1.00000000E+00
  1.00000000E+00  1.00000000E+00  1.00000000E+00  1.96665025E-03  1.52306019E-02
  7.61269097E-02  2.60801033E-01  6.16462078E-01  2.21006028E-01  1.14660081E-01
  9.19999648E-01 -3.03068213E-03  1.00000000E+00  1.00000000E+00  1.00000000E+00
  1.00000000E+00  2.54938145E-02  1.90373109E-01  8.52161486E-01  1.00000000E+00
  1.00000000E+00  1.00000000E+00  2.54938145E-02  1.90373109E-01  8.52161486E-01
  1.00000000E+00  1.00000000E+00  1.00000000E+00  2.54938145E-02  1.90373109E-01
  8.52161486E-01  1.00000000E+00  1.00000000E+00  1.00000000E+00  2.54938145E-02
  1.90373109E-01  8.52161486E-01  1.00000000E+00  1.00000000E+00  1.00000000E+00
P(S=P) Contraction coefficients            R   N=          50
  0.00000000E+00  0.00000000E+00  0.00000000E+00  0.00000000E+00  0.00000000E+00
  0.00000000E+00  4.02486927E-02  2.37593957E-01  8.15853851E-01  1.00000000E+00
  1.00000000E+00  1.00000000E+00  0.00000000E+00  0.00000000E+00  0.00000000E+00
  0.00000000E+00  0.00000000E+00  0.00000000E+00  0.00000000E+00  4.02486927E-02
  2.37593957E-01  8.15853851E-01  1.00000000E+00  1.00000000E+00  1.00000000E+00
  0.00000000E+00  0.00000000E+00  0.00000000E+00  0.00000000E+00  0.00000000E+00
  0.00000000E+00  0.00000000E+00  0.00000000E+00  0.00000000E+00  0.00000000E+00
  0.00000000E+00  0.00000000E+00  0.00000000E+00  0.00000000E+00  0.00000000E+00
  0.00000000E+00  0.00000000E+00  0.00000000E+00  0.00000000E+00  0.00000000E+00
  0.00000000E+00  0.00000000E+00  0.00000000E+00  0.00000000E+00  0.00000000E+00
Coordinates of each shell                  R   N=          84
 -2.13733165E+00  0.00000000E+00  0.00000000E+00 -2.13733165E+00  0.00000000E+00
  0.00000000E+00 -2.13733165E+00  0.00000000E+00  0.00000000E+00 -2.13733165E+00
  0.00000000E+00  0.00000000E+00 -2.13733165E+00  0.00000000E+00  0.00000000E+00
 -2.13733165E+00  0.00000000E+00  0.00000000E+00  2.13733165E+00  0.00000000E+00
  0.00000000E+00  2.13733165E+00  0.00000000E+00  0.00000000E+00  2.13733165E+00
  0.00000000E+00  0.00000000E+00  2.13733165E+00  0.00000000E+00  0.00000000E+00
  2.13733165E+00  0.00000000E+00  0.00000000E+00  2.13733165E+00  0.00000000E+00
  0.00000000E+00 -2.95630779E+00 -1.88004289E+00 -3.95817760E-08 -2.95630779E+00
 -1.88004289E+00 -3.95817760E-08 -2.95630779E+00 -1.88004289E+00 -3.95817760E-08
 -2.95630779E+00 -1.88004289E+00 -3.95817760E-08 -2.95609833E+00  1.87992177E+00
 -3.78073060E-08 -2.95609833E+00  1.87992177E+00 -3.78073060E-08 -2.95609833E+00
  1.87992177E+00 -3.78073060E-08 -2.95609833E+00  1.87992177E+00 -3.78073060E-08
  2.95630796E+00  1.88004291E+00  2.00936042E-08  2.95630796E+00  1.88004291E+00
  2.00936042E-08  2.95630796E+00  1.88004291E+00  2.00936042E-08  2.95630796E+00
  1.88004291E+00  2.00936042E-08  2.95609850E+00 -1.87992180E+00  2.19726207E-08
  2.95609850E+00 -1.87992180E+00  2.19726207E-08  2.95609850E+00 -1.87992180E+00
  2.19726207E-08  2.95609850E+00 -1.87992180E+00  2.19726207E-08
Num ILSW                                   I              100
ILSW                                       I   N=         100
           1           0           0           1           2           0
           0           0           0           0        4336          -1
           7           0           0           0           2           0
           0           0           0           0           1           0
           1           1           0           0           0           0
           0           0      100000           0          -1           0
           0           0           0           0           0           0
           0           0           0           1           0           0
           0 -2000000000           1           0           0           0
           0           0           4          52           0           0
           0           0          55           0           0           0
           0           0           0           6           0           1
           0           0           0           0           0           0
           0           0           0           0           0           0
           0           0           0           0           0           0
           0           0           0           0           0           0
           0           0           0           0
Num RLSW                                   I               52
RLSW                                       R   N=          52
  1.00000000E+00  1.00000000E+00  1.00000000E+00  1.00000000E+00  5.40000000E-01
  0.00000000E+00  0.00000000E+00  1.00000000E+00  0.00000000E+00  0.00000000E+00
  0.00000000E+00  0.00000000E+00  1.00000000E+00  0.00000000E+00  0.00000000E+00
  0.00000000E+00  0.00000000E+00  1.00000000E+00  0.00000000E+00  0.00000000E+00
  0.00000000E+00  0.00000000E+00  1.00000000E+00  0.00000000E+00  0.00000000E+00
  0.00000000E+00  0.00000000E+00  1.00000000E+00  0.00000000E+00  0.00000000E+00
  0.00000000E+00  0.00000000E+00  1.00000000E+00  0.00000000E+00  0.00000000E+00
  0.00000000E+00  0.00000000E+00  0.00000000E+00  1.00000000E+00  1.00000000E+00
  0.00000000E+00  1.00000000E+00  0.00000000E+00  0.00000000E+00  0.00000000E+00
  0.00000000E+00  0.00000000E+00  0.00000000E+00  0.00000000E+00  0.00000000E+00
  0.00000000E+00  0.00000000E+00
MxBond                                     I                3
NBond                                      I   N=           6
           3           3           1           1           1           1
IBond                                      I   N=          18
           2           3           4           1           5           6
           1           0           0           1           0           0
           2           0           0           2           0           0
RBond                                      R   N=          18
  1.00000000E-01  1.00000000E+00  1.00000000E+00  1.00000000E-01  1.00000000E+00
  1.00000000E+00  1.00000000E+00  0.00000000E+00  0.00000000E+00  1.00000000E+00
  0.00000000E+00  0.00000000E+00  1.00000000E+00  0.00000000E+00  0.00000000E+00
  1.00000000E+00  0.00000000E+00  0.00000000E+00
Virial Ratio                               R      2.010019234184220E+00
SCF Energy                                 R     -7.800886273702903E+01
Total Energy                               R     -7.800886273702903E+01
S**2                                       R      7.521644235475087E-01
S**2 after annihilation                    R      7.500035812599316E-01
RMS Force                                  R      1.716418347355223E-05
RMS Density                                R      5.453070135920334E-09
Job Status                                 I                1
Nuclear derivative order                   I                1
External E-field                           R   N=          35
  0.00000000E+00  0.00000000E+00  0.00000000E+00  0.00000000E+00  0.00000000E+00
  0.00000000E+00  0.00000000E+00  0.00000000E+00  0.00000000E+00  0.00000000E+00
  0.00000000E+00  0.00000000E+00  0.00000000E+00  0.00000000E+00  0.00000000E+00
  0.00000000E+00  0.00000000E+00  0.00000000E+00  0.00000000E+00  0.00000000E+00
  0.00000000E+00  0.00000000E+00  0.00000000E+00  0.00000000E+00  0.00000000E+00
  0.00000000E+00  0.00000000E+00  0.00000000E+00  0.00000000E+00  0.00000000E+00
  0.00000000E+00  0.00000000E+00  0.00000000E+00  0.00000000E+00  0.00000000E+00
IOpCl                                      I                1
IROHF                                      I                0
Alpha Orbital Energies                     R   N=          68
 -1.09238591E+01 -1.09237543E+01 -1.04966899E+00 -1.00540182E+00 -8.01713415E-01
 -7.81962996E-01 -6.34425463E-01 -5.42339273E-01 -3.77687344E-01 -2.91899491E-01
 -1.38676248E-01 -1.09066039E-01 -1.03803280E-01 -8.11876118E-02 -7.54037910E-02
 -6.98785540E-02 -4.73644210E-02 -3.81225313E-02 -3.48018396E-02  1.79983427E-03
  1.87494650E-02  9.23562486E-02  1.79740134E-01  2.24803014E-01  2.40638430E-01
  3.20648119E-01  3.81348737E-01  4.06811467E-01  4.13058347E-01  4.30043405E-01
  4.56576842E-01  4.87437992E-01  5.25864968E-01  5.59581227E-01  8.02830071E-01
  8.11711699E-01  8.85666156E-01  9.15914235E-01  1.11519956E+00  1.13068874E+00
  1.13281650E+00  1.25028393E+00  1.26057934E+00  1.45360088E+00  1.46921380E+00
  1.47951168E+00  1.51108077E+00  1.59065926E+00  1.65817740E+00  1.73483549E+00
  1.75534995E+00  1.77997525E+00  2.12399655E+00  2.26071948E+00  2.26319753E+00
  2.33534655E+00  2.37883244E+00  2.40065917E+00  2.40771715E+00  2.40776849E+00
  2.45527820E+00  2.46517994E+00  2.54984920E+00  2.86307238E+00  3.40420155E+00
  3.43671214E+00  2.34963496E+01  2.35122517E+01
Beta Orbital Energies                      R   N=          68
 -1.09214092E+01 -1.09213454E+01 -1.02035254E+00 -9.82244741E-01 -7.97101462E-01
 -7.78349593E-01 -6.17675536E-01 -3.40771971E-01 -2.86082764E-01 -2.69651286E-01
 -1.50584305E-01 -1.11685584E-01 -1.05343668E-01 -7.49447670E-02 -7.38067626E-02
 -7.24978890E-02 -3.98720874E-02 -3.80528888E-02 -2.96704370E-02  6.94888174E-03
  9.01981369E-03  1.01119205E-01  1.80441794E-01  2.27887008E-01  2.45418263E-01
  3.35722154E-01  3.70797418E-01  4.15937598E-01  4.17673704E-01  4.24268130E-01
  4.72472122E-01  4.99513818E-01  5.31964119E-01  5.62054898E-01  8.33762669E-01
  8.40440481E-01  9.22844940E-01  9.45071044E-01  1.13711811E+00  1.14105939E+00
  1.14962190E+00  1.28374351E+00  1.28465273E+00  1.48374271E+00  1.48967186E+00
  1.49415926E+00  1.52334288E+00  1.60187301E+00  1.67046665E+00  1.74573912E+00
  1.77165470E+00  1.79567397E+00  2.16037225E+00  2.28275528E+00  2.29395810E+00
  2.34974614E+00  2.39650766E+00  2.41561407E+00  2.44155272E+00  2.45483062E+00
  2.49849038E+00  2.50623599E+00  2.57397004E+00  2.89590828E+00  3.44794415E+00
  3.48097592E+00  2.35087568E+01  2.35249640E+01
Alpha MO coefficients                      R   N=        4624
  3.98963103E-01  3.28050045E-01  5.40401276E-04 -7.60168504E-08  1.75579236E-11
  7.80335784E-03 -1.34307588E-03  1.14769659E-06 -7.43138151E-11 -1.86990270E-03
  1.37635532E-04  9.58400734E-08  7.09230133E-12 -5.35081012E-04  2.76621983E-04
 -3.11581018E-07  1.61014723E-11 -8.64971941E-04  1.49677294E-11  1.19992378E-12
 -9.99773290E-04 -2.75085502E-07  3.99079790E-01  3.28145990E-01 -5.40574767E-04
  7.60381620E-08 -1.78380943E-12  7.80570090E-03  1.34354116E-03 -1.14802833E-06
  3.80930464E-11 -1.87076044E-03 -1.37556727E-04 -9.57963035E-08 -2.05265883E-12
 -5.34944270E-04 -2.76848830E-04  3.11632413E-07 -1.21229889E-11 -8.65193949E-04
  5.32952175E-12 -1.30428374E-12 -1.00011666E-03 -2.75167348E-07  1.28139914E-04
 -2.26067977E-03  1.45297013E-03 -6.47743423E-04 -1.29565834E-03 -3.13518550E-11
  1.27926878E-04 -2.26250207E-03  1.45403309E-03 -6.47990177E-04  1.29646634E-03
 -3.01629313E-11  1.28166441E-04 -2.26130674E-03  1.45343840E-03  6.47917439E-04
  1.29604085E-03  1.66962672E-11  1.27953327E-04 -2.26312949E-03  1.45450169E-03
  6.48164253E-04 -1.29684908E-03  1.79825371E-11  3.99092701E-01  3.28150530E-01
  5.94932339E-04 -7.18361488E-08  1.75225339E-11  8.01614300E-03 -1.59291544E-03
  1.11790506E-06 -7.60564351E-11 -2.93007795E-03 -2.67692421E-04 -1.48143974E-07
  1.45465861E-11  4.61293654E-04  7.73525792E-04 -1.73221607E-07  1.20537618E-11
 -7.60902681E-04  1.60117727E-11  1.14353190E-12 -1.17596375E-03 -2.75139520E-07
 -3.98976018E-01 -3.28054586E-01  5.94773833E-04 -7.18142482E-08  1.59703464E-12
 -8.01385997E-03 -1.59252221E-03  1.11757445E-06 -4.00496652E-11  2.92953137E-03
 -2.67732750E-04 -1.48172053E-07  7.77861944E-12 -4.61450293E-04  7.73444979E-04
 -1.73131982E-07  3.39430414E-12  7.60649346E-04 -6.24787909E-12  1.24451196E-12
  1.17567090E-03  2.75060494E-07  9.01917419E-05 -2.14731778E-03  1.60314481E-03
 -5.95692306E-04 -1.30959246E-03 -3.19462981E-11  8.99283898E-05 -2.14882214E-03
  1.60424587E-03 -5.95894826E-04  1.31037688E-03 -3.07481995E-11 -9.01544473E-05
  2.14665599E-03 -1.60271964E-03 -5.95502777E-04 -1.30921316E-03 -1.70465897E-11
 -8.98911564E-05  2.14815983E-03 -1.60382040E-03 -5.95705226E-04  1.30999736E-03
 -1.83422663E-11 -8.04884492E-02 -1.31053210E-01 -1.24517337E-02  1.29164331E-05
 -7.92405428E-10  3.64418079E-01 -1.41717532E-02  1.42000487E-05 -1.18906033E-09
  2.46774663E-01  3.04822568E-03  5.12689981E-06 -4.52686896E-10  7.22795301E-04
 -4.70336982E-03  9.61241935E-07 -2.17321133E-10 -4.82214467E-03 -8.11669726E-11
  5.86913677E-12 -3.15380723E-03 -5.58164999E-07 -8.04884445E-02 -1.31053201E-01
  1.24517378E-02 -1.29164937E-05  3.51896605E-10  3.64418059E-01  1.41717591E-02
 -1.42001176E-05  6.37502340E-10  2.46774645E-01 -3.04822080E-03 -5.12692915E-06
  1.52374943E-10  7.22786152E-04  4.70337425E-03 -9.61244544E-07  1.77556278E-10
 -4.82213791E-03 -1.10904083E-10 -6.25970019E-12 -3.15380504E-03 -5.58167468E-07
  7.07440771E-02  7.85965584E-02 -6.51702602E-03  4.40493639E-03  1.18499893E-02
  1.87421057E-10  7.07651799E-02  7.86145329E-02 -6.52056451E-03  4.40530394E-03
 -1.18525839E-02  1.76569338E-10  7.07440707E-02  7.85965605E-02 -6.51702595E-03
 -4.40493841E-03 -1.18499907E-02 -8.77855577E-11  7.07651737E-02  7.86145351E-02
 -6.52056446E-03 -4.40530596E-03  1.18525852E-02 -9.94068363E-11 -7.92918761E-02
 -1.29478327E-01 -4.08461011E-02  1.71391676E-05 -1.18620798E-09  3.64250801E-01
 -6.17755074E-02  2.03774229E-05 -1.78947112E-09  2.50103809E-01 -1.78936865E-02
  8.05818297E-06 -7.00153192E-10 -2.12511855E-02 -1.07984774E-02  4.00095381E-07
 -1.08255789E-10 -4.14517135E-03 -1.82512881E-11  8.36325185E-12 -1.00540206E-02
 -6.98553953E-07  7.92918795E-02  1.29478331E-01 -4.08461100E-02  1.71392422E-05
 -6.65916790E-10 -3.64250817E-01 -6.17755201E-02  2.03775106E-05 -1.08657695E-09
 -2.50103819E-01 -1.78936921E-02  8.05821529E-06 -3.94770025E-10  2.12511862E-02
 -1.07984793E-02  4.00099962E-07 -3.14240999E-11  4.14516555E-03  7.79746641E-11
  8.98103957E-12  1.00540185E-02  6.98559834E-07  7.98900250E-02  9.12394554E-02
 -3.25806676E-03  3.23169580E-03  1.25541738E-02  1.78547180E-10  7.99153695E-02
  9.12614520E-02 -3.26073153E-03  3.23207374E-03 -1.25569283E-02  1.66510248E-10
 -7.98900278E-02 -9.12394677E-02  3.25806674E-03  3.23169828E-03  1.25541768E-02
  7.42133751E-11 -7.99153725E-02 -9.12614644E-02  3.26073153E-03  3.23207622E-03
 -1.25569313E-02  8.70794659E-11  6.06702460E-06  1.02599366E-05  5.45578976E-06
  1.60022311E-01  6.73500369E-11 -3.06710507E-05  1.02223514E-05  2.30173207E-01
  9.54482210E-11 -3.60361670E-05  5.22242165E-06  1.33937747E-01  5.45186753E-11
  6.93056794E-06  3.88151332E-06  3.48933696E-03  4.47057995E-12 -3.31631507E-07
 -7.49623039E-12 -6.56063558E-10 -1.18755643E-06 -1.18807454E-02 -6.06704572E-06
 -1.02599723E-05  5.45578056E-06  1.60022212E-01 -7.22708493E-11  3.06711570E-05
  1.02223429E-05  2.30173071E-01 -1.02360414E-10  3.60363035E-05  5.22241868E-06
  1.33937673E-01 -5.84957845E-11 -6.93056345E-06  3.88151767E-06  3.48932946E-03
 -4.53626301E-12  3.31634372E-07 -7.84083993E-12  3.66719495E-10  1.18756510E-06
  1.18807420E-02 -1.04756103E-01 -1.37248670E-01 -9.73813376E-03 -7.66068546E-03
 -1.06956242E-02 -3.35679338E-10  1.04749775E-01  1.37230139E-01  9.73509531E-03
  7.65944976E-03 -1.06934283E-02  3.24888799E-10  1.04756037E-01  1.37248590E-01
  9.73813384E-03 -7.66068168E-03 -1.06956165E-02 -1.74322737E-10 -1.04749709E-01
 -1.37230059E-01 -9.73509539E-03  7.65944597E-03 -1.06934207E-02  1.85692171E-10
  4.60273614E-06  7.88870852E-06 -8.05127647E-07  1.63454043E-01  8.27185057E-11
 -2.39581125E-05  2.99481792E-07  2.32565315E-01  1.19706461E-10 -3.30790514E-05
  1.48795391E-07  1.38183016E-01  7.22514360E-11 -1.45809760E-06  1.28780372E-06
  1.13327538E-02  1.69118790E-12 -4.13957589E-07 -5.62088280E-12 -6.83953371E-10
 -1.93866959E-06 -1.70480263E-02  4.60276527E-06  7.88875790E-06  8.05104090E-07
 -1.63454130E-01  8.79380857E-11 -2.39582612E-05 -2.99529391E-07 -2.32565447E-01
  1.26949308E-10 -3.30792370E-05 -1.48822208E-07 -1.38183091E-01  7.65103168E-11
 -1.45807617E-06 -1.28781937E-06 -1.13327540E-02  1.95469662E-12 -4.13959753E-07
  6.13382598E-12 -4.02129197E-10 -1.93867491E-06 -1.70480397E-02 -1.08725090E-01
 -1.46646784E-01 -9.87050248E-03 -8.02073915E-03 -1.11516740E-02 -3.45676369E-10
  1.08725283E-01  1.46636902E-01  9.87014119E-03  8.01940187E-03 -1.11507267E-02
  3.35999506E-10 -1.08725148E-01 -1.46646871E-01 -9.87051774E-03  8.02074462E-03
  1.11516789E-02  1.81271409E-10  1.08725341E-01  1.46636989E-01  9.87015645E-03
 -8.01940734E-03  1.11507316E-02 -1.91574285E-10 -1.05368647E-02 -1.74212061E-02
  1.76658945E-01 -4.12366455E-06  4.43390972E-09  4.20185879E-02  2.81738591E-01
 -3.34308523E-06  6.33089342E-09  1.14802254E-01  2.18907472E-01  2.39858011E-06
  5.15752215E-09  3.48522144E-03 -4.15742041E-03  2.11041547E-06  1.43394576E-10
  4.78902209E-04 -3.92510621E-10 -7.14044058E-12  1.53209310E-02  1.49363453E-07
 -1.05368710E-02 -1.74212158E-02 -1.76658943E-01  4.12367446E-06 -2.76330506E-09
  4.20186136E-02 -2.81738584E-01  3.34308682E-06 -3.73512950E-09  1.14802285E-01
 -2.18907486E-01 -2.39859362E-06 -3.29729574E-09  3.48522551E-03  4.15741738E-03
 -2.11041661E-06 -1.04262583E-10  4.78906285E-04 -3.38699938E-10  7.63608008E-12
  1.53209270E-02  1.49365173E-07 -5.12080497E-02 -8.36905319E-02 -2.25410204E-02
  6.76133600E-03 -7.97372139E-03  1.22831401E-10 -5.12043383E-02 -8.36848401E-02
 -2.25426829E-02  6.76283089E-03  7.97334917E-03  1.30523684E-10 -5.12080515E-02
 -8.36905358E-02 -2.25410212E-02 -6.76133437E-03  7.97372187E-03 -1.05240257E-10
 -5.12043400E-02 -8.36848440E-02 -2.25426837E-02 -6.76282926E-03 -7.97334964E-03
 -9.71146459E-11 -1.50738090E-09 -2.58960446E-09  8.50910431E-10 -1.00918348E-10
  1.90359456E-01  8.34501327E-09  5.42452555E-10 -1.58008656E-10  3.03439748E-01
  9.70766352E-09  1.42779290E-09 -8.67117360E-11  3.00317938E-01 -3.03537826E-09
 -1.11925055E-09  2.52175133E-11  1.30110778E-02  2.66824005E-10  6.98453014E-03
  1.04908487E-06 -1.05860507E-11  1.96484205E-12  1.16013121E-09  1.99127239E-09
  2.87474238E-09  1.06351688E-10  1.90359357E-01 -6.29137205E-09  3.75628674E-09
  1.67072045E-10  3.03439604E-01 -7.95281139E-09  4.27499243E-09  9.55220333E-11
  3.00317797E-01  2.80376121E-09 -9.32930852E-10 -2.49853465E-11  1.30110751E-02
 -1.87904865E-10 -6.98453096E-03 -1.04909050E-06  4.76523068E-11  1.82381869E-12
 -1.84123797E-09 -2.75019647E-09 -2.52967816E-10 -1.24186301E-10 -3.29494228E-10
  1.29389052E-02 -1.86153400E-09 -2.82668111E-09 -3.52998241E-10 -1.26970379E-10
  3.23479713E-10  1.29402551E-02  1.50484389E-09  2.52746242E-09  3.62950901E-10
  4.21660950E-11 -3.10602405E-10  1.29388964E-02  1.48425890E-09  2.45065905E-09
  2.61500534E-10  4.49819115E-11  3.17490240E-10  1.29402464E-02 -9.97159406E-10
 -1.74451574E-09 -3.29904848E-09 -8.55102695E-11  2.06290054E-01  5.79886034E-09
 -6.07209448E-09 -1.35398801E-10  3.26110078E-01  8.00692366E-09 -5.78004671E-09
 -1.59497747E-10  3.39330175E-01 -1.73044146E-10 -9.37808486E-10 -2.24449837E-11
  4.52070771E-02  1.67490717E-10 -1.22980894E-02  1.04632619E-06  4.83413287E-11
 -2.04504901E-12 -2.23112359E-10 -4.27947737E-10  3.91307921E-09 -9.17366411E-11
 -2.06290127E-01  1.69016626E-09  6.87608547E-09 -1.45359064E-10 -3.26110209E-01
  1.77812247E-09  6.35428654E-09 -1.69133446E-10 -3.39330309E-01  9.04167729E-10
  4.92049765E-10 -2.34811969E-11 -4.52070950E-02 -1.52935967E-11 -1.22980904E-02
  1.04633245E-06 -1.35740713E-11  1.63184570E-12 -1.48182981E-09 -2.66382428E-09
 -1.24175754E-09 -3.29213223E-10 -2.72297976E-10  1.66110044E-02 -1.45948161E-09
 -2.62202779E-09 -1.20171072E-09 -3.30329719E-10  2.55581194E-10  1.66122120E-02
 -3.07503048E-10 -5.83847857E-10 -2.65432980E-10  3.14063485E-10  8.65580799E-11
 -1.66110088E-02 -3.29693231E-10 -6.24387667E-10 -3.04159375E-10  3.12924011E-10
 -1.04257711E-10 -1.66122163E-02 -4.30802441E-02 -7.26440683E-02  2.03012234E-01
 -9.46845903E-06 -2.58739043E-09  2.17833056E-01  3.03531831E-01 -1.06710662E-05
 -5.07400475E-09  4.25559991E-01  4.08254087E-01 -1.95616882E-05 -6.53117868E-09
  2.72900329E-01  1.72408859E-01 -4.81588677E-06 -1.09262743E-09  1.40684819E-02
 -4.52925883E-10 -3.94465272E-12 -1.66714046E-02 -6.41493100E-07  4.30802500E-02
  7.26440772E-02  2.03012218E-01 -9.46849992E-06 -1.25495897E-09 -2.17833081E-01
  3.03531802E-01 -1.06711086E-05 -2.81472888E-09 -4.25560040E-01  4.08254066E-01