Title Card Required                                                     
Force     UM062X                                                      6-311+G(d,p)        
Number of atoms                            I                6
Info1-9                                    I   N=           9
          15          15           0           0           0         100
           5          18        -502
Full Title                                 C   N=           2
Title Card Required     
Route                                      C   N=           4
#p UM062X/6-311+G** force int=superfine         
Charge                                     I                1
Multiplicity                               I                2
Number of electrons                        I               15
Number of alpha electrons                  I                8
Number of beta electrons                   I                7
Number of basis functions                  I               68
Number of independent functions            I               68
Number of point charges in /Mol/           I                0
Number of translation vectors              I                0
Atomic numbers                             I   N=           6
           6           6           1           1           1           1
Nuclear charges                            R   N=           6
  6.00000000E+00  6.00000000E+00  1.00000000E+00  1.00000000E+00  1.00000000E+00
  1.00000000E+00
Current cartesian coordinates              R   N=          18
 -2.24374936E-21  1.26903991E+00  2.46519033E-32 -1.55408827E-16 -1.26903991E+00
  2.46519033E-32  1.75521731E+00  2.33858143E+00  0.00000000E+00 -1.75491306E+00
  2.33881954E+00  0.00000000E+00 -1.75521731E+00 -2.33858143E+00  4.93038066E-32
  1.75491306E+00 -2.33881954E+00  4.93038066E-32
Number of symbols in /Mol/                 I                0
Force Field                                I                0
Atom Types                                 C   N=           6
                                                            
            
Int Atom Types                             I   N=           6
           0           0           0           0           0           0
MM charges                                 R   N=           6
  0.00000000E+00  0.00000000E+00  0.00000000E+00  0.00000000E+00  0.00000000E+00
  0.00000000E+00
Integer atomic weights                     I   N=           6
          12          12           1           1           1           1
Real atomic weights                        R   N=           6
  1.20000000E+01  1.20000000E+01  1.00782504E+00  1.00782504E+00  1.00782504E+00
  1.00782504E+00
Atom fragment info                         I   N=           6
           0           0           0           0           0           0
Atom residue num                           I   N=           6
           0           0           0           0           0           0
Nuclear spins                              I   N=           6
           0           0           1           1           1           1
Nuclear ZEff                               R   N=           6
 -3.60000000E+00 -3.60000000E+00 -1.00000000E+00 -1.00000000E+00 -1.00000000E+00
 -1.00000000E+00
Nuclear ZNuc                               R   N=           6
  6.00000000E+00  6.00000000E+00  1.00000000E+00  1.00000000E+00  1.00000000E+00
  1.00000000E+00
Nuclear QMom                               R   N=           6
  0.00000000E+00  0.00000000E+00  0.00000000E+00  0.00000000E+00  0.00000000E+00
  0.00000000E+00
Nuclear GFac                               R   N=           6
  0.00000000E+00  0.00000000E+00  2.79284600E+00  2.79284600E+00  2.79284600E+00
  2.79284600E+00
MicOpt                                     I   N=           6
          -1          -1          -1          -1          -1          -1
Number of residues                         I                0
Number of secondary structures             I                0
SymInf integers                            I   N=          26
           2           4           1           1           1          -1
          -1           1           1           1          -1          -1
          -1          -1           0           0           0           0
           0           0           0           0           0           0
           0           0
RotTr to input orientation                 R   N=          12
  1.08457781E-16 -1.00000000E+00 -2.49019571E-21 -1.00000000E+00 -1.08457192E-16
 -1.22464680E-16  1.22464680E-16  2.49019571E-21 -1.00000000E+00  2.77555756E-17
  0.00000000E+00  0.00000000E+00
Number of contracted shells                I               28
Number of primitive shells                 I               50
Pure/Cartesian d shells                    I                0
Pure/Cartesian f shells                    I                0
Highest angular momentum                   I                2
Largest degree of contraction              I                6
Shell types                                I   N=          28
           0          -1          -1          -1          -1          -2
           0          -1          -1          -1          -1          -2
           0           0           0           1           0           0
           0           1           0           0           0           1
           0           0           0           1
Number of primitives per shell             I   N=          28
           6           3           1           1           1           1
           6           3           1           1           1           1
           3           1           1           1           3           1
           1           1           3           1           1           1
           3           1           1           1
Shell to atom map                          I   N=          28
           1           1           1           1           1           1
           2           2           2           2           2           2
           3           3           3           3           4           4
           4           4           5           5           5           5
           6           6           6           6
Primitive exponents                        R   N=          50
  4.56324000E+03  6.82024000E+02  1.54973000E+02  4.44553000E+01  1.30290000E+01
  1.82773000E+00  2.09642000E+01  4.80331000E+00  1.45933000E+00  4.83456000E-01
  1.45585000E-01  4.38000000E-02  6.26000000E-01  4.56324000E+03  6.82024000E+02
  1.54973000E+02  4.44553000E+01  1.30290000E+01  1.82773000E+00  2.09642000E+01
  4.80331000E+00  1.45933000E+00  4.83456000E-01  1.45585000E-01  4.38000000E-02
  6.26000000E-01  3.38650000E+01  5.09479000E+00  1.15879000E+00  3.25840000E-01
  1.02741000E-01  7.50000000E-01  3.38650000E+01  5.09479000E+00  1.15879000E+00
  3.25840000E-01  1.02741000E-01  7.50000000E-01  3.38650000E+01  5.09479000E+00
  1.15879000E+00  3.25840000E-01  1.02741000E-01  7.50000000E-01  3.38650000E+01
  5.09479000E+00  1.15879000E+00  3.25840000E-01  1.02741000E-01  7.50000000E-01
Contraction coefficients                   R   N=          50
  1.96665025E-03  1.52306019E-02  7.61269097E-02  2.60801033E-01  6.16462078E-01
  2.21006028E-01  1.14660081E-01  9.19999648E-01 -3.03068213E-03  1.00000000E+00
  1.00000000E+00  1.00000000E+00  1.00000000E+00  1.96665025E-03  1.52306019E-02
  7.61269097E-02  2.60801033E-01  6.16462078E-01  2.21006028E-01  1.14660081E-01
  9.19999648E-01 -3.03068213E-03  1.00000000E+00  1.00000000E+00  1.00000000E+00
  1.00000000E+00  2.54938145E-02  1.90373109E-01  8.52161486E-01  1.00000000E+00
  1.00000000E+00  1.00000000E+00  2.54938145E-02  1.90373109E-01  8.52161486E-01
  1.00000000E+00  1.00000000E+00  1.00000000E+00  2.54938145E-02  1.90373109E-01
  8.52161486E-01  1.00000000E+00  1.00000000E+00  1.00000000E+00  2.54938145E-02
  1.90373109E-01  8.52161486E-01  1.00000000E+00  1.00000000E+00  1.00000000E+00
P(S=P) Contraction coefficients            R   N=          50
  0.00000000E+00  0.00000000E+00  0.00000000E+00  0.00000000E+00  0.00000000E+00
  0.00000000E+00  4.02486927E-02  2.37593957E-01  8.15853851E-01  1.00000000E+00
  1.00000000E+00  1.00000000E+00  0.00000000E+00  0.00000000E+00  0.00000000E+00
  0.00000000E+00  0.00000000E+00  0.00000000E+00  0.00000000E+00  4.02486927E-02
  2.37593957E-01  8.15853851E-01  1.00000000E+00  1.00000000E+00  1.00000000E+00
  0.00000000E+00  0.00000000E+00  0.00000000E+00  0.00000000E+00  0.00000000E+00
  0.00000000E+00  0.00000000E+00  0.00000000E+00  0.00000000E+00  0.00000000E+00
  0.00000000E+00  0.00000000E+00  0.00000000E+00  0.00000000E+00  0.00000000E+00
  0.00000000E+00  0.00000000E+00  0.00000000E+00  0.00000000E+00  0.00000000E+00
  0.00000000E+00  0.00000000E+00  0.00000000E+00  0.00000000E+00  0.00000000E+00
Coordinates of each shell                  R   N=          84
 -1.49583291E-21  1.26903991E+00 -1.56421246E-32 -1.49583291E-21  1.26903991E+00
 -1.56421246E-32 -1.49583291E-21  1.26903991E+00 -1.56421246E-32 -1.49583291E-21
  1.26903991E+00 -1.56421246E-32 -1.49583291E-21  1.26903991E+00 -1.56421246E-32
 -1.49583291E-21  1.26903991E+00 -1.56421246E-32 -1.55409575E-16 -1.26903991E+00
  4.69263737E-32 -1.55409575E-16 -1.26903991E+00  4.69263737E-32 -1.55409575E-16
 -1.26903991E+00  4.69263737E-32 -1.55409575E-16 -1.26903991E+00  4.69263737E-32
 -1.55409575E-16 -1.26903991E+00  4.69263737E-32 -1.55409575E-16 -1.26903991E+00
  4.69263737E-32  1.75521731E+00  2.33858143E+00 -2.88252417E-32  1.75521731E+00
  2.33858143E+00 -2.88252417E-32  1.75521731E+00  2.33858143E+00 -2.88252417E-32
  1.75521731E+00  2.33858143E+00 -2.88252417E-32 -1.75491306E+00  2.33881954E+00
 -2.88281765E-32 -1.75491306E+00  2.33881954E+00 -2.88281765E-32 -1.75491306E+00
  2.33881954E+00 -2.88281765E-32 -1.75491306E+00  2.33881954E+00 -2.88281765E-32
 -1.75521731E+00 -2.33858143E+00  8.64757250E-32 -1.75521731E+00 -2.33858143E+00
  8.64757250E-32 -1.75521731E+00 -2.33858143E+00  8.64757250E-32 -1.75521731E+00
 -2.33858143E+00  8.64757250E-32  1.75491306E+00 -2.33881954E+00  8.64845296E-32
  1.75491306E+00 -2.33881954E+00  8.64845296E-32  1.75491306E+00 -2.33881954E+00
  8.64845296E-32  1.75491306E+00 -2.33881954E+00  8.64845296E-32
Num ILSW                                   I              100
ILSW                                       I   N=         100
           1           0           0           0           2           0
           0           0           0           0        4336          -1
           7           0           0           0           2           0
           0           0           0           0           1           0
           1           0           0           0           0           0
           0           0      100000           0          -1           0
           0           0           0           0           0           0
           0           0           0           1           0           0
           0 -2000000000           1           0           0           0
           0           0           4          52           0           0
           0           0          55           0           0           0
           0           0           0           6           0           1
           0           0           0           0           0           0
           0           0           0           0           0           0
           0           0           0           0           0           0
           0           0           0           0           0           0
           0           0           0           0
Num RLSW                                   I               52
RLSW                                       R   N=          52
  1.00000000E+00  1.00000000E+00  1.00000000E+00  1.00000000E+00  5.40000000E-01
  0.00000000E+00  0.00000000E+00  1.00000000E+00  0.00000000E+00  0.00000000E+00
  0.00000000E+00  0.00000000E+00  1.00000000E+00  0.00000000E+00  0.00000000E+00
  0.00000000E+00  0.00000000E+00  1.00000000E+00  0.00000000E+00  0.00000000E+00
  0.00000000E+00  0.00000000E+00  1.00000000E+00  0.00000000E+00  0.00000000E+00
  0.00000000E+00  0.00000000E+00  1.00000000E+00  0.00000000E+00  0.00000000E+00
  0.00000000E+00  0.00000000E+00  1.00000000E+00  0.00000000E+00  0.00000000E+00
  0.00000000E+00  0.00000000E+00  0.00000000E+00  1.00000000E+00  1.00000000E+00
  0.00000000E+00  1.00000000E+00  0.00000000E+00  0.00000000E+00  0.00000000E+00
  0.00000000E+00  0.00000000E+00  0.00000000E+00  0.00000000E+00  0.00000000E+00
  0.00000000E+00  0.00000000E+00
MxBond                                     I                3
NBond                                      I   N=           6
           3           3           1           1           1           1
IBond                                      I   N=          18
           2           3           4           1           5           6
           1           0           0           1           0           0
           2           0           0           2           0           0
RBond                                      R   N=          18
  2.00000000E+00  1.00000000E+00  1.00000000E+00  2.00000000E+00  1.00000000E+00
  1.00000000E+00  1.00000000E+00  0.00000000E+00  0.00000000E+00  1.00000000E+00
  0.00000000E+00  0.00000000E+00  1.00000000E+00  0.00000000E+00  0.00000000E+00
  1.00000000E+00  0.00000000E+00  0.00000000E+00
Virial Ratio                               R      2.001773201803827E+00
SCF Energy                                 R     -7.817944124798785E+01
Total Energy                               R     -7.817944124798785E+01
S**2                                       R      7.525690409582131E-01
S**2 after annihilation                    R      7.500052969951284E-01
RMS Force                                  R      2.513865856758232E-02
RMS Density                                R      1.663414662773979E-09
Job Status                                 I                1
Nuclear derivative order                   I                1
External E-field                           R   N=          35
  0.00000000E+00  0.00000000E+00  0.00000000E+00  0.00000000E+00  0.00000000E+00
  0.00000000E+00  0.00000000E+00  0.00000000E+00  0.00000000E+00  0.00000000E+00
  0.00000000E+00  0.00000000E+00  0.00000000E+00  0.00000000E+00  0.00000000E+00
  0.00000000E+00  0.00000000E+00  0.00000000E+00  0.00000000E+00  0.00000000E+00
  0.00000000E+00  0.00000000E+00  0.00000000E+00  0.00000000E+00  0.00000000E+00
  0.00000000E+00  0.00000000E+00  0.00000000E+00  0.00000000E+00  0.00000000E+00
  0.00000000E+00  0.00000000E+00  0.00000000E+00  0.00000000E+00  0.00000000E+00
IOpCl                                      I                1
IROHF                                      I                0
Alpha Orbital Energies                     R   N=          68
 -1.08908853E+01 -1.08897647E+01 -1.20820650E+00 -9.73765621E-01 -8.56603401E-01
 -8.08861709E-01 -7.19140371E-01 -6.85912297E-01 -2.81386138E-01 -1.47449163E-01
 -1.28397362E-01 -1.25159427E-01 -9.95210713E-02 -7.86171029E-02 -6.77896082E-02
 -4.88451222E-02 -4.39261643E-02 -2.74127898E-02 -3.52349358E-03  2.52783941E-02
  1.02639226E-01  1.11209281E-01  2.08044547E-01  2.24817172E-01  2.72130195E-01
  3.06733478E-01  3.06984470E-01  3.80877531E-01  3.91700830E-01  4.60867697E-01
  4.71780182E-01  4.92206051E-01  5.67082673E-01  6.17855071E-01  7.34391418E-01
  8.13961738E-01  8.68038888E-01  1.11151929E+00  1.17093657E+00  1.20163029E+00
  1.32738294E+00  1.33308022E+00  1.36979343E+00  1.37961672E+00  1.50757914E+00
  1.52931644E+00  1.70923081E+00  1.77885041E+00  1.79276861E+00  1.86856870E+00
  1.88797890E+00  1.94851598E+00  2.10739898E+00  2.19217275E+00  2.28838435E+00
  2.32126953E+00  2.40505342E+00  2.43560607E+00  2.44128591E+00  2.53553544E+00
  2.58728515E+00  2.84244902E+00  3.11741152E+00  3.38049063E+00  3.55607710E+00
  3.82071950E+00  2.34848242E+01  2.39484100E+01
Beta Orbital Energies                      R   N=          68
 -1.08885139E+01 -1.08875422E+01 -1.16669106E+00 -9.54814675E-01 -8.44506666E-01
 -7.99667644E-01 -7.16110278E-01 -4.33000930E-01 -2.13559286E-01 -1.64788660E-01
 -1.28776808E-01 -1.24913761E-01 -1.05337954E-01 -8.76425174E-02 -6.83762332E-02
 -4.80329522E-02 -3.47189151E-02 -2.28648087E-02 -6.33793828E-03  2.65455548E-02
  1.13998624E-01  1.15769319E-01  2.00677743E-01  2.18787399E-01  2.86422955E-01
  2.89930144E-01  3.14959370E-01  3.74892068E-01  4.02265047E-01  4.70878347E-01
  4.89599666E-01  5.06883788E-01  5.35922348E-01  6.13238082E-01  7.69892025E-01
  8.50581951E-01  8.91048857E-01  1.15359349E+00  1.18678456E+00  1.21000457E+00
  1.35702852E+00  1.36053631E+00  1.38265564E+00  1.38719287E+00  1.52355899E+00
  1.55085704E+00  1.73259797E+00  1.79362591E+00  1.82398442E+00  1.89025551E+00
  1.90402518E+00  1.98939188E+00  2.13917048E+00  2.22086967E+00  2.29782623E+00
  2.32698792E+00  2.41395688E+00  2.45626709E+00  2.47392190E+00  2.56009132E+00
  2.63357763E+00  2.87974262E+00  3.14861863E+00  3.42679957E+00  3.60193370E+00
  3.87297962E+00  2.34964473E+01  2.39660580E+01
Alpha MO coefficients                      R   N=        4624
  3.98853839E-01  3.27942208E-01  2.50700624E-08 -8.86242301E-04  0.00000000E+00
  8.88338190E-03 -6.56901612E-07  1.82005318E-03  0.00000000E+00 -2.34699134E-03
 -5.31589672E-07  1.24165422E-04  0.00000000E+00 -6.31781814E-04  4.47072630E-07
 -7.13225600E-04  0.00000000E+00 -6.72095287E-04  0.00000000E+00  0.00000000E+00
  7.46316673E-04 -6.76843379E-07  3.98853839E-01  3.27942208E-01 -2.50700624E-08
  8.86242301E-04  0.00000000E+00  8.88338190E-03  6.56901612E-07 -1.82005318E-03
  0.00000000E+00 -2.34699134E-03  5.31589672E-07 -1.24165422E-04  0.00000000E+00
 -6.31781814E-04 -4.47072630E-07  7.13225600E-04  0.00000000E+00 -6.72095287E-04
  0.00000000E+00  0.00000000E+00  7.46316673E-04 -6.76843379E-07  1.75032040E-04
 -2.38422131E-03  1.62692369E-03  1.27462438E-03  7.06689577E-04  0.00000000E+00
  1.74857397E-04 -2.38616645E-03  1.62781171E-03 -1.27519631E-03  7.07319749E-04
  0.00000000E+00  1.75032040E-04 -2.38422131E-03  1.62692369E-03 -1.27462438E-03
 -7.06689577E-04  0.00000000E+00  1.74857397E-04 -2.38616645E-03  1.62781171E-03
  1.27519631E-03 -7.07319749E-04  0.00000000E+00  3.99001454E-01  3.27795714E-01
  3.35760688E-08  3.03756651E-04  0.00000000E+00  9.39391987E-03 -4.48374369E-07
 -3.25557374E-03  0.00000000E+00 -2.95550765E-03  5.61088642E-08  1.11012223E-03
  0.00000000E+00  3.36396521E-03  4.64615491E-08 -1.21289130E-03  0.00000000E+00
 -1.44728844E-03  0.00000000E+00  0.00000000E+00 -1.71780409E-03 -2.80353024E-07
 -3.99001454E-01 -3.27795714E-01  3.35760688E-08  3.03756651E-04  0.00000000E+00
 -9.39391987E-03 -4.48374369E-07 -3.25557374E-03  0.00000000E+00  2.95550765E-03
  5.61088642E-08  1.11012223E-03  0.00000000E+00 -3.36396521E-03  4.64615491E-08
 -1.21289130E-03  0.00000000E+00  1.44728844E-03  0.00000000E+00  0.00000000E+00
  1.71780409E-03  2.80353024E-07  3.89764271E-04 -1.08750009E-03  7.58940939E-04
  6.60578367E-04  2.28654220E-04  0.00000000E+00  3.89631315E-04 -1.08826225E-03
  7.59409284E-04 -6.61020620E-04  2.28876585E-04  0.00000000E+00 -3.89764271E-04
  1.08750009E-03 -7.58940939E-04  6.60578367E-04  2.28654220E-04  0.00000000E+00
 -3.89631315E-04  1.08826225E-03 -7.59409284E-04 -6.61020620E-04  2.28876585E-04
  0.00000000E+00 -8.70320890E-02 -1.40700971E-01 -1.71417290E-06 -6.11070704E-02
  0.00000000E+00  3.72496631E-01 -2.12468413E-06 -8.66408383E-02  0.00000000E+00
  1.87973171E-01 -7.65453747E-08 -2.15373829E-02  0.00000000E+00  2.12489623E-04
 -9.74386649E-07  1.12084907E-02  0.00000000E+00 -6.42323280E-03  0.00000000E+00
  0.00000000E+00 -1.23919563E-02 -1.50248158E-06 -8.70320890E-02 -1.40700971E-01
  1.71417290E-06  6.11070704E-02  0.00000000E+00  3.72496631E-01  2.12468413E-06
  8.66408383E-02  0.00000000E+00  1.87973171E-01  7.65453747E-08  2.15373829E-02
  0.00000000E+00  2.12489623E-04  9.74386649E-07 -1.12084907E-02  0.00000000E+00
 -6.42323280E-03  0.00000000E+00  0.00000000E+00 -1.23919563E-02 -1.50248158E-06
  4.57938907E-02  4.83902042E-02 -1.01106868E-02 -7.93069200E-03 -6.96965177E-03
  0.00000000E+00  4.57975623E-02  4.83929550E-02 -1.01129796E-02  7.92863880E-03
 -6.97098319E-03  0.00000000E+00  4.57938907E-02  4.83902042E-02 -1.01106868E-02
  7.93069200E-03  6.96965177E-03  0.00000000E+00  4.57975623E-02  4.83929550E-02
 -1.01129796E-02 -7.92863880E-03  6.97098319E-03  0.00000000E+00 -7.02107381E-02
 -1.15475903E-01 -1.50331675E-05  7.62875839E-02  0.00000000E+00  3.16977195E-01
 -1.93372080E-05  1.15484736E-01  0.00000000E+00  2.76456515E-01 -7.81145354E-06
  2.69312018E-02  0.00000000E+00 -9.34702673E-02 -2.51454017E-07  2.81254789E-02
  0.00000000E+00 -2.03222639E-04  0.00000000E+00  0.00000000E+00  1.21140142E-02
 -1.51643276E-06  7.02107381E-02  1.15475903E-01 -1.50331675E-05  7.62875839E-02
  0.00000000E+00 -3.16977195E-01 -1.93372080E-05  1.15484736E-01  0.00000000E+00
 -2.76456515E-01 -7.81145354E-06  2.69312018E-02  0.00000000E+00  9.34702673E-02
 -2.51454017E-07  2.81254789E-02  0.00000000E+00  2.03222639E-04  0.00000000E+00
  0.00000000E+00 -1.21140142E-02  1.51643276E-06  8.74382973E-02  1.04027834E-01
 -2.61662906E-03 -1.35911916E-02 -5.20335773E-03  0.00000000E+00  8.74681445E-02
  1.04059430E-01 -2.61920626E-03  1.35937145E-02 -5.20811023E-03  0.00000000E+00
 -8.74382973E-02 -1.04027834E-01  2.61662906E-03 -1.35911916E-02 -5.20335773E-03
  0.00000000E+00 -8.74681445E-02 -1.04059430E-01  2.61920626E-03  1.35937145E-02
 -5.20811023E-03  0.00000000E+00 -5.95921009E-06 -1.00191732E-05  1.61363871E-01
  1.84236169E-06  0.00000000E+00  2.83181764E-05  2.41652796E-01  8.55252404E-06
  0.00000000E+00  4.22096608E-05  1.37334898E-01 -4.12166711E-06  0.00000000E+00
  1.51777863E-05  4.40738967E-03 -3.79457369E-06  0.00000000E+00 -1.27582783E-07
  0.00000000E+00  0.00000000E+00  4.26921749E-06 -8.00001398E-03  5.95921009E-06
  1.00191732E-05  1.61363871E-01  1.84236169E-06  0.00000000E+00 -2.83181764E-05
  2.41652796E-01  8.55252404E-06  0.00000000E+00 -4.22096608E-05  1.37334898E-01
 -4.12166711E-06  0.00000000E+00 -1.51777863E-05  4.40738967E-03 -3.79457369E-06
  0.00000000E+00  1.27582783E-07  0.00000000E+00  0.00000000E+00 -4.26921749E-06
  8.00001398E-03  9.26794234E-02  1.15595812E-01 -4.94158129E-03 -9.52595471E-03
 -9.70394155E-03  0.00000000E+00 -9.26611157E-02 -1.15567780E-01  4.94343800E-03
 -9.52222909E-03  9.70555805E-03  0.00000000E+00 -9.26794234E-02 -1.15595812E-01
  4.94158129E-03 -9.52595471E-03 -9.70394155E-03  0.00000000E+00  9.26611157E-02
  1.15567780E-01 -4.94343800E-03 -9.52222909E-03  9.70555805E-03  0.00000000E+00
 -2.10733271E-03 -3.57192185E-03 -3.36702077E-05  1.96703279E-01  0.00000000E+00
  6.54291670E-03 -4.48153222E-05  2.85878333E-01  0.00000000E+00  6.98690240E-02
 -3.74147797E-05  1.29652841E-01  0.00000000E+00  2.94106870E-03 -9.79997492E-06
 -8.77748145E-03  0.00000000E+00  1.61274073E-03  0.00000000E+00  0.00000000E+00
  2.23368511E-02 -8.15182326E-06 -2.10733271E-03 -3.57192185E-03  3.36702077E-05
 -1.96703279E-01  0.00000000E+00  6.54291670E-03  4.48153222E-05 -2.85878333E-01
  0.00000000E+00  6.98690240E-02  3.74147797E-05 -1.29652841E-01  0.00000000E+00
  2.94106870E-03  9.79997492E-06  8.77748145E-03  0.00000000E+00  1.61274073E-03
  0.00000000E+00  0.00000000E+00  2.23368511E-02 -8.15182326E-06  7.82803236E-02
  1.05790276E-01  1.63622017E-02 -1.18090079E-02  1.68991834E-03  0.00000000E+00
  7.83452877E-02  1.05869780E-01  1.63556303E-02  1.18153375E-02  1.68242670E-03
  0.00000000E+00  7.82803236E-02  1.05790276E-01  1.63622017E-02  1.18090079E-02
 -1.68991834E-03  0.00000000E+00  7.83452877E-02  1.05869780E-01  1.63556303E-02
 -1.18153375E-02 -1.68242670E-03  0.00000000E+00  1.43481534E-06  2.29145144E-06
  1.55721002E-01  4.21151268E-05  0.00000000E+00 -8.74297301E-06  2.35767683E-01
  6.41922227E-05  0.00000000E+00  1.14893125E-05  1.91699436E-01  2.93525875E-05
  0.00000000E+00  1.71081807E-07  1.83209876E-02 -4.89808906E-06  0.00000000E+00
  7.32222906E-08  0.00000000E+00  0.00000000E+00  9.09709605E-06  3.28069473E-02
  1.43481534E-06  2.29145144E-06 -1.55721002E-01 -4.21151268E-05  0.00000000E+00
 -8.74297301E-06 -2.35767683E-01 -6.41922227E-05  0.00000000E+00  1.14893125E-05
 -1.91699436E-01 -2.93525875E-05  0.00000000E+00  1.71081807E-07 -1.83209876E-02
  4.89808906E-06  0.00000000E+00  7.32222906E-08  0.00000000E+00  0.00000000E+00
  9.09709605E-06  3.28069473E-02  1.15067761E-01  1.57167199E-01  2.19007898E-02
 -5.71808833E-03 -8.92487346E-03  0.00000000E+00 -1.15027613E-01 -1.57100248E-01
 -2.18773288E-02 -5.70889055E-03  8.92754596E-03  0.00000000E+00  1.15067761E-01
  1.57167199E-01  2.19007898E-02  5.71808833E-03  8.92487346E-03  0.00000000E+00
 -1.15027613E-01 -1.57100248E-01 -2.18773288E-02  5.70889055E-03 -8.92754596E-03
  0.00000000E+00  0.00000000E+00  0.00000000E+00  0.00000000E+00  0.00000000E+00
  1.89122981E-01  0.00000000E+00  0.00000000E+00  0.00000000E+00  3.17162645E-01
  0.00000000E+00  0.00000000E+00  0.00000000E+00  2.23776826E-01  0.00000000E+00
  0.00000000E+00  0.00000000E+00 -6.07141935E-03  0.00000000E+00 -1.75305987E-07
 -3.30016593E-02  0.00000000E+00  0.00000000E+00  0.00000000E+00  0.00000000E+00
  0.00000000E+00  0.00000000E+00  1.89122981E-01  0.00000000E+00  0.00000000E+00
  0.00000000E+00  3.17162645E-01  0.00000000E+00  0.00000000E+00  0.00000000E+00
  2.23776826E-01  0.00000000E+00  0.00000000E+00  0.00000000E+00 -6.07141935E-03
  0.00000000E+00  1.75305987E-07  3.30016593E-02  0.00000000E+00  0.00000000E+00
  0.00000000E+00  0.00000000E+00  0.00000000E+00  0.00000000E+00  0.00000000E+00
  9.42941689E-03  0.00000000E+00  0.00000000E+00  0.00000000E+00  0.00000000E+00
  0.00000000E+00  9.43036460E-03  0.00000000E+00  0.00000000E+00  0.00000000E+00
  0.00000000E+00  0.00000000E+00  9.42941689E-03  0.00000000E+00  0.00000000E+00
  0.00000000E+00  0.00000000E+00  0.00000000E+00  9.43036460E-03  0.00000000E+00
  0.00000000E+00  0.00000000E+00  0.00000000E+00  2.03370753E-01  0.00000000E+00
  0.00000000E+00  0.00000000E+00  3.40785474E-01  0.00000000E+00  0.00000000E+00
  0.00000000E+00  4.88909863E-01  0.00000000E+00  0.00000000E+00  0.00000000E+00
  1.67608890E-01  0.00000000E+00 -1.63169733E-07  2.63629452E-02  0.00000000E+00
  0.00000000E+00  0.00000000E+00  0.00000000E+00  0.00000000E+00  0.00000000E+00
 -2.03370753E-01  0.00000000E+00  0.00000000E+00  0.00000000E+00 -3.40785474E-01
  0.00000000E+00  0.00000000E+00  0.00000000E+00 -4.88909863E-01  0.00000000E+00
  0.00000000E+00  0.00000000E+00 -1.67608890E-01  0.00000000E+00 -1.63169733E-07
  2.63629452E-02  0.00000000E+00  0.00000000E+00  0.00000000E+00  0.00000000E+00
  0.00000000E+00  0.00000000E+00  0.00000000E+00  1.89561286E-02  0.00000000E+00
  0.00000000E+00  0.00000000E+00  0.00000000E+00  0.00000000E+00  1.89585491E-02
  0.00000000E+00  0.00000000E+00  0.00000000E+00  0.00000000E+00  0.00000000E+00
 -1.89561286E-02  0.00000000E+00  0.00000000E+00  0.00000000E+00  0.00000000E+00
  0.00000000E+00 -1.89585491E-02  2.96100556E-02  5.13231115E-02 -1.16451060E-05
 -4.71102751E-02  0.00000000E+00 -1.63274581E-01 -1.16645146E-05 -7.22403057E-02
  0.00000000E+00 -6.46815663E-01 -8.83315112E-05 -2.22190825E-01  0.00000000E+00
  8.45755441E-01 -1.06174974E-04  1.42330662E-01  0.00000000E+00  1.02909596E-02
  0.00000000E+00  0.00000000E+00  5.48320077E-03  2.93041110E-06  2.96100556E-02
  5.13231115E-02  1.16451060E-05  4.71102751E-02  0.00000000E+00 -1.63274581E-01
  1.16645146E-05  7.22403057E-02  0.00000000E+00 -6.46815663E-01  8.83315112E-05
  2.22190825E-01  0.00000000E+00  8.45755441E-01  1.06174974E-04 -1.42330662E-01
  0.00000000E+00  1.02909596E-02  0.00000000E+00  0.00000000E+00  5.48320077E-03
  2.93041110E-06 -3.83562194E-03  9.38448017E-02 -1.05176439E-02  8.77795339E-03
 -8.23827678E-04  0.00000000E+00 -3.84151899E-03  9.38401418E-02 -1.06789909E-02
 -8.77525742E-03 -8.24267013E-04  0.00000000E+00 -3.83562194E-03  9.38448017E-02
 -1.05176439E-02 -8.77795339E-03  8.23827678E-04  0.00000000E+00 -3.84151899E-03
  9.38401418E-02 -1.06789909E-02  8.77525742E-03  8.24267013E-04  0.00000000E+00
  1.05532081E-05  1.83675103E-05 -9.19508401E-02 -1.04321602E-05  0.00000000E+00
 -5.54033603E-05 -1.49379489E-01 -1.11199465E-05  0.00000000E+00 -2.01262886E-04
 -3.25125554E-01 -1.37282573E-05  0.00000000E+00 -5.83613979E-04  5.23457276E-01
  3.31828662E-04  0.00000000E+00 -1.77328979E-06  0.00000000E+00  0.00000000E+00
 -6.73828936E-07  2.65547560E-02 -1.05532081E-05 -1.83675103E-05 -9.19508401E-02
 -1.04321602E-05  0.00000000E+00  5.54033603E-05 -1.49379489E-01 -1.11199465E-05
  0.00000000E+00  2.01262886E-04 -3.25125554E-01 -1.37282573E-05  0.00000000E+00
  5.83613979E-04  5.23457276E-01  3.31828662E-04  0.00000000E+00  1.77328979E-06
  0.00000000E+00  0.00000000E+00  6.73828936E-07 -2.65547560E-02  1.45806727E-02
  1.26652873E-01  1.25975977E-01  1.11484239E-02  6.83203647E-03  0.00000000E+00
 -1.45667063E-02 -1.26576207E-01 -1.25917738E-01  1.11425018E-02 -6.82680711E-03
  0.00000000E+00 -1.45806727E-02 -1.26652873E-01 -1.25975977E-01  1.11484239E-02
  6.83203647E-03  0.00000000E+00  1.45667063E-02  1.26576207E-01  1.25917738E-01
  1.11425018E-02 -6.82680711E-03  0.00000000E+00 -3.30154763E-02 -5.75353486E-02
 -2.40855793E-05  1.83115196E-02  0.00000000E+00  1.79723083E-01 -4.24157887E-05
  1.90698800E-02  0.00000000E+00  6.29433268E-01 -8.28687336E-05  1.69076870E-02
  0.00000000E+00  4.79334446E+00  1.60382822E-04 -1.93035961E+00  0.00000000E+00
  6.88302918E-03  0.00000000E+00  0.00000000E+00  1.09882128E-02  5.93869777E-06
  3.30154763E-02  5.75353486E-02 -2.40855793E-05  1.83115196E-02  0.00000000E+00
 -1.79723083E-01 -4.24157887E-05  1.90698800E-02  0.00000000E+00 -6.29433268E-01
 -8.28687336E-05  1.69076870E-02  0.00000000E+00 -4.79334446E+00  1.60382822E-04
 -1.93035961E+00  0.00000000E+00 -6.88302918E-03  0.00000000E+00  0.00000000E+00