 Entering Gaussian System, Link 0=g16
 Initial command:
 /home/szhao/Apps/g16/l1.exe "/home/szhao/tmp/Gau-159872.inp" -scrdir="/home/szhao/tmp/"
 Default is to use a total of  16 processors:
                               16 via shared-memory
                                1 via Linda
 Entering Link 1 = /home/szhao/Apps/g16/l1.exe PID=    159911.
  
 Copyright (c) 1988,1990,1992,1993,1995,1998,2003,2009,2016,
            Gaussian, Inc.  All Rights Reserved.
  
 This is part of the Gaussian(R) 16 program.  It is based on
 the Gaussian(R) 09 system (copyright 2009, Gaussian, Inc.),
 the Gaussian(R) 03 system (copyright 2003, Gaussian, Inc.),
 the Gaussian(R) 98 system (copyright 1998, Gaussian, Inc.),
 the Gaussian(R) 94 system (copyright 1995, Gaussian, Inc.),
 the Gaussian 92(TM) system (copyright 1992, Gaussian, Inc.),
 the Gaussian 90(TM) system (copyright 1990, Gaussian, Inc.),
 the Gaussian 88(TM) system (copyright 1988, Gaussian, Inc.),
 the Gaussian 86(TM) system (copyright 1986, Carnegie Mellon
 University), and the Gaussian 82(TM) system (copyright 1983,
 Carnegie Mellon University). Gaussian is a federally registered
 trademark of Gaussian, Inc.
  
 This software contains proprietary and confidential information,
 including trade secrets, belonging to Gaussian, Inc.
  
 This software is provided under written license and may be
 used, copied, transmitted, or stored only in accord with that
 written license.
  
 The following legend is applicable only to US Government
 contracts under FAR:
  
                    RESTRICTED RIGHTS LEGEND
  
 Use, reproduction and disclosure by the US Government is
 subject to restrictions as set forth in subparagraphs (a)
 and (c) of the Commercial Computer Software - Restricted
 Rights clause in FAR 52.227-19.
  
 Gaussian, Inc.
 340 Quinnipiac St., Bldg. 40, Wallingford CT 06492
  
  
 ---------------------------------------------------------------
 Warning -- This program may not be used in any manner that
 competes with the business of Gaussian, Inc. or will provide
 assistance to any competitor of Gaussian, Inc.  The licensee
 of this program is prohibited from giving any competitor of
 Gaussian, Inc. access to this program.  By using this program,
 the user acknowledges that Gaussian, Inc. is engaged in the
 business of creating and licensing software in the field of
 computational chemistry and represents and warrants to the
 licensee that it is not a competitor of Gaussian, Inc. and that
 it will not use this program in any manner prohibited above.
 ---------------------------------------------------------------
  

 Cite this work as:
 Gaussian 16, Revision A.03,
 M. J. Frisch, G. W. Trucks, H. B. Schlegel, G. E. Scuseria, 
 M. A. Robb, J. R. Cheeseman, G. Scalmani, V. Barone, 
 G. A. Petersson, H. Nakatsuji, X. Li, M. Caricato, A. V. Marenich, 
 J. Bloino, B. G. Janesko, R. Gomperts, B. Mennucci, H. P. Hratchian, 
 J. V. Ortiz, A. F. Izmaylov, J. L. Sonnenberg, D. Williams-Young, 
 F. Ding, F. Lipparini, F. Egidi, J. Goings, B. Peng, A. Petrone, 
 T. Henderson, D. Ranasinghe, V. G. Zakrzewski, J. Gao, N. Rega, 
 G. Zheng, W. Liang, M. Hada, M. Ehara, K. Toyota, R. Fukuda, 
 J. Hasegawa, M. Ishida, T. Nakajima, Y. Honda, O. Kitao, H. Nakai, 
 T. Vreven, K. Throssell, J. A. Montgomery, Jr., J. E. Peralta, 
 F. Ogliaro, M. J. Bearpark, J. J. Heyd, E. N. Brothers, K. N. Kudin, 
 V. N. Staroverov, T. A. Keith, R. Kobayashi, J. Normand, 
 K. Raghavachari, A. P. Rendell, J. C. Burant, S. S. Iyengar, 
 J. Tomasi, M. Cossi, J. M. Millam, M. Klene, C. Adamo, R. Cammi, 
 J. W. Ochterski, R. L. Martin, K. Morokuma, O. Farkas, 
 J. B. Foresman, and D. J. Fox, Gaussian, Inc., Wallingford CT, 2016.
 
 ******************************************
 Gaussian 16:  ES64L-G16RevA.03 25-Dec-2016
                21-Apr-2025 
 ******************************************
 %chk=opt.chk
 %mem=4GB
 %nprocshared=8
 Will use up to    8 processors via shared memory.
 --------------------------------------------
 #p opt UM062X/6-311+G** nosymm int=superfine
 --------------------------------------------
 1/18=20,19=15,26=5,38=1/1,3;
 2/9=110,12=2,15=1,17=6,18=5,40=1/2;
 3/5=4,6=6,7=111,11=2,25=1,30=1,71=1,74=-55,75=-7,116=2/1,2,3;
 4//1;
 5/5=2,38=5/2;
 6/7=2,8=2,9=2,10=2,28=1/1;
 7/30=1/1,2,3,16;
 1/18=20,19=15,26=5/3(2);
 2/9=110,15=1/2;
 99//99;
 2/9=110,15=1/2;
 3/5=4,6=6,7=111,11=2,25=1,30=1,71=1,74=-55,75=-7,116=2/1,2,3;
 4/5=5,16=3,69=1/1;
 5/5=2,38=5/2;
 7/30=1/1,2,3,16;
 1/18=20,19=15,26=5/3(-5);
 2/9=110,15=1/2;
 6/7=2,8=2,9=2,10=2,19=2,28=1/1;
 99/9=1/99;
 Leave Link    1 at Mon Apr 21 20:17:28 2025, MaxMem=   536870912 cpu:               3.5 elap:               0.3
 (Enter /home/szhao/Apps/g16/l101.exe)
 -------------------
 Title Card Required
 -------------------
 Symbolic Z-matrix:
 Charge =  0 Multiplicity = 1
 Si                   -1   -1.31982   0.        0. 
 Si                   -1    1.31982   0.        0. 
 H                    0     1.83181  -1.3902    0. 
 H                    0    -1.83171  -0.69502   1.20405 
 H                    0     1.8319    0.69519  -1.20386 
 H                    0     1.83171   0.69505   1.20403 
 H                    0    -1.83181   1.3902   -0.00012 
 H                    0    -1.83191  -0.69522  -1.20384 
 
 ITRead=  2  2  0  0  0  0  0  0
 MicOpt= -2 -2 -1 -1 -1 -1 -1 -1
 NAtoms=      8 NQM=        6 NQMF=       2 NMMI=      0 NMMIF=      0
                NMic=       0 NMicF=      0.
                    Isotopes and Nuclear Properties:
 (Nuclear quadrupole moments (NQMom) in fm**2, nuclear magnetic moments (NMagM)
  in nuclear magnetons)

  Atom         1           2           3           4           5           6           7           8
 IAtWgt=          28          28           1           1           1           1           1           1
 AtmWgt=  27.9769284  27.9769284   1.0078250   1.0078250   1.0078250   1.0078250   1.0078250   1.0078250
 NucSpn=           0           0           1           1           1           1           1           1
 AtZEff=  -0.0000000  -0.0000000  -0.0000000  -0.0000000  -0.0000000  -0.0000000  -0.0000000  -0.0000000
 NQMom=    0.0000000   0.0000000   0.0000000   0.0000000   0.0000000   0.0000000   0.0000000   0.0000000
 NMagM=    0.0000000   0.0000000   2.7928460   2.7928460   2.7928460   2.7928460   2.7928460   2.7928460
 AtZNuc=  14.0000000  14.0000000   1.0000000   1.0000000   1.0000000   1.0000000   1.0000000   1.0000000
 Leave Link  101 at Mon Apr 21 20:17:29 2025, MaxMem=   536870912 cpu:               2.8 elap:               0.4
 (Enter /home/szhao/Apps/g16/l103.exe)

 GradGradGradGradGradGradGradGradGradGradGradGradGradGradGradGradGradGrad
 Berny optimization.
 Initialization pass.
                           ----------------------------
                           !    Initial Parameters    !
                           ! (Angstroms and Degrees)  !
 --------------------------                            --------------------------
 ! Name  Definition              Value          Derivative Info.                !
 --------------------------------------------------------------------------------
 ! X1    R(1,-1)                -1.3198         Frozen                          !
 ! Y1    R(1,-2)                 0.0            Frozen                          !
 ! Z1    R(1,-3)                 0.0            Frozen                          !
 ! X2    R(2,-1)                 1.3198         Frozen                          !
 ! Y2    R(2,-2)                 0.0            Frozen                          !
 ! Z2    R(2,-3)                 0.0            Frozen                          !
 ! R1    R(1,4)                  1.4815         estimate D2E/DX2                !
 ! R2    R(1,7)                  1.4815         estimate D2E/DX2                !
 ! R3    R(1,8)                  1.4815         estimate D2E/DX2                !
 ! R4    R(2,3)                  1.4815         estimate D2E/DX2                !
 ! R5    R(2,5)                  1.4815         estimate D2E/DX2                !
 ! R6    R(2,6)                  1.4815         estimate D2E/DX2                !
 ! A1    A(2,1,4)              110.2137         estimate D2E/DX2                !
 ! A2    A(2,1,7)              110.2181         estimate D2E/DX2                !
 ! A3    A(2,1,8)              110.222          estimate D2E/DX2                !
 ! A4    A(4,1,7)              108.7164         estimate D2E/DX2                !
 ! A5    A(4,1,8)              108.7131         estimate D2E/DX2                !
 ! A6    A(7,1,8)              108.7133         estimate D2E/DX2                !
 ! A7    A(1,2,3)              110.2179         estimate D2E/DX2                !
 ! A8    A(1,2,5)              110.2218         estimate D2E/DX2                !
 ! A9    A(1,2,6)              110.214          estimate D2E/DX2                !
 ! A10   A(3,2,5)              108.7164         estimate D2E/DX2                !
 ! A11   A(3,2,6)              108.7135         estimate D2E/DX2                !
 ! A12   A(5,2,6)              108.7131         estimate D2E/DX2                !
 ! D1    D(4,1,2,3)             60.0049         estimate D2E/DX2                !
 ! D2    D(4,1,2,5)           -179.9901         estimate D2E/DX2                !
 ! D3    D(4,1,2,6)            -59.9916         estimate D2E/DX2                !
 ! D4    D(7,1,2,3)           -179.9951         estimate D2E/DX2                !
 ! D5    D(7,1,2,5)            -59.9901         estimate D2E/DX2                !
 ! D6    D(7,1,2,6)             60.0084         estimate D2E/DX2                !
 ! D7    D(8,1,2,3)            -59.9936         estimate D2E/DX2                !
 ! D8    D(8,1,2,5)             60.0114         estimate D2E/DX2                !
 ! D9    D(8,1,2,6)           -179.9901         estimate D2E/DX2                !
 --------------------------------------------------------------------------------
 Trust Radius=3.00D-01 FncErr=1.00D-07 GrdErr=1.00D-07 EigMax=2.50D+02 EigMin=1.00D-04
 Number of steps in this run=     43 maximum allowed number of steps=    100.
 GradGradGradGradGradGradGradGradGradGradGradGradGradGradGradGradGradGrad

 Leave Link  103 at Mon Apr 21 20:17:30 2025, MaxMem=   536870912 cpu:               0.4 elap:               0.2
 (Enter /home/szhao/Apps/g16/l202.exe)
                          Input orientation:                          
 ---------------------------------------------------------------------
 Center     Atomic      Atomic             Coordinates (Angstroms)
 Number     Number       Type             X           Y           Z
 ---------------------------------------------------------------------
      1         14           0       -1.319819    0.000000    0.000000
      2         14           0        1.319819    0.000000    0.000000
      3          1           0        1.831806   -1.390201    0.000000
      4          1           0       -1.831708   -0.695019    1.204047
      5          1           0        1.831903    0.695189   -1.203860
      6          1           0        1.831715    0.695048    1.204029
      7          1           0       -1.831812    1.390199   -0.000119
      8          1           0       -1.831908   -0.695219   -1.203842
 ---------------------------------------------------------------------
                    Distance matrix (angstroms):
                    1          2          3          4          5
     1  Si   0.000000
     2  Si   2.639638   0.000000
     3  H    3.444618   1.481482   0.000000
     4  H    1.481489   3.444547   3.918461   0.000000
     5  H    3.444694   1.481485   2.407931   4.599211   0.000000
     6  H    3.444552   1.481490   2.407893   3.918284   2.407889
     7  H    1.481483   3.444623   4.599208   2.407935   3.918524
     8  H    1.481486   3.444698   3.918550   2.407889   3.918768
                    6          7          8
     6  H    0.000000
     7  H    3.918499   0.000000
     8  H    4.599219   2.407887   0.000000
 Symmetry turned off by external request.
 Stoichiometry    H6Si2
 Framework group  C1[X(H6Si2)]
 Deg. of freedom    18
 Full point group                 C1      NOp   1
 Rotational constants (GHZ):          43.2437871           4.0887882           4.0887789
 Leave Link  202 at Mon Apr 21 20:17:30 2025, MaxMem=   536870912 cpu:               0.5 elap:               0.2
 (Enter /home/szhao/Apps/g16/l301.exe)
 Standard basis: 6-311+G(d,p) (5D, 7F)
 Ernie: Thresh=  0.10000D-02 Tol=  0.10000D-05 Strict=F.
    96 basis functions,   148 primitive gaussians,    98 cartesian basis functions
    17 alpha electrons       17 beta electrons
       nuclear repulsion energy        84.6755229893 Hartrees.
 IExCor= 4336 DFT=T Ex+Corr=M062X ExCW=0 ScaHFX=  0.540000
 ScaDFX=  1.000000  1.000000  1.000000  1.000000 ScalE2=  1.000000  1.000000
 IRadAn=      7 IRanWt=     -1 IRanGd=            0 ICorTp=0 IEmpDi=  4
 NAtoms=    8 NActive=    8 NUniq=    8 SFac= 1.00D+00 NAtFMM=   60 NAOKFM=F Big=F
 Integral buffers will be    131072 words long.
 Raffenetti 2 integral format.
 Two-electron integral symmetry is turned off.
 Leave Link  301 at Mon Apr 21 20:17:30 2025, MaxMem=   536870912 cpu:               1.3 elap:               0.2
 (Enter /home/szhao/Apps/g16/l302.exe)
 NPDir=0 NMtPBC=     1 NCelOv=     1 NCel=       1 NClECP=     1 NCelD=      1
         NCelK=      1 NCelE2=     1 NClLst=     1 CellRange=     0.0.
 One-electron integrals computed using PRISM.
 NBasis=    96 RedAO= T EigKep=  1.69D-03  NBF=    96
 NBsUse=    96 1.00D-06 EigRej= -1.00D+00 NBFU=    96
 Precomputing XC quadrature grid using
 IXCGrd= 4 IRadAn=           7 IRanWt=          -1 IRanGd=           0 AccXCQ= 0.00D+00.
 Generated NRdTot=       0 NPtTot=           0 NUsed=           0 NTot=          32
 NSgBfM=    96    96    96    96    96 MxSgAt=     8 MxSgA2=     8.
 Leave Link  302 at Mon Apr 21 20:17:31 2025, MaxMem=   536870912 cpu:               1.8 elap:               0.3
 (Enter /home/szhao/Apps/g16/l303.exe)
 DipDrv:  MaxL=1.
 Leave Link  303 at Mon Apr 21 20:17:32 2025, MaxMem=   536870912 cpu:               0.5 elap:               0.2
 (Enter /home/szhao/Apps/g16/l401.exe)
 ExpMin= 3.31D-02 ExpMax= 6.94D+04 ExpMxC= 2.33D+03 IAcc=3 IRadAn=         7 AccDes= 0.00D+00
 Harris functional with IExCor= 1009 and IRadAn=       7 diagonalized for initial guess.
 HarFok:  IExCor= 1009 AccDes= 0.00D+00 IRadAn=         7 IDoV= 1 UseB2=F ITyADJ=14
 ICtDFT=  3500011 ScaDFX=  1.000000  1.000000  1.000000  1.000000
 FoFCou: FMM=F IPFlag=           0 FMFlag=      100000 FMFlg1=           0
         NFxFlg=           0 DoJE=T BraDBF=F KetDBF=T FulRan=T
         wScrn=  0.000000 ICntrl=       500 IOpCl=  0 I1Cent=   200000004 NGrid=           0
         NMat0=    1 NMatS0=      1 NMatT0=    0 NMatD0=    1 NMtDS0=    0 NMtDT0=    0
 Symmetry not used in FoFCou.
 Harris En= -582.205283039604    
 JPrj=0 DoOrth=F DoCkMO=F.
 Initial guess <Sx>= 0.0000 <Sy>= 0.0000 <Sz>= 0.0000 <S**2>=-0.0000 S=-0.0000
 Leave Link  401 at Mon Apr 21 20:17:33 2025, MaxMem=   536870912 cpu:               4.9 elap:               0.7
 (Enter /home/szhao/Apps/g16/l502.exe)
 Keep R1 and R2 ints in memory in canonical form, NReq=29092346.
 FoFCou: FMM=F IPFlag=           0 FMFlag=           0 FMFlg1=           0
         NFxFlg=           0 DoJE=F BraDBF=F KetDBF=F FulRan=T
         wScrn=  0.000000 ICntrl=       600 IOpCl=  0 I1Cent=           0 NGrid=           0
         NMat0=    1 NMatS0=   4656 NMatT0=    0 NMatD0=    1 NMtDS0=    0 NMtDT0=    0
 Symmetry not used in FoFCou.
 Two-electron integral symmetry not used.
 UHF open shell SCF:
 Using DIIS extrapolation, IDIIS=  1040.
 NGot=   536870912 LenX=   515167018 LenY=   515156973
 Requested convergence on RMS density matrix=1.00D-08 within 128 cycles.
 Requested convergence on MAX density matrix=1.00D-06.
 Requested convergence on             energy=1.00D-06.
 No special actions if energy rises.

 Cycle   1  Pass 1  IDiag  1:
 E= -582.489723386806    
 DIIS: error= 2.75D-02 at cycle   1 NSaved=   1.
 NSaved= 1 IEnMin= 1 EnMin= -582.489723386806     IErMin= 1 ErrMin= 2.75D-02
 ErrMax= 2.75D-02  0.00D+00 EMaxC= 1.00D-01 BMatC= 1.88D-01 BMatP= 1.88D-01
 IDIUse=3 WtCom= 7.25D-01 WtEn= 2.75D-01
 Coeff-Com:  0.100D+01
 Coeff-En:   0.100D+01
 Coeff:      0.100D+01
 Gap=     0.343 Goal=   None    Shift=    0.000
 Gap=     0.343 Goal=   None    Shift=    0.000
 GapD=    0.343 DampG=1.000 DampE=0.500 DampFc=0.5000 IDamp=-1.
 Damping current iteration by 5.00D-01
 RMSDP=1.87D-03 MaxDP=2.15D-02              OVMax= 4.74D-02

 Cycle   2  Pass 1  IDiag  1:
 E= -582.501986498210     Delta-E=       -0.012263111404 Rises=F Damp=T
 DIIS: error= 1.39D-02 at cycle   2 NSaved=   2.
 NSaved= 2 IEnMin= 2 EnMin= -582.501986498210     IErMin= 2 ErrMin= 1.39D-02
 ErrMax= 1.39D-02  0.00D+00 EMaxC= 1.00D-01 BMatC= 3.93D-02 BMatP= 1.88D-01
 IDIUse=3 WtCom= 8.61D-01 WtEn= 1.39D-01
 Coeff-Com: -0.722D+00 0.172D+01
 Coeff-En:   0.000D+00 0.100D+01
 Coeff:     -0.621D+00 0.162D+01
 Gap=     0.319 Goal=   None    Shift=    0.000
 Gap=     0.319 Goal=   None    Shift=    0.000
 RMSDP=7.67D-04 MaxDP=8.75D-03 DE=-1.23D-02 OVMax= 1.49D-02

 Cycle   3  Pass 1  IDiag  1:
 E= -582.513227834169     Delta-E=       -0.011241335959 Rises=F Damp=F
 DIIS: error= 1.21D-03 at cycle   3 NSaved=   3.
 NSaved= 3 IEnMin= 3 EnMin= -582.513227834169     IErMin= 3 ErrMin= 1.21D-03
 ErrMax= 1.21D-03  0.00D+00 EMaxC= 1.00D-01 BMatC= 4.79D-04 BMatP= 3.93D-02
 IDIUse=3 WtCom= 9.88D-01 WtEn= 1.21D-02
 Coeff-Com: -0.156D+00 0.306D+00 0.850D+00
 Coeff-En:   0.000D+00 0.000D+00 0.100D+01
 Coeff:     -0.154D+00 0.303D+00 0.852D+00
 Gap=     0.323 Goal=   None    Shift=    0.000
 Gap=     0.323 Goal=   None    Shift=    0.000
 RMSDP=1.08D-04 MaxDP=2.64D-03 DE=-1.12D-02 OVMax= 4.29D-03

 Cycle   4  Pass 1  IDiag  1:
 E= -582.513314024003     Delta-E=       -0.000086189834 Rises=F Damp=F
 DIIS: error= 1.32D-04 at cycle   4 NSaved=   4.
 NSaved= 4 IEnMin= 4 EnMin= -582.513314024003     IErMin= 4 ErrMin= 1.32D-04
 ErrMax= 1.32D-04  0.00D+00 EMaxC= 1.00D-01 BMatC= 5.68D-06 BMatP= 4.79D-04
 IDIUse=3 WtCom= 9.99D-01 WtEn= 1.32D-03
 Coeff-Com: -0.164D-01 0.303D-01 0.152D+00 0.834D+00
 Coeff-En:   0.000D+00 0.000D+00 0.000D+00 0.100D+01
 Coeff:     -0.164D-01 0.302D-01 0.152D+00 0.834D+00
 Gap=     0.323 Goal=   None    Shift=    0.000
 Gap=     0.323 Goal=   None    Shift=    0.000
 RMSDP=1.90D-05 MaxDP=7.18D-04 DE=-8.62D-05 OVMax= 5.87D-04

 Cycle   5  Pass 1  IDiag  1:
 E= -582.513316234093     Delta-E=       -0.000002210090 Rises=F Damp=F
 DIIS: error= 2.54D-05 at cycle   5 NSaved=   5.
 NSaved= 5 IEnMin= 5 EnMin= -582.513316234093     IErMin= 5 ErrMin= 2.54D-05
 ErrMax= 2.54D-05  0.00D+00 EMaxC= 1.00D-01 BMatC= 1.96D-07 BMatP= 5.68D-06
 IDIUse=1 WtCom= 1.00D+00 WtEn= 0.00D+00
 Coeff-Com:  0.187D-02-0.376D-02-0.196D-01 0.434D-01 0.978D+00
 Coeff:      0.187D-02-0.376D-02-0.196D-01 0.434D-01 0.978D+00
 Gap=     0.323 Goal=   None    Shift=    0.000
 Gap=     0.323 Goal=   None    Shift=    0.000
 RMSDP=3.66D-06 MaxDP=5.99D-05 DE=-2.21D-06 OVMax= 1.32D-04

 Cycle   6  Pass 1  IDiag  1:
 E= -582.513316303151     Delta-E=       -0.000000069058 Rises=F Damp=F
 DIIS: error= 7.14D-06 at cycle   6 NSaved=   6.
 NSaved= 6 IEnMin= 6 EnMin= -582.513316303151     IErMin= 6 ErrMin= 7.14D-06
 ErrMax= 7.14D-06  0.00D+00 EMaxC= 1.00D-01 BMatC= 3.35D-09 BMatP= 1.96D-07
 IDIUse=1 WtCom= 1.00D+00 WtEn= 0.00D+00
 Coeff-Com:  0.489D-03-0.931D-03-0.366D-02-0.212D-01-0.747D-01 0.110D+01
 Coeff:      0.489D-03-0.931D-03-0.366D-02-0.212D-01-0.747D-01 0.110D+01
 Gap=     0.323 Goal=   None    Shift=    0.000
 Gap=     0.323 Goal=   None    Shift=    0.000
 RMSDP=1.13D-06 MaxDP=2.17D-05 DE=-6.91D-08 OVMax= 4.14D-05

 Cycle   7  Pass 1  IDiag  1:
 E= -582.513316305418     Delta-E=       -0.000000002268 Rises=F Damp=F
 DIIS: error= 9.57D-07 at cycle   7 NSaved=   7.
 NSaved= 7 IEnMin= 7 EnMin= -582.513316305418     IErMin= 7 ErrMin= 9.57D-07
 ErrMax= 9.57D-07  0.00D+00 EMaxC= 1.00D-01 BMatC= 2.18D-10 BMatP= 3.35D-09
 IDIUse=1 WtCom= 1.00D+00 WtEn= 0.00D+00
 Coeff-Com:  0.453D-04-0.797D-04-0.154D-03-0.613D-02-0.403D-01 0.239D+00
 Coeff-Com:  0.808D+00
 Coeff:      0.453D-04-0.797D-04-0.154D-03-0.613D-02-0.403D-01 0.239D+00
 Coeff:      0.808D+00
 Gap=     0.323 Goal=   None    Shift=    0.000
 Gap=     0.323 Goal=   None    Shift=    0.000
 RMSDP=9.71D-08 MaxDP=1.81D-06 DE=-2.27D-09 OVMax= 3.60D-06

 Cycle   8  Pass 1  IDiag  1:
 E= -582.513316305501     Delta-E=       -0.000000000083 Rises=F Damp=F
 DIIS: error= 9.58D-08 at cycle   8 NSaved=   8.
 NSaved= 8 IEnMin= 8 EnMin= -582.513316305501     IErMin= 8 ErrMin= 9.58D-08
 ErrMax= 9.58D-08  0.00D+00 EMaxC= 1.00D-01 BMatC= 1.93D-12 BMatP= 2.18D-10
 IDIUse=1 WtCom= 1.00D+00 WtEn= 0.00D+00
 Coeff-Com: -0.204D-04 0.368D-04 0.135D-03 0.149D-02 0.583D-02-0.552D-01
 Coeff-Com: -0.135D+00 0.118D+01
 Coeff:     -0.204D-04 0.368D-04 0.135D-03 0.149D-02 0.583D-02-0.552D-01
 Coeff:     -0.135D+00 0.118D+01
 Gap=     0.323 Goal=   None    Shift=    0.000
 Gap=     0.323 Goal=   None    Shift=    0.000
 RMSDP=3.68D-08 MaxDP=6.45D-07 DE=-8.28D-11 OVMax= 1.17D-06

 Cycle   9  Pass 1  IDiag  1:
 E= -582.513316305503     Delta-E=       -0.000000000002 Rises=F Damp=F
 DIIS: error= 6.24D-09 at cycle   9 NSaved=   9.
 NSaved= 9 IEnMin= 9 EnMin= -582.513316305503     IErMin= 9 ErrMin= 6.24D-09
 ErrMax= 6.24D-09  0.00D+00 EMaxC= 1.00D-01 BMatC= 1.95D-14 BMatP= 1.93D-12
 IDIUse=1 WtCom= 1.00D+00 WtEn= 0.00D+00
 Coeff-Com:  0.132D-05-0.241D-05-0.126D-04-0.806D-04-0.260D-03 0.365D-02
 Coeff-Com:  0.248D-02-0.121D+00 0.112D+01
 Coeff:      0.132D-05-0.241D-05-0.126D-04-0.806D-04-0.260D-03 0.365D-02
 Coeff:      0.248D-02-0.121D+00 0.112D+01
 Gap=     0.323 Goal=   None    Shift=    0.000
 Gap=     0.323 Goal=   None    Shift=    0.000
 RMSDP=2.80D-09 MaxDP=5.74D-08 DE=-1.59D-12 OVMax= 1.03D-07

 SCF Done:  E(UM062X) =  -582.513316306     A.U. after    9 cycles
            NFock=  9  Conv=0.28D-08     -V/T= 2.0019
 <Sx>= 0.0000 <Sy>= 0.0000 <Sz>= 0.0000 <S**2>=-0.0000 S=-0.0000
 <L.S>=  0.00000000000    
 KE= 5.813976493083D+02 PE=-1.556038923892D+03 EE= 3.074524352884D+02
 Annihilation of the first spin contaminant:
 S**2 before annihilation    -0.0000,   after     0.0000
 Leave Link  502 at Mon Apr 21 20:17:46 2025, MaxMem=   536870912 cpu:              93.7 elap:              12.4
 (Enter /home/szhao/Apps/g16/l601.exe)
 Copying SCF densities to generalized density rwf, IOpCl= 1 IROHF=0.

 **********************************************************************

            Population analysis using the SCF density.

 **********************************************************************

 Alpha  occ. eigenvalues --  -66.99930 -66.99930  -5.54903  -5.54901  -3.86054
 Alpha  occ. eigenvalues --   -3.86038  -3.86003  -3.86003  -3.86001  -3.86001
 Alpha  occ. eigenvalues --   -0.62720  -0.58537  -0.41634  -0.41633  -0.40040
 Alpha  occ. eigenvalues --   -0.40040  -0.32163
 Alpha virt. eigenvalues --    0.00110   0.01935   0.03075   0.03075   0.04487
 Alpha virt. eigenvalues --    0.05609   0.05610   0.05688   0.05689   0.06061
 Alpha virt. eigenvalues --    0.09118   0.09141   0.09141   0.15938   0.18113
 Alpha virt. eigenvalues --    0.27138   0.28718   0.28718   0.30132   0.30408
 Alpha virt. eigenvalues --    0.30408   0.40118   0.40239   0.40240   0.40984
 Alpha virt. eigenvalues --    0.40985   0.50063   0.55492   0.56177   0.56177
 Alpha virt. eigenvalues --    0.57341   0.65907   0.65908   0.66680   0.90547
 Alpha virt. eigenvalues --    0.91030   0.91030   0.91841   0.91842   1.20031
 Alpha virt. eigenvalues --    1.20031   1.23749   1.23750   1.30760   1.32820
 Alpha virt. eigenvalues --    1.32823   1.34396   1.41374   1.41374   1.48775
 Alpha virt. eigenvalues --    1.48775   1.58596   1.63346   1.63347   1.64282
 Alpha virt. eigenvalues --    1.64283   1.69672   1.86778   1.89571   2.10880
 Alpha virt. eigenvalues --    2.10881   2.10930   2.10931   2.58511   2.58512
 Alpha virt. eigenvalues --    2.64450   2.64452   2.69494   2.77335   5.66426
 Alpha virt. eigenvalues --    5.67579  11.51855  11.58484  11.59387  11.59387
 Alpha virt. eigenvalues --   11.60602  11.60603 141.25756 141.28169
  Beta  occ. eigenvalues --  -66.99930 -66.99930  -5.54903  -5.54901  -3.86054
  Beta  occ. eigenvalues --   -3.86038  -3.86003  -3.86003  -3.86001  -3.86001
  Beta  occ. eigenvalues --   -0.62720  -0.58537  -0.41634  -0.41633  -0.40040
  Beta  occ. eigenvalues --   -0.40040  -0.32163
  Beta virt. eigenvalues --    0.00110   0.01935   0.03075   0.03075   0.04487
  Beta virt. eigenvalues --    0.05609   0.05610   0.05688   0.05689   0.06061
  Beta virt. eigenvalues --    0.09118   0.09141   0.09141   0.15938   0.18113
  Beta virt. eigenvalues --    0.27138   0.28718   0.28718   0.30132   0.30408
  Beta virt. eigenvalues --    0.30408   0.40118   0.40239   0.40240   0.40984
  Beta virt. eigenvalues --    0.40985   0.50063   0.55492   0.56177   0.56177
  Beta virt. eigenvalues --    0.57341   0.65907   0.65908   0.66680   0.90547
  Beta virt. eigenvalues --    0.91030   0.91030   0.91841   0.91842   1.20031
  Beta virt. eigenvalues --    1.20031   1.23749   1.23750   1.30760   1.32820
  Beta virt. eigenvalues --    1.32823   1.34396   1.41374   1.41374   1.48775
  Beta virt. eigenvalues --    1.48775   1.58596   1.63346   1.63347   1.64282
  Beta virt. eigenvalues --    1.64283   1.69672   1.86778   1.89571   2.10880
  Beta virt. eigenvalues --    2.10881   2.10930   2.10931   2.58511   2.58512
  Beta virt. eigenvalues --    2.64450   2.64452   2.69494   2.77335   5.66426
  Beta virt. eigenvalues --    5.67579  11.51855  11.58484  11.59387  11.59387
  Beta virt. eigenvalues --   11.60602  11.60603 141.25756 141.28169
          Condensed to atoms (all electrons):
               1          2          3          4          5          6
     1  Si  12.295997   0.386130  -0.020858   0.360518  -0.020857  -0.020860
     2  Si   0.386130  12.295996   0.360519  -0.020860   0.360520   0.360520
     3  H   -0.020858   0.360519   0.803531   0.000277  -0.022409  -0.022411
     4  H    0.360518  -0.020860   0.000277   0.803535   0.000702   0.000277
     5  H   -0.020857   0.360520  -0.022409   0.000702   0.803529  -0.022411
     6  H   -0.020860   0.360520  -0.022411   0.000277  -0.022411   0.803536
     7  H    0.360519  -0.020858   0.000702  -0.022409   0.000277   0.000277
     8  H    0.360521  -0.020857   0.000277  -0.022411   0.000277   0.000702
               7          8
     1  Si   0.360519   0.360521
     2  Si  -0.020858  -0.020857
     3  H    0.000702   0.000277
     4  H   -0.022409  -0.022411
     5  H    0.000277   0.000277
     6  H    0.000277   0.000702
     7  H    0.803531  -0.022411
     8  H   -0.022411   0.803531
          Atomic-Atomic Spin Densities.
               1          2          3          4          5          6
     1  Si  -0.000000   0.000000   0.000000  -0.000000   0.000000  -0.000000
     2  Si   0.000000   0.000000  -0.000000  -0.000000  -0.000000   0.000000
     3  H    0.000000  -0.000000   0.000000  -0.000000   0.000000  -0.000000
     4  H   -0.000000  -0.000000  -0.000000   0.000000  -0.000000   0.000000
     5  H    0.000000  -0.000000   0.000000  -0.000000  -0.000000   0.000000
     6  H   -0.000000   0.000000  -0.000000   0.000000   0.000000  -0.000000
     7  H   -0.000000   0.000000  -0.000000  -0.000000  -0.000000  -0.000000
     8  H    0.000000  -0.000000   0.000000  -0.000000   0.000000   0.000000
               7          8
     1  Si  -0.000000   0.000000
     2  Si   0.000000  -0.000000
     3  H   -0.000000   0.000000
     4  H   -0.000000  -0.000000
     5  H   -0.000000   0.000000
     6  H   -0.000000   0.000000
     7  H    0.000000   0.000000
     8  H    0.000000  -0.000000
 Mulliken charges and spin densities:
               1          2
     1  Si   0.298890  -0.000000
     2  Si   0.298890   0.000000
     3  H   -0.099629   0.000000
     4  H   -0.099631   0.000000
     5  H   -0.099629  -0.000000
     6  H   -0.099631  -0.000000
     7  H   -0.099629   0.000000
     8  H   -0.099630  -0.000000
 Sum of Mulliken charges =  -0.00000  -0.00000
 Mulliken charges and spin densities with hydrogens summed into heavy atoms:
               1          2
     1  Si  -0.000000  -0.000000
     2  Si   0.000000  -0.000000
 Electronic spatial extent (au):  <R**2>=            358.1626
 Charge=             -0.0000 electrons
 Dipole moment (field-independent basis, Debye):
    X=              0.0000    Y=             -0.0000    Z=             -0.0001  Tot=              0.0001
 Quadrupole moment (field-independent basis, Debye-Ang):
   XX=            -32.0623   YY=            -31.5032   ZZ=            -31.5032
   XY=             -0.0002   XZ=             -0.0001   YZ=             -0.0000
 Traceless Quadrupole moment (field-independent basis, Debye-Ang):
   XX=             -0.3728   YY=              0.1864   ZZ=              0.1863
   XY=             -0.0002   XZ=             -0.0001   YZ=             -0.0000
 Octapole moment (field-independent basis, Debye-Ang**2):
  XXX=              0.0001  YYY=              0.0000  ZZZ=             -0.0016  XYY=              0.0000
  XXY=             -0.0000  XXZ=             -0.0005  XZZ=              0.0000  YZZ=              0.0000
  YYZ=             -0.0001  XYZ=              0.0000
 Hexadecapole moment (field-independent basis, Debye-Ang**3):
 XXXX=           -429.2188 YYYY=            -83.9960 ZZZZ=            -83.9956 XXXY=             -0.0011
 XXXZ=             -0.0010 YYYX=              2.1299 YYYZ=              0.0002 ZZZX=             -0.0007
 ZZZY=              0.0003 XXYY=            -89.8267 XXZZ=            -89.8268 YYZZ=            -27.9986
 XXYZ=              0.0000 YYXZ=             -0.0004 ZZXY=             -2.1310
 N-N= 8.467552298933D+01 E-N=-1.556038924138D+03  KE= 5.813976493083D+02
                          Isotropic Fermi Contact Couplings
        Atom                 a.u.       MegaHertz       Gauss      10(-4) cm-1
     1  Si(29)            -0.00000       0.00000       0.00000       0.00000
     2  Si(29)             0.00000      -0.00000      -0.00000      -0.00000
     3  H(1)              -0.00000      -0.00000      -0.00000      -0.00000
     4  H(1)               0.00000       0.00000       0.00000       0.00000
     5  H(1)              -0.00000      -0.00000      -0.00000      -0.00000
     6  H(1)               0.00000       0.00000       0.00000       0.00000
     7  H(1)              -0.00000      -0.00000      -0.00000      -0.00000
     8  H(1)               0.00000       0.00000       0.00000       0.00000
 --------------------------------------------------------
       Center         ----  Spin Dipole Couplings  ----
                      3XX-RR        3YY-RR        3ZZ-RR
 --------------------------------------------------------
     1   Atom        0.000000      0.000000      0.000000
     2   Atom        0.000000      0.000000      0.000000
     3   Atom        0.000000      0.000000      0.000000
     4   Atom        0.000000      0.000000      0.000000
     5   Atom        0.000000      0.000000      0.000000
     6   Atom        0.000000      0.000000      0.000000
     7   Atom        0.000000      0.000000      0.000000
     8   Atom        0.000000      0.000000      0.000000
 --------------------------------------------------------
                        XY            XZ            YZ
 --------------------------------------------------------
     1   Atom        0.000000      0.000000      0.000000
     2   Atom        0.000000      0.000000      0.000000
     3   Atom        0.000000      0.000000      0.000000
     4   Atom        0.000000      0.000000      0.000000
     5   Atom        0.000000      0.000000      0.000000
     6   Atom        0.000000      0.000000      0.000000
     7   Atom        0.000000      0.000000      0.000000
     8   Atom        0.000000      0.000000      0.000000
 --------------------------------------------------------


 ---------------------------------------------------------------------------------
              Anisotropic Spin Dipole Couplings in Principal Axis System
 ---------------------------------------------------------------------------------

       Atom             a.u.   MegaHertz   Gauss  10(-4) cm-1        Axes

              Baa     0.0000    -0.000    -0.000    -0.000  1.0000  0.0000  0.0000
     1 Si(29) Bbb     0.0000    -0.000    -0.000    -0.000 -0.0000  1.0000  0.0000
              Bcc     0.0000    -0.000    -0.000    -0.000  0.0000  0.0000  1.0000
 
              Baa     0.0000    -0.000    -0.000    -0.000  1.0000  0.0000  0.0000
     2 Si(29) Bbb     0.0000    -0.000    -0.000    -0.000 -0.0000  1.0000  0.0000
              Bcc     0.0000    -0.000    -0.000    -0.000  0.0000  0.0000  1.0000
 
              Baa     0.0000     0.000     0.000     0.000  1.0000  0.0000  0.0000
     3 H(1)   Bbb     0.0000     0.000     0.000     0.000 -0.0000  1.0000  0.0000
              Bcc     0.0000     0.000     0.000     0.000  0.0000  0.0000  1.0000
 
              Baa     0.0000     0.000     0.000     0.000  1.0000  0.0000  0.0000
     4 H(1)   Bbb     0.0000     0.000     0.000     0.000 -0.0000  1.0000  0.0000
              Bcc     0.0000     0.000     0.000     0.000  0.0000  0.0000  1.0000
 
              Baa     0.0000     0.000     0.000     0.000  1.0000  0.0000  0.0000
     5 H(1)   Bbb     0.0000     0.000     0.000     0.000 -0.0000  1.0000  0.0000
              Bcc     0.0000     0.000     0.000     0.000  0.0000  0.0000  1.0000
 
              Baa     0.0000     0.000     0.000     0.000  1.0000  0.0000  0.0000
     6 H(1)   Bbb     0.0000     0.000     0.000     0.000 -0.0000  1.0000  0.0000
              Bcc     0.0000     0.000     0.000     0.000  0.0000  0.0000  1.0000
 
              Baa     0.0000     0.000     0.000     0.000  1.0000  0.0000  0.0000
     7 H(1)   Bbb     0.0000     0.000     0.000     0.000 -0.0000  1.0000  0.0000
              Bcc     0.0000     0.000     0.000     0.000  0.0000  0.0000  1.0000
 
              Baa     0.0000     0.000     0.000     0.000  1.0000  0.0000  0.0000
     8 H(1)   Bbb     0.0000     0.000     0.000     0.000 -0.0000  1.0000  0.0000
              Bcc     0.0000     0.000     0.000     0.000  0.0000  0.0000  1.0000
 

 ---------------------------------------------------------------------------------

 No NMR shielding tensors so no spin-rotation constants.
 Leave Link  601 at Mon Apr 21 20:17:46 2025, MaxMem=   536870912 cpu:               1.3 elap:               0.4
 (Enter /home/szhao/Apps/g16/l701.exe)
 ... and contract with generalized density number  0.
 Compute integral first derivatives.
 Leave Link  701 at Mon Apr 21 20:17:47 2025, MaxMem=   536870912 cpu:               1.2 elap:               0.4
 (Enter /home/szhao/Apps/g16/l702.exe)
 L702 exits ... SP integral derivatives will be done elsewhere.
 Leave Link  702 at Mon Apr 21 20:17:47 2025, MaxMem=   536870912 cpu:               0.7 elap:               0.2
 (Enter /home/szhao/Apps/g16/l703.exe)
 Integral derivatives from FoFJK, PRISM(SPDF).
 Compute integral first derivatives, UseDBF=F ICtDFT=           0.
 Calling FoFJK, ICntrl=      2127 FMM=F ISym2X=0 I1Cent= 0 IOpClX= 1 NMat=1 NMatS=1 NMatT=0.
 FoFJK:  IHMeth= 1 ICntrl=    2127 DoSepK=F KAlg= 0 I1Cent=           0 FoldK=F
 IRaf=         0 NMat=       1 IRICut=       1 DoRegI=T DoRafI=F ISym2E= 0 IDoP0=0 IntGTp=1.
 FoFCou: FMM=F IPFlag=           0 FMFlag=      100000 FMFlg1=         800
         NFxFlg=           0 DoJE=F BraDBF=F KetDBF=F FulRan=T
         wScrn=  0.000000 ICntrl=      2127 IOpCl=  1 I1Cent=           0 NGrid=           0
         NMat0=    1 NMatS0=      1 NMatT0=    0 NMatD0=    1 NMtDS0=    0 NMtDT0=    0
 Symmetry not used in FoFCou.
 Leave Link  703 at Mon Apr 21 20:17:50 2025, MaxMem=   536870912 cpu:              14.5 elap:               1.8
 (Enter /home/szhao/Apps/g16/l716.exe)
 Dipole        = 2.67869664D-06-1.69728701D-07-5.37736831D-05
 -------------------------------------------------------------------
 Center     Atomic                   Forces (Hartrees/Bohr)
 Number     Number              X              Y              Z
 -------------------------------------------------------------------
      1       14          -0.000000000   -0.000000000   -0.000000000
      2       14          -0.000000000   -0.000000000   -0.000000000
      3        1          -0.001378343    0.000149175   -0.000001768
      4        1           0.001377981    0.000078310   -0.000129055
      5        1          -0.001379862   -0.000077626    0.000127222
      6        1          -0.001378875   -0.000076784   -0.000129586
      7        1           0.001378518   -0.000149201    0.000001582
      8        1           0.001380732    0.000075868    0.000127657
 -------------------------------------------------------------------
 Cartesian Forces:  Max     0.001380732 RMS     0.000693571
 Leave Link  716 at Mon Apr 21 20:17:50 2025, MaxMem=   536870912 cpu:               0.5 elap:               0.2
 (Enter /home/szhao/Apps/g16/l103.exe)

 GradGradGradGradGradGradGradGradGradGradGradGradGradGradGradGradGradGrad
 Berny optimization.
 FormGI is forming the generalized inverse of G from B-inverse, IUseBI=4.
 Internal  Forces:  Max     0.004137232 RMS     0.001475414
 Search for a local minimum.
 Step number   1 out of a maximum of   43
 All quantities printed in internal units (Hartrees-Bohrs-Radians)
 RMS Force = .11801D-02 SwitMx=.10000D-02 MixMth= 1
 Mixed Optimization -- RFO/linear search
 Second derivative matrix not updated -- first step.
 ITU=  0
     Eigenvalues ---    0.00230   0.05576   0.05576   0.05577   0.05577
     Eigenvalues ---    0.16000   0.16000   0.16000   0.16000   0.16000
     Eigenvalues ---    0.16000   0.17703   0.17703   0.17703   0.17703
     Eigenvalues ---    0.17703   0.177031000.000001000.000001000.00000
     Eigenvalues --- 1000.000001000.000001000.000001000.000001000.00000
     Eigenvalues --- 1000.000001000.000001000.000001000.000001000.00000
     Eigenvalues --- 1000.000001000.000001000.00000
 RFO step:  Lambda=-2.33311632D-04 EMin= 2.30000000D-03
 Linear search not attempted -- first point.
 Iteration  1 RMS(Cart)=  0.01269592 RMS(Int)=  0.00007996
 Iteration  2 RMS(Cart)=  0.00008560 RMS(Int)=  0.00003475
 Iteration  3 RMS(Cart)=  0.00000001 RMS(Int)=  0.00003475
 ITry= 1 IFail=0 DXMaxC= 2.92D-02 DCOld= 1.00D+10 DXMaxT= 3.00D-01 DXLimC= 3.00D+00 Rises=F
 Variable       Old X    -DE/DX   Delta X   Delta X   Delta X     New X
                                 (Linear)    (Quad)   (Total)
    X1       -2.49410   0.00414   0.00000   0.00000   0.00000  -2.49410
    Y1        0.00000   0.00001   0.00000   0.00000   0.00000   0.00000
    Z1        0.00000   0.00000   0.00000   0.00000   0.00000   0.00000
    X2        2.49410  -0.00414   0.00000   0.00000   0.00000   2.49410
    Y2        0.00000  -0.00001   0.00000   0.00000   0.00000   0.00000
    Z2        0.00000  -0.00000   0.00000   0.00000   0.00000   0.00000
    R1        2.79961  -0.00062   0.00000  -0.00348  -0.00348   2.79612
    R2        2.79960  -0.00062   0.00000  -0.00348  -0.00348   2.79612
    R3        2.79960  -0.00062   0.00000  -0.00348  -0.00348   2.79612
    R4        2.79960  -0.00062   0.00000  -0.00348  -0.00348   2.79612
    R5        2.79960  -0.00062   0.00000  -0.00348  -0.00348   2.79612
    R6        2.79961  -0.00062   0.00000  -0.00349  -0.00349   2.79613
    A1        1.92359  -0.00169   0.00000  -0.01054  -0.01059   1.91300
    A2        1.92367  -0.00169   0.00000  -0.01057  -0.01063   1.91304
    A3        1.92374  -0.00170   0.00000  -0.01058  -0.01064   1.91310
    A4        1.89746   0.00174   0.00000   0.01082   0.01076   1.90822
    A5        1.89740   0.00174   0.00000   0.01088   0.01083   1.90823
    A6        1.89741   0.00174   0.00000   0.01085   0.01079   1.90820
    A7        1.92366  -0.00169   0.00000  -0.01057  -0.01063   1.91304
    A8        1.92373  -0.00169   0.00000  -0.01058  -0.01064   1.91310
    A9        1.92360  -0.00169   0.00000  -0.01054  -0.01059   1.91300
   A10        1.89746   0.00174   0.00000   0.01081   0.01076   1.90822
   A11        1.89741   0.00174   0.00000   0.01085   0.01079   1.90820
   A12        1.89740   0.00174   0.00000   0.01088   0.01083   1.90823
    D1        1.04728   0.00000   0.00000   0.00004   0.00004   1.04732
    D2       -3.14142  -0.00000   0.00000  -0.00002  -0.00002  -3.14144
    D3       -1.04705   0.00000   0.00000   0.00002   0.00002  -1.04703
    D4       -3.14151   0.00000   0.00000   0.00001   0.00001  -3.14150
    D5       -1.04702  -0.00000   0.00000  -0.00005  -0.00005  -1.04708
    D6        1.04734   0.00000   0.00000  -0.00000  -0.00000   1.04734
    D7       -1.04709   0.00000   0.00000  -0.00001  -0.00001  -1.04710
    D8        1.04740  -0.00000   0.00000  -0.00007  -0.00007   1.04732
    D9       -3.14142  -0.00000   0.00000  -0.00002  -0.00002  -3.14144
         Item               Value     Threshold  Converged?
 Maximum Force            0.001741     0.000450     NO 
 RMS     Force            0.001180     0.000300     NO 
 Maximum Displacement     0.029164     0.001800     NO 
 RMS     Displacement     0.012757     0.001200     NO 
 Predicted change in Energy=-1.168218D-04
 Lowest energy point so far.  Saving SCF results.
 GradGradGradGradGradGradGradGradGradGradGradGradGradGradGradGradGradGrad

 Leave Link  103 at Mon Apr 21 20:17:50 2025, MaxMem=   536870912 cpu:               1.3 elap:               0.2
 (Enter /home/szhao/Apps/g16/l202.exe)
                          Input orientation:                          
 ---------------------------------------------------------------------
 Center     Atomic      Atomic             Coordinates (Angstroms)
 Number     Number       Type             X           Y           Z
 ---------------------------------------------------------------------
      1         14           0       -1.319819    0.000000    0.000000
      2         14           0        1.319819    0.000000    0.000000
      3          1           0        1.816383   -1.393831   -0.000025
      4          1           0       -1.816332   -0.696800    1.207184
      5          1           0        1.816470    0.696954   -1.207037
      6          1           0        1.816339    0.696844    1.207157
      7          1           0       -1.816387    1.393830   -0.000104
      8          1           0       -1.816475   -0.696999   -1.207010
 ---------------------------------------------------------------------
                    Distance matrix (angstroms):
                    1          2          3          4          5
     1  Si   0.000000
     2  Si   2.639638   0.000000
     3  H    3.431986   1.479642   0.000000
     4  H    1.479645   3.431948   3.890992   0.000000
     5  H    3.432054   1.479644   2.414180   4.579112   0.000000
     6  H    3.431954   1.479646   2.414169   3.890828   2.414194
     7  H    1.479642   3.431989   4.579090   2.414183   3.891011
     8  H    1.479645   3.432058   3.891021   2.414195   3.891195
                    6          7          8
     6  H    0.000000
     7  H    3.891011   0.000000
     8  H    4.579120   2.414165   0.000000
 Symmetry turned off by external request.
 Stoichiometry    H6Si2
 Framework group  C1[X(H6Si2)]
 Deg. of freedom    18
 Full point group                 C1      NOp   1
 Rotational constants (GHZ):          43.0192092           4.0990491           4.0990440
 Leave Link  202 at Mon Apr 21 20:17:51 2025, MaxMem=   536870912 cpu:               0.4 elap:               0.6
 (Enter /home/szhao/Apps/g16/l301.exe)
 Standard basis: 6-311+G(d,p) (5D, 7F)
 Ernie: Thresh=  0.10000D-02 Tol=  0.10000D-05 Strict=F.
    96 basis functions,   148 primitive gaussians,    98 cartesian basis functions
    17 alpha electrons       17 beta electrons
       nuclear repulsion energy        84.7641512419 Hartrees.
 IExCor= 4336 DFT=T Ex+Corr=M062X ExCW=0 ScaHFX=  0.540000
 ScaDFX=  1.000000  1.000000  1.000000  1.000000 ScalE2=  1.000000  1.000000
 IRadAn=      7 IRanWt=     -1 IRanGd=            0 ICorTp=0 IEmpDi=  4
 NAtoms=    8 NActive=    8 NUniq=    8 SFac= 1.00D+00 NAtFMM=   60 NAOKFM=F Big=F
 Integral buffers will be    131072 words long.
 Raffenetti 2 integral format.
 Two-electron integral symmetry is turned off.
 Leave Link  301 at Mon Apr 21 20:17:52 2025, MaxMem=   536870912 cpu:               1.5 elap:               0.4
 (Enter /home/szhao/Apps/g16/l302.exe)
 NPDir=0 NMtPBC=     1 NCelOv=     1 NCel=       1 NClECP=     1 NCelD=      1
         NCelK=      1 NCelE2=     1 NClLst=     1 CellRange=     0.0.
 One-electron integrals computed using PRISM.
 NBasis=    96 RedAO= T EigKep=  1.69D-03  NBF=    96
 NBsUse=    96 1.00D-06 EigRej= -1.00D+00 NBFU=    96
 Precomputing XC quadrature grid using
 IXCGrd= 4 IRadAn=           7 IRanWt=          -1 IRanGd=           0 AccXCQ= 0.00D+00.
 Generated NRdTot=       0 NPtTot=           0 NUsed=           0 NTot=          32
 NSgBfM=    96    96    96    96    96 MxSgAt=     8 MxSgA2=     8.
 Leave Link  302 at Mon Apr 21 20:17:53 2025, MaxMem=   536870912 cpu:               2.8 elap:               0.8
 (Enter /home/szhao/Apps/g16/l303.exe)
 DipDrv:  MaxL=1.
 Leave Link  303 at Mon Apr 21 20:17:54 2025, MaxMem=   536870912 cpu:               0.8 elap:               0.2
 (Enter /home/szhao/Apps/g16/l401.exe)
 Initial guess from the checkpoint file:  "opt.chk"
 B after Tr=     0.000000   -0.000000   -0.000005
         Rot=    1.000000   -0.000000   -0.000001    0.000002 Ang=  -0.00 deg.
 Guess basis will be translated and rotated to current coordinates.
 JPrj=2 DoOrth=T DoCkMO=T.
 Initial guess <Sx>= 0.0000 <Sy>= 0.0000 <Sz>= 0.0000 <S**2>=-0.0000 S=-0.0000
 Generating alternative initial guess.
 ExpMin= 3.31D-02 ExpMax= 6.94D+04 ExpMxC= 2.33D+03 IAcc=3 IRadAn=         5 AccDes= 0.00D+00
 Harris functional with IExCor= 1009 and IRadAn=       5 diagonalized for initial guess.
 HarFok:  IExCor= 1009 AccDes= 0.00D+00 IRadAn=         5 IDoV= 1 UseB2=F ITyADJ=14
 ICtDFT=  3500011 ScaDFX=  1.000000  1.000000  1.000000  1.000000
 FoFCou: FMM=F IPFlag=           0 FMFlag=      100000 FMFlg1=           0
         NFxFlg=           0 DoJE=T BraDBF=F KetDBF=T FulRan=T
         wScrn=  0.000000 ICntrl=       500 IOpCl=  0 I1Cent=   200000004 NGrid=           0
         NMat0=    1 NMatS0=      1 NMatT0=    0 NMatD0=    1 NMtDS0=    0 NMtDT0=    0
 Symmetry not used in FoFCou.
 Harris En= -582.204362602008    
 Leave Link  401 at Mon Apr 21 20:17:55 2025, MaxMem=   536870912 cpu:               3.9 elap:               0.6
 (Enter /home/szhao/Apps/g16/l502.exe)
 Keep R1 and R2 ints in memory in canonical form, NReq=29092346.
 FoFCou: FMM=F IPFlag=           0 FMFlag=           0 FMFlg1=           0
         NFxFlg=           0 DoJE=F BraDBF=F KetDBF=F FulRan=T
         wScrn=  0.000000 ICntrl=       600 IOpCl=  0 I1Cent=           0 NGrid=           0
         NMat0=    1 NMatS0=   4656 NMatT0=    0 NMatD0=    1 NMtDS0=    0 NMtDT0=    0
 Symmetry not used in FoFCou.
 Two-electron integral symmetry not used.
 UHF open shell SCF:
 Using DIIS extrapolation, IDIIS=  1040.
 NGot=   536870912 LenX=   515167018 LenY=   515156973
 Requested convergence on RMS density matrix=1.00D-08 within 128 cycles.
 Requested convergence on MAX density matrix=1.00D-06.
 Requested convergence on             energy=1.00D-06.
 No special actions if energy rises.

 Cycle   1  Pass 1  IDiag  1:
 E= -582.513442742473    
 DIIS: error= 4.61D-04 at cycle   1 NSaved=   1.
 NSaved= 1 IEnMin= 1 EnMin= -582.513442742473     IErMin= 1 ErrMin= 4.61D-04
 ErrMax= 4.61D-04  0.00D+00 EMaxC= 1.00D-01 BMatC= 6.01D-05 BMatP= 6.01D-05
 IDIUse=3 WtCom= 9.95D-01 WtEn= 4.61D-03
 Coeff-Com:  0.100D+01
 Coeff-En:   0.100D+01
 Coeff:      0.100D+01
 Gap=     0.474 Goal=   None    Shift=    0.000
 Gap=     0.474 Goal=   None    Shift=    0.000
 RMSDP=5.76D-05 MaxDP=7.80D-04              OVMax= 2.70D-03

 Cycle   2  Pass 1  IDiag  1:
 E= -582.513466512969     Delta-E=       -0.000023770495 Rises=F Damp=F
 DIIS: error= 7.06D-05 at cycle   2 NSaved=   2.
 NSaved= 2 IEnMin= 2 EnMin= -582.513466512969     IErMin= 2 ErrMin= 7.06D-05
 ErrMax= 7.06D-05  0.00D+00 EMaxC= 1.00D-01 BMatC= 1.27D-06 BMatP= 6.01D-05
 IDIUse=1 WtCom= 1.00D+00 WtEn= 0.00D+00
 Coeff-Com: -0.638D-01 0.106D+01
 Coeff:     -0.638D-01 0.106D+01
 Gap=     0.321 Goal=   None    Shift=    0.000
 Gap=     0.321 Goal=   None    Shift=    0.000
 RMSDP=1.32D-05 MaxDP=2.04D-04 DE=-2.38D-05 OVMax= 5.36D-04

 Cycle   3  Pass 1  IDiag  1:
 E= -582.513467244154     Delta-E=       -0.000000731186 Rises=F Damp=F
 DIIS: error= 3.28D-05 at cycle   3 NSaved=   3.
 NSaved= 3 IEnMin= 3 EnMin= -582.513467244154     IErMin= 3 ErrMin= 3.28D-05
 ErrMax= 3.28D-05  0.00D+00 EMaxC= 1.00D-01 BMatC= 1.75D-07 BMatP= 1.27D-06
 IDIUse=1 WtCom= 1.00D+00 WtEn= 0.00D+00
 Coeff-Com: -0.303D-01 0.252D+00 0.779D+00
 Coeff:     -0.303D-01 0.252D+00 0.779D+00
 Gap=     0.321 Goal=   None    Shift=    0.000
 Gap=     0.321 Goal=   None    Shift=    0.000
 RMSDP=3.90D-06 MaxDP=6.37D-05 DE=-7.31D-07 OVMax= 1.63D-04

 Cycle   4  Pass 1  IDiag  1:
 E= -582.513467301107     Delta-E=       -0.000000056952 Rises=F Damp=F
 DIIS: error= 3.67D-06 at cycle   4 NSaved=   4.
 NSaved= 4 IEnMin= 4 EnMin= -582.513467301107     IErMin= 4 ErrMin= 3.67D-06
 ErrMax= 3.67D-06  0.00D+00 EMaxC= 1.00D-01 BMatC= 9.12D-09 BMatP= 1.75D-07
 IDIUse=1 WtCom= 1.00D+00 WtEn= 0.00D+00
 Coeff-Com:  0.240D-02-0.633D-01 0.886D-01 0.972D+00
 Coeff:      0.240D-02-0.633D-01 0.886D-01 0.972D+00
 Gap=     0.321 Goal=   None    Shift=    0.000
 Gap=     0.321 Goal=   None    Shift=    0.000
 RMSDP=1.28D-06 MaxDP=2.62D-05 DE=-5.70D-08 OVMax= 4.72D-05

 Cycle   5  Pass 1  IDiag  1:
 E= -582.513467304905     Delta-E=       -0.000000003798 Rises=F Damp=F
 DIIS: error= 5.36D-07 at cycle   5 NSaved=   5.
 NSaved= 5 IEnMin= 5 EnMin= -582.513467304905     IErMin= 5 ErrMin= 5.36D-07
 ErrMax= 5.36D-07  0.00D+00 EMaxC= 1.00D-01 BMatC= 1.14D-10 BMatP= 9.12D-09
 IDIUse=1 WtCom= 1.00D+00 WtEn= 0.00D+00
 Coeff-Com:  0.494D-03-0.447D-02-0.737D-02-0.352D-01 0.105D+01
 Coeff:      0.494D-03-0.447D-02-0.737D-02-0.352D-01 0.105D+01
 Gap=     0.321 Goal=   None    Shift=    0.000
 Gap=     0.321 Goal=   None    Shift=    0.000
 RMSDP=1.92D-07 MaxDP=3.94D-06 DE=-3.80D-09 OVMax= 7.70D-06

 Cycle   6  Pass 1  IDiag  1:
 E= -582.513467304981     Delta-E=       -0.000000000076 Rises=F Damp=F
 DIIS: error= 2.24D-07 at cycle   6 NSaved=   6.
 NSaved= 6 IEnMin= 6 EnMin= -582.513467304981     IErMin= 6 ErrMin= 2.24D-07
 ErrMax= 2.24D-07  0.00D+00 EMaxC= 1.00D-01 BMatC= 6.49D-12 BMatP= 1.14D-10
 IDIUse=1 WtCom= 1.00D+00 WtEn= 0.00D+00
 Coeff-Com: -0.103D-03 0.267D-02-0.505D-02-0.433D-01 0.152D+00 0.893D+00
 Coeff:     -0.103D-03 0.267D-02-0.505D-02-0.433D-01 0.152D+00 0.893D+00
 Gap=     0.321 Goal=   None    Shift=    0.000
 Gap=     0.321 Goal=   None    Shift=    0.000
 RMSDP=3.73D-08 MaxDP=7.16D-07 DE=-7.62D-11 OVMax= 1.61D-06

 Cycle   7  Pass 1  IDiag  1:
 E= -582.513467304983     Delta-E=       -0.000000000002 Rises=F Damp=F
 DIIS: error= 2.12D-08 at cycle   7 NSaved=   7.
 NSaved= 7 IEnMin= 7 EnMin= -582.513467304983     IErMin= 7 ErrMin= 2.12D-08
 ErrMax= 2.12D-08  0.00D+00 EMaxC= 1.00D-01 BMatC= 1.01D-13 BMatP= 6.49D-12
 IDIUse=1 WtCom= 1.00D+00 WtEn= 0.00D+00
 Coeff-Com: -0.148D-04 0.592D-04 0.423D-03 0.241D-02-0.417D-01-0.889D-01
 Coeff-Com:  0.113D+01
 Coeff:     -0.148D-04 0.592D-04 0.423D-03 0.241D-02-0.417D-01-0.889D-01
 Coeff:      0.113D+01
 Gap=     0.321 Goal=   None    Shift=    0.000
 Gap=     0.321 Goal=   None    Shift=    0.000
 RMSDP=6.98D-09 MaxDP=1.15D-07 DE=-1.59D-12 OVMax= 3.55D-07

 SCF Done:  E(UM062X) =  -582.513467305     A.U. after    7 cycles
            NFock=  7  Conv=0.70D-08     -V/T= 2.0019
 <Sx>= 0.0000 <Sy>= 0.0000 <Sz>= 0.0000 <S**2>=-0.0000 S=-0.0000
 <L.S>=  0.00000000000    
 KE= 5.814088142786D+02 PE=-1.556244615873D+03 EE= 3.075581830479D+02
 Annihilation of the first spin contaminant:
 S**2 before annihilation    -0.0000,   after    -0.0000
 Leave Link  502 at Mon Apr 21 20:18:05 2025, MaxMem=   536870912 cpu:              73.2 elap:              10.0
 (Enter /home/szhao/Apps/g16/l701.exe)
 ... and contract with generalized density number  0.
 Compute integral first derivatives.
 Leave Link  701 at Mon Apr 21 20:18:06 2025, MaxMem=   536870912 cpu:               1.2 elap:               0.2
 (Enter /home/szhao/Apps/g16/l702.exe)
 L702 exits ... SP integral derivatives will be done elsewhere.
 Leave Link  702 at Mon Apr 21 20:18:06 2025, MaxMem=   536870912 cpu:               0.5 elap:               0.1
 (Enter /home/szhao/Apps/g16/l703.exe)
 Integral derivatives from FoFJK, PRISM(SPDF).
 Compute integral first derivatives, UseDBF=F ICtDFT=           0.
 Calling FoFJK, ICntrl=      2127 FMM=F ISym2X=0 I1Cent= 0 IOpClX= 1 NMat=1 NMatS=1 NMatT=0.
 FoFJK:  IHMeth= 1 ICntrl=    2127 DoSepK=F KAlg= 0 I1Cent=           0 FoldK=F
 IRaf=         0 NMat=       1 IRICut=       1 DoRegI=T DoRafI=F ISym2E= 0 IDoP0=0 IntGTp=1.
 FoFCou: FMM=F IPFlag=           0 FMFlag=      100000 FMFlg1=         800
         NFxFlg=           0 DoJE=F BraDBF=F KetDBF=F FulRan=T
         wScrn=  0.000000 ICntrl=      2127 IOpCl=  1 I1Cent=           0 NGrid=           0
         NMat0=    1 NMatS0=      1 NMatT0=    0 NMatD0=    1 NMtDS0=    0 NMtDT0=    0
 Symmetry not used in FoFCou.
 Leave Link  703 at Mon Apr 21 20:18:08 2025, MaxMem=   536870912 cpu:              16.3 elap:               2.1
 (Enter /home/szhao/Apps/g16/l716.exe)
 Dipole        = 1.22557454D-06 3.33868911D-07-3.30401572D-05
 -------------------------------------------------------------------
 Center     Atomic                   Forces (Hartrees/Bohr)
 Number     Number              X              Y              Z
 -------------------------------------------------------------------
      1       14          -0.000000000   -0.000000000   -0.000000000
      2       14          -0.000000000   -0.000000000   -0.000000000
      3        1          -0.000369523   -0.000084097   -0.000000517
      4        1           0.000367213   -0.000040706    0.000073471
      5        1          -0.000368769    0.000040990   -0.000074135
      6        1          -0.000367701    0.000041122    0.000073106
      7        1           0.000369599    0.000084116    0.000000615
      8        1           0.000369273   -0.000041442   -0.000073711
 -------------------------------------------------------------------
 Cartesian Forces:  Max     0.000369599 RMS     0.000189090
 Leave Link  716 at Mon Apr 21 20:18:09 2025, MaxMem=   536870912 cpu:               1.5 elap:               0.3
 (Enter /home/szhao/Apps/g16/l103.exe)

 GradGradGradGradGradGradGradGradGradGradGradGradGradGradGradGradGradGrad
 Berny optimization.
 Using GEDIIS/GDIIS optimizer.
 FormGI is forming the generalized inverse of G from B-inverse, IUseBI=4.
 Internal  Forces:  Max     0.001106085 RMS     0.000417422
 Search for a local minimum.
 Step number   2 out of a maximum of   43
 All quantities printed in internal units (Hartrees-Bohrs-Radians)
 RMS Force = .34978D-03 SwitMx=.10000D-02 MixMth= 2
 Mixed Optimization -- En-DIIS/RFO-DIIS
 Update second derivatives using D2CorX and points    1    2
 DE= -1.51D-04 DEPred=-1.17D-04 R= 1.29D+00
 TightC=F SS=  1.41D+00  RLast= 3.81D-02 DXNew= 5.0454D-01 1.1417D-01
 Trust test= 1.29D+00 RLast= 3.81D-02 DXMaxT set to 3.00D-01
 ITU=  1  0
 Use linear search instead of GDIIS.
     Eigenvalues ---    0.00230   0.05689   0.05689   0.05690   0.05690
     Eigenvalues ---    0.11192   0.16000   0.16000   0.16000   0.16000
     Eigenvalues ---    0.16000   0.17703   0.17703   0.17703   0.17703
     Eigenvalues ---    0.17703   0.179341000.000001000.000001000.00000
     Eigenvalues --- 1000.000001000.000001000.000001000.000001000.00000
     Eigenvalues --- 1000.000001000.000001000.000001000.000001000.00000
     Eigenvalues --- 1000.000001000.000001000.00000
 RFO step:  Lambda=-1.31638224D-06 EMin= 2.29999990D-03
 Quartic linear search produced a step of  0.40810.
 Iteration  1 RMS(Cart)=  0.00550189 RMS(Int)=  0.00002557
 Iteration  2 RMS(Cart)=  0.00001789 RMS(Int)=  0.00002127
 Iteration  3 RMS(Cart)=  0.00000000 RMS(Int)=  0.00002127
 ITry= 1 IFail=0 DXMaxC= 1.24D-02 DCOld= 1.00D+10 DXMaxT= 3.00D-01 DXLimC= 3.00D+00 Rises=F
 Variable       Old X    -DE/DX   Delta X   Delta X   Delta X     New X
                                 (Linear)    (Quad)   (Total)
    X1       -2.49410   0.00111   0.00000   0.00000   0.00000  -2.49410
    Y1        0.00000   0.00000   0.00000   0.00000   0.00000   0.00000
    Z1        0.00000   0.00000   0.00000   0.00000   0.00000   0.00000
    X2        2.49410  -0.00111   0.00000   0.00000   0.00000   2.49410
    Y2        0.00000  -0.00000   0.00000   0.00000   0.00000   0.00000
    Z2        0.00000  -0.00000   0.00000   0.00000   0.00000   0.00000
    R1        2.79612  -0.00004  -0.00142   0.00106  -0.00036   2.79577
    R2        2.79612  -0.00004  -0.00142   0.00106  -0.00036   2.79576
    R3        2.79612  -0.00004  -0.00142   0.00106  -0.00036   2.79576
    R4        2.79612  -0.00004  -0.00142   0.00106  -0.00036   2.79576
    R5        2.79612  -0.00004  -0.00142   0.00106  -0.00036   2.79577
    R6        2.79613  -0.00004  -0.00142   0.00106  -0.00036   2.79577
    A1        1.91300  -0.00052  -0.00432  -0.00023  -0.00459   1.90841
    A2        1.91304  -0.00052  -0.00434  -0.00028  -0.00466   1.90838
    A3        1.91310  -0.00052  -0.00434  -0.00025  -0.00463   1.90847
    A4        1.90822   0.00052   0.00439   0.00025   0.00461   1.91282
    A5        1.90823   0.00053   0.00442   0.00026   0.00465   1.91288
    A6        1.90820   0.00053   0.00440   0.00025   0.00462   1.91282
    A7        1.91304  -0.00052  -0.00434  -0.00028  -0.00465   1.90838
    A8        1.91310  -0.00052  -0.00434  -0.00025  -0.00463   1.90847
    A9        1.91300  -0.00052  -0.00432  -0.00023  -0.00459   1.90841
   A10        1.90822   0.00053   0.00439   0.00025   0.00461   1.91282
   A11        1.90820   0.00052   0.00440   0.00025   0.00462   1.91282
   A12        1.90823   0.00053   0.00442   0.00026   0.00465   1.91288
    D1        1.04732   0.00000   0.00001   0.00000   0.00002   1.04734
    D2       -3.14144  -0.00000  -0.00001  -0.00002  -0.00003  -3.14147
    D3       -1.04703   0.00000   0.00001   0.00001   0.00002  -1.04700
    D4       -3.14150   0.00000   0.00000  -0.00000  -0.00000  -3.14150
    D5       -1.04708  -0.00000  -0.00002  -0.00002  -0.00005  -1.04712
    D6        1.04734   0.00000  -0.00000   0.00000   0.00000   1.04734
    D7       -1.04710  -0.00000  -0.00001  -0.00002  -0.00003  -1.04713
    D8        1.04732  -0.00000  -0.00003  -0.00004  -0.00007   1.04725
    D9       -3.14144  -0.00000  -0.00001  -0.00002  -0.00003  -3.14147
         Item               Value     Threshold  Converged?
 Maximum Force            0.000526     0.000450     NO 
 RMS     Force            0.000350     0.000300     NO 
 Maximum Displacement     0.012393     0.001800     NO 
 RMS     Displacement     0.005515     0.001200     NO 
 Predicted change in Energy=-1.475550D-05
 Lowest energy point so far.  Saving SCF results.
 GradGradGradGradGradGradGradGradGradGradGradGradGradGradGradGradGradGrad

 Leave Link  103 at Mon Apr 21 20:18:10 2025, MaxMem=   536870912 cpu:               0.8 elap:               0.2
 (Enter /home/szhao/Apps/g16/l202.exe)
                          Input orientation:                          
 ---------------------------------------------------------------------
 Center     Atomic      Atomic             Coordinates (Angstroms)
 Number     Number       Type             X           Y           Z
 ---------------------------------------------------------------------
      1         14           0       -1.319819    0.000000    0.000000
      2         14           0        1.319819    0.000000    0.000000
      3          1           0        1.809826   -1.395946   -0.000033
      4          1           0       -1.809872   -0.697826    1.208998
      5          1           0        1.809952    0.697960   -1.208888
      6          1           0        1.809875    0.697877    1.208968
      7          1           0       -1.809828    1.395946   -0.000094
      8          1           0       -1.809953   -0.698012   -1.208857
 ---------------------------------------------------------------------
                    Distance matrix (angstroms):
                    1          2          3          4          5
     1  Si   0.000000
     2  Si   2.639638   0.000000
     3  H    3.426857   1.479450   0.000000
     4  H    1.479456   3.426894   3.879606   0.000000
     5  H    3.426955   1.479455   2.417803   4.571380   0.000000
     6  H    3.426896   1.479456   2.417805   3.879504   2.417856
     7  H    1.479450   3.426858   4.571276   2.417806   3.879584
     8  H    1.479455   3.426956   3.879584   2.417856   3.879748
                    6          7          8
     6  H    0.000000
     7  H    3.879611   0.000000
     8  H    4.571382   2.417802   0.000000
 Symmetry turned off by external request.
 Stoichiometry    H6Si2
 Framework group  C1[X(H6Si2)]
 Deg. of freedom    18
 Full point group                 C1      NOp   1
 Rotational constants (GHZ):          42.8897689           4.1032153           4.1032041
 Leave Link  202 at Mon Apr 21 20:18:11 2025, MaxMem=   536870912 cpu:               0.9 elap:               0.8
 (Enter /home/szhao/Apps/g16/l301.exe)
 Standard basis: 6-311+G(d,p) (5D, 7F)
 Ernie: Thresh=  0.10000D-02 Tol=  0.10000D-05 Strict=F.
    96 basis functions,   148 primitive gaussians,    98 cartesian basis functions
    17 alpha electrons       17 beta electrons
       nuclear repulsion energy        84.7882788965 Hartrees.
 IExCor= 4336 DFT=T Ex+Corr=M062X ExCW=0 ScaHFX=  0.540000
 ScaDFX=  1.000000  1.000000  1.000000  1.000000 ScalE2=  1.000000  1.000000
 IRadAn=      7 IRanWt=     -1 IRanGd=            0 ICorTp=0 IEmpDi=  4
 NAtoms=    8 NActive=    8 NUniq=    8 SFac= 1.00D+00 NAtFMM=   60 NAOKFM=F Big=F
 Integral buffers will be    131072 words long.
 Raffenetti 2 integral format.
 Two-electron integral symmetry is turned off.
 Leave Link  301 at Mon Apr 21 20:18:12 2025, MaxMem=   536870912 cpu:               1.8 elap:               0.4
 (Enter /home/szhao/Apps/g16/l302.exe)
 NPDir=0 NMtPBC=     1 NCelOv=     1 NCel=       1 NClECP=     1 NCelD=      1
         NCelK=      1 NCelE2=     1 NClLst=     1 CellRange=     0.0.
 One-electron integrals computed using PRISM.
 NBasis=    96 RedAO= T EigKep=  1.69D-03  NBF=    96
 NBsUse=    96 1.00D-06 EigRej= -1.00D+00 NBFU=    96
 Precomputing XC quadrature grid using
 IXCGrd= 4 IRadAn=           7 IRanWt=          -1 IRanGd=           0 AccXCQ= 0.00D+00.
 Generated NRdTot=       0 NPtTot=           0 NUsed=           0 NTot=          32
 NSgBfM=    96    96    96    96    96 MxSgAt=     8 MxSgA2=     8.
 Leave Link  302 at Mon Apr 21 20:18:13 2025, MaxMem=   536870912 cpu:               2.2 elap:               0.4
 (Enter /home/szhao/Apps/g16/l303.exe)
 DipDrv:  MaxL=1.
 Leave Link  303 at Mon Apr 21 20:18:13 2025, MaxMem=   536870912 cpu:               0.6 elap:               0.4
 (Enter /home/szhao/Apps/g16/l401.exe)
 Initial guess from the checkpoint file:  "opt.chk"
 B after Tr=     0.000000    0.000000   -0.000004
         Rot=    1.000000   -0.000000   -0.000000    0.000003 Ang=  -0.00 deg.
 Guess basis will be translated and rotated to current coordinates.
 JPrj=2 DoOrth=T DoCkMO=T.
 Initial guess <Sx>= 0.0000 <Sy>= 0.0000 <Sz>= 0.0000 <S**2>= 0.0000 S= 0.0000
 Leave Link  401 at Mon Apr 21 20:18:14 2025, MaxMem=   536870912 cpu:               1.9 elap:               0.5
 (Enter /home/szhao/Apps/g16/l502.exe)
 Keep R1 and R2 ints in memory in canonical form, NReq=29092346.
 FoFCou: FMM=F IPFlag=           0 FMFlag=           0 FMFlg1=           0
         NFxFlg=           0 DoJE=F BraDBF=F KetDBF=F FulRan=T
         wScrn=  0.000000 ICntrl=       600 IOpCl=  0 I1Cent=           0 NGrid=           0
         NMat0=    1 NMatS0=   4656 NMatT0=    0 NMatD0=    1 NMtDS0=    0 NMtDT0=    0
 Symmetry not used in FoFCou.
 Two-electron integral symmetry not used.
 UHF open shell SCF:
 Using DIIS extrapolation, IDIIS=  1040.
 NGot=   536870912 LenX=   515167018 LenY=   515156973
 Requested convergence on RMS density matrix=1.00D-08 within 128 cycles.
 Requested convergence on MAX density matrix=1.00D-06.
 Requested convergence on             energy=1.00D-06.
 No special actions if energy rises.

 Cycle   1  Pass 1  IDiag  1:
 E= -582.513477473953    
 DIIS: error= 2.07D-04 at cycle   1 NSaved=   1.
 NSaved= 1 IEnMin= 1 EnMin= -582.513477473953     IErMin= 1 ErrMin= 2.07D-04
 ErrMax= 2.07D-04  0.00D+00 EMaxC= 1.00D-01 BMatC= 1.05D-05 BMatP= 1.05D-05
 IDIUse=3 WtCom= 9.98D-01 WtEn= 2.07D-03
 Coeff-Com:  0.100D+01
 Coeff-En:   0.100D+01
 Coeff:      0.100D+01
 Gap=     0.473 Goal=   None    Shift=    0.000
 Gap=     0.473 Goal=   None    Shift=    0.000
 RMSDP=2.47D-05 MaxDP=3.04D-04              OVMax= 1.19D-03

 Cycle   2  Pass 1  IDiag  1:
 E= -582.513481684168     Delta-E=       -0.000004210215 Rises=F Damp=F
 DIIS: error= 2.79D-05 at cycle   2 NSaved=   2.
 NSaved= 2 IEnMin= 2 EnMin= -582.513481684168     IErMin= 2 ErrMin= 2.79D-05
 ErrMax= 2.79D-05  0.00D+00 EMaxC= 1.00D-01 BMatC= 2.11D-07 BMatP= 1.05D-05
 IDIUse=1 WtCom= 1.00D+00 WtEn= 0.00D+00
 Coeff-Com: -0.754D-01 0.108D+01
 Coeff:     -0.754D-01 0.108D+01
 Gap=     0.320 Goal=   None    Shift=    0.000
 Gap=     0.320 Goal=   None    Shift=    0.000
 RMSDP=5.94D-06 MaxDP=1.04D-04 DE=-4.21D-06 OVMax= 2.38D-04

 Cycle   3  Pass 1  IDiag  1:
 E= -582.513481815370     Delta-E=       -0.000000131203 Rises=F Damp=F
 DIIS: error= 1.28D-05 at cycle   3 NSaved=   3.
 NSaved= 3 IEnMin= 3 EnMin= -582.513481815370     IErMin= 3 ErrMin= 1.28D-05
 ErrMax= 1.28D-05  0.00D+00 EMaxC= 1.00D-01 BMatC= 3.11D-08 BMatP= 2.11D-07
 IDIUse=1 WtCom= 1.00D+00 WtEn= 0.00D+00
 Coeff-Com: -0.321D-01 0.274D+00 0.758D+00
 Coeff:     -0.321D-01 0.274D+00 0.758D+00
 Gap=     0.320 Goal=   None    Shift=    0.000
 Gap=     0.320 Goal=   None    Shift=    0.000
 RMSDP=1.53D-06 MaxDP=2.84D-05 DE=-1.31D-07 OVMax= 6.39D-05

 Cycle   4  Pass 1  IDiag  1:
 E= -582.513481825185     Delta-E=       -0.000000009814 Rises=F Damp=F
 DIIS: error= 1.51D-06 at cycle   4 NSaved=   4.
 NSaved= 4 IEnMin= 4 EnMin= -582.513481825185     IErMin= 4 ErrMin= 1.51D-06
 ErrMax= 1.51D-06  0.00D+00 EMaxC= 1.00D-01 BMatC= 1.44D-09 BMatP= 3.11D-08
 IDIUse=1 WtCom= 1.00D+00 WtEn= 0.00D+00
 Coeff-Com:  0.330D-02-0.677D-01 0.709D-01 0.994D+00
 Coeff:      0.330D-02-0.677D-01 0.709D-01 0.994D+00
 Gap=     0.320 Goal=   None    Shift=    0.000
 Gap=     0.320 Goal=   None    Shift=    0.000
 RMSDP=5.62D-07 MaxDP=1.06D-05 DE=-9.81D-09 OVMax= 2.08D-05

 Cycle   5  Pass 1  IDiag  1:
 E= -582.513481825840     Delta-E=       -0.000000000656 Rises=F Damp=F
 DIIS: error= 2.49D-07 at cycle   5 NSaved=   5.
 NSaved= 5 IEnMin= 5 EnMin= -582.513481825840     IErMin= 5 ErrMin= 2.49D-07
 ErrMax= 2.49D-07  0.00D+00 EMaxC= 1.00D-01 BMatC= 1.93D-11 BMatP= 1.44D-09
 IDIUse=1 WtCom= 1.00D+00 WtEn= 0.00D+00
 Coeff-Com:  0.629D-03-0.746D-02-0.778D-03-0.146D-02 0.101D+01
 Coeff:      0.629D-03-0.746D-02-0.778D-03-0.146D-02 0.101D+01
 Gap=     0.320 Goal=   None    Shift=    0.000
 Gap=     0.320 Goal=   None    Shift=    0.000
 RMSDP=8.55D-08 MaxDP=1.69D-06 DE=-6.56D-10 OVMax= 3.28D-06

 Cycle   6  Pass 1  IDiag  1:
 E= -582.513481825854     Delta-E=       -0.000000000014 Rises=F Damp=F
 DIIS: error= 6.55D-08 at cycle   6 NSaved=   6.
 NSaved= 6 IEnMin= 6 EnMin= -582.513481825854     IErMin= 6 ErrMin= 6.55D-08
 ErrMax= 6.55D-08  0.00D+00 EMaxC= 1.00D-01 BMatC= 1.01D-12 BMatP= 1.93D-11
 IDIUse=1 WtCom= 1.00D+00 WtEn= 0.00D+00
 Coeff-Com: -0.171D-03 0.318D-02-0.475D-02-0.383D-01 0.393D-01 0.100D+01
 Coeff:     -0.171D-03 0.318D-02-0.475D-02-0.383D-01 0.393D-01 0.100D+01
 Gap=     0.320 Goal=   None    Shift=    0.000
 Gap=     0.320 Goal=   None    Shift=    0.000
 RMSDP=1.67D-08 MaxDP=3.02D-07 DE=-1.35D-11 OVMax= 7.43D-07

 Cycle   7  Pass 1  IDiag  1:
 E= -582.513481825854     Delta-E=       -0.000000000000 Rises=F Damp=F
 DIIS: error= 6.35D-09 at cycle   7 NSaved=   7.
 NSaved= 7 IEnMin= 7 EnMin= -582.513481825854     IErMin= 7 ErrMin= 6.35D-09
 ErrMax= 6.35D-09  0.00D+00 EMaxC= 1.00D-01 BMatC= 1.13D-14 BMatP= 1.01D-12
 IDIUse=1 WtCom= 1.00D+00 WtEn= 0.00D+00
 Coeff-Com: -0.106D-05-0.695D-04 0.272D-03 0.248D-02-0.255D-01-0.111D+00
 Coeff-Com:  0.113D+01
 Coeff:     -0.106D-05-0.695D-04 0.272D-03 0.248D-02-0.255D-01-0.111D+00
 Coeff:      0.113D+01
 Gap=     0.320 Goal=   None    Shift=    0.000
 Gap=     0.320 Goal=   None    Shift=    0.000
 RMSDP=2.32D-09 MaxDP=3.62D-08 DE=-2.27D-13 OVMax= 1.19D-07

 SCF Done:  E(UM062X) =  -582.513481826     A.U. after    7 cycles
            NFock=  7  Conv=0.23D-08     -V/T= 2.0019
 <Sx>= 0.0000 <Sy>= 0.0000 <Sz>= 0.0000 <S**2>=-0.0000 S=-0.0000
 <L.S>=  0.00000000000    
 KE= 5.814099735282D+02 PE=-1.556300239574D+03 EE= 3.075885053231D+02
 Annihilation of the first spin contaminant:
 S**2 before annihilation    -0.0000,   after     0.0000
 Leave Link  502 at Mon Apr 21 20:18:23 2025, MaxMem=   536870912 cpu:              67.0 elap:               9.1
 (Enter /home/szhao/Apps/g16/l701.exe)
 ... and contract with generalized density number  0.
 Compute integral first derivatives.
 Leave Link  701 at Mon Apr 21 20:18:24 2025, MaxMem=   536870912 cpu:               1.3 elap:               0.2
 (Enter /home/szhao/Apps/g16/l702.exe)
 L702 exits ... SP integral derivatives will be done elsewhere.
 Leave Link  702 at Mon Apr 21 20:18:24 2025, MaxMem=   536870912 cpu:               0.5 elap:               0.1
 (Enter /home/szhao/Apps/g16/l703.exe)
 Integral derivatives from FoFJK, PRISM(SPDF).
 Compute integral first derivatives, UseDBF=F ICtDFT=           0.
 Calling FoFJK, ICntrl=      2127 FMM=F ISym2X=0 I1Cent= 0 IOpClX= 1 NMat=1 NMatS=1 NMatT=0.
 FoFJK:  IHMeth= 1 ICntrl=    2127 DoSepK=F KAlg= 0 I1Cent=           0 FoldK=F
 IRaf=         0 NMat=       1 IRICut=       1 DoRegI=T DoRafI=F ISym2E= 0 IDoP0=0 IntGTp=1.
 FoFCou: FMM=F IPFlag=           0 FMFlag=      100000 FMFlg1=         800
         NFxFlg=           0 DoJE=F BraDBF=F KetDBF=F FulRan=T
         wScrn=  0.000000 ICntrl=      2127 IOpCl=  1 I1Cent=           0 NGrid=           0
         NMat0=    1 NMatS0=      1 NMatT0=    0 NMatD0=    1 NMtDS0=    0 NMtDT0=    0
 Symmetry not used in FoFCou.
 Leave Link  703 at Mon Apr 21 20:18:26 2025, MaxMem=   536870912 cpu:              12.5 elap:               1.7
 (Enter /home/szhao/Apps/g16/l716.exe)
 Dipole        = 2.46842884D-07 3.37469391D-07-1.84085640D-05
 -------------------------------------------------------------------
 Center     Atomic                   Forces (Hartrees/Bohr)
 Number     Number              X              Y              Z
 -------------------------------------------------------------------
      1       14          -0.000000000   -0.000000000   -0.000000000
      2       14          -0.000000000   -0.000000000   -0.000000000
      3        1          -0.000004718    0.000019612    0.000000019
      4        1           0.000003721    0.000010384   -0.000018056
      5        1          -0.000004632   -0.000010194    0.000017657
      6        1          -0.000003797   -0.000010302   -0.000018033
      7        1           0.000004747   -0.000019603    0.000000140
      8        1           0.000004694    0.000010106    0.000017636
 -------------------------------------------------------------------
 Cartesian Forces:  Max     0.000019612 RMS     0.000010367
 Leave Link  716 at Mon Apr 21 20:18:26 2025, MaxMem=   536870912 cpu:               0.6 elap:               0.1
 (Enter /home/szhao/Apps/g16/l103.exe)

 GradGradGradGradGradGradGradGradGradGradGradGradGradGradGradGradGradGrad
 Berny optimization.
 Using GEDIIS/GDIIS optimizer.
 FormGI is forming the generalized inverse of G from B-inverse, IUseBI=4.
 Internal  Forces:  Max     0.000020885 RMS     0.000009628
 Search for a local minimum.
 Step number   3 out of a maximum of   43
 All quantities printed in internal units (Hartrees-Bohrs-Radians)
 RMS Force = .10012D-04 SwitMx=.10000D-02 MixMth= 2
 Mixed Optimization -- En-DIIS/RFO-DIIS
 Swapping is turned off.
 Update second derivatives using D2CorX and points    1    2    3
 DE= -1.45D-05 DEPred=-1.48D-05 R= 9.84D-01
 TightC=F SS=  1.41D+00  RLast= 1.60D-02 DXNew= 5.0454D-01 4.8132D-02
 Trust test= 9.84D-01 RLast= 1.60D-02 DXMaxT set to 3.00D-01
 ITU=  1  1  0
     Eigenvalues ---    0.00230   0.05738   0.05738   0.05739   0.05739
     Eigenvalues ---    0.11378   0.16000   0.16000   0.16000   0.16000
     Eigenvalues ---    0.16000   0.17703   0.17703   0.17703   0.17703
     Eigenvalues ---    0.17703   0.179151000.000001000.000001000.00000
     Eigenvalues --- 1000.000001000.000001000.000001000.000001000.00000
     Eigenvalues --- 1000.000001000.000001000.000001000.000001000.00000
     Eigenvalues --- 1000.000001000.000001000.00000
 En-DIIS/RFO-DIIS/Sim-DIIS IScMMF=       -3 using points:     3    2
 RFO step:  Lambda=-1.20431558D-08.
 NNeg= 0 NGDIIS= 2 SimSw=  2.50D-03 Rises=F DC= -1.45D-05 SmlDif=  1.00D-05
 NRisDI= 0 DoIntr=F SqrtH=F CThrHd= 10.0 CDAdj=  3.0
 RMS Error=  0.5193504375D-04 NUsed= 2 OKEnD=T EnDIS=F
 InvSVX:  RCond= 2.90D-04 Info=           0 Equed=N FErr=  8.93D-16 BErr=  3.63D-17
 DidBck=F Rises=F RFO-DIIS coefs:    0.99512    0.00488
 Iteration  1 RMS(Cart)=  0.00006004 RMS(Int)=  0.00000003
 Iteration  2 RMS(Cart)=  0.00000000 RMS(Int)=  0.00000003
 ITry= 1 IFail=0 DXMaxC= 1.35D-04 DCOld= 1.00D+10 DXMaxT= 3.00D-01 DXLimC= 3.00D+00 Rises=F
 Variable       Old X    -DE/DX   Delta X   Delta X   Delta X     New X
                                 (Linear)    (Quad)   (Total)
    X1       -2.49410   0.00001   0.00000   0.00000   0.00000  -2.49410
    Y1        0.00000   0.00000   0.00000   0.00000   0.00000   0.00000
    Z1        0.00000  -0.00000   0.00000   0.00000   0.00000   0.00000
    X2        2.49410  -0.00001   0.00000   0.00000   0.00000   2.49410
    Y2        0.00000  -0.00000   0.00000   0.00000   0.00000   0.00000
    Z2        0.00000  -0.00000   0.00000   0.00000   0.00000   0.00000
    R1        2.79577  -0.00002   0.00000  -0.00012  -0.00012   2.79565
    R2        2.79576  -0.00002   0.00000  -0.00011  -0.00011   2.79565
    R3        2.79576  -0.00002   0.00000  -0.00012  -0.00011   2.79565
    R4        2.79576  -0.00002   0.00000  -0.00011  -0.00011   2.79565
    R5        2.79577  -0.00002   0.00000  -0.00012  -0.00012   2.79565
    R6        2.79577  -0.00002   0.00000  -0.00012  -0.00012   2.79565
    A1        1.90841   0.00001   0.00002   0.00002   0.00004   1.90845
    A2        1.90838   0.00000   0.00002  -0.00000   0.00002   1.90840
    A3        1.90847   0.00000   0.00002   0.00000   0.00002   1.90849
    A4        1.91282  -0.00000  -0.00002  -0.00001  -0.00003   1.91280
    A5        1.91288  -0.00000  -0.00002  -0.00001  -0.00003   1.91285
    A6        1.91282  -0.00000  -0.00002  -0.00000  -0.00003   1.91279
    A7        1.90838   0.00000   0.00002  -0.00000   0.00002   1.90840
    A8        1.90847   0.00000   0.00002   0.00000   0.00002   1.90849
    A9        1.90841   0.00001   0.00002   0.00002   0.00004   1.90845
   A10        1.91282  -0.00000  -0.00002  -0.00000  -0.00003   1.91279
   A11        1.91282  -0.00000  -0.00002  -0.00000  -0.00003   1.91279
   A12        1.91288  -0.00000  -0.00002  -0.00001  -0.00003   1.91285
    D1        1.04734   0.00000  -0.00000  -0.00001  -0.00001   1.04733
    D2       -3.14147  -0.00000   0.00000  -0.00002  -0.00002  -3.14149
    D3       -1.04700   0.00000  -0.00000  -0.00001  -0.00001  -1.04702
    D4       -3.14150   0.00000   0.00000  -0.00001  -0.00001  -3.14151
    D5       -1.04712  -0.00000   0.00000  -0.00002  -0.00002  -1.04714
    D6        1.04734   0.00000  -0.00000  -0.00001  -0.00001   1.04733
    D7       -1.04713  -0.00000   0.00000  -0.00001  -0.00001  -1.04714
    D8        1.04725  -0.00000   0.00000  -0.00002  -0.00002   1.04723
    D9       -3.14147  -0.00000   0.00000  -0.00002  -0.00002  -3.14149
         Item               Value     Threshold  Converged?
 Maximum Force            0.000021     0.000450     YES
 RMS     Force            0.000010     0.000300     YES
 Maximum Displacement     0.000135     0.001800     YES
 RMS     Displacement     0.000060     0.001200     YES
 Predicted change in Energy=-7.656963D-09
 Optimization completed.
    -- Stationary point found.
                           ----------------------------
                           !   Optimized Parameters   !
                           ! (Angstroms and Degrees)  !
 --------------------------                            --------------------------
 ! Name  Definition              Value          Derivative Info.                !
 --------------------------------------------------------------------------------
 ! X1    R(1,-1)                -1.3198         -DE/DX =    0.0                 !
 ! Y1    R(1,-2)                 0.0            -DE/DX =    0.0                 !
 ! Z1    R(1,-3)                 0.0            -DE/DX =    0.0                 !
 ! X2    R(2,-1)                 1.3198         -DE/DX =    0.0                 !
 ! Y2    R(2,-2)                 0.0            -DE/DX =    0.0                 !
 ! Z2    R(2,-3)                 0.0            -DE/DX =    0.0                 !
 ! R1    R(1,4)                  1.4795         -DE/DX =    0.0                 !
 ! R2    R(1,7)                  1.4795         -DE/DX =    0.0                 !
 ! R3    R(1,8)                  1.4795         -DE/DX =    0.0                 !
 ! R4    R(2,3)                  1.4795         -DE/DX =    0.0                 !
 ! R5    R(2,5)                  1.4795         -DE/DX =    0.0                 !
 ! R6    R(2,6)                  1.4795         -DE/DX =    0.0                 !
 ! A1    A(2,1,4)              109.344          -DE/DX =    0.0                 !
 ! A2    A(2,1,7)              109.3423         -DE/DX =    0.0                 !
 ! A3    A(2,1,8)              109.3473         -DE/DX =    0.0                 !
 ! A4    A(4,1,7)              109.5967         -DE/DX =    0.0                 !
 ! A5    A(4,1,8)              109.5998         -DE/DX =    0.0                 !
 ! A6    A(7,1,8)              109.5964         -DE/DX =    0.0                 !
 ! A7    A(1,2,3)              109.3422         -DE/DX =    0.0                 !
 ! A8    A(1,2,5)              109.3473         -DE/DX =    0.0                 !
 ! A9    A(1,2,6)              109.3441         -DE/DX =    0.0                 !
 ! A10   A(3,2,5)              109.5966         -DE/DX =    0.0                 !
 ! A11   A(3,2,6)              109.5966         -DE/DX =    0.0                 !
 ! A12   A(5,2,6)              109.5998         -DE/DX =    0.0                 !
 ! D1    D(4,1,2,3)             60.0081         -DE/DX =    0.0                 !
 ! D2    D(4,1,2,5)           -179.993          -DE/DX =    0.0                 !
 ! D3    D(4,1,2,6)            -59.989          -DE/DX =    0.0                 !
 ! D4    D(7,1,2,3)           -179.9948         -DE/DX =    0.0                 !
 ! D5    D(7,1,2,5)            -59.9958         -DE/DX =    0.0                 !
 ! D6    D(7,1,2,6)             60.0082         -DE/DX =    0.0                 !
 ! D7    D(8,1,2,3)            -59.9959         -DE/DX =    0.0                 !
 ! D8    D(8,1,2,5)             60.0031         -DE/DX =    0.0                 !
 ! D9    D(8,1,2,6)           -179.9929         -DE/DX =    0.0                 !
 --------------------------------------------------------------------------------
 Lowest energy point so far.  Saving SCF results.
 Largest change from initial coordinates is atom    7       0.023 Angstoms.
 GradGradGradGradGradGradGradGradGradGradGradGradGradGradGradGradGradGrad

 Leave Link  103 at Mon Apr 21 20:18:27 2025, MaxMem=   536870912 cpu:               0.9 elap:               0.3
 (Enter /home/szhao/Apps/g16/l202.exe)
                          Input orientation:                          
 ---------------------------------------------------------------------
 Center     Atomic      Atomic             Coordinates (Angstroms)
 Number     Number       Type             X           Y           Z
 ---------------------------------------------------------------------
      1         14           0       -1.319819    0.000000    0.000000
      2         14           0        1.319819    0.000000    0.000000
      3          1           0        1.809826   -1.395946   -0.000033
      4          1           0       -1.809872   -0.697826    1.208998
      5          1           0        1.809952    0.697960   -1.208888
      6          1           0        1.809875    0.697877    1.208968
      7          1           0       -1.809828    1.395946   -0.000094
      8          1           0       -1.809953   -0.698012   -1.208857
 ---------------------------------------------------------------------
                    Distance matrix (angstroms):
                    1          2          3          4          5
     1  Si   0.000000
     2  Si   2.639638   0.000000
     3  H    3.426857   1.479450   0.000000
     4  H    1.479456   3.426894   3.879606   0.000000
     5  H    3.426955   1.479455   2.417803   4.571380   0.000000
     6  H    3.426896   1.479456   2.417805   3.879504   2.417856
     7  H    1.479450   3.426858   4.571276   2.417806   3.879584
     8  H    1.479455   3.426956   3.879584   2.417856   3.879748
                    6          7          8
     6  H    0.000000
     7  H    3.879611   0.000000
     8  H    4.571382   2.417802   0.000000
 Symmetry turned off by external request.
 Stoichiometry    H6Si2
 Framework group  C1[X(H6Si2)]
 Deg. of freedom    18
 Full point group                 C1      NOp   1
 Rotational constants (GHZ):          42.8897689           4.1032153           4.1032041
 Leave Link  202 at Mon Apr 21 20:18:27 2025, MaxMem=   536870912 cpu:               0.2 elap:               0.3
 (Enter /home/szhao/Apps/g16/l601.exe)
 Copying SCF densities to generalized density rwf, IOpCl= 1 IROHF=0.

 **********************************************************************

            Population analysis using the SCF density.

 **********************************************************************

 Alpha  occ. eigenvalues --  -66.99802 -66.99802  -5.54790  -5.54789  -3.85944
 Alpha  occ. eigenvalues --   -3.85928  -3.85889  -3.85889  -3.85887  -3.85887
 Alpha  occ. eigenvalues --   -0.62706  -0.58495  -0.41740  -0.41739  -0.40120
 Alpha  occ. eigenvalues --   -0.40119  -0.31787
 Alpha virt. eigenvalues --    0.00206   0.01938   0.03126   0.03126   0.04438
 Alpha virt. eigenvalues --    0.05670   0.05670   0.05853   0.05853   0.06112
 Alpha virt. eigenvalues --    0.09044   0.09045   0.09148   0.15689   0.17904
 Alpha virt. eigenvalues --    0.27249   0.28715   0.28715   0.30233   0.30400
 Alpha virt. eigenvalues --    0.30401   0.40028   0.40479   0.40480   0.41102
 Alpha virt. eigenvalues --    0.41103   0.49799   0.55377   0.56170   0.56170
 Alpha virt. eigenvalues --    0.57505   0.66110   0.66111   0.67254   0.90924
 Alpha virt. eigenvalues --    0.91028   0.91029   0.91907   0.91909   1.19897
 Alpha virt. eigenvalues --    1.19897   1.24034   1.24034   1.30970   1.32680
 Alpha virt. eigenvalues --    1.32683   1.33965   1.41915   1.41915   1.49040
 Alpha virt. eigenvalues --    1.49040   1.57931   1.63466   1.63468   1.64515
 Alpha virt. eigenvalues --    1.64517   1.69517   1.86842   1.89661   2.11104
 Alpha virt. eigenvalues --    2.11104   2.11172   2.11172   2.58593   2.58594
 Alpha virt. eigenvalues --    2.64816   2.64818   2.69239   2.77078   5.66275
 Alpha virt. eigenvalues --    5.67780  11.51789  11.58400  11.59861  11.59861
 Alpha virt. eigenvalues --   11.60973  11.60973 141.25707 141.28461
  Beta  occ. eigenvalues --  -66.99802 -66.99802  -5.54790  -5.54789  -3.85944
  Beta  occ. eigenvalues --   -3.85928  -3.85889  -3.85889  -3.85887  -3.85887
  Beta  occ. eigenvalues --   -0.62706  -0.58495  -0.41740  -0.41739  -0.40120
  Beta  occ. eigenvalues --   -0.40119  -0.31787
  Beta virt. eigenvalues --    0.00206   0.01938   0.03126   0.03126   0.04438
  Beta virt. eigenvalues --    0.05670   0.05670   0.05853   0.05853   0.06112
  Beta virt. eigenvalues --    0.09044   0.09045   0.09148   0.15689   0.17904
  Beta virt. eigenvalues --    0.27249   0.28715   0.28715   0.30233   0.30400
  Beta virt. eigenvalues --    0.30401   0.40028   0.40479   0.40480   0.41102
  Beta virt. eigenvalues --    0.41103   0.49799   0.55377   0.56170   0.56170
  Beta virt. eigenvalues --    0.57505   0.66110   0.66111   0.67254   0.90924
  Beta virt. eigenvalues --    0.91028   0.91029   0.91907   0.91909   1.19897
  Beta virt. eigenvalues --    1.19897   1.24034   1.24034   1.30970   1.32680
  Beta virt. eigenvalues --    1.32683   1.33965   1.41915   1.41915   1.49040
  Beta virt. eigenvalues --    1.49040   1.57931   1.63466   1.63468   1.64515
  Beta virt. eigenvalues --    1.64517   1.69517   1.86842   1.89661   2.11104
  Beta virt. eigenvalues --    2.11104   2.11172   2.11172   2.58593   2.58594
  Beta virt. eigenvalues --    2.64816   2.64818   2.69239   2.77078   5.66275
  Beta virt. eigenvalues --    5.67780  11.51789  11.58400  11.59861  11.59861
  Beta virt. eigenvalues --   11.60973  11.60973 141.25707 141.28461
          Condensed to atoms (all electrons):
               1          2          3          4          5          6
     1  Si  12.294744   0.387972  -0.021605   0.360841  -0.021601  -0.021602
     2  Si   0.387972  12.294744   0.360840  -0.021602   0.360841   0.360841
     3  H   -0.021605   0.360840   0.803389   0.000296  -0.022048  -0.022048
     4  H    0.360841  -0.021602   0.000296   0.803380   0.000740   0.000296
     5  H   -0.021601   0.360841  -0.022048   0.000740   0.803378  -0.022046
     6  H   -0.021602   0.360841  -0.022048   0.000296  -0.022046   0.803380
     7  H    0.360840  -0.021605   0.000740  -0.022048   0.000296   0.000296
     8  H    0.360841  -0.021601   0.000296  -0.022046   0.000296   0.000740
               7          8
     1  Si   0.360840   0.360841
     2  Si  -0.021605  -0.021601
     3  H    0.000740   0.000296
     4  H   -0.022048  -0.022046
     5  H    0.000296   0.000296
     6  H    0.000296   0.000740
     7  H    0.803389  -0.022048
     8  H   -0.022048   0.803378
          Atomic-Atomic Spin Densities.
               1          2          3          4          5          6
     1  Si   0.000000   0.000000   0.000000  -0.000000  -0.000000   0.000000
     2  Si   0.000000  -0.000000  -0.000000   0.000000  -0.000000  -0.000000
     3  H    0.000000  -0.000000   0.000000   0.000000   0.000000   0.000000
     4  H   -0.000000   0.000000   0.000000  -0.000000   0.000000  -0.000000
     5  H   -0.000000  -0.000000   0.000000   0.000000   0.000000   0.000000
     6  H    0.000000  -0.000000   0.000000  -0.000000   0.000000  -0.000000
     7  H   -0.000000  -0.000000  -0.000000  -0.000000   0.000000  -0.000000
     8  H    0.000000  -0.000000  -0.000000  -0.000000   0.000000  -0.000000
               7          8
     1  Si  -0.000000   0.000000
     2  Si  -0.000000  -0.000000
     3  H   -0.000000  -0.000000
     4  H   -0.000000  -0.000000
     5  H    0.000000   0.000000
     6  H   -0.000000  -0.000000
     7  H   -0.000000  -0.000000
     8  H   -0.000000  -0.000000
 Mulliken charges and spin densities:
               1          2
     1  Si   0.299570   0.000000
     2  Si   0.299570  -0.000000
     3  H   -0.099859   0.000000
     4  H   -0.099856  -0.000000
     5  H   -0.099855   0.000000
     6  H   -0.099856   0.000000
     7  H   -0.099859  -0.000000
     8  H   -0.099855  -0.000000
 Sum of Mulliken charges =  -0.00000   0.00000
 Mulliken charges and spin densities with hydrogens summed into heavy atoms:
               1          2
     1  Si  -0.000000   0.000000
     2  Si   0.000000  -0.000000
 Electronic spatial extent (au):  <R**2>=            356.5981
 Charge=              0.0000 electrons
 Dipole moment (field-independent basis, Debye):
    X=              0.0000    Y=              0.0000    Z=             -0.0000  Tot=              0.0000
 Quadrupole moment (field-independent basis, Debye-Ang):
   XX=            -31.8596   YY=            -31.4731   ZZ=            -31.4730
   XY=              0.0004   XZ=             -0.0000   YZ=             -0.0000
 Traceless Quadrupole moment (field-independent basis, Debye-Ang):
   XX=             -0.2577   YY=              0.1288   ZZ=              0.1289
   XY=              0.0004   XZ=             -0.0000   YZ=             -0.0000
 Octapole moment (field-independent basis, Debye-Ang**2):
  XXX=              0.0000  YYY=              0.0000  ZZZ=             -0.0007  XYY=              0.0000
  XXY=              0.0000  XXZ=             -0.0002  XZZ=              0.0000  YZZ=              0.0000
  YYZ=              0.0001  XYZ=              0.0000
 Hexadecapole moment (field-independent basis, Debye-Ang**3):
 XXXX=           -425.3459 YYYY=            -84.0929 ZZZZ=            -84.0940 XXXY=              0.0016
 XXXZ=             -0.0000 YYYX=              2.1310 YYYZ=              0.0000 ZZZX=              0.0001
 ZZZY=              0.0000 XXYY=            -89.2807 XXZZ=            -89.2804 YYZZ=            -28.0312
 XXYZ=              0.0000 YYXZ=             -0.0001 ZZXY=             -2.1291
 N-N= 8.478827889648D+01 E-N=-1.556300239552D+03  KE= 5.814099735282D+02
                          Isotropic Fermi Contact Couplings
        Atom                 a.u.       MegaHertz       Gauss      10(-4) cm-1
     1  Si(29)             0.00000      -0.00000      -0.00000      -0.00000
     2  Si(29)             0.00000      -0.00000      -0.00000      -0.00000
     3  H(1)               0.00000       0.00000       0.00000       0.00000
     4  H(1)              -0.00000      -0.00000      -0.00000      -0.00000
     5  H(1)               0.00000       0.00000       0.00000       0.00000
     6  H(1)               0.00000       0.00000       0.00000       0.00000
     7  H(1)              -0.00000      -0.00000      -0.00000      -0.00000
     8  H(1)              -0.00000      -0.00000      -0.00000      -0.00000
 --------------------------------------------------------
       Center         ----  Spin Dipole Couplings  ----
                      3XX-RR        3YY-RR        3ZZ-RR
 --------------------------------------------------------
     1   Atom        0.000000      0.000000      0.000000
     2   Atom        0.000000      0.000000      0.000000
     3   Atom        0.000000      0.000000      0.000000
     4   Atom        0.000000      0.000000      0.000000
     5   Atom        0.000000      0.000000      0.000000
     6   Atom        0.000000      0.000000      0.000000
     7   Atom        0.000000      0.000000      0.000000
     8   Atom        0.000000      0.000000      0.000000
 --------------------------------------------------------
                        XY            XZ            YZ
 --------------------------------------------------------
     1   Atom        0.000000      0.000000      0.000000
     2   Atom        0.000000      0.000000      0.000000
     3   Atom        0.000000      0.000000      0.000000
     4   Atom        0.000000      0.000000      0.000000
     5   Atom        0.000000      0.000000      0.000000
     6   Atom        0.000000      0.000000      0.000000
     7   Atom        0.000000      0.000000      0.000000
     8   Atom        0.000000      0.000000      0.000000
 --------------------------------------------------------


 ---------------------------------------------------------------------------------
              Anisotropic Spin Dipole Couplings in Principal Axis System
 ---------------------------------------------------------------------------------

       Atom             a.u.   MegaHertz   Gauss  10(-4) cm-1        Axes

              Baa     0.0000    -0.000    -0.000    -0.000  1.0000  0.0000  0.0000
     1 Si(29) Bbb     0.0000    -0.000    -0.000    -0.000 -0.0000  1.0000  0.0000
              Bcc     0.0000    -0.000    -0.000    -0.000  0.0000  0.0000  1.0000
 
              Baa     0.0000    -0.000    -0.000    -0.000  1.0000  0.0000  0.0000
     2 Si(29) Bbb     0.0000    -0.000    -0.000    -0.000 -0.0000  1.0000  0.0000
              Bcc     0.0000    -0.000    -0.000    -0.000  0.0000  0.0000  1.0000
 
              Baa     0.0000     0.000     0.000     0.000  1.0000  0.0000  0.0000
     3 H(1)   Bbb     0.0000     0.000     0.000     0.000 -0.0000  1.0000  0.0000
              Bcc     0.0000     0.000     0.000     0.000  0.0000  0.0000  1.0000
 
              Baa     0.0000     0.000     0.000     0.000  1.0000  0.0000  0.0000
     4 H(1)   Bbb     0.0000     0.000     0.000     0.000 -0.0000  1.0000  0.0000
              Bcc     0.0000     0.000     0.000     0.000  0.0000  0.0000  1.0000
 
              Baa     0.0000     0.000     0.000     0.000  1.0000  0.0000  0.0000
     5 H(1)   Bbb     0.0000     0.000     0.000     0.000 -0.0000  1.0000  0.0000
              Bcc     0.0000     0.000     0.000     0.000  0.0000  0.0000  1.0000
 
              Baa     0.0000     0.000     0.000     0.000  1.0000  0.0000  0.0000
     6 H(1)   Bbb     0.0000     0.000     0.000     0.000 -0.0000  1.0000  0.0000
              Bcc     0.0000     0.000     0.000     0.000  0.0000  0.0000  1.0000
 
              Baa     0.0000     0.000     0.000     0.000  1.0000  0.0000  0.0000
     7 H(1)   Bbb     0.0000     0.000     0.000     0.000 -0.0000  1.0000  0.0000
              Bcc     0.0000     0.000     0.000     0.000  0.0000  0.0000  1.0000
 
              Baa     0.0000     0.000     0.000     0.000  1.0000  0.0000  0.0000
     8 H(1)   Bbb     0.0000     0.000     0.000     0.000 -0.0000  1.0000  0.0000
              Bcc     0.0000     0.000     0.000     0.000  0.0000  0.0000  1.0000
 

 ---------------------------------------------------------------------------------

 No NMR shielding tensors so no spin-rotation constants.
 Leave Link  601 at Mon Apr 21 20:18:27 2025, MaxMem=   536870912 cpu:               1.6 elap:               0.2
 (Enter /home/szhao/Apps/g16/l9999.exe)
 1\1\GINC-NODE05\FOpt\UM062X\6-311+G(d,p)\H6Si2\SZHAO\21-Apr-2025\0\\#p
  opt UM062X/6-311+G** nosymm int=superfine\\Title Card Required\\0,1\S
 i,-1.31981901,0.,0.\Si,1.31981901,0.,0.\H,1.8098264389,-1.3959464059,-
 0.0000329291\H,-1.8098717637,-0.6978262449,1.2089984471\H,1.8099517804
 ,0.6979598717,-1.20888771\H,1.8098746983,0.697876871,1.208967928\H,-1.
 8098284395,1.3959456962,-0.0000944389\H,-1.8099530876,-0.6980116165,-1
 .2088572035\\Version=ES64L-G16RevA.03\HF=-582.5134818\S2=0.\S2-1=0.\S2
 A=0.\RMSD=2.319e-09\RMSF=1.037e-05\Dipole=0.0000002,0.0000003,-0.00001
 84\Quadrupole=-0.1916175,0.0957545,0.095863,0.0002955,-0.0000006,-0.00
 00001\PG=C01 [X(H6Si2)]\\@


 THE ONLY DIFFERENCE BETWEEN ECCENTRICS AND JOGGERS
 IS THAT JOGGERS WEAR SWEATBANDS WHEN THEY RUN IN THE RAIN.
 Job cpu time:       0 days  0 hours  5 minutes 26.9 seconds.
 Elapsed time:       0 days  0 hours  0 minutes 48.7 seconds.
 File lengths (MBytes):  RWF=     22 Int=      0 D2E=      0 Chk=      3 Scr=      2
 Normal termination of Gaussian 16 at Mon Apr 21 20:18:28 2025.
