 Entering Gaussian System, Link 0=g16
 Initial command:
 /home/szhao/Apps/g16/l1.exe "/home/szhao/tmp/Gau-74797.inp" -scrdir="/home/szhao/tmp/"
 Default is to use a total of  16 processors:
                               16 via shared-memory
                                1 via Linda
 Entering Link 1 = /home/szhao/Apps/g16/l1.exe PID=     74798.
  
 Copyright (c) 1988,1990,1992,1993,1995,1998,2003,2009,2016,
            Gaussian, Inc.  All Rights Reserved.
  
 This is part of the Gaussian(R) 16 program.  It is based on
 the Gaussian(R) 09 system (copyright 2009, Gaussian, Inc.),
 the Gaussian(R) 03 system (copyright 2003, Gaussian, Inc.),
 the Gaussian(R) 98 system (copyright 1998, Gaussian, Inc.),
 the Gaussian(R) 94 system (copyright 1995, Gaussian, Inc.),
 the Gaussian 92(TM) system (copyright 1992, Gaussian, Inc.),
 the Gaussian 90(TM) system (copyright 1990, Gaussian, Inc.),
 the Gaussian 88(TM) system (copyright 1988, Gaussian, Inc.),
 the Gaussian 86(TM) system (copyright 1986, Carnegie Mellon
 University), and the Gaussian 82(TM) system (copyright 1983,
 Carnegie Mellon University). Gaussian is a federally registered
 trademark of Gaussian, Inc.
  
 This software contains proprietary and confidential information,
 including trade secrets, belonging to Gaussian, Inc.
  
 This software is provided under written license and may be
 used, copied, transmitted, or stored only in accord with that
 written license.
  
 The following legend is applicable only to US Government
 contracts under FAR:
  
                    RESTRICTED RIGHTS LEGEND
  
 Use, reproduction and disclosure by the US Government is
 subject to restrictions as set forth in subparagraphs (a)
 and (c) of the Commercial Computer Software - Restricted
 Rights clause in FAR 52.227-19.
  
 Gaussian, Inc.
 340 Quinnipiac St., Bldg. 40, Wallingford CT 06492
  
  
 ---------------------------------------------------------------
 Warning -- This program may not be used in any manner that
 competes with the business of Gaussian, Inc. or will provide
 assistance to any competitor of Gaussian, Inc.  The licensee
 of this program is prohibited from giving any competitor of
 Gaussian, Inc. access to this program.  By using this program,
 the user acknowledges that Gaussian, Inc. is engaged in the
 business of creating and licensing software in the field of
 computational chemistry and represents and warrants to the
 licensee that it is not a competitor of Gaussian, Inc. and that
 it will not use this program in any manner prohibited above.
 ---------------------------------------------------------------
  

 Cite this work as:
 Gaussian 16, Revision A.03,
 M. J. Frisch, G. W. Trucks, H. B. Schlegel, G. E. Scuseria, 
 M. A. Robb, J. R. Cheeseman, G. Scalmani, V. Barone, 
 G. A. Petersson, H. Nakatsuji, X. Li, M. Caricato, A. V. Marenich, 
 J. Bloino, B. G. Janesko, R. Gomperts, B. Mennucci, H. P. Hratchian, 
 J. V. Ortiz, A. F. Izmaylov, J. L. Sonnenberg, D. Williams-Young, 
 F. Ding, F. Lipparini, F. Egidi, J. Goings, B. Peng, A. Petrone, 
 T. Henderson, D. Ranasinghe, V. G. Zakrzewski, J. Gao, N. Rega, 
 G. Zheng, W. Liang, M. Hada, M. Ehara, K. Toyota, R. Fukuda, 
 J. Hasegawa, M. Ishida, T. Nakajima, Y. Honda, O. Kitao, H. Nakai, 
 T. Vreven, K. Throssell, J. A. Montgomery, Jr., J. E. Peralta, 
 F. Ogliaro, M. J. Bearpark, J. J. Heyd, E. N. Brothers, K. N. Kudin, 
 V. N. Staroverov, T. A. Keith, R. Kobayashi, J. Normand, 
 K. Raghavachari, A. P. Rendell, J. C. Burant, S. S. Iyengar, 
 J. Tomasi, M. Cossi, J. M. Millam, M. Klene, C. Adamo, R. Cammi, 
 J. W. Ochterski, R. L. Martin, K. Morokuma, O. Farkas, 
 J. B. Foresman, and D. J. Fox, Gaussian, Inc., Wallingford CT, 2016.
 
 ******************************************
 Gaussian 16:  ES64L-G16RevA.03 25-Dec-2016
                21-Apr-2025 
 ******************************************
 %chk=opt.chk
 %mem=4GB
 %nprocshared=8
 Will use up to    8 processors via shared memory.
 --------------------------------------------
 #p opt UM062X/6-311+G** nosymm int=superfine
 --------------------------------------------
 1/18=20,19=15,26=5,38=1/1,3;
 2/9=110,12=2,15=1,17=6,18=5,40=1/2;
 3/5=4,6=6,7=111,11=2,25=1,30=1,71=1,74=-55,75=-7,116=2/1,2,3;
 4//1;
 5/5=2,38=5/2;
 6/7=2,8=2,9=2,10=2,28=1/1;
 7/30=1/1,2,3,16;
 1/18=20,19=15,26=5/3(2);
 2/9=110,15=1/2;
 99//99;
 2/9=110,15=1/2;
 3/5=4,6=6,7=111,11=2,25=1,30=1,71=1,74=-55,75=-7,116=2/1,2,3;
 4/5=5,16=3,69=1/1;
 5/5=2,38=5/2;
 7/30=1/1,2,3,16;
 1/18=20,19=15,26=5/3(-5);
 2/9=110,15=1/2;
 6/7=2,8=2,9=2,10=2,19=2,28=1/1;
 99/9=1/99;
 Leave Link    1 at Mon Apr 21 17:44:47 2025, MaxMem=   536870912 cpu:               1.6 elap:               0.2
 (Enter /home/szhao/Apps/g16/l101.exe)
 -------------------
 Title Card Required
 -------------------
 Symbolic Z-matrix:
 Charge =  0 Multiplicity = 1
 B                    -1   -1.7954    0.        0. 
 N                    -1    1.7954    0.        0. 
 H                    0    -2.37042  -1.04183   0. 
 H                    0     2.34676   0.8434   -0.00011 
 H                    0    -2.37042   1.04183  -0.00025 
 H                    0     2.34676  -0.8434    0.00011 
 
 Add virtual bond connecting atoms N2         and B1         Dist= 6.79D+00.
 ITRead=  2  2  0  0  0  0
 MicOpt= -2 -2 -1 -1 -1 -1
 NAtoms=      6 NQM=        4 NQMF=       2 NMMI=      0 NMMIF=      0
                NMic=       0 NMicF=      0.
                    Isotopes and Nuclear Properties:
 (Nuclear quadrupole moments (NQMom) in fm**2, nuclear magnetic moments (NMagM)
  in nuclear magnetons)

  Atom         1           2           3           4           5           6
 IAtWgt=          11          14           1           1           1           1
 AtmWgt=  11.0093053  14.0030740   1.0078250   1.0078250   1.0078250   1.0078250
 NucSpn=           3           2           1           1           1           1
 AtZEff=  -0.0000000  -0.0000000  -0.0000000  -0.0000000  -0.0000000  -0.0000000
 NQMom=    4.0590000   2.0440000   0.0000000   0.0000000   0.0000000   0.0000000
 NMagM=    2.6886370   0.4037610   2.7928460   2.7928460   2.7928460   2.7928460
 AtZNuc=   5.0000000   7.0000000   1.0000000   1.0000000   1.0000000   1.0000000
 Leave Link  101 at Mon Apr 21 17:44:47 2025, MaxMem=   536870912 cpu:               3.9 elap:               0.5
 (Enter /home/szhao/Apps/g16/l103.exe)

 GradGradGradGradGradGradGradGradGradGradGradGradGradGradGradGradGradGrad
 Berny optimization.
 Initialization pass.
                           ----------------------------
                           !    Initial Parameters    !
                           ! (Angstroms and Degrees)  !
 --------------------------                            --------------------------
 ! Name  Definition              Value          Derivative Info.                !
 --------------------------------------------------------------------------------
 ! X1    R(1,-1)                -1.7954         Frozen                          !
 ! Y1    R(1,-2)                 0.0            Frozen                          !
 ! Z1    R(1,-3)                 0.0            Frozen                          !
 ! X2    R(2,-1)                 1.7954         Frozen                          !
 ! Y2    R(2,-2)                 0.0            Frozen                          !
 ! Z2    R(2,-3)                 0.0            Frozen                          !
 ! R1    R(1,3)                  1.19           estimate D2E/DX2                !
 ! R2    R(1,5)                  1.19           estimate D2E/DX2                !
 ! R3    R(2,4)                  1.0076         estimate D2E/DX2                !
 ! R4    R(2,6)                  1.0076         estimate D2E/DX2                !
 ! A1    A(2,1,3)              118.8957         estimate D2E/DX2                !
 ! A2    A(2,1,5)              118.8958         estimate D2E/DX2                !
 ! A3    A(3,1,5)              122.2085         estimate D2E/DX2                !
 ! A4    A(1,2,4)              123.1743         estimate D2E/DX2                !
 ! A5    A(1,2,6)              123.1742         estimate D2E/DX2                !
 ! A6    A(4,2,6)              113.6514         estimate D2E/DX2                !
 ! D1    D(3,1,2,4)            179.9924         estimate D2E/DX2                !
 ! D2    D(3,1,2,6)             -0.0074         estimate D2E/DX2                !
 ! D3    D(5,1,2,4)              0.0061         estimate D2E/DX2                !
 ! D4    D(5,1,2,6)           -179.9937         estimate D2E/DX2                !
 --------------------------------------------------------------------------------
 Trust Radius=3.00D-01 FncErr=1.00D-07 GrdErr=1.00D-07 EigMax=2.50D+02 EigMin=1.00D-04
 Number of steps in this run=     30 maximum allowed number of steps=    100.
 GradGradGradGradGradGradGradGradGradGradGradGradGradGradGradGradGradGrad

 Leave Link  103 at Mon Apr 21 17:44:48 2025, MaxMem=   536870912 cpu:               0.6 elap:               0.1
 (Enter /home/szhao/Apps/g16/l202.exe)
                          Input orientation:                          
 ---------------------------------------------------------------------
 Center     Atomic      Atomic             Coordinates (Angstroms)
 Number     Number       Type             X           Y           Z
 ---------------------------------------------------------------------
      1          5           0       -1.795399    0.000000    0.000000
      2          7           0        1.795399    0.000000    0.000000
      3          1           0       -2.370420   -1.041831    0.000000
      4          1           0        2.346762    0.843396   -0.000112
      5          1           0       -2.370419    1.041829   -0.000249
      6          1           0        2.346761   -0.843396    0.000108
 ---------------------------------------------------------------------
                    Distance matrix (angstroms):
                    1          2          3          4          5
     1  B    0.000000
     2  N    3.590798   0.000000
     3  H    1.189983   4.294119   0.000000
     4  H    4.227152   1.007630   5.079949   0.000000
     5  H    1.189982   4.294118   2.083660   4.721354   0.000000
     6  H    4.227151   1.007629   4.721352   1.686792   5.079947
                    6
     6  H    0.000000
 Symmetry turned off by external request.
 Stoichiometry    BH4N
 Framework group  C1[X(BH4N)]
 Deg. of freedom    12
 Full point group                 C1      NOp   1
 Rotational constants (GHZ):         139.5468486           4.9510235           4.7813834
 Leave Link  202 at Mon Apr 21 17:44:48 2025, MaxMem=   536870912 cpu:               0.1 elap:               0.1
 (Enter /home/szhao/Apps/g16/l301.exe)
 Standard basis: 6-311+G(d,p) (5D, 7F)
 Ernie: Thresh=  0.10000D-02 Tol=  0.10000D-05 Strict=F.
    68 basis functions,   104 primitive gaussians,    70 cartesian basis functions
     8 alpha electrons        8 beta electrons
       nuclear repulsion energy        20.9345818784 Hartrees.
 IExCor= 4336 DFT=T Ex+Corr=M062X ExCW=0 ScaHFX=  0.540000
 ScaDFX=  1.000000  1.000000  1.000000  1.000000 ScalE2=  1.000000  1.000000
 IRadAn=      7 IRanWt=     -1 IRanGd=            0 ICorTp=0 IEmpDi=  4
 NAtoms=    6 NActive=    6 NUniq=    6 SFac= 1.00D+00 NAtFMM=   60 NAOKFM=F Big=F
 Integral buffers will be    131072 words long.
 Raffenetti 2 integral format.
 Two-electron integral symmetry is turned off.
 Leave Link  301 at Mon Apr 21 17:44:48 2025, MaxMem=   536870912 cpu:               1.1 elap:               0.2
 (Enter /home/szhao/Apps/g16/l302.exe)
 NPDir=0 NMtPBC=     1 NCelOv=     1 NCel=       1 NClECP=     1 NCelD=      1
         NCelK=      1 NCelE2=     1 NClLst=     1 CellRange=     0.0.
 One-electron integrals computed using PRISM.
 NBasis=    68 RedAO= T EigKep=  7.67D-03  NBF=    68
 NBsUse=    68 1.00D-06 EigRej= -1.00D+00 NBFU=    68
 Precomputing XC quadrature grid using
 IXCGrd= 4 IRadAn=           7 IRanWt=          -1 IRanGd=           0 AccXCQ= 0.00D+00.
 Generated NRdTot=       0 NPtTot=           0 NUsed=           0 NTot=          32
 NSgBfM=    70    70    70    70    70 MxSgAt=     6 MxSgA2=     6.
 Leave Link  302 at Mon Apr 21 17:44:49 2025, MaxMem=   536870912 cpu:               2.5 elap:               0.4
 (Enter /home/szhao/Apps/g16/l303.exe)
 DipDrv:  MaxL=1.
 Leave Link  303 at Mon Apr 21 17:44:49 2025, MaxMem=   536870912 cpu:               0.6 elap:               0.1
 (Enter /home/szhao/Apps/g16/l401.exe)
 ExpMin= 3.15D-02 ExpMax= 6.29D+03 ExpMxC= 9.49D+02 IAcc=3 IRadAn=         7 AccDes= 0.00D+00
 Harris functional with IExCor= 1009 and IRadAn=       7 diagonalized for initial guess.
 HarFok:  IExCor= 1009 AccDes= 0.00D+00 IRadAn=         7 IDoV= 1 UseB2=F ITyADJ=14
 ICtDFT=  3500011 ScaDFX=  1.000000  1.000000  1.000000  1.000000
 FoFCou: FMM=F IPFlag=           0 FMFlag=      100000 FMFlg1=           0
         NFxFlg=           0 DoJE=T BraDBF=F KetDBF=T FulRan=T
         wScrn=  0.000000 ICntrl=       500 IOpCl=  0 I1Cent=   200000004 NGrid=           0
         NMat0=    1 NMatS0=      1 NMatT0=    0 NMatD0=    1 NMtDS0=    0 NMtDT0=    0
 Symmetry not used in FoFCou.
 Harris En= -81.7903386428683    
 JPrj=0 DoOrth=F DoCkMO=F.
 Initial guess <Sx>= 0.0000 <Sy>= 0.0000 <Sz>= 0.0000 <S**2>=-0.0000 S=-0.0000
 Leave Link  401 at Mon Apr 21 17:44:50 2025, MaxMem=   536870912 cpu:               4.8 elap:               0.7
 (Enter /home/szhao/Apps/g16/l502.exe)
 Keep R1 and R2 ints in memory in canonical form, NReq=12681614.
 FoFCou: FMM=F IPFlag=           0 FMFlag=           0 FMFlg1=           0
         NFxFlg=           0 DoJE=F BraDBF=F KetDBF=F FulRan=T
         wScrn=  0.000000 ICntrl=       600 IOpCl=  0 I1Cent=           0 NGrid=           0
         NMat0=    1 NMatS0=   2346 NMatT0=    0 NMatD0=    1 NMtDS0=    0 NMtDT0=    0
 Symmetry not used in FoFCou.
 Two-electron integral symmetry not used.
 UHF open shell SCF:
 Using DIIS extrapolation, IDIIS=  1040.
 NGot=   536870912 LenX=   531353794 LenY=   531348453
 Requested convergence on RMS density matrix=1.00D-08 within 128 cycles.
 Requested convergence on MAX density matrix=1.00D-06.
 Requested convergence on             energy=1.00D-06.
 No special actions if energy rises.

 Cycle   1  Pass 1  IDiag  1:
 E= -81.4030377313896    
 DIIS: error= 7.72D-02 at cycle   1 NSaved=   1.
 NSaved= 1 IEnMin= 1 EnMin= -81.4030377313896     IErMin= 1 ErrMin= 7.72D-02
 ErrMax= 7.72D-02  0.00D+00 EMaxC= 1.00D-01 BMatC= 1.01D+00 BMatP= 1.01D+00
 IDIUse=3 WtCom= 2.28D-01 WtEn= 7.72D-01
 Coeff-Com:  0.100D+01
 Coeff-En:   0.100D+01
 Coeff:      0.100D+01
 Gap=    -0.420 Goal=   None    Shift=    0.000
 Gap=    -0.420 Goal=   None    Shift=    0.000
 GapD=   -0.420 DampG=0.250 DampE=0.500 DampFc=0.2500 IDamp=-1.
 Damping current iteration by 2.50D-01
 RMSDP=1.59D-02 MaxDP=2.29D-01              OVMax= 1.00D+00

 Cycle   2  Pass 1  IDiag  1:
 E= -81.4734429177316     Delta-E=       -0.070405186342 Rises=F Damp=T
 DIIS: error= 1.75D-02 at cycle   2 NSaved=   2.
 NSaved= 2 IEnMin= 2 EnMin= -81.4734429177316     IErMin= 2 ErrMin= 1.75D-02
 ErrMax= 1.75D-02  0.00D+00 EMaxC= 1.00D-01 BMatC= 9.50D-02 BMatP= 1.01D+00
 IDIUse=3 WtCom= 8.25D-01 WtEn= 1.75D-01
 Coeff-Com: -0.792D-01 0.108D+01
 Coeff-En:   0.401D+00 0.599D+00
 Coeff:      0.497D-02 0.995D+00
 Gap=     0.559 Goal=   None    Shift=    0.000
 Gap=     0.559 Goal=   None    Shift=    0.000
 RMSDP=4.26D-03 MaxDP=7.86D-02 DE=-7.04D-02 OVMax= 9.99D-01

 Cycle   3  Pass 1  IDiag  1:
 E= -81.5554141040648     Delta-E=       -0.081971186333 Rises=F Damp=F
 DIIS: error= 4.15D-02 at cycle   3 NSaved=   3.
 NSaved= 3 IEnMin= 3 EnMin= -81.5554141040648     IErMin= 2 ErrMin= 1.75D-02
 ErrMax= 4.15D-02  0.00D+00 EMaxC= 1.00D-01 BMatC= 2.20D-01 BMatP= 9.50D-02
 IDIUse=2 WtCom= 0.00D+00 WtEn= 1.00D+00
 Coeff-En:   0.000D+00 0.337D+00 0.663D+00
 Coeff:      0.000D+00 0.337D+00 0.663D+00
 Gap=    -0.101 Goal=   None    Shift=    0.000
 Gap=    -0.101 Goal=   None    Shift=    0.000
 RMSDP=1.38D-02 MaxDP=1.97D-01 DE=-8.20D-02 OVMax= 9.96D-01

 Cycle   4  Pass 1  IDiag  1:
 E= -78.6231218953814     Delta-E=        2.932292208683 Rises=F Damp=F
 DIIS: error= 2.29D-01 at cycle   4 NSaved=   4.
 NSaved= 4 IEnMin= 3 EnMin= -81.5554141040648     IErMin= 2 ErrMin= 1.75D-02
 ErrMax= 2.29D-01  0.00D+00 EMaxC= 1.00D-01 BMatC= 4.91D+00 BMatP= 9.50D-02
 IDIUse=2 WtCom= 0.00D+00 WtEn= 1.00D+00
 Coeff-En:   0.000D+00 0.000D+00 0.875D+00 0.125D+00
 Coeff:      0.000D+00 0.000D+00 0.875D+00 0.125D+00
 Gap=    -0.037 Goal=   None    Shift=    0.000
 Gap=    -0.037 Goal=   None    Shift=    0.000
 RMSDP=1.12D-02 MaxDP=1.97D-01 DE= 2.93D+00 OVMax= 8.15D-01

 Cycle   5  Pass 1  IDiag  1:
 E= -81.1246188237520     Delta-E=       -2.501496928371 Rises=F Damp=F
 DIIS: error= 8.89D-02 at cycle   5 NSaved=   5.
 NSaved= 5 IEnMin= 3 EnMin= -81.5554141040648     IErMin= 2 ErrMin= 1.75D-02
 ErrMax= 8.89D-02  0.00D+00 EMaxC= 1.00D-01 BMatC= 9.40D-01 BMatP= 9.50D-02
 IDIUse=2 WtCom= 0.00D+00 WtEn= 1.00D+00
 Coeff-En:   0.000D+00 0.000D+00 0.702D+00 0.000D+00 0.298D+00
 Coeff:      0.000D+00 0.000D+00 0.702D+00 0.000D+00 0.298D+00
 Gap=     0.048 Goal=   None    Shift=    0.000
 Gap=     0.048 Goal=   None    Shift=    0.000
 RMSDP=1.14D-02 MaxDP=1.73D-01 DE=-2.50D+00 OVMax= 1.00D+00

 Cycle   6  Pass 1  IDiag  1:
 E= -81.6282603846472     Delta-E=       -0.503641560895 Rises=F Damp=F
 DIIS: error= 2.36D-02 at cycle   6 NSaved=   6.
 NSaved= 6 IEnMin= 6 EnMin= -81.6282603846472     IErMin= 2 ErrMin= 1.75D-02
 ErrMax= 2.36D-02  0.00D+00 EMaxC= 1.00D-01 BMatC= 8.96D-02 BMatP= 9.50D-02
 IDIUse=3 WtCom= 7.64D-01 WtEn= 2.36D-01
 Coeff-Com: -0.311D+00 0.581D+00 0.318D+00-0.618D-02 0.139D-03 0.419D+00
 Coeff-En:   0.000D+00 0.000D+00 0.000D+00 0.000D+00 0.207D+00 0.793D+00
 Coeff:     -0.238D+00 0.444D+00 0.243D+00-0.472D-02 0.490D-01 0.507D+00
 Gap=     0.048 Goal=   None    Shift=    0.000
 Gap=     0.048 Goal=   None    Shift=    0.000
 RMSDP=8.28D-04 MaxDP=9.38D-03 DE=-5.04D-01 OVMax= 5.83D-02

 Cycle   7  Pass 1  IDiag  1:
 E= -81.6440949627821     Delta-E=       -0.015834578135 Rises=F Damp=F
 DIIS: error= 2.33D-02 at cycle   7 NSaved=   7.
 NSaved= 7 IEnMin= 7 EnMin= -81.6440949627821     IErMin= 2 ErrMin= 1.75D-02
 ErrMax= 2.33D-02  0.00D+00 EMaxC= 1.00D-01 BMatC= 6.85D-02 BMatP= 8.96D-02
 IDIUse=3 WtCom= 7.67D-01 WtEn= 2.33D-01
 Coeff-Com: -0.227D+00 0.396D+00-0.393D-01 0.199D-01-0.419D-01-0.170D+00
 Coeff-Com:  0.106D+01
 Coeff-En:   0.000D+00 0.000D+00 0.000D+00 0.000D+00 0.171D+00 0.000D+00
 Coeff-En:   0.829D+00
 Coeff:     -0.174D+00 0.304D+00-0.302D-01 0.153D-01 0.777D-02-0.131D+00
 Coeff:      0.101D+01
 Gap=     0.050 Goal=   None    Shift=    0.000
 Gap=     0.050 Goal=   None    Shift=    0.000
 RMSDP=1.26D-03 MaxDP=1.16D-02 DE=-1.58D-02 OVMax= 1.04D-01

 Cycle   8  Pass 1  IDiag  1:
 E= -81.6743740902891     Delta-E=       -0.030279127507 Rises=F Damp=F
 DIIS: error= 1.72D-02 at cycle   8 NSaved=   8.
 NSaved= 8 IEnMin= 8 EnMin= -81.6743740902891     IErMin= 8 ErrMin= 1.72D-02
 ErrMax= 1.72D-02  0.00D+00 EMaxC= 1.00D-01 BMatC= 2.47D-02 BMatP= 6.85D-02
 IDIUse=3 WtCom= 8.28D-01 WtEn= 1.72D-01
 Coeff-Com:  0.960D-01-0.740D-01 0.197D+00 0.244D-01-0.155D-01-0.125D+00
 Coeff-Com: -0.214D+01 0.304D+01
 Coeff-En:   0.000D+00 0.000D+00 0.000D+00 0.000D+00 0.607D-01 0.000D+00
 Coeff-En:   0.000D+00 0.939D+00
 Coeff:      0.795D-01-0.613D-01 0.163D+00 0.202D-01-0.238D-02-0.104D+00
 Coeff:     -0.177D+01 0.268D+01
 Gap=     0.074 Goal=   None    Shift=    0.000
 Gap=     0.074 Goal=   None    Shift=    0.000
 RMSDP=2.04D-03 MaxDP=1.89D-02 DE=-3.03D-02 OVMax= 1.74D-01

 Cycle   9  Pass 1  IDiag  1:
 E= -81.6913210813439     Delta-E=       -0.016946991055 Rises=F Damp=F
 DIIS: error= 4.54D-03 at cycle   9 NSaved=   9.
 NSaved= 9 IEnMin= 9 EnMin= -81.6913210813439     IErMin= 9 ErrMin= 4.54D-03
 ErrMax= 4.54D-03  0.00D+00 EMaxC= 1.00D-01 BMatC= 2.88D-03 BMatP= 2.47D-02
 IDIUse=3 WtCom= 9.55D-01 WtEn= 4.54D-02
 Coeff-Com:  0.204D-01-0.205D-01 0.470D-01 0.390D-02-0.896D-03-0.732D-01
 Coeff-Com: -0.337D+00 0.713D+00 0.647D+00
 Coeff-En:   0.000D+00 0.000D+00 0.000D+00 0.000D+00 0.000D+00 0.000D+00
 Coeff-En:   0.000D+00 0.000D+00 0.100D+01
 Coeff:      0.194D-01-0.196D-01 0.449D-01 0.372D-02-0.855D-03-0.699D-01
 Coeff:     -0.321D+00 0.680D+00 0.663D+00
 Gap=     0.077 Goal=   None    Shift=    0.000
 Gap=     0.077 Goal=   None    Shift=    0.000
 RMSDP=3.07D-04 MaxDP=5.25D-03 DE=-1.69D-02 OVMax= 2.52D-02

 Cycle  10  Pass 1  IDiag  1:
 E= -81.6924978290426     Delta-E=       -0.001176747699 Rises=F Damp=F
 DIIS: error= 2.25D-03 at cycle  10 NSaved=  10.
 NSaved=10 IEnMin=10 EnMin= -81.6924978290426     IErMin=10 ErrMin= 2.25D-03
 ErrMax= 2.25D-03  0.00D+00 EMaxC= 1.00D-01 BMatC= 4.29D-04 BMatP= 2.88D-03
 IDIUse=3 WtCom= 9.78D-01 WtEn= 2.25D-02
 Coeff-Com: -0.649D-03-0.734D-03-0.655D-02 0.800D-03 0.238D-02-0.705D-02
 Coeff-Com:  0.111D+00-0.143D+00-0.656D+00 0.170D+01
 Coeff-En:   0.000D+00 0.000D+00 0.000D+00 0.000D+00 0.000D+00 0.000D+00
 Coeff-En:   0.000D+00 0.000D+00 0.000D+00 0.100D+01
 Coeff:     -0.634D-03-0.718D-03-0.640D-02 0.782D-03 0.233D-02-0.689D-02
 Coeff:      0.108D+00-0.140D+00-0.642D+00 0.168D+01
 Gap=     0.081 Goal=   None    Shift=    0.000
 Gap=     0.081 Goal=   None    Shift=    0.000
 RMSDP=3.79D-04 MaxDP=6.87D-03 DE=-1.18D-03 OVMax= 3.79D-02

 Cycle  11  Pass 1  IDiag  1:
 E= -81.6929968839970     Delta-E=       -0.000499054954 Rises=F Damp=F
 DIIS: error= 8.31D-04 at cycle  11 NSaved=  11.
 NSaved=11 IEnMin=11 EnMin= -81.6929968839970     IErMin=11 ErrMin= 8.31D-04
 ErrMax= 8.31D-04  0.00D+00 EMaxC= 1.00D-01 BMatC= 5.26D-05 BMatP= 4.29D-04
 IDIUse=3 WtCom= 9.92D-01 WtEn= 8.31D-03
 Coeff-Com:  0.317D-02-0.391D-02 0.314D-01 0.179D-02-0.162D-02-0.180D-01
 Coeff-Com: -0.196D+00 0.211D+00 0.506D+00-0.139D+01 0.186D+01
 Coeff-En:   0.000D+00 0.000D+00 0.000D+00 0.000D+00 0.000D+00 0.000D+00
 Coeff-En:   0.000D+00 0.000D+00 0.000D+00 0.000D+00 0.100D+01
 Coeff:      0.314D-02-0.388D-02 0.311D-01 0.177D-02-0.161D-02-0.179D-01
 Coeff:     -0.195D+00 0.209D+00 0.501D+00-0.138D+01 0.185D+01
 Gap=     0.087 Goal=   None    Shift=    0.000
 Gap=     0.087 Goal=   None    Shift=    0.000
 RMSDP=2.76D-04 MaxDP=4.74D-03 DE=-4.99D-04 OVMax= 2.62D-02

 Cycle  12  Pass 1  IDiag  1:
 E= -81.6931580334720     Delta-E=       -0.000161149475 Rises=F Damp=F
 DIIS: error= 6.36D-04 at cycle  12 NSaved=  12.
 NSaved=12 IEnMin=12 EnMin= -81.6931580334720     IErMin=12 ErrMin= 6.36D-04
 ErrMax= 6.36D-04  0.00D+00 EMaxC= 1.00D-01 BMatC= 5.15D-05 BMatP= 5.26D-05
 IDIUse=3 WtCom= 9.94D-01 WtEn= 6.36D-03
 Coeff-Com: -0.120D-02-0.406D-03 0.603D-02 0.153D-02-0.226D-02 0.115D-03
 Coeff-Com: -0.740D-01 0.616D-01-0.531D-01 0.473D-03 0.473D-01 0.101D+01
 Coeff-En:   0.000D+00 0.000D+00 0.000D+00 0.000D+00 0.000D+00 0.000D+00
 Coeff-En:   0.000D+00 0.000D+00 0.000D+00 0.000D+00 0.000D+00 0.100D+01
 Coeff:     -0.119D-02-0.404D-03 0.600D-02 0.152D-02-0.224D-02 0.114D-03
 Coeff:     -0.736D-01 0.612D-01-0.528D-01 0.470D-03 0.470D-01 0.101D+01
 Gap=     0.087 Goal=   None    Shift=    0.000
 Gap=     0.087 Goal=   None    Shift=    0.000
 RMSDP=9.88D-05 MaxDP=1.45D-03 DE=-1.61D-04 OVMax= 9.43D-03

 Cycle  13  Pass 1  IDiag  1:
 E= -81.6931945714443     Delta-E=       -0.000036537972 Rises=F Damp=F
 DIIS: error= 4.77D-04 at cycle  13 NSaved=  13.
 NSaved=13 IEnMin=13 EnMin= -81.6931945714443     IErMin=13 ErrMin= 4.77D-04
 ErrMax= 4.77D-04  0.00D+00 EMaxC= 1.00D-01 BMatC= 3.51D-05 BMatP= 5.15D-05
 IDIUse=3 WtCom= 9.95D-01 WtEn= 4.77D-03
 Coeff-Com: -0.228D-02 0.187D-02 0.433D-02 0.854D-03-0.175D-02 0.686D-02
 Coeff-Com: -0.518D-01 0.415D-01-0.761D-01 0.171D+00-0.112D+00-0.440D-01
 Coeff-Com:  0.106D+01
 Coeff-En:   0.000D+00 0.000D+00 0.000D+00 0.000D+00 0.000D+00 0.000D+00
 Coeff-En:   0.000D+00 0.000D+00 0.000D+00 0.000D+00 0.000D+00 0.000D+00
 Coeff-En:   0.100D+01
 Coeff:     -0.226D-02 0.186D-02 0.431D-02 0.850D-03-0.175D-02 0.682D-02
 Coeff:     -0.515D-01 0.413D-01-0.758D-01 0.170D+00-0.112D+00-0.438D-01
 Coeff:      0.106D+01
 Gap=     0.086 Goal=   None    Shift=    0.000
 Gap=     0.086 Goal=   None    Shift=    0.000
 RMSDP=8.01D-05 MaxDP=1.06D-03 DE=-3.65D-05 OVMax= 7.38D-03

 Cycle  14  Pass 1  IDiag  1:
 E= -81.6932224469619     Delta-E=       -0.000027875518 Rises=F Damp=F
 DIIS: error= 3.68D-04 at cycle  14 NSaved=  14.
 NSaved=14 IEnMin=14 EnMin= -81.6932224469619     IErMin=14 ErrMin= 3.68D-04
 ErrMax= 3.68D-04  0.00D+00 EMaxC= 1.00D-01 BMatC= 2.03D-05 BMatP= 3.51D-05
 IDIUse=3 WtCom= 9.96D-01 WtEn= 3.68D-03
 Coeff-Com: -0.523D-02 0.568D-02 0.632D-02 0.723D-03-0.238D-02 0.135D-01
 Coeff-Com: -0.632D-01 0.533D-01-0.147D+00 0.407D+00-0.345D+00-0.720D+00
 Coeff-Com:  0.337D+01-0.158D+01
 Coeff-En:   0.000D+00 0.000D+00 0.000D+00 0.000D+00 0.000D+00 0.000D+00
 Coeff-En:   0.000D+00 0.000D+00 0.000D+00 0.000D+00 0.000D+00 0.000D+00
 Coeff-En:   0.000D+00 0.100D+01
 Coeff:     -0.521D-02 0.566D-02 0.630D-02 0.720D-03-0.238D-02 0.134D-01
 Coeff:     -0.630D-01 0.531D-01-0.146D+00 0.405D+00-0.344D+00-0.718D+00
 Coeff:      0.336D+01-0.157D+01
 Gap=     0.087 Goal=   None    Shift=    0.000
 Gap=     0.087 Goal=   None    Shift=    0.000
 RMSDP=1.03D-04 MaxDP=1.40D-03 DE=-2.79D-05 OVMax= 9.31D-03

 Cycle  15  Pass 1  IDiag  1:
 E= -81.6931828447085     Delta-E=        0.000039602253 Rises=F Damp=F
 DIIS: error= 6.96D-04 at cycle  15 NSaved=  15.
 NSaved=15 IEnMin=14 EnMin= -81.6932224469619     IErMin=14 ErrMin= 3.68D-04
 ErrMax= 6.96D-04  0.00D+00 EMaxC= 1.00D-01 BMatC= 4.86D-05 BMatP= 2.03D-05
 IDIUse=3 WtCom= 9.96D-01 WtEn= 3.68D-03
 Rare condition: small coef for last iteration:  0.000D+00
 Coeff-Com: -0.250D-02 0.224D-02 0.537D-02 0.987D-03-0.237D-02 0.156D-01
 Coeff-Com: -0.733D-01 0.492D-01-0.572D-01 0.203D+00-0.113D+00-0.102D+01
 Coeff-Com:  0.232D+01-0.167D+01 0.134D+01
 Coeff-En:   0.000D+00 0.000D+00 0.000D+00 0.000D+00 0.000D+00 0.000D+00
 Coeff-En:   0.000D+00 0.000D+00 0.000D+00 0.000D+00 0.000D+00 0.000D+00
 Coeff-En:   0.000D+00 0.000D+00 0.100D+01
 Coeff:     -0.250D-02 0.224D-02 0.537D-02 0.987D-03-0.237D-02 0.156D-01
 Coeff:     -0.733D-01 0.492D-01-0.572D-01 0.203D+00-0.113D+00-0.102D+01
 Coeff:      0.232D+01-0.167D+01 0.134D+01
 Gap=     0.087 Goal=   None    Shift=    0.000
 Gap=     0.087 Goal=   None    Shift=    0.000
 RMSDP=5.26D-05 MaxDP=5.39D-04 DE= 3.96D-05 OVMax= 3.86D-03

 Cycle  16  Pass 1  IDiag  1:
 E= -81.6931916267350     Delta-E=       -0.000008782027 Rises=F Damp=F
 DIIS: error= 2.97D-04 at cycle  16 NSaved=  16.
 NSaved=16 IEnMin=14 EnMin= -81.6932224469619     IErMin=16 ErrMin= 2.97D-04
 ErrMax= 2.97D-04  0.00D+00 EMaxC= 1.00D-01 BMatC= 1.30D-05 BMatP= 2.03D-05
 IDIUse=3 WtCom= 9.97D-01 WtEn= 2.97D-03
 Coeff-Com:  0.812D-03-0.135D-02-0.322D-02 0.310D-03-0.564D-03 0.675D-02
 Coeff-Com: -0.410D-02-0.695D-03 0.252D-01-0.520D-01 0.716D-01 0.893D-01
 Coeff-Com: -0.148D+01-0.615D+00 0.139D+00 0.283D+01
 Coeff-En:   0.000D+00 0.000D+00 0.000D+00 0.000D+00 0.000D+00 0.000D+00
 Coeff-En:   0.000D+00 0.000D+00 0.000D+00 0.000D+00 0.000D+00 0.000D+00
 Coeff-En:   0.000D+00 0.000D+00 0.000D+00 0.100D+01
 Coeff:      0.809D-03-0.135D-02-0.321D-02 0.310D-03-0.562D-03 0.673D-02
 Coeff:     -0.409D-02-0.693D-03 0.251D-01-0.518D-01 0.714D-01 0.891D-01
 Coeff:     -0.148D+01-0.614D+00 0.138D+00 0.282D+01
 Gap=     0.085 Goal=   None    Shift=    0.000
 Gap=     0.085 Goal=   None    Shift=    0.000
 RMSDP=1.79D-04 MaxDP=2.33D-03 DE=-8.78D-06 OVMax= 1.58D-02

 Cycle  17  Pass 1  IDiag  1:
 E= -81.6931746003276     Delta-E=        0.000017026407 Rises=F Damp=F
 DIIS: error= 3.84D-04 at cycle  17 NSaved=  17.
 NSaved=17 IEnMin=14 EnMin= -81.6932224469619     IErMin=16 ErrMin= 2.97D-04
 ErrMax= 3.84D-04  0.00D+00 EMaxC= 1.00D-01 BMatC= 1.32D-05 BMatP= 1.30D-05
 IDIUse=3 WtCom= 9.97D-01 WtEn= 2.97D-03
 Rare condition: small coef for last iteration:  0.000D+00
 Coeff-Com: -0.112D-05 0.407D-04 0.167D-03-0.241D-04 0.625D-05 0.117D-02
 Coeff-Com: -0.273D-02 0.541D-02-0.808D-02-0.108D-01-0.118D-01 0.176D+00
 Coeff-Com:  0.123D+00-0.286D+00 0.892D+00-0.109D+01 0.121D+01
 Coeff-En:   0.000D+00 0.000D+00 0.000D+00 0.000D+00 0.000D+00 0.000D+00
 Coeff-En:   0.000D+00 0.000D+00 0.000D+00 0.000D+00 0.000D+00 0.000D+00
 Coeff-En:   0.000D+00 0.000D+00 0.000D+00 0.000D+00 0.100D+01
 Coeff:     -0.112D-05 0.407D-04 0.167D-03-0.241D-04 0.625D-05 0.117D-02
 Coeff:     -0.273D-02 0.541D-02-0.808D-02-0.108D-01-0.118D-01 0.176D+00
 Coeff:      0.123D+00-0.286D+00 0.892D+00-0.109D+01 0.121D+01
 Gap=     0.085 Goal=   None    Shift=    0.000
 Gap=     0.085 Goal=   None    Shift=    0.000
 RMSDP=3.76D-05 MaxDP=4.14D-04 DE= 1.70D-05 OVMax= 2.78D-03

 Cycle  18  Pass 1  IDiag  1:
 E= -81.6931795156071     Delta-E=       -0.000004915280 Rises=F Damp=F
 DIIS: error= 5.40D-05 at cycle  18 NSaved=  18.
 NSaved=18 IEnMin=14 EnMin= -81.6932224469619     IErMin=18 ErrMin= 5.40D-05
 ErrMax= 5.40D-05  0.00D+00 EMaxC= 1.00D-01 BMatC= 3.75D-07 BMatP= 1.30D-05
 IDIUse=1 WtCom= 1.00D+00 WtEn= 0.00D+00
 Coeff-Com:  0.358D-04-0.612D-05-0.190D-03-0.837D-05-0.457D-05 0.138D-03
 Coeff-Com: -0.462D-03 0.268D-02-0.795D-03-0.786D-02-0.116D-01 0.191D-01
 Coeff-Com:  0.777D-01-0.584D-01 0.234D-01-0.551D-01 0.372D-01 0.974D+00
 Coeff:      0.358D-04-0.612D-05-0.190D-03-0.837D-05-0.457D-05 0.138D-03
 Coeff:     -0.462D-03 0.268D-02-0.795D-03-0.786D-02-0.116D-01 0.191D-01
 Coeff:      0.777D-01-0.584D-01 0.234D-01-0.551D-01 0.372D-01 0.974D+00
 Gap=     0.085 Goal=   None    Shift=    0.000
 Gap=     0.085 Goal=   None    Shift=    0.000
 RMSDP=7.66D-06 MaxDP=1.47D-04 DE=-4.92D-06 OVMax= 7.99D-04

 Cycle  19  Pass 1  IDiag  1:
 E= -81.6931797381909     Delta-E=       -0.000000222584 Rises=F Damp=F
 DIIS: error= 1.81D-05 at cycle  19 NSaved=  19.
 NSaved=19 IEnMin=14 EnMin= -81.6932224469619     IErMin=19 ErrMin= 1.81D-05
 ErrMax= 1.81D-05  0.00D+00 EMaxC= 1.00D-01 BMatC= 3.98D-08 BMatP= 3.75D-07
 IDIUse=1 WtCom= 1.00D+00 WtEn= 0.00D+00
 Coeff-Com: -0.195D-05 0.131D-04-0.688D-04-0.333D-05-0.385D-05-0.326D-04
 Coeff-Com:  0.350D-04 0.662D-03 0.421D-03-0.237D-02 0.145D-02-0.637D-02
 Coeff-Com: -0.110D-01 0.310D-01-0.951D-01 0.117D+00-0.800D-01-0.131D+00
 Coeff-Com:  0.117D+01
 Coeff:     -0.195D-05 0.131D-04-0.688D-04-0.333D-05-0.385D-05-0.326D-04
 Coeff:      0.350D-04 0.662D-03 0.421D-03-0.237D-02 0.145D-02-0.637D-02
 Coeff:     -0.110D-01 0.310D-01-0.951D-01 0.117D+00-0.800D-01-0.131D+00
 Coeff:      0.117D+01
 Gap=     0.085 Goal=   None    Shift=    0.000
 Gap=     0.085 Goal=   None    Shift=    0.000
 RMSDP=5.35D-06 MaxDP=6.21D-05 DE=-2.23D-07 OVMax= 5.13D-04

 Cycle  20  Pass 1  IDiag  1:
 E= -81.6931797609060     Delta-E=       -0.000000022715 Rises=F Damp=F
 DIIS: error= 1.76D-06 at cycle  20 NSaved=  20.
 NSaved=20 IEnMin=14 EnMin= -81.6932224469619     IErMin=20 ErrMin= 1.76D-06
 ErrMax= 1.76D-06  0.00D+00 EMaxC= 1.00D-01 BMatC= 3.81D-10 BMatP= 3.98D-08
 IDIUse=1 WtCom= 1.00D+00 WtEn= 0.00D+00
 Coeff-Com: -0.174D-05 0.188D-05 0.376D-05-0.185D-06-0.108D-05-0.470D-04
 Coeff-Com:  0.544D-04-0.434D-04-0.148D-03-0.404D-03 0.987D-03 0.347D-02
 Coeff-Com: -0.332D-03-0.920D-02-0.149D-02 0.441D-02 0.169D-01-0.656D-01
 Coeff-Com: -0.341D-01 0.109D+01
 Coeff:     -0.174D-05 0.188D-05 0.376D-05-0.185D-06-0.108D-05-0.470D-04
 Coeff:      0.544D-04-0.434D-04-0.148D-03-0.404D-03 0.987D-03 0.347D-02
 Coeff:     -0.332D-03-0.920D-02-0.149D-02 0.441D-02 0.169D-01-0.656D-01
 Coeff:     -0.341D-01 0.109D+01
 Gap=     0.085 Goal=   None    Shift=    0.000
 Gap=     0.085 Goal=   None    Shift=    0.000
 RMSDP=1.35D-06 MaxDP=1.50D-05 DE=-2.27D-08 OVMax= 1.23D-04

 Cycle  21  Pass 1  IDiag  1:
 E= -81.6931797608488     Delta-E=        0.000000000057 Rises=F Damp=F
 DIIS: error= 1.12D-06 at cycle  21 NSaved=  20.
 NSaved=20 IEnMin=13 EnMin= -81.6932224469619     IErMin=20 ErrMin= 1.12D-06
 ErrMax= 1.12D-06  0.00D+00 EMaxC= 1.00D-01 BMatC= 8.62D-11 BMatP= 3.81D-10
 IDIUse=1 WtCom= 1.00D+00 WtEn= 0.00D+00
 Coeff-Com: -0.116D-05 0.101D-05 0.250D-05-0.283D-06 0.797D-05-0.279D-04
 Coeff-Com:  0.356D-04 0.247D-04 0.214D-03 0.240D-03-0.325D-03 0.522D-03
 Coeff-Com: -0.148D-02 0.159D-02-0.178D-02 0.337D-03-0.981D-02-0.332D-01
 Coeff-Com:  0.275D-01 0.102D+01
 Coeff:     -0.116D-05 0.101D-05 0.250D-05-0.283D-06 0.797D-05-0.279D-04
 Coeff:      0.356D-04 0.247D-04 0.214D-03 0.240D-03-0.325D-03 0.522D-03
 Coeff:     -0.148D-02 0.159D-02-0.178D-02 0.337D-03-0.981D-02-0.332D-01
 Coeff:      0.275D-01 0.102D+01
 Gap=     0.085 Goal=   None    Shift=    0.000
 Gap=     0.085 Goal=   None    Shift=    0.000
 RMSDP=2.30D-07 MaxDP=2.59D-06 DE= 5.72D-11 OVMax= 1.75D-05

 Cycle  22  Pass 1  IDiag  1:
 E= -81.6931797608786     Delta-E=       -0.000000000030 Rises=F Damp=F
 DIIS: error= 3.35D-07 at cycle  22 NSaved=  20.
 NSaved=20 IEnMin=12 EnMin= -81.6932224469619     IErMin=20 ErrMin= 3.35D-07
 ErrMax= 3.35D-07  0.00D+00 EMaxC= 1.00D-01 BMatC= 7.72D-12 BMatP= 8.62D-11
 IDIUse=1 WtCom= 1.00D+00 WtEn= 0.00D+00
 Coeff-Com:  0.451D-07-0.705D-07-0.426D-06 0.431D-06 0.117D-04-0.299D-04
 Coeff-Com: -0.133D-04-0.630D-04-0.622D-04 0.270D-03-0.681D-03 0.115D-02
 Coeff-Com: -0.374D-04-0.712D-03 0.349D-03 0.136D-02 0.926D-02-0.502D-01
 Coeff-Com: -0.170D+00 0.121D+01
 Coeff:      0.451D-07-0.705D-07-0.426D-06 0.431D-06 0.117D-04-0.299D-04
 Coeff:     -0.133D-04-0.630D-04-0.622D-04 0.270D-03-0.681D-03 0.115D-02
 Coeff:     -0.374D-04-0.712D-03 0.349D-03 0.136D-02 0.926D-02-0.502D-01
 Coeff:     -0.170D+00 0.121D+01
 Gap=     0.085 Goal=   None    Shift=    0.000
 Gap=     0.085 Goal=   None    Shift=    0.000
 RMSDP=7.15D-08 MaxDP=9.73D-07 DE=-2.98D-11 OVMax= 5.18D-06

 Cycle  23  Pass 1  IDiag  1:
 E= -81.6931797608828     Delta-E=       -0.000000000004 Rises=F Damp=F
 DIIS: error= 1.55D-07 at cycle  23 NSaved=  20.
 NSaved=20 IEnMin=11 EnMin= -81.6932224469619     IErMin=20 ErrMin= 1.55D-07
 ErrMax= 1.55D-07  0.00D+00 EMaxC= 1.00D-01 BMatC= 1.84D-12 BMatP= 7.72D-12
 IDIUse=1 WtCom= 1.00D+00 WtEn= 0.00D+00
 Coeff-Com:  0.125D-06 0.312D-06-0.126D-06-0.266D-05 0.447D-05 0.250D-05
 Coeff-Com:  0.363D-04-0.546D-04-0.183D-03 0.432D-03-0.274D-03 0.428D-03
 Coeff-Com: -0.207D-03-0.122D-03 0.313D-03 0.400D-02-0.367D-02-0.108D+00
 Coeff-Com: -0.942D-01 0.120D+01
 Coeff:      0.125D-06 0.312D-06-0.126D-06-0.266D-05 0.447D-05 0.250D-05
 Coeff:      0.363D-04-0.546D-04-0.183D-03 0.432D-03-0.274D-03 0.428D-03
 Coeff:     -0.207D-03-0.122D-03 0.313D-03 0.400D-02-0.367D-02-0.108D+00
 Coeff:     -0.942D-01 0.120D+01
 Gap=     0.085 Goal=   None    Shift=    0.000
 Gap=     0.085 Goal=   None    Shift=    0.000
 RMSDP=3.21D-08 MaxDP=4.37D-07 DE=-4.25D-12 OVMax= 2.29D-06

 Cycle  24  Pass 1  IDiag  1:
 E= -81.6931797608845     Delta-E=       -0.000000000002 Rises=F Damp=F
 DIIS: error= 6.69D-08 at cycle  24 NSaved=  20.
 NSaved=20 IEnMin=10 EnMin= -81.6932224469619     IErMin=20 ErrMin= 6.69D-08
 ErrMax= 6.69D-08  0.00D+00 EMaxC= 1.00D-01 BMatC= 3.64D-13 BMatP= 1.84D-12
 IDIUse=1 WtCom= 1.00D+00 WtEn= 0.00D+00
 Coeff-Com:  0.953D-07-0.440D-07-0.282D-06 0.458D-06 0.808D-06-0.632D-05
 Coeff-Com:  0.318D-04 0.275D-04-0.124D-03 0.849D-04-0.797D-04 0.311D-04
 Coeff-Com:  0.952D-04-0.239D-03-0.125D-02 0.141D-02 0.535D-01-0.163D+00
 Coeff-Com: -0.281D+00 0.139D+01
 Coeff:      0.953D-07-0.440D-07-0.282D-06 0.458D-06 0.808D-06-0.632D-05
 Coeff:      0.318D-04 0.275D-04-0.124D-03 0.849D-04-0.797D-04 0.311D-04
 Coeff:      0.952D-04-0.239D-03-0.125D-02 0.141D-02 0.535D-01-0.163D+00
 Coeff:     -0.281D+00 0.139D+01
 Gap=     0.085 Goal=   None    Shift=    0.000
 Gap=     0.085 Goal=   None    Shift=    0.000
 RMSDP=9.75D-09 MaxDP=1.11D-07 DE=-1.65D-12 OVMax= 7.60D-07

 SCF Done:  E(UM062X) =  -81.6931797609     A.U. after   24 cycles
            NFock= 24  Conv=0.97D-08     -V/T= 2.0066
 <Sx>= 0.0000 <Sy>= 0.0000 <Sz>= 0.0000 <S**2>=-0.0000 S=-0.0000
 <L.S>=  0.00000000000    
 KE= 8.115383121991D+01 PE=-2.318317610783D+02 EE= 4.805016821909D+01
 Annihilation of the first spin contaminant:
 S**2 before annihilation    -0.0000,   after    -0.0000
 Leave Link  502 at Mon Apr 21 17:45:12 2025, MaxMem=   536870912 cpu:             172.3 elap:              22.3
 (Enter /home/szhao/Apps/g16/l601.exe)
 Copying SCF densities to generalized density rwf, IOpCl= 1 IROHF=0.

 **********************************************************************

            Population analysis using the SCF density.

 **********************************************************************

 Alpha  occ. eigenvalues --  -14.67243  -7.22109  -0.83568  -0.65232  -0.50960
 Alpha  occ. eigenvalues --   -0.47442  -0.28150  -0.23091
 Alpha virt. eigenvalues --   -0.14542  -0.10401   0.00060   0.02730   0.04424
 Alpha virt. eigenvalues --    0.04984   0.11375   0.11934   0.12833   0.17613
 Alpha virt. eigenvalues --    0.18775   0.21567   0.26089   0.26391   0.32053
 Alpha virt. eigenvalues --    0.32310   0.37158   0.40908   0.51934   0.52913
 Alpha virt. eigenvalues --    0.63638   0.64241   0.72612   0.77448   0.79004
 Alpha virt. eigenvalues --    0.84016   0.87353   0.91517   1.02480   1.07775
 Alpha virt. eigenvalues --    1.09807   1.31589   1.43399   1.49285   1.54215
 Alpha virt. eigenvalues --    1.55786   1.65801   1.69670   1.74118   1.78502
 Alpha virt. eigenvalues --    1.85446   1.91770   2.07216   2.08392   2.23841
 Alpha virt. eigenvalues --    2.41914   2.48791   2.49730   2.55061   2.55913
 Alpha virt. eigenvalues --    2.56197   2.64163   2.79133   3.05442   3.13800
 Alpha virt. eigenvalues --    3.99433   4.30484   4.88054  14.28940  35.67710
  Beta  occ. eigenvalues --  -14.67243  -7.22109  -0.83568  -0.65232  -0.50960
  Beta  occ. eigenvalues --   -0.47442  -0.28150  -0.23091
  Beta virt. eigenvalues --   -0.14542  -0.10401   0.00060   0.02730   0.04424
  Beta virt. eigenvalues --    0.04984   0.11375   0.11934   0.12833   0.17613
  Beta virt. eigenvalues --    0.18775   0.21567   0.26089   0.26391   0.32053
  Beta virt. eigenvalues --    0.32310   0.37158   0.40908   0.51934   0.52913
  Beta virt. eigenvalues --    0.63638   0.64241   0.72612   0.77448   0.79004
  Beta virt. eigenvalues --    0.84016   0.87353   0.91517   1.02480   1.07775
  Beta virt. eigenvalues --    1.09807   1.31589   1.43399   1.49285   1.54215
  Beta virt. eigenvalues --    1.55786   1.65801   1.69670   1.74118   1.78502
  Beta virt. eigenvalues --    1.85446   1.91770   2.07216   2.08392   2.23841
  Beta virt. eigenvalues --    2.41914   2.48791   2.49730   2.55061   2.55913
  Beta virt. eigenvalues --    2.56197   2.64163   2.79133   3.05442   3.13800
  Beta virt. eigenvalues --    3.99433   4.30484   4.88054  14.28940  35.67710
          Condensed to atoms (all electrons):
               1          2          3          4          5          6
     1  B    3.815520   0.120326   0.389429  -0.004966   0.389429  -0.004966
     2  N    0.120326   7.119667  -0.004181   0.337542  -0.004181   0.337542
     3  H    0.389429  -0.004181   0.574428   0.000039  -0.030859   0.000147
     4  H   -0.004966   0.337542   0.000039   0.466156   0.000147  -0.033665
     5  H    0.389429  -0.004181  -0.030859   0.000147   0.574428   0.000039
     6  H   -0.004966   0.337542   0.000147  -0.033665   0.000039   0.466156
          Atomic-Atomic Spin Densities.
               1          2          3          4          5          6
     1  B    0.000000   0.000000  -0.000000  -0.000000  -0.000000  -0.000000
     2  N    0.000000  -0.000000  -0.000000   0.000000  -0.000000   0.000000
     3  H   -0.000000  -0.000000   0.000000   0.000000   0.000000   0.000000
     4  H   -0.000000   0.000000   0.000000  -0.000000   0.000000  -0.000000
     5  H   -0.000000  -0.000000   0.000000   0.000000   0.000000   0.000000
     6  H   -0.000000   0.000000   0.000000  -0.000000   0.000000  -0.000000
 Mulliken charges and spin densities:
               1          2
     1  B    0.295227   0.000000
     2  N   -0.906714  -0.000000
     3  H    0.070997   0.000000
     4  H    0.234747  -0.000000
     5  H    0.070997   0.000000
     6  H    0.234747  -0.000000
 Sum of Mulliken charges =  -0.00000   0.00000
 Mulliken charges and spin densities with hydrogens summed into heavy atoms:
               1          2
     1  B    0.437221   0.000000
     2  N   -0.437221  -0.000000
 Electronic spatial extent (au):  <R**2>=            258.5846
 Charge=             -0.0000 electrons
 Dipole moment (field-independent basis, Debye):
    X=             -5.7346    Y=             -0.0000    Z=              0.0000  Tot=              5.7346
 Quadrupole moment (field-independent basis, Debye-Ang):
   XX=             -7.6813   YY=            -13.3370   ZZ=            -16.8490
   XY=             -0.0000   XZ=             -0.0002   YZ=             -0.0005
 Traceless Quadrupole moment (field-independent basis, Debye-Ang):
   XX=              4.9411   YY=             -0.7146   ZZ=             -4.2266
   XY=             -0.0000   XZ=             -0.0002   YZ=             -0.0005
 Octapole moment (field-independent basis, Debye-Ang**2):
  XXX=            -12.6227  YYY=              0.0000  ZZZ=              0.0007  XYY=              1.2054
  XXY=              0.0000  XXZ=              0.0007  XZZ=             -8.6243  YZZ=              0.0000
  YYZ=              0.0000  XYZ=             -0.0013
 Hexadecapole moment (field-independent basis, Debye-Ang**3):
 XXXX=           -292.0444 YYYY=            -31.3330 ZZZZ=            -24.3211 XXXY=              0.0000
 XXXZ=             -0.0022 YYYX=             -0.0000 YYYZ=              0.0001 ZZZX=             -0.0017
 ZZZY=              0.0007 XXYY=            -48.2473 XXZZ=            -66.0922 YYZZ=            -10.1005
 XXYZ=             -0.0023 YYXZ=              0.0000 ZZXY=             -0.0000
 N-N= 2.093458187845D+01 E-N=-2.318317595713D+02  KE= 8.115383121991D+01
                          Isotropic Fermi Contact Couplings
        Atom                 a.u.       MegaHertz       Gauss      10(-4) cm-1
     1  B(11)              0.00000       0.00000       0.00000       0.00000
     2  N(14)             -0.00000      -0.00000      -0.00000      -0.00000
     3  H(1)               0.00000       0.00000       0.00000       0.00000
     4  H(1)              -0.00000      -0.00000      -0.00000      -0.00000
     5  H(1)               0.00000       0.00000       0.00000       0.00000
     6  H(1)              -0.00000      -0.00000      -0.00000      -0.00000
 --------------------------------------------------------
       Center         ----  Spin Dipole Couplings  ----
                      3XX-RR        3YY-RR        3ZZ-RR
 --------------------------------------------------------
     1   Atom        0.000000     -0.000000     -0.000000
     2   Atom       -0.000000      0.000000      0.000000
     3   Atom        0.000000      0.000000     -0.000000
     4   Atom        0.000000     -0.000000      0.000000
     5   Atom        0.000000      0.000000     -0.000000
     6   Atom        0.000000     -0.000000      0.000000
 --------------------------------------------------------
                        XY            XZ            YZ
 --------------------------------------------------------
     1   Atom        0.000000     -0.000000     -0.000000
     2   Atom       -0.000000     -0.000000     -0.000000
     3   Atom        0.000000     -0.000000      0.000000
     4   Atom       -0.000000     -0.000000      0.000000
     5   Atom       -0.000000     -0.000000     -0.000000
     6   Atom        0.000000     -0.000000     -0.000000
 --------------------------------------------------------


 ---------------------------------------------------------------------------------
              Anisotropic Spin Dipole Couplings in Principal Axis System
 ---------------------------------------------------------------------------------

       Atom             a.u.   MegaHertz   Gauss  10(-4) cm-1        Axes

              Baa    -0.0000    -0.000    -0.000    -0.000  0.0000  1.0000  0.0002
     1 B(11)  Bbb    -0.0000    -0.000    -0.000    -0.000  0.0116 -0.0002  0.9999
              Bcc     0.0000     0.000     0.000     0.000  0.9999  0.0000 -0.0116
 
              Baa    -0.0000    -0.000    -0.000    -0.000  0.9972  0.0000  0.0746
     2 N(14)  Bbb     0.0000     0.000     0.000     0.000 -0.0746  0.0000  0.9972
              Bcc     0.0000     0.000     0.000     0.000 -0.0000  1.0000 -0.0000
 
              Baa    -0.0000    -0.000    -0.000    -0.000  0.0157 -0.0062  0.9999
     3 H(1)   Bbb    -0.0000    -0.000    -0.000    -0.000  0.8875 -0.4604 -0.0168
              Bcc     0.0000     0.000     0.000     0.000  0.4605  0.8877 -0.0017
 
              Baa    -0.0000    -0.000    -0.000    -0.000  0.3796  0.9251 -0.0085
     4 H(1)   Bbb     0.0000     0.000     0.000     0.000  0.9220 -0.3775  0.0861
              Bcc     0.0000     0.000     0.000     0.000 -0.0765  0.0406  0.9962
 
              Baa    -0.0000    -0.000    -0.000    -0.000  0.0157  0.0065  0.9999
     5 H(1)   Bbb    -0.0000    -0.000    -0.000    -0.000  0.8875  0.4604 -0.0169
              Bcc     0.0000     0.000     0.000     0.000 -0.4605  0.8877  0.0015
 
              Baa    -0.0000    -0.000    -0.000    -0.000 -0.3796  0.9251  0.0083
     6 H(1)   Bbb     0.0000     0.000     0.000     0.000  0.9220  0.3776  0.0860
              Bcc     0.0000     0.000     0.000     0.000 -0.0765 -0.0403  0.9963
 

 ---------------------------------------------------------------------------------

 No NMR shielding tensors so no spin-rotation constants.
 Leave Link  601 at Mon Apr 21 17:45:13 2025, MaxMem=   536870912 cpu:               2.4 elap:               0.4
 (Enter /home/szhao/Apps/g16/l701.exe)
 ... and contract with generalized density number  0.
 Compute integral first derivatives.
 Leave Link  701 at Mon Apr 21 17:45:13 2025, MaxMem=   536870912 cpu:               1.9 elap:               0.4
 (Enter /home/szhao/Apps/g16/l702.exe)
 L702 exits ... SP integral derivatives will be done elsewhere.
 Leave Link  702 at Mon Apr 21 17:45:14 2025, MaxMem=   536870912 cpu:               0.8 elap:               0.1
 (Enter /home/szhao/Apps/g16/l703.exe)
 Integral derivatives from FoFJK, PRISM(SPDF).
 Compute integral first derivatives, UseDBF=F ICtDFT=           0.
 Calling FoFJK, ICntrl=      2127 FMM=F ISym2X=0 I1Cent= 0 IOpClX= 1 NMat=1 NMatS=1 NMatT=0.
 FoFJK:  IHMeth= 1 ICntrl=    2127 DoSepK=F KAlg= 0 I1Cent=           0 FoldK=F
 IRaf=         0 NMat=       1 IRICut=       1 DoRegI=T DoRafI=F ISym2E= 0 IDoP0=0 IntGTp=1.
 FoFCou: FMM=F IPFlag=           0 FMFlag=      100000 FMFlg1=         800
         NFxFlg=           0 DoJE=F BraDBF=F KetDBF=F FulRan=T
         wScrn=  0.000000 ICntrl=      2127 IOpCl=  1 I1Cent=           0 NGrid=           0
         NMat0=    1 NMatS0=      1 NMatT0=    0 NMatD0=    1 NMtDS0=    0 NMtDT0=    0
 Symmetry not used in FoFCou.
 Leave Link  703 at Mon Apr 21 17:45:16 2025, MaxMem=   536870912 cpu:              17.0 elap:               2.2
 (Enter /home/szhao/Apps/g16/l716.exe)
 Dipole        =-2.25615872D+00-3.15784223D-07 1.23752840D-05
 -------------------------------------------------------------------
 Center     Atomic                   Forces (Hartrees/Bohr)
 Number     Number              X              Y              Z
 -------------------------------------------------------------------
      1        5          -0.000000000   -0.000000000   -0.000000000
      2        7          -0.000000000   -0.000000000   -0.000000000
      3        1           0.019669205   -0.004626033    0.000006838
      4        1          -0.009288404    0.010483848   -0.000002842
      5        1           0.019668894    0.004626661    0.000005724
      6        1          -0.009288079   -0.010484349   -0.000000023
 -------------------------------------------------------------------
 Cartesian Forces:  Max     0.019669205 RMS     0.008195272
 Leave Link  716 at Mon Apr 21 17:45:16 2025, MaxMem=   536870912 cpu:               1.0 elap:               0.2
 (Enter /home/szhao/Apps/g16/l103.exe)

 GradGradGradGradGradGradGradGradGradGradGradGradGradGradGradGradGradGrad
 Berny optimization.
 FormGI is forming the generalized inverse of G from B-inverse, IUseBI=4.
 Internal  Forces:  Max     0.039338099 RMS     0.013595402
 Search for a local minimum.
 Step number   1 out of a maximum of   30
 All quantities printed in internal units (Hartrees-Bohrs-Radians)
 RMS Force = .11352D-01 SwitMx=.10000D-02 MixMth= 1
 Mixed Optimization -- RFO/linear search
 Second derivative matrix not updated -- first step.
 The second derivative matrix:
                          X1        Y1        Z1        X2        Y2
           X1           0.50000
           Y1           0.00000   0.50000
           Z1           0.00000   0.00000   0.50000
           X2           0.00000   0.00000   0.00000   0.50000
           Y2           0.00000   0.00000   0.00000   0.00000   0.50000
           Z2           0.00000   0.00000   0.00000   0.00000   0.00000
           R1           0.00000   0.00000   0.00000   0.00000   0.00000
           R2           0.00000   0.00000   0.00000   0.00000   0.00000
           R3           0.00000   0.00000   0.00000   0.00000   0.00000
           R4           0.00000   0.00000   0.00000   0.00000   0.00000
           A1           0.00000   0.00000   0.00000   0.00000   0.00000
           A2           0.00000   0.00000   0.00000   0.00000   0.00000
           A3           0.00000   0.00000   0.00000   0.00000   0.00000
           A4           0.00000   0.00000   0.00000   0.00000   0.00000
           A5           0.00000   0.00000   0.00000   0.00000   0.00000
           A6           0.00000   0.00000   0.00000   0.00000   0.00000
           D1           0.00000   0.00000   0.00000   0.00000   0.00000
           D2           0.00000   0.00000   0.00000   0.00000   0.00000
           D3           0.00000   0.00000   0.00000   0.00000   0.00000
           D4           0.00000   0.00000   0.00000   0.00000   0.00000
                          Z2        R1        R2        R3        R4
           Z2           0.50000
           R1           0.00000   0.25411
           R2           0.00000   0.00000   0.25411
           R3           0.00000   0.00000   0.00000   0.46372
           R4           0.00000   0.00000   0.00000   0.00000   0.46372
           A1           0.00000   0.00000   0.00000   0.00000   0.00000
           A2           0.00000   0.00000   0.00000   0.00000   0.00000
           A3           0.00000   0.00000   0.00000   0.00000   0.00000
           A4           0.00000   0.00000   0.00000   0.00000   0.00000
           A5           0.00000   0.00000   0.00000   0.00000   0.00000
           A6           0.00000   0.00000   0.00000   0.00000   0.00000
           D1           0.00000   0.00000   0.00000   0.00000   0.00000
           D2           0.00000   0.00000   0.00000   0.00000   0.00000
           D3           0.00000   0.00000   0.00000   0.00000   0.00000
           D4           0.00000   0.00000   0.00000   0.00000   0.00000
                          A1        A2        A3        A4        A5
           A1           0.16000
           A2           0.00000   0.16000
           A3           0.00000   0.00000   0.16000
           A4           0.00000   0.00000   0.00000   0.16000
           A5           0.00000   0.00000   0.00000   0.00000   0.16000
           A6           0.00000   0.00000   0.00000   0.00000   0.00000
           D1           0.00000   0.00000   0.00000   0.00000   0.00000
           D2           0.00000   0.00000   0.00000   0.00000   0.00000
           D3           0.00000   0.00000   0.00000   0.00000   0.00000
           D4           0.00000   0.00000   0.00000   0.00000   0.00000
                          A6        D1        D2        D3        D4
           A6           0.16000
           D1           0.00000   0.00230
           D2           0.00000   0.00000   0.00230
           D3           0.00000   0.00000   0.00000   0.00230
           D4           0.00000   0.00000   0.00000   0.00000   0.00230
 ITU=  0
     Eigenvalues ---    0.00230   0.00230   0.00230   0.16000   0.16000
     Eigenvalues ---    0.16000   0.16000   0.25411   0.25411   0.46372
     Eigenvalues ---    0.463721000.000001000.000001000.000001000.00000
     Eigenvalues --- 1000.000001000.000001000.000001000.000001000.00000
 RFO step:  Lambda=-1.03630751D-02 EMin= 2.30000000D-03
 Linear search not attempted -- first point.
 Iteration  1 RMS(Cart)=  0.06828064 RMS(Int)=  0.00275011
 Iteration  2 RMS(Cart)=  0.00275954 RMS(Int)=  0.00000100
 Iteration  3 RMS(Cart)=  0.00000128 RMS(Int)=  0.00000002
 Iteration  4 RMS(Cart)=  0.00000000 RMS(Int)=  0.00000002
 ITry= 1 IFail=0 DXMaxC= 1.81D-01 DCOld= 1.00D+10 DXMaxT= 3.00D-01 DXLimC= 3.00D+00 Rises=F
 Variable       Old X    -DE/DX   Delta X   Delta X   Delta X     New X
                                 (Linear)    (Quad)   (Total)
    X1       -3.39281   0.03934   0.00000   0.00000   0.00000  -3.39281
    Y1        0.00000   0.00000   0.00000   0.00000   0.00000   0.00000
    Z1        0.00000   0.00001   0.00000   0.00000   0.00000   0.00000
    X2        3.39281  -0.01858   0.00000   0.00000   0.00000   3.39281
    Y2        0.00000  -0.00000   0.00000   0.00000   0.00000   0.00000
    Z2        0.00000  -0.00000   0.00000   0.00000   0.00000   0.00000
    R1        2.24874  -0.00545   0.00000  -0.02062  -0.02062   2.22812
    R2        2.24874  -0.00545   0.00000  -0.02062  -0.02062   2.22812
    R3        1.90414   0.00369   0.00000   0.00779   0.00779   1.91193
    R4        1.90414   0.00369   0.00000   0.00779   0.00779   1.91193
    A1        2.07512  -0.01458   0.00000  -0.08560  -0.08560   1.98952
    A2        2.07512  -0.01458   0.00000  -0.08560  -0.08560   1.98952
    A3        2.13294   0.02917   0.00000   0.17121   0.17121   2.30415
    A4        2.14980  -0.00858   0.00000  -0.05034  -0.05034   2.09946
    A5        2.14980  -0.00858   0.00000  -0.05034  -0.05034   2.09946
    A6        1.98359   0.01715   0.00000   0.10068   0.10068   2.08427
    D1        3.14146   0.00000   0.00000   0.00019   0.00019  -3.14154
    D2       -0.00013   0.00000   0.00000   0.00037   0.00037   0.00024
    D3        0.00011  -0.00000   0.00000  -0.00037  -0.00037  -0.00027
    D4       -3.14148  -0.00000   0.00000  -0.00019  -0.00019   3.14151
         Item               Value     Threshold  Converged?
 Maximum Force            0.029167     0.000450     NO 
 RMS     Force            0.011352     0.000300     NO 
 Maximum Displacement     0.180693     0.001800     NO 
 RMS     Displacement     0.068120     0.001200     NO 
 Predicted change in Energy=-5.493168D-03
 Lowest energy point so far.  Saving SCF results.
 GradGradGradGradGradGradGradGradGradGradGradGradGradGradGradGradGradGrad

 Leave Link  103 at Mon Apr 21 17:45:17 2025, MaxMem=   536870912 cpu:               1.3 elap:               0.3
 (Enter /home/szhao/Apps/g16/l202.exe)
                          Input orientation:                          
 ---------------------------------------------------------------------
 Center     Atomic      Atomic             Coordinates (Angstroms)
 Number     Number       Type             X           Y           Z
 ---------------------------------------------------------------------
      1          5           0       -1.795399    0.000000    0.000000
      2          7           0        1.795399    0.000000    0.000000
      3          1           0       -2.274801   -1.077209    0.000305
      4          1           0        2.305706    0.873629   -0.000197
      5          1           0       -2.274802    1.077209    0.000046
      6          1           0        2.305705   -0.873630    0.000035
 ---------------------------------------------------------------------
                    Distance matrix (angstroms):
                    1          2          3          4          5
     1  B    0.000000
     2  N    3.590798   0.000000
     3  H    1.179070   4.210334   0.000000
     4  H    4.193124   1.011752   4.978636   0.000000
     5  H    1.179070   4.210334   2.154418   4.585030   0.000000
     6  H    4.193123   1.011752   4.585028   1.747259   4.978635
                    6
     6  H    0.000000
 Symmetry turned off by external request.
 Stoichiometry    BH4N
 Framework group  C1[X(BH4N)]
 Deg. of freedom    12
 Full point group                 C1      NOp   1
 Rotational constants (GHZ):         130.3423563           5.0159397           4.8300652
 Leave Link  202 at Mon Apr 21 17:45:17 2025, MaxMem=   536870912 cpu:               0.4 elap:               0.1
 (Enter /home/szhao/Apps/g16/l301.exe)
 Standard basis: 6-311+G(d,p) (5D, 7F)
 Ernie: Thresh=  0.10000D-02 Tol=  0.10000D-05 Strict=F.
    68 basis functions,   104 primitive gaussians,    70 cartesian basis functions
     8 alpha electrons        8 beta electrons
       nuclear repulsion energy        20.9819833109 Hartrees.
 IExCor= 4336 DFT=T Ex+Corr=M062X ExCW=0 ScaHFX=  0.540000
 ScaDFX=  1.000000  1.000000  1.000000  1.000000 ScalE2=  1.000000  1.000000
 IRadAn=      7 IRanWt=     -1 IRanGd=            0 ICorTp=0 IEmpDi=  4
 NAtoms=    6 NActive=    6 NUniq=    6 SFac= 1.00D+00 NAtFMM=   60 NAOKFM=F Big=F
 Integral buffers will be    131072 words long.
 Raffenetti 2 integral format.
 Two-electron integral symmetry is turned off.
 Leave Link  301 at Mon Apr 21 17:45:17 2025, MaxMem=   536870912 cpu:               0.8 elap:               0.2
 (Enter /home/szhao/Apps/g16/l302.exe)
 NPDir=0 NMtPBC=     1 NCelOv=     1 NCel=       1 NClECP=     1 NCelD=      1
         NCelK=      1 NCelE2=     1 NClLst=     1 CellRange=     0.0.
 One-electron integrals computed using PRISM.
 NBasis=    68 RedAO= T EigKep=  7.88D-03  NBF=    68
 NBsUse=    68 1.00D-06 EigRej= -1.00D+00 NBFU=    68
 Precomputing XC quadrature grid using
 IXCGrd= 4 IRadAn=           7 IRanWt=          -1 IRanGd=           0 AccXCQ= 0.00D+00.
 Generated NRdTot=       0 NPtTot=           0 NUsed=           0 NTot=          32
 NSgBfM=    70    70    70    70    70 MxSgAt=     6 MxSgA2=     6.
 Leave Link  302 at Mon Apr 21 17:45:18 2025, MaxMem=   536870912 cpu:               1.5 elap:               0.3
 (Enter /home/szhao/Apps/g16/l303.exe)
 DipDrv:  MaxL=1.
 Leave Link  303 at Mon Apr 21 17:45:18 2025, MaxMem=   536870912 cpu:               0.8 elap:               0.2
 (Enter /home/szhao/Apps/g16/l401.exe)
 Initial guess from the checkpoint file:  "opt.chk"
 B after Tr=     0.012888    0.000000    0.000065
         Rot=    1.000000    0.000001   -0.000016    0.000000 Ang=   0.00 deg.
 Guess basis will be translated and rotated to current coordinates.
 JPrj=2 DoOrth=T DoCkMO=T.
 Initial guess <Sx>= 0.0000 <Sy>= 0.0000 <Sz>= 0.0000 <S**2>= 0.0000 S= 0.0000
 Generating alternative initial guess.
 ExpMin= 3.15D-02 ExpMax= 6.29D+03 ExpMxC= 9.49D+02 IAcc=3 IRadAn=         5 AccDes= 0.00D+00
 Harris functional with IExCor= 1009 and IRadAn=       5 diagonalized for initial guess.
 HarFok:  IExCor= 1009 AccDes= 0.00D+00 IRadAn=         5 IDoV= 1 UseB2=F ITyADJ=14
 ICtDFT=  3500011 ScaDFX=  1.000000  1.000000  1.000000  1.000000
 FoFCou: FMM=F IPFlag=           0 FMFlag=      100000 FMFlg1=           0
         NFxFlg=           0 DoJE=T BraDBF=F KetDBF=T FulRan=T
         wScrn=  0.000000 ICntrl=       500 IOpCl=  0 I1Cent=   200000004 NGrid=           0
         NMat0=    1 NMatS0=      1 NMatT0=    0 NMatD0=    1 NMtDS0=    0 NMtDT0=    0
 Symmetry not used in FoFCou.
 Harris En= -81.7949952949932    
 Leave Link  401 at Mon Apr 21 17:45:19 2025, MaxMem=   536870912 cpu:               3.7 elap:               0.6
 (Enter /home/szhao/Apps/g16/l502.exe)
 Keep R1 and R2 ints in memory in canonical form, NReq=12681614.
 FoFCou: FMM=F IPFlag=           0 FMFlag=           0 FMFlg1=           0
         NFxFlg=           0 DoJE=F BraDBF=F KetDBF=F FulRan=T
         wScrn=  0.000000 ICntrl=       600 IOpCl=  0 I1Cent=           0 NGrid=           0
         NMat0=    1 NMatS0=   2346 NMatT0=    0 NMatD0=    1 NMtDS0=    0 NMtDT0=    0
 Symmetry not used in FoFCou.
 Two-electron integral symmetry not used.
 UHF open shell SCF:
 Using DIIS extrapolation, IDIIS=  1040.
 NGot=   536870912 LenX=   531353794 LenY=   531348453
 Requested convergence on RMS density matrix=1.00D-08 within 128 cycles.
 Requested convergence on MAX density matrix=1.00D-06.
 Requested convergence on             energy=1.00D-06.
 No special actions if energy rises.

 Cycle   1  Pass 1  IDiag  1:
 E= -81.7003858032546    
 DIIS: error= 3.74D-03 at cycle   1 NSaved=   1.
 NSaved= 1 IEnMin= 1 EnMin= -81.7003858032546     IErMin= 1 ErrMin= 3.74D-03
 ErrMax= 3.74D-03  0.00D+00 EMaxC= 1.00D-01 BMatC= 2.40D-03 BMatP= 2.40D-03
 IDIUse=3 WtCom= 9.63D-01 WtEn= 3.74D-02
 Coeff-Com:  0.100D+01
 Coeff-En:   0.100D+01
 Coeff:      0.100D+01
 Gap=     0.448 Goal=   None    Shift=    0.000
 Gap=     0.448 Goal=   None    Shift=    0.000
 GapD=    0.448 DampG=2.000 DampE=1.000 DampFc=2.0000 IDamp=-1.
 RMSDP=3.86D-04 MaxDP=3.45D-03              OVMax= 1.67D-02

 Cycle   2  Pass 1  IDiag  1:
 E= -81.7011015658079     Delta-E=       -0.000715762553 Rises=F Damp=F
 DIIS: error= 2.01D-03 at cycle   2 NSaved=   2.
 NSaved= 2 IEnMin= 2 EnMin= -81.7011015658079     IErMin= 2 ErrMin= 2.01D-03
 ErrMax= 2.01D-03  0.00D+00 EMaxC= 1.00D-01 BMatC= 4.73D-04 BMatP= 2.40D-03
 IDIUse=3 WtCom= 9.80D-01 WtEn= 2.01D-02
 Coeff-Com:  0.155D+00 0.845D+00
 Coeff-En:   0.000D+00 0.100D+01
 Coeff:      0.152D+00 0.848D+00
 Gap=     0.102 Goal=   None    Shift=    0.000
 Gap=     0.102 Goal=   None    Shift=    0.000
 RMSDP=4.12D-04 MaxDP=4.76D-03 DE=-7.16D-04 OVMax= 3.45D-02

 Cycle   3  Pass 1  IDiag  1:
 E= -81.7003518080953     Delta-E=        0.000749757713 Rises=F Damp=F
 DIIS: error= 4.73D-03 at cycle   3 NSaved=   3.
 NSaved= 3 IEnMin= 2 EnMin= -81.7011015658079     IErMin= 2 ErrMin= 2.01D-03
 ErrMax= 4.73D-03  0.00D+00 EMaxC= 1.00D-01 BMatC= 2.90D-03 BMatP= 4.73D-04
 IDIUse=3 WtCom= 1.27D-01 WtEn= 8.73D-01
 Coeff-Com: -0.562D-01 0.755D+00 0.301D+00
 Coeff-En:   0.000D+00 0.772D+00 0.228D+00
 Coeff:     -0.713D-02 0.770D+00 0.238D+00
 Gap=     0.097 Goal=   None    Shift=    0.000
 Gap=     0.097 Goal=   None    Shift=    0.000
 RMSDP=2.06D-04 MaxDP=2.68D-03 DE= 7.50D-04 OVMax= 1.77D-02

 Cycle   4  Pass 1  IDiag  1:
 E= -81.7012315905700     Delta-E=       -0.000879782475 Rises=F Damp=F
 DIIS: error= 1.14D-03 at cycle   4 NSaved=   4.
 NSaved= 4 IEnMin= 4 EnMin= -81.7012315905700     IErMin= 4 ErrMin= 1.14D-03
 ErrMax= 1.14D-03  0.00D+00 EMaxC= 1.00D-01 BMatC= 1.49D-04 BMatP= 4.73D-04
 IDIUse=3 WtCom= 9.89D-01 WtEn= 1.14D-02
 Coeff-Com: -0.214D-01 0.139D+00-0.184D+00 0.107D+01
 Coeff-En:   0.000D+00 0.270D+00 0.000D+00 0.730D+00
 Coeff:     -0.211D-01 0.140D+00-0.181D+00 0.106D+01
 Gap=     0.094 Goal=   None    Shift=    0.000
 Gap=     0.094 Goal=   None    Shift=    0.000
 RMSDP=7.54D-05 MaxDP=1.08D-03 DE=-8.80D-04 OVMax= 6.34D-03

 Cycle   5  Pass 1  IDiag  1:
 E= -81.7012834132902     Delta-E=       -0.000051822720 Rises=F Damp=F
 DIIS: error= 1.53D-04 at cycle   5 NSaved=   5.
 NSaved= 5 IEnMin= 5 EnMin= -81.7012834132902     IErMin= 5 ErrMin= 1.53D-04
 ErrMax= 1.53D-04  0.00D+00 EMaxC= 1.00D-01 BMatC= 1.78D-06 BMatP= 1.49D-04
 IDIUse=3 WtCom= 9.98D-01 WtEn= 1.53D-03
 Coeff-Com: -0.561D-03-0.276D-01-0.352D-01 0.197D+00 0.866D+00
 Coeff-En:   0.000D+00 0.000D+00 0.000D+00 0.000D+00 0.100D+01
 Coeff:     -0.560D-03-0.275D-01-0.351D-01 0.197D+00 0.866D+00
 Gap=     0.095 Goal=   None    Shift=    0.000
 Gap=     0.095 Goal=   None    Shift=    0.000
 RMSDP=1.48D-05 MaxDP=1.76D-04 DE=-5.18D-05 OVMax= 1.16D-03

 Cycle   6  Pass 1  IDiag  1:
 E= -81.7012843652102     Delta-E=       -0.000000951920 Rises=F Damp=F
 DIIS: error= 3.16D-05 at cycle   6 NSaved=   6.
 NSaved= 6 IEnMin= 6 EnMin= -81.7012843652102     IErMin= 6 ErrMin= 3.16D-05
 ErrMax= 3.16D-05  0.00D+00 EMaxC= 1.00D-01 BMatC= 1.31D-07 BMatP= 1.78D-06
 IDIUse=1 WtCom= 1.00D+00 WtEn= 0.00D+00
 Coeff-Com:  0.140D-02-0.164D-01-0.968D-03-0.279D-01 0.185D+00 0.859D+00
 Coeff:      0.140D-02-0.164D-01-0.968D-03-0.279D-01 0.185D+00 0.859D+00
 Gap=     0.095 Goal=   None    Shift=    0.000
 Gap=     0.095 Goal=   None    Shift=    0.000
 RMSDP=4.02D-06 MaxDP=6.73D-05 DE=-9.52D-07 OVMax= 3.71D-04

 Cycle   7  Pass 1  IDiag  1:
 E= -81.7012844648752     Delta-E=       -0.000000099665 Rises=F Damp=F
 DIIS: error= 1.62D-05 at cycle   7 NSaved=   7.
 NSaved= 7 IEnMin= 7 EnMin= -81.7012844648752     IErMin= 7 ErrMin= 1.62D-05
 ErrMax= 1.62D-05  0.00D+00 EMaxC= 1.00D-01 BMatC= 1.18D-08 BMatP= 1.31D-07
 IDIUse=1 WtCom= 1.00D+00 WtEn= 0.00D+00
 Coeff-Com: -0.665D-03 0.105D-01 0.276D-02-0.180D-02-0.129D+00-0.631D+00
 Coeff-Com:  0.175D+01
 Coeff:     -0.665D-03 0.105D-01 0.276D-02-0.180D-02-0.129D+00-0.631D+00
 Coeff:      0.175D+01
 Gap=     0.094 Goal=   None    Shift=    0.000
 Gap=     0.094 Goal=   None    Shift=    0.000
 RMSDP=4.76D-06 MaxDP=8.13D-05 DE=-9.97D-08 OVMax= 4.78D-04

 Cycle   8  Pass 1  IDiag  1:
 E= -81.7012845164775     Delta-E=       -0.000000051602 Rises=F Damp=F
 DIIS: error= 5.05D-06 at cycle   8 NSaved=   8.
 NSaved= 8 IEnMin= 8 EnMin= -81.7012845164775     IErMin= 8 ErrMin= 5.05D-06
 ErrMax= 5.05D-06  0.00D+00 EMaxC= 1.00D-01 BMatC= 2.70D-09 BMatP= 1.18D-08
 IDIUse=1 WtCom= 1.00D+00 WtEn= 0.00D+00
 Coeff-Com: -0.198D-03 0.236D-02 0.160D-03 0.634D-02-0.168D-01-0.201D+00
 Coeff-Com:  0.105D+00 0.110D+01
 Coeff:     -0.198D-03 0.236D-02 0.160D-03 0.634D-02-0.168D-01-0.201D+00
 Coeff:      0.105D+00 0.110D+01
 Gap=     0.094 Goal=   None    Shift=    0.000
 Gap=     0.094 Goal=   None    Shift=    0.000
 RMSDP=2.81D-06 MaxDP=3.05D-05 DE=-5.16D-08 OVMax= 2.67D-04

 Cycle   9  Pass 1  IDiag  1:
 E= -81.7012845376951     Delta-E=       -0.000000021218 Rises=F Damp=F
 DIIS: error= 5.73D-06 at cycle   9 NSaved=   9.
 NSaved= 9 IEnMin= 9 EnMin= -81.7012845376951     IErMin= 8 ErrMin= 5.05D-06
 ErrMax= 5.73D-06  0.00D+00 EMaxC= 1.00D-01 BMatC= 2.92D-09 BMatP= 2.70D-09
 IDIUse=1 WtCom= 1.00D+00 WtEn= 0.00D+00
 Coeff-Com: -0.343D-03 0.361D-02-0.260D-04 0.148D-01-0.155D-01-0.330D+00
 Coeff-Com: -0.161D+00 0.276D+01-0.128D+01
 Coeff:     -0.343D-03 0.361D-02-0.260D-04 0.148D-01-0.155D-01-0.330D+00
 Coeff:     -0.161D+00 0.276D+01-0.128D+01
 Gap=     0.094 Goal=   None    Shift=    0.000
 Gap=     0.094 Goal=   None    Shift=    0.000
 RMSDP=2.32D-06 MaxDP=3.01D-05 DE=-2.12D-08 OVMax= 2.14D-04

 Cycle  10  Pass 1  IDiag  1:
 E= -81.7012845216503     Delta-E=        0.000000016045 Rises=F Damp=F
 DIIS: error= 4.65D-06 at cycle  10 NSaved=  10.
 NSaved=10 IEnMin= 9 EnMin= -81.7012845376951     IErMin=10 ErrMin= 4.65D-06
 ErrMax= 4.65D-06  0.00D+00 EMaxC= 1.00D-01 BMatC= 1.97D-09 BMatP= 2.70D-09
 IDIUse=1 WtCom= 1.00D+00 WtEn= 0.00D+00
 Coeff-Com:  0.215D-03-0.389D-02-0.176D-02 0.479D-02 0.413D-01 0.162D+00
 Coeff-Com: -0.537D+00 0.127D+00-0.432D+01 0.552D+01
 Coeff:      0.215D-03-0.389D-02-0.176D-02 0.479D-02 0.413D-01 0.162D+00
 Coeff:     -0.537D+00 0.127D+00-0.432D+01 0.552D+01
 Gap=     0.094 Goal=   None    Shift=    0.000
 Gap=     0.094 Goal=   None    Shift=    0.000
 RMSDP=9.39D-06 MaxDP=1.22D-04 DE= 1.60D-08 OVMax= 8.67D-04

 Cycle  11  Pass 1  IDiag  1:
 E= -81.7012844920100     Delta-E=        0.000000029640 Rises=F Damp=F
 DIIS: error= 6.00D-07 at cycle  11 NSaved=  11.
 NSaved=11 IEnMin= 9 EnMin= -81.7012845376951     IErMin=11 ErrMin= 6.00D-07
 ErrMax= 6.00D-07  0.00D+00 EMaxC= 1.00D-01 BMatC= 3.68D-11 BMatP= 1.97D-09
 IDIUse=1 WtCom= 1.00D+00 WtEn= 0.00D+00
 Coeff-Com: -0.594D-05 0.224D-03-0.886D-04-0.249D-03-0.665D-02 0.519D-02
 Coeff-Com:  0.723D-01-0.293D+00 0.581D+00-0.552D+00 0.119D+01
 Coeff:     -0.594D-05 0.224D-03-0.886D-04-0.249D-03-0.665D-02 0.519D-02
 Coeff:      0.723D-01-0.293D+00 0.581D+00-0.552D+00 0.119D+01
 Gap=     0.094 Goal=   None    Shift=    0.000
 Gap=     0.094 Goal=   None    Shift=    0.000
 RMSDP=6.62D-07 MaxDP=7.84D-06 DE= 2.96D-08 OVMax= 6.16D-05

 Cycle  12  Pass 1  IDiag  1:
 E= -81.7012844919841     Delta-E=        0.000000000026 Rises=F Damp=F
 DIIS: error= 6.77D-08 at cycle  12 NSaved=  12.
 NSaved=12 IEnMin= 9 EnMin= -81.7012845376951     IErMin=12 ErrMin= 6.77D-08
 ErrMax= 6.77D-08  0.00D+00 EMaxC= 1.00D-01 BMatC= 4.27D-13 BMatP= 3.68D-11
 IDIUse=1 WtCom= 1.00D+00 WtEn= 0.00D+00
 Coeff-Com: -0.309D-05 0.429D-04 0.344D-04-0.370D-04-0.790D-04-0.517D-02
 Coeff-Com:  0.750D-02 0.169D-01 0.306D-01-0.505D-01-0.127D+00 0.113D+01
 Coeff:     -0.309D-05 0.429D-04 0.344D-04-0.370D-04-0.790D-04-0.517D-02
 Coeff:      0.750D-02 0.169D-01 0.306D-01-0.505D-01-0.127D+00 0.113D+01
 Gap=     0.094 Goal=   None    Shift=    0.000
 Gap=     0.094 Goal=   None    Shift=    0.000
 RMSDP=3.03D-08 MaxDP=3.73D-07 DE= 2.59D-11 OVMax= 2.18D-06

 Cycle  13  Pass 1  IDiag  1:
 E= -81.7012844919860     Delta-E=       -0.000000000002 Rises=F Damp=F
 DIIS: error= 1.25D-07 at cycle  13 NSaved=  13.
 NSaved=13 IEnMin= 9 EnMin= -81.7012845376951     IErMin=12 ErrMin= 6.77D-08
 ErrMax= 1.25D-07  0.00D+00 EMaxC= 1.00D-01 BMatC= 5.05D-13 BMatP= 4.27D-13
 IDIUse=1 WtCom= 1.00D+00 WtEn= 0.00D+00
 Coeff-Com: -0.387D-05 0.525D-04 0.446D-04-0.482D-04-0.299D-04-0.667D-02
 Coeff-Com:  0.904D-02 0.240D-01 0.348D-01-0.606D-01-0.172D+00 0.147D+01
 Coeff-Com: -0.301D+00
 Coeff:     -0.387D-05 0.525D-04 0.446D-04-0.482D-04-0.299D-04-0.667D-02
 Coeff:      0.904D-02 0.240D-01 0.348D-01-0.606D-01-0.172D+00 0.147D+01
 Coeff:     -0.301D+00
 Gap=     0.094 Goal=   None    Shift=    0.000
 Gap=     0.094 Goal=   None    Shift=    0.000
 RMSDP=7.43D-09 MaxDP=8.81D-08 DE=-1.96D-12 OVMax= 6.97D-07

 SCF Done:  E(UM062X) =  -81.7012844920     A.U. after   13 cycles
            NFock= 13  Conv=0.74D-08     -V/T= 2.0067
 <Sx>= 0.0000 <Sy>= 0.0000 <Sz>= 0.0000 <S**2>= 0.0000 S= 0.0000
 <L.S>=  0.00000000000    
 KE= 8.115475866097D+01 PE=-2.319488830214D+02 EE= 4.811085655753D+01
 Annihilation of the first spin contaminant:
 S**2 before annihilation     0.0000,   after    -0.0000
 Leave Link  502 at Mon Apr 21 17:45:31 2025, MaxMem=   536870912 cpu:              91.3 elap:              11.9
 (Enter /home/szhao/Apps/g16/l701.exe)
 ... and contract with generalized density number  0.
 Compute integral first derivatives.
 Leave Link  701 at Mon Apr 21 17:45:32 2025, MaxMem=   536870912 cpu:               2.7 elap:               0.5
 (Enter /home/szhao/Apps/g16/l702.exe)
 L702 exits ... SP integral derivatives will be done elsewhere.
 Leave Link  702 at Mon Apr 21 17:45:32 2025, MaxMem=   536870912 cpu:               0.7 elap:               0.2
 (Enter /home/szhao/Apps/g16/l703.exe)
 Integral derivatives from FoFJK, PRISM(SPDF).
 Compute integral first derivatives, UseDBF=F ICtDFT=           0.
 Calling FoFJK, ICntrl=      2127 FMM=F ISym2X=0 I1Cent= 0 IOpClX= 1 NMat=1 NMatS=1 NMatT=0.
 FoFJK:  IHMeth= 1 ICntrl=    2127 DoSepK=F KAlg= 0 I1Cent=           0 FoldK=F
 IRaf=         0 NMat=       1 IRICut=       1 DoRegI=T DoRafI=F ISym2E= 0 IDoP0=0 IntGTp=1.
 FoFCou: FMM=F IPFlag=           0 FMFlag=      100000 FMFlg1=         800
         NFxFlg=           0 DoJE=F BraDBF=F KetDBF=F FulRan=T
         wScrn=  0.000000 ICntrl=      2127 IOpCl=  1 I1Cent=           0 NGrid=           0
         NMat0=    1 NMatS0=      1 NMatT0=    0 NMatD0=    1 NMtDS0=    0 NMtDT0=    0
 Symmetry not used in FoFCou.
 Leave Link  703 at Mon Apr 21 17:45:34 2025, MaxMem=   536870912 cpu:              10.9 elap:               1.4
 (Enter /home/szhao/Apps/g16/l716.exe)
 Dipole        =-2.33991233D+00-5.27741388D-07-1.44121508D-04
 -------------------------------------------------------------------
 Center     Atomic                   Forces (Hartrees/Bohr)
 Number     Number              X              Y              Z
 -------------------------------------------------------------------
      1        5          -0.000000000   -0.000000000   -0.000000000
      2        7          -0.000000000   -0.000000000   -0.000000000
      3        1           0.012253765   -0.003254951   -0.000009781
      4        1          -0.006335020    0.000682970    0.000011847
      5        1           0.012253764    0.003254954   -0.000010574
      6        1          -0.006335012   -0.000682942    0.000011933
 -------------------------------------------------------------------
 Cartesian Forces:  Max     0.012253765 RMS     0.004729911
 Leave Link  716 at Mon Apr 21 17:45:34 2025, MaxMem=   536870912 cpu:               0.7 elap:               0.2
 (Enter /home/szhao/Apps/g16/l103.exe)

 GradGradGradGradGradGradGradGradGradGradGradGradGradGradGradGradGradGrad
 Berny optimization.
 Using GEDIIS/GDIIS optimizer.
 FormGI is forming the generalized inverse of G from B-inverse, IUseBI=4.
 Internal  Forces:  Max     0.024507529 RMS     0.008318258
 Search for a local minimum.
 Step number   2 out of a maximum of   30
 All quantities printed in internal units (Hartrees-Bohrs-Radians)
 RMS Force = .66693D-02 SwitMx=.10000D-02 MixMth= 1
 Mixed Optimization -- RFO/linear search
 Update second derivatives using D2CorX and points    1    2
 DE= -8.10D-03 DEPred=-5.49D-03 R= 1.48D+00
 TightC=F SS=  1.41D+00  RLast= 2.45D-01 DXNew= 5.0454D-01 7.3572D-01
 Trust test= 1.48D+00 RLast= 2.45D-01 DXMaxT set to 5.05D-01
 The second derivative matrix:
                          X1        Y1        Z1        X2        Y2
           X1           0.54969
           Y1           0.00000   0.50000
           Z1           0.00013   0.00000   0.50000
           X2          -0.01979  -0.00000  -0.00005   0.50788
           Y2          -0.00000  -0.00000  -0.00000   0.00000   0.50000
           Z2          -0.00011  -0.00000  -0.00000   0.00004   0.00000
           R1          -0.01155  -0.00000  -0.00003   0.00460   0.00000
           R2          -0.01154  -0.00000  -0.00003   0.00460   0.00000
           R3           0.02110   0.00000   0.00005  -0.00840  -0.00000
           R4           0.02111   0.00000   0.00005  -0.00841  -0.00000
           A1          -0.01771  -0.00000  -0.00005   0.00705   0.00000
           A2          -0.01771  -0.00000  -0.00005   0.00705   0.00000
           A3           0.03542   0.00000   0.00009  -0.01411  -0.00000
           A4          -0.01632  -0.00000  -0.00004   0.00650   0.00000
           A5          -0.01632  -0.00000  -0.00004   0.00650   0.00000
           A6           0.03264   0.00000   0.00009  -0.01300  -0.00000
           D1           0.00000   0.00000   0.00000  -0.00000  -0.00000
           D2           0.00007   0.00000   0.00000  -0.00003  -0.00000
           D3          -0.00007  -0.00000  -0.00000   0.00003   0.00000
           D4          -0.00000  -0.00000  -0.00000   0.00000   0.00000
                          Z2        R1        R2        R3        R4
           Z2           0.50000
           R1           0.00003   0.25397
           R2           0.00003  -0.00014   0.25397
           R3          -0.00005  -0.00296  -0.00296   0.47134
           R4          -0.00005  -0.00296  -0.00296   0.00762   0.47134
           A1           0.00004  -0.00325  -0.00325  -0.00244  -0.00244
           A2           0.00004  -0.00325  -0.00325  -0.00244  -0.00244
           A3          -0.00008   0.00651   0.00651   0.00489   0.00488
           A4           0.00004  -0.00054  -0.00054  -0.00394  -0.00394
           A5           0.00004  -0.00054  -0.00054  -0.00394  -0.00394
           A6          -0.00007   0.00108   0.00108   0.00789   0.00789
           D1          -0.00000  -0.00000  -0.00000   0.00000   0.00000
           D2          -0.00000  -0.00002  -0.00002   0.00003   0.00003
           D3           0.00000   0.00002   0.00002  -0.00003  -0.00003
           D4           0.00000   0.00000   0.00000  -0.00000  -0.00000
                          A1        A2        A3        A4        A5
           A1           0.14705
           A2          -0.01295   0.14705
           A3           0.02590   0.02590   0.10821
           A4          -0.00551  -0.00551   0.01102   0.15870
           A5          -0.00551  -0.00551   0.01102  -0.00130   0.15870
           A6           0.01102   0.01102  -0.02204   0.00260   0.00260
           D1          -0.00000  -0.00000   0.00000  -0.00000  -0.00000
           D2          -0.00002  -0.00002   0.00005  -0.00002  -0.00002
           D3           0.00002   0.00002  -0.00005   0.00002   0.00002
           D4           0.00000   0.00000  -0.00000   0.00000   0.00000
                          A6        D1        D2        D3        D4
           A6           0.15479
           D1           0.00000   0.00230
           D2           0.00005   0.00000   0.00230
           D3          -0.00005  -0.00000  -0.00000   0.00230
           D4          -0.00000  -0.00000  -0.00000   0.00000   0.00230
 ITU=  1  0
 Use linear search instead of GDIIS.
     Eigenvalues ---    0.00230   0.00230   0.00230   0.06805   0.16000
     Eigenvalues ---    0.16000   0.16500   0.25411   0.25445   0.46372
     Eigenvalues ---    0.479801000.000001000.000001000.000001000.00000
     Eigenvalues --- 1000.000001000.000001000.000001000.000001000.00000
 RFO step:  Lambda=-1.32069510D-03 EMin= 2.30000000D-03
 Quartic linear search produced a step of  1.58110.
 Iteration  1 RMS(Cart)=  0.09372715 RMS(Int)=  0.02236702
 Iteration  2 RMS(Cart)=  0.02833665 RMS(Int)=  0.00057478
 Iteration  3 RMS(Cart)=  0.00058194 RMS(Int)=  0.00001638
 Iteration  4 RMS(Cart)=  0.00000012 RMS(Int)=  0.00001638
 ITry= 1 IFail=0 DXMaxC= 3.42D-01 DCOld= 1.00D+10 DXMaxT= 5.05D-01 DXLimC= 3.00D+00 Rises=F
 Variable       Old X    -DE/DX   Delta X   Delta X   Delta X     New X
                                 (Linear)    (Quad)   (Total)
    X1       -3.39281   0.02451   0.00000   0.00000   0.00000  -3.39281
    Y1        0.00000  -0.00000   0.00000   0.00000   0.00000   0.00000
    Z1        0.00000  -0.00002   0.00000   0.00000   0.00000   0.00000
    X2        3.39281  -0.01267   0.00000   0.00000   0.00000   3.39281
    Y2        0.00000   0.00000   0.00000   0.00000   0.00000   0.00000
    Z2        0.00000   0.00003   0.00000   0.00000   0.00000   0.00000
    R1        2.22812  -0.00201  -0.03261   0.00974  -0.02287   2.20525
    R2        2.22812  -0.00201  -0.03260   0.00974  -0.02287   2.20525
    R3        1.91193  -0.00261   0.01232  -0.02583  -0.01352   1.89842
    R4        1.91193  -0.00261   0.01232  -0.02583  -0.01351   1.89842
    A1        1.98952  -0.00930  -0.13535  -0.02465  -0.16003   1.82948
    A2        1.98952  -0.00930  -0.13535  -0.02465  -0.16003   1.82948
    A3        2.30415   0.01860   0.27070   0.04931   0.31998   2.62413
    A4        2.09946  -0.00371  -0.07959   0.01366  -0.06596   2.03350
    A5        2.09946  -0.00371  -0.07959   0.01366  -0.06596   2.03350
    A6        2.08427   0.00741   0.15918  -0.02732   0.13183   2.21610
    D1       -3.14154   0.00000   0.00030   0.00118   0.00148  -3.14006
    D2        0.00024  -0.00002   0.00059  -0.01214  -0.01156  -0.01131
    D3       -0.00027   0.00002  -0.00059   0.01218   0.01159   0.01132
    D4        3.14151  -0.00000  -0.00030  -0.00114  -0.00144   3.14007
         Item               Value     Threshold  Converged?
 Maximum Force            0.018595     0.000450     NO 
 RMS     Force            0.006669     0.000300     NO 
 Maximum Displacement     0.341808     0.001800     NO 
 RMS     Displacement     0.119286     0.001200     NO 
 Predicted change in Energy=-4.382555D-03
 Lowest energy point so far.  Saving SCF results.
 GradGradGradGradGradGradGradGradGradGradGradGradGradGradGradGradGradGrad

 Leave Link  103 at Mon Apr 21 17:45:34 2025, MaxMem=   536870912 cpu:               0.4 elap:               0.1
 (Enter /home/szhao/Apps/g16/l202.exe)
                          Input orientation:                          
 ---------------------------------------------------------------------
 Center     Atomic      Atomic             Coordinates (Angstroms)
 Number     Number       Type             X           Y           Z
[...]
           A6           0.01991  -0.00000  -0.00239  -0.01270  -0.00001
           D1          -0.00915  -0.00001   0.02029  -0.00931  -0.00002
           D2           0.01116  -0.00001   0.01967   0.00202   0.00003
           D3          -0.01116   0.00001  -0.01967  -0.00202  -0.00003
           D4           0.00915   0.00001  -0.02029   0.00931   0.00002
                          Z2        R1        R2        R3        R4
           Z2           0.78864
           R1           0.00593   0.25453
           R2           0.00593   0.00042   0.25453
           R3          -0.01055  -0.00208  -0.00208   0.46526
           R4          -0.01055  -0.00208  -0.00208   0.00155   0.46526
           A1           0.04034  -0.00189  -0.00189   0.00213   0.00213
           A2           0.04034  -0.00189  -0.00189   0.00213   0.00213
           A3           0.04257   0.00623   0.00623   0.00155   0.00155
           A4           0.00136   0.00076   0.00076  -0.00329  -0.00329
           A5           0.00136   0.00076   0.00076  -0.00328  -0.00328
           A6           0.03262   0.00249   0.00249   0.01871   0.01871
           D1           0.06072  -0.00172  -0.00172   0.00610   0.00610
           D2          -0.07617   0.00147   0.00147  -0.00951  -0.00951
           D3           0.07617  -0.00147  -0.00147   0.00951   0.00951
           D4          -0.06072   0.00172   0.00172  -0.00610  -0.00610
                          A1        A2        A3        A4        A5
           A1           0.11516
           A2          -0.04484   0.11517
           A3           0.01993   0.01993   0.05599
           A4          -0.00382  -0.00382  -0.00586   0.09658
           A5          -0.00382  -0.00382  -0.00586  -0.06342   0.09658
           A6          -0.02262  -0.02261  -0.02039  -0.00353  -0.00353
           D1           0.01291   0.01291   0.01307  -0.00398  -0.00398
           D2          -0.01413  -0.01413  -0.01132  -0.00218  -0.00218
           D3           0.01413   0.01414   0.01132   0.00218   0.00218
           D4          -0.01291  -0.01291  -0.01307   0.00398   0.00398
                          A6        D1        D2        D3        D4
           A6           0.07411
           D1           0.00163   0.03261
           D2          -0.00463  -0.00766   0.02749
           D3           0.00463   0.00766  -0.02519   0.02749
           D4          -0.00163  -0.03031   0.00766  -0.00766   0.03261
 ITU=  1  1  1  1  0 -1  0  1  1  1  0
     Eigenvalues ---    0.00230   0.02781   0.03322   0.04762   0.07756
     Eigenvalues ---    0.16000   0.16000   0.25411   0.25527   0.46372
     Eigenvalues ---    0.470081000.000001000.000001000.000001000.00000
     Eigenvalues --- 1000.000001000.000001000.000001000.000001000.00000
 En-DIIS/RFO-DIIS/Sim-DIIS IScMMF=       -3 using points:    11   10    9
 RFO step:  Lambda=-1.40846973D-07.
 NNeg= 0 NGDIIS= 3 SimSw=  2.50D-01 Rises=F DC= -4.43D-06 SmlDif=  1.00D-05
 NRisDI= 0 DoIntr=F SqrtH=F CThrHd= 10.0 CDAdj=  3.0
 RMS Error=  0.2730036948D-03 NUsed= 3 OKEnD=F EnDIS=F
 InvSVX:  RCond= 8.74D-06 Info=           0 Equed=N FErr=  1.51D-15 BErr=  5.37D-17
 DidBck=F Rises=F RFO-DIIS coefs:    1.03455   -0.03061   -0.00394
 Iteration  1 RMS(Cart)=  0.00038674 RMS(Int)=  0.00000079
 Iteration  2 RMS(Cart)=  0.00000023 RMS(Int)=  0.00000077
 ITry= 1 IFail=0 DXMaxC= 1.18D-03 DCOld= 1.00D+10 DXMaxT= 7.32D-01 DXLimC= 3.00D+00 Rises=F
 Variable       Old X    -DE/DX   Delta X   Delta X   Delta X     New X
                                 (Linear)    (Quad)   (Total)
    X1       -3.39281  -0.00001   0.00000   0.00000   0.00000  -3.39281
    Y1        0.00000   0.00000   0.00000   0.00000   0.00000   0.00000
    Z1        0.00000  -0.00005   0.00000   0.00000   0.00000   0.00000
    X2        3.39281   0.00001   0.00000   0.00000   0.00000   3.39281
    Y2        0.00000  -0.00000   0.00000   0.00000   0.00000   0.00000
    Z2        0.00000   0.00013   0.00000   0.00000   0.00000   0.00000
    R1        2.21428   0.00002   0.00002   0.00004   0.00006   2.21434
    R2        2.21428   0.00002   0.00002   0.00004   0.00006   2.21434
    R3        1.93771  -0.00014  -0.00004  -0.00025  -0.00028   1.93742
    R4        1.93771  -0.00014  -0.00004  -0.00025  -0.00028   1.93742
    A1        1.86043   0.00000   0.00015  -0.00015   0.00000   1.86043
    A2        1.86043   0.00000   0.00015  -0.00015   0.00000   1.86043
    A3        2.56051   0.00000  -0.00028   0.00036   0.00008   2.56060
    A4        1.56345   0.00001   0.00002   0.00003   0.00005   1.56350
    A5        1.56345   0.00001   0.00002   0.00003   0.00005   1.56350
    A6        1.79839  -0.00003   0.00019  -0.00037  -0.00018   1.79822
    D1        2.49334  -0.00004  -0.00007  -0.00058  -0.00065   2.49269
    D2        0.69488  -0.00001  -0.00026  -0.00021  -0.00047   0.69441
    D3       -0.69487   0.00001   0.00026   0.00020   0.00046  -0.69441
    D4       -2.49333   0.00004   0.00007   0.00056   0.00063  -2.49270
         Item               Value     Threshold  Converged?
 Maximum Force            0.000135     0.000450     YES
 RMS     Force            0.000054     0.000300     YES
 Maximum Displacement     0.001180     0.001800     YES
 RMS     Displacement     0.000387     0.001200     YES
 Predicted change in Energy=-7.040559D-08
 Optimization completed.
    -- Stationary point found.
                           ----------------------------
                           !   Optimized Parameters   !
                           ! (Angstroms and Degrees)  !
 --------------------------                            --------------------------
 ! Name  Definition              Value          Derivative Info.                !
 --------------------------------------------------------------------------------
 ! X1    R(1,-1)                -1.7954         -DE/DX =    0.0                 !
 ! Y1    R(1,-2)                 0.0            -DE/DX =    0.0                 !
 ! Z1    R(1,-3)                 0.0            -DE/DX =    0.0                 !
 ! X2    R(2,-1)                 1.7954         -DE/DX =    0.0                 !
 ! Y2    R(2,-2)                 0.0            -DE/DX =    0.0                 !
 ! Z2    R(2,-3)                 0.0            -DE/DX =    0.0001              !
 ! R1    R(1,3)                  1.1717         -DE/DX =    0.0                 !
 ! R2    R(1,5)                  1.1717         -DE/DX =    0.0                 !
 ! R3    R(2,4)                  1.0254         -DE/DX =   -0.0001              !
 ! R4    R(2,6)                  1.0254         -DE/DX =   -0.0001              !
 ! A1    A(2,1,3)              106.5945         -DE/DX =    0.0                 !
 ! A2    A(2,1,5)              106.5946         -DE/DX =    0.0                 !
 ! A3    A(3,1,5)              146.7066         -DE/DX =    0.0                 !
 ! A4    A(1,2,4)               89.5789         -DE/DX =    0.0                 !
 ! A5    A(1,2,6)               89.5789         -DE/DX =    0.0                 !
 ! A6    A(4,2,6)              103.0403         -DE/DX =    0.0                 !
 ! D1    D(3,1,2,4)            142.8578         -DE/DX =    0.0                 !
 ! D2    D(3,1,2,6)             39.8136         -DE/DX =    0.0                 !
 ! D3    D(5,1,2,4)            -39.8132         -DE/DX =    0.0                 !
 ! D4    D(5,1,2,6)           -142.8574         -DE/DX =    0.0                 !
 --------------------------------------------------------------------------------
 Lowest energy point so far.  Saving SCF results.
 Largest change from initial coordinates is atom    6       0.849 Angstoms.
 GradGradGradGradGradGradGradGradGradGradGradGradGradGradGradGradGradGrad

 Leave Link  103 at Mon Apr 21 17:48:55 2025, MaxMem=   536870912 cpu:               0.6 elap:               0.2
 (Enter /home/szhao/Apps/g16/l202.exe)
                          Input orientation:                          
 ---------------------------------------------------------------------
 Center     Atomic      Atomic             Coordinates (Angstroms)
 Number     Number       Type             X           Y           Z
 ---------------------------------------------------------------------
      1          5           0       -1.795399    0.000000    0.000000
      2          7           0        1.795399    0.000000    0.000000
      3          1           0       -2.130046   -1.122647    0.025772
      4          1           0        1.787862    0.802932   -0.637704
      5          1           0       -2.130047    1.122628    0.026572
      6          1           0        1.787862   -0.802474   -0.638282
 ---------------------------------------------------------------------
                    Distance matrix (angstroms):
                    1          2          3          4          5
     1  B    0.000000
     2  N    3.590798   0.000000
     3  H    1.171746   4.082905   0.000000
     4  H    3.727080   1.025390   4.415660   0.000000
     5  H    1.171746   4.082906   2.245275   3.986663   0.000000
     6  H    3.727080   1.025390   3.986663   1.605406   4.415660
                    6
     6  H    0.000000
 Symmetry turned off by external request.
 Stoichiometry    BH4N
 Framework group  C1[X(BH4N)]
 Deg. of freedom    12
 Full point group                 C1      NOp   1
 Rotational constants (GHZ):         110.9044161           5.2518858           5.0868844
 Leave Link  202 at Mon Apr 21 17:48:55 2025, MaxMem=   536870912 cpu:               0.7 elap:               0.2
 (Enter /home/szhao/Apps/g16/l601.exe)
 Copying SCF densities to generalized density rwf, IOpCl= 1 IROHF=0.

 **********************************************************************

            Population analysis using the SCF density.

 **********************************************************************

 Alpha  occ. eigenvalues --  -14.71731  -7.18373  -0.87376  -0.63022  -0.51656
 Alpha  occ. eigenvalues --   -0.48044  -0.33310  -0.23711
 Alpha virt. eigenvalues --   -0.10648  -0.08826   0.00705   0.02711   0.04160
 Alpha virt. eigenvalues --    0.05023   0.09447   0.11669   0.13602   0.17407
 Alpha virt. eigenvalues --    0.20124   0.20602   0.21657   0.27876   0.32398
 Alpha virt. eigenvalues --    0.33147   0.38124   0.42195   0.50896   0.56493
 Alpha virt. eigenvalues --    0.60082   0.66461   0.73310   0.80525   0.82802
 Alpha virt. eigenvalues --    0.82863   0.88071   0.91638   0.93164   1.07265
 Alpha virt. eigenvalues --    1.12380   1.28783   1.31188   1.46878   1.50428
 Alpha virt. eigenvalues --    1.66494   1.69979   1.70038   1.79178   1.82619
 Alpha virt. eigenvalues --    1.84072   1.90555   1.96347   2.05464   2.39656
 Alpha virt. eigenvalues --    2.43383   2.46315   2.50746   2.53313   2.56329
 Alpha virt. eigenvalues --    2.57326   2.70489   2.71000   2.92866   3.14815
 Alpha virt. eigenvalues --    3.95312   4.32497   4.71944  14.51920  35.59565
  Beta  occ. eigenvalues --  -14.71731  -7.18373  -0.87376  -0.63022  -0.51656
  Beta  occ. eigenvalues --   -0.48044  -0.33310  -0.23711
  Beta virt. eigenvalues --   -0.10648  -0.08825   0.00705   0.02711   0.04160
  Beta virt. eigenvalues --    0.05023   0.09447   0.11669   0.13602   0.17407
  Beta virt. eigenvalues --    0.20124   0.20602   0.21657   0.27876   0.32398
  Beta virt. eigenvalues --    0.33147   0.38124   0.42195   0.50896   0.56493
  Beta virt. eigenvalues --    0.60082   0.66461   0.73310   0.80525   0.82802
  Beta virt. eigenvalues --    0.82863   0.88071   0.91638   0.93164   1.07265
  Beta virt. eigenvalues --    1.12380   1.28783   1.31188   1.46878   1.50428
  Beta virt. eigenvalues --    1.66494   1.69979   1.70038   1.79178   1.82619
  Beta virt. eigenvalues --    1.84072   1.90555   1.96347   2.05464   2.39656
  Beta virt. eigenvalues --    2.43383   2.46315   2.50746   2.53313   2.56329
  Beta virt. eigenvalues --    2.57326   2.70489   2.71000   2.92866   3.14815
  Beta virt. eigenvalues --    3.95312   4.32497   4.71944  14.51920  35.59565
          Condensed to atoms (all electrons):
               1          2          3          4          5          6
     1  B    3.934355   0.130972   0.391669  -0.002551   0.391669  -0.002551
     2  N    0.130972   6.964407  -0.006238   0.308245  -0.006238   0.308245
     3  H    0.391669  -0.006238   0.563843   0.000144  -0.016321  -0.000034
     4  H   -0.002551   0.308245   0.000144   0.530390  -0.000034  -0.040734
     5  H    0.391669  -0.006238  -0.016321  -0.000034   0.563843   0.000144
     6  H   -0.002551   0.308245  -0.000034  -0.040734   0.000144   0.530390
          Atomic-Atomic Spin Densities.
               1          2          3          4          5          6
     1  B    0.000012   0.000000  -0.000000   0.000000  -0.000000   0.000000
     2  N    0.000000  -0.000013  -0.000000   0.000000  -0.000000   0.000000
     3  H   -0.000000  -0.000000   0.000000  -0.000000   0.000000  -0.000000
     4  H    0.000000   0.000000  -0.000000   0.000000  -0.000000  -0.000000
     5  H   -0.000000  -0.000000   0.000000  -0.000000   0.000000  -0.000000
     6  H    0.000000   0.000000  -0.000000  -0.000000  -0.000000   0.000000
 Mulliken charges and spin densities:
               1          2
     1  B    0.156437   0.000012
     2  N   -0.699393  -0.000012
     3  H    0.066937   0.000000
     4  H    0.204541   0.000000
     5  H    0.066937   0.000000
     6  H    0.204541   0.000000
 Sum of Mulliken charges =  -0.00000   0.00000
 Mulliken charges and spin densities with hydrogens summed into heavy atoms:
               1          2
     1  B    0.290312   0.000012
     2  N   -0.290312  -0.000012
 Electronic spatial extent (au):  <R**2>=            241.1032
 Charge=             -0.0000 electrons
 Dipole moment (field-independent basis, Debye):
    X=             -5.2270    Y=              0.0007    Z=             -1.8657  Tot=              5.5500
 Quadrupole moment (field-independent basis, Debye-Ang):
   XX=            -13.9582   YY=            -13.4471   ZZ=            -14.5865
   XY=              0.0013   XZ=             -3.6338   YZ=              0.0004
 Traceless Quadrupole moment (field-independent basis, Debye-Ang):
   XX=              0.0391   YY=              0.5501   ZZ=             -0.5892
   XY=              0.0013   XZ=             -3.6338   YZ=              0.0004
 Octapole moment (field-independent basis, Debye-Ang**2):
  XXX=            -21.1503  YYY=              0.0004  ZZZ=              1.2934  XYY=              0.1878
  XXY=              0.0025  XXZ=             -6.8166  XZZ=             -3.3296  YZZ=             -0.0007
  YYZ=             -0.3322  XYZ=              0.0013
 Hexadecapole moment (field-independent basis, Debye-Ang**3):
 XXXX=           -341.1472 YYYY=            -32.1110 ZZZZ=            -22.3919 XXXY=              0.0029
 XXXZ=             -7.9575 YYYX=              0.0009 YYYZ=             -0.0015 ZZZX=              1.9546
 ZZZY=             -0.0019 XXYY=            -51.0547 XXZZ=            -53.9959 YYZZ=             -9.2907
 XXYZ=              0.0011 YYXZ=             -0.8373 ZZXY=             -0.0013
 N-N= 2.120393590399D+01 E-N=-2.323726414455D+02  KE= 8.124992757373D+01
                          Isotropic Fermi Contact Couplings
        Atom                 a.u.       MegaHertz       Gauss      10(-4) cm-1
     1  B(11)              0.00000       0.00115       0.00041       0.00038
     2  N(14)             -0.00000      -0.00005      -0.00002      -0.00002
     3  H(1)               0.00000       0.00015       0.00005       0.00005
     4  H(1)               0.00000       0.00018       0.00006       0.00006
     5  H(1)               0.00000       0.00015       0.00005       0.00005
     6  H(1)               0.00000       0.00018       0.00006       0.00006
 --------------------------------------------------------
       Center         ----  Spin Dipole Couplings  ----
                      3XX-RR        3YY-RR        3ZZ-RR
 --------------------------------------------------------
     1   Atom        0.000006     -0.000003     -0.000003
     2   Atom       -0.000024      0.000012      0.000012
     3   Atom        0.000000      0.000000     -0.000000
     4   Atom        0.000000     -0.000000      0.000000
     5   Atom        0.000000      0.000000     -0.000000
     6   Atom        0.000000     -0.000000      0.000000
 --------------------------------------------------------
                        XY            XZ            YZ
 --------------------------------------------------------
     1   Atom        0.000000     -0.000001      0.000000
     2   Atom       -0.000000      0.000001      0.000000
     3   Atom        0.000000     -0.000000     -0.000000
     4   Atom        0.000000     -0.000000      0.000001
     5   Atom       -0.000000     -0.000000      0.000000
     6   Atom       -0.000000     -0.000000     -0.000001
 --------------------------------------------------------


 ---------------------------------------------------------------------------------
              Anisotropic Spin Dipole Couplings in Principal Axis System
 ---------------------------------------------------------------------------------

       Atom             a.u.   MegaHertz   Gauss  10(-4) cm-1        Axes

              Baa    -0.0000    -0.001    -0.000    -0.000  0.1182 -0.0004  0.9930
     1 B(11)  Bbb    -0.0000    -0.000    -0.000    -0.000 -0.0000  1.0000  0.0004
              Bcc     0.0000     0.001     0.000     0.000  0.9930  0.0000 -0.1182
 
              Baa    -0.0000    -0.001    -0.000    -0.000  0.9996  0.0000 -0.0285
     2 N(14)  Bbb     0.0000     0.000     0.000     0.000  0.0285 -0.0004  0.9996
              Bcc     0.0000     0.000     0.000     0.000  0.0000  1.0000  0.0004
 
              Baa    -0.0000    -0.000    -0.000    -0.000  0.1380 -0.0117  0.9904
     3 H(1)   Bbb    -0.0000    -0.000    -0.000    -0.000  0.9480 -0.2881 -0.1355
              Bcc     0.0000     0.000     0.000     0.000  0.2869  0.9575 -0.0287
 
              Baa    -0.0000    -0.001    -0.000    -0.000 -0.0305  0.7954 -0.6053
     4 H(1)   Bbb     0.0000     0.000     0.000     0.000  0.9991  0.0057 -0.0429
              Bcc     0.0000     0.001     0.000     0.000  0.0307  0.6060  0.7949
 
              Baa    -0.0000    -0.000    -0.000    -0.000  0.1380  0.0110  0.9904
     5 H(1)   Bbb    -0.0000    -0.000    -0.000    -0.000  0.9480  0.2882 -0.1353
              Bcc     0.0000     0.000     0.000     0.000 -0.2869  0.9575  0.0294
 
              Baa    -0.0000    -0.001    -0.000    -0.000  0.0305  0.7950  0.6058
     6 H(1)   Bbb     0.0000     0.000     0.000     0.000  0.9991 -0.0056 -0.0429
              Bcc     0.0000     0.001     0.000     0.000  0.0307 -0.6066  0.7944
 

 ---------------------------------------------------------------------------------

 No NMR shielding tensors so no spin-rotation constants.
 Leave Link  601 at Mon Apr 21 17:48:56 2025, MaxMem=   536870912 cpu:               2.6 elap:               0.4
 (Enter /home/szhao/Apps/g16/l9999.exe)
 1\1\GINC-NODE03\FOpt\UM062X\6-311+G(d,p)\B1H4N1\SZHAO\21-Apr-2025\0\\#
 p opt UM062X/6-311+G** nosymm int=superfine\\Title Card Required\\0,1\
 B,-1.795399,0.,0.\N,1.795399,0.,0.\H,-2.1300455132,-1.1226469454,0.025
 7719592\H,1.7878620672,0.8029324681,-0.637704295\H,-2.1300467646,1.122
 6279029,0.0265720922\H,1.7878620655,-0.8024736654,-0.6382816636\\Versi
 on=ES64L-G16RevA.03\HF=-81.7405908\S2=0.\S2-1=0.\S2A=0.\RMSD=9.693e-09
 \RMSF=4.693e-05\Dipole=-2.0564694,0.0002638,-0.734029\Quadrupole=0.029
 0685,0.4090095,-0.438078,0.0009715,-2.7016162,0.0003061\PG=C01 [X(B1H4
 N1)]\\@


 IF THE FACTS DO NOT CONFORM TO THE THEORY, THEY MUST BE DISPOSED OF.
 Job cpu time:       0 days  0 hours 28 minutes 30.1 seconds.
 Elapsed time:       0 days  0 hours  3 minutes 52.6 seconds.
 File lengths (MBytes):  RWF=     22 Int=      0 D2E=      0 Chk=      2 Scr=      2
 Normal termination of Gaussian 16 at Mon Apr 21 17:48:56 2025.
