 Entering Gaussian System, Link 0=g16
 Initial command:
 /home/szhao/Apps/g16/l1.exe "/home/szhao/tmp/Gau-118755.inp" -scrdir="/home/szhao/tmp/"
 Default is to use a total of  16 processors:
                               16 via shared-memory
                                1 via Linda
 Entering Link 1 = /home/szhao/Apps/g16/l1.exe PID=    118757.
  
 Copyright (c) 1988,1990,1992,1993,1995,1998,2003,2009,2016,
            Gaussian, Inc.  All Rights Reserved.
  
 This is part of the Gaussian(R) 16 program.  It is based on
 the Gaussian(R) 09 system (copyright 2009, Gaussian, Inc.),
 the Gaussian(R) 03 system (copyright 2003, Gaussian, Inc.),
 the Gaussian(R) 98 system (copyright 1998, Gaussian, Inc.),
 the Gaussian(R) 94 system (copyright 1995, Gaussian, Inc.),
 the Gaussian 92(TM) system (copyright 1992, Gaussian, Inc.),
 the Gaussian 90(TM) system (copyright 1990, Gaussian, Inc.),
 the Gaussian 88(TM) system (copyright 1988, Gaussian, Inc.),
 the Gaussian 86(TM) system (copyright 1986, Carnegie Mellon
 University), and the Gaussian 82(TM) system (copyright 1983,
 Carnegie Mellon University). Gaussian is a federally registered
 trademark of Gaussian, Inc.
  
 This software contains proprietary and confidential information,
 including trade secrets, belonging to Gaussian, Inc.
  
 This software is provided under written license and may be
 used, copied, transmitted, or stored only in accord with that
 written license.
  
 The following legend is applicable only to US Government
 contracts under FAR:
  
                    RESTRICTED RIGHTS LEGEND
  
 Use, reproduction and disclosure by the US Government is
 subject to restrictions as set forth in subparagraphs (a)
 and (c) of the Commercial Computer Software - Restricted
 Rights clause in FAR 52.227-19.
  
 Gaussian, Inc.
 340 Quinnipiac St., Bldg. 40, Wallingford CT 06492
  
  
 ---------------------------------------------------------------
 Warning -- This program may not be used in any manner that
 competes with the business of Gaussian, Inc. or will provide
 assistance to any competitor of Gaussian, Inc.  The licensee
 of this program is prohibited from giving any competitor of
 Gaussian, Inc. access to this program.  By using this program,
 the user acknowledges that Gaussian, Inc. is engaged in the
 business of creating and licensing software in the field of
 computational chemistry and represents and warrants to the
 licensee that it is not a competitor of Gaussian, Inc. and that
 it will not use this program in any manner prohibited above.
 ---------------------------------------------------------------
  

 Cite this work as:
 Gaussian 16, Revision A.03,
 M. J. Frisch, G. W. Trucks, H. B. Schlegel, G. E. Scuseria, 
 M. A. Robb, J. R. Cheeseman, G. Scalmani, V. Barone, 
 G. A. Petersson, H. Nakatsuji, X. Li, M. Caricato, A. V. Marenich, 
 J. Bloino, B. G. Janesko, R. Gomperts, B. Mennucci, H. P. Hratchian, 
 J. V. Ortiz, A. F. Izmaylov, J. L. Sonnenberg, D. Williams-Young, 
 F. Ding, F. Lipparini, F. Egidi, J. Goings, B. Peng, A. Petrone, 
 T. Henderson, D. Ranasinghe, V. G. Zakrzewski, J. Gao, N. Rega, 
 G. Zheng, W. Liang, M. Hada, M. Ehara, K. Toyota, R. Fukuda, 
 J. Hasegawa, M. Ishida, T. Nakajima, Y. Honda, O. Kitao, H. Nakai, 
 T. Vreven, K. Throssell, J. A. Montgomery, Jr., J. E. Peralta, 
 F. Ogliaro, M. J. Bearpark, J. J. Heyd, E. N. Brothers, K. N. Kudin, 
 V. N. Staroverov, T. A. Keith, R. Kobayashi, J. Normand, 
 K. Raghavachari, A. P. Rendell, J. C. Burant, S. S. Iyengar, 
 J. Tomasi, M. Cossi, J. M. Millam, M. Klene, C. Adamo, R. Cammi, 
 J. W. Ochterski, R. L. Martin, K. Morokuma, O. Farkas, 
 J. B. Foresman, and D. J. Fox, Gaussian, Inc., Wallingford CT, 2016.
 
 ******************************************
 Gaussian 16:  ES64L-G16RevA.03 25-Dec-2016
                13-Nov-2024 
 ******************************************
 %chk=opt.chk
 %mem=16GB
 %nprocshared=28
 Will use up to   28 processors via shared memory.
 --------------------------------------------
 #p opt UM062X/6-311+G** nosymm int=superfine
 --------------------------------------------
 1/18=20,19=15,26=5,38=1/1,3;
 2/9=110,12=2,15=1,17=6,18=5,40=1/2;
 3/5=4,6=6,7=111,11=2,25=1,30=1,71=1,74=-55,75=-7,116=2/1,2,3;
 4//1;
 5/5=2,38=5/2;
 6/7=2,8=2,9=2,10=2,28=1/1;
 7/30=1/1,2,3,16;
 1/18=20,19=15,26=5/3(2);
 2/9=110,15=1/2;
 99//99;
 2/9=110,15=1/2;
 3/5=4,6=6,7=111,11=2,25=1,30=1,71=1,74=-55,75=-7,116=2/1,2,3;
 4/5=5,16=3,69=1/1;
 5/5=2,38=5/2;
 7/30=1/1,2,3,16;
 1/18=20,19=15,26=5/3(-5);
 2/9=110,15=1/2;
 6/7=2,8=2,9=2,10=2,19=2,28=1/1;
 99/9=1/99;
 Leave Link    1 at Wed Nov 13 12:36:56 2024, MaxMem=  2147483648 cpu:               2.2 elap:               0.1
 (Enter /home/szhao/Apps/g16/l101.exe)
 -------------------
 Title Card Required
 -------------------
 Symbolic Z-matrix:
 Charge =  1 Multiplicity = 2
 C                    -1   -1.59787   0.        0. 
 C                    -1    1.59787   0.        0. 
 H                    0     1.66403  -0.93683   0.54223 
 H                    0    -1.66236  -0.93793  -0.54043 
 H                    0     1.66335   0.93804   0.54019 
 H                    0     1.66252  -0.00115  -1.08249 
 H                    0    -1.66396   0.93691  -0.54208 
 H                    0    -1.66323   0.00092   1.08246 
 
 Add virtual bond connecting atoms C2         and C1         Dist= 6.04D+00.
 ITRead=  2  2  0  0  0  0  0  0
 MicOpt= -2 -2 -1 -1 -1 -1 -1 -1
 NAtoms=      8 NQM=        6 NQMF=       2 NMMI=      0 NMMIF=      0
                NMic=       0 NMicF=      0.
                    Isotopes and Nuclear Properties:
 (Nuclear quadrupole moments (NQMom) in fm**2, nuclear magnetic moments (NMagM)
  in nuclear magnetons)

  Atom         1           2           3           4           5           6           7           8
 IAtWgt=          12          12           1           1           1           1           1           1
 AtmWgt=  12.0000000  12.0000000   1.0078250   1.0078250   1.0078250   1.0078250   1.0078250   1.0078250
 NucSpn=           0           0           1           1           1           1           1           1
 AtZEff=  -0.0000000  -0.0000000  -0.0000000  -0.0000000  -0.0000000  -0.0000000  -0.0000000  -0.0000000
 NQMom=    0.0000000   0.0000000   0.0000000   0.0000000   0.0000000   0.0000000   0.0000000   0.0000000
 NMagM=    0.0000000   0.0000000   2.7928460   2.7928460   2.7928460   2.7928460   2.7928460   2.7928460
 AtZNuc=   6.0000000   6.0000000   1.0000000   1.0000000   1.0000000   1.0000000   1.0000000   1.0000000
 Leave Link  101 at Wed Nov 13 12:36:56 2024, MaxMem=  2147483648 cpu:              19.7 elap:               0.7
 (Enter /home/szhao/Apps/g16/l103.exe)

 GradGradGradGradGradGradGradGradGradGradGradGradGradGradGradGradGradGrad
 Berny optimization.
 Initialization pass.
                           ----------------------------
                           !    Initial Parameters    !
                           ! (Angstroms and Degrees)  !
 --------------------------                            --------------------------
 ! Name  Definition              Value          Derivative Info.                !
 --------------------------------------------------------------------------------
 ! X1    R(1,-1)                -1.5979         Frozen                          !
 ! Y1    R(1,-2)                 0.0            Frozen                          !
 ! Z1    R(1,-3)                 0.0            Frozen                          !
 ! X2    R(2,-1)                 1.5979         Frozen                          !
 ! Y2    R(2,-2)                 0.0            Frozen                          !
 ! Z2    R(2,-3)                 0.0            Frozen                          !
 ! R1    R(1,4)                  1.0844         estimate D2E/DX2                !
 ! R2    R(1,7)                  1.0844         estimate D2E/DX2                !
 ! R3    R(1,8)                  1.0844         estimate D2E/DX2                !
 ! R4    R(2,3)                  1.0845         estimate D2E/DX2                !
 ! R5    R(2,5)                  1.0844         estimate D2E/DX2                !
 ! R6    R(2,6)                  1.0844         estimate D2E/DX2                !
 ! A1    A(2,1,4)               93.4092         estimate D2E/DX2                !
 ! A2    A(2,1,7)               93.494          estimate D2E/DX2                !
 ! A3    A(2,1,8)               93.4552         estimate D2E/DX2                !
 ! A4    A(4,1,7)              119.6378         estimate D2E/DX2                !
 ! A5    A(4,1,8)              119.6439         estimate D2E/DX2                !
 ! A6    A(7,1,8)              119.6403         estimate D2E/DX2                !
 ! A7    A(1,2,3)               93.4976         estimate D2E/DX2                !
 ! A8    A(1,2,5)               93.4613         estimate D2E/DX2                !
 ! A9    A(1,2,6)               93.4176         estimate D2E/DX2                !
 ! A10   A(3,2,5)              119.6369         estimate D2E/DX2                !
 ! A11   A(3,2,6)              119.6406         estimate D2E/DX2                !
 ! A12   A(5,2,6)              119.6407         estimate D2E/DX2                !
 ! D1    D(4,1,2,3)            -60.0122         estimate D2E/DX2                !
 ! D2    D(4,1,2,5)            179.9859         estimate D2E/DX2                !
 ! D3    D(4,1,2,6)             59.9887         estimate D2E/DX2                !
 ! D4    D(7,1,2,3)            179.9909         estimate D2E/DX2                !
 ! D5    D(7,1,2,5)             59.9891         estimate D2E/DX2                !
 ! D6    D(7,1,2,6)            -60.0082         estimate D2E/DX2                !
 ! D7    D(8,1,2,3)             59.9867         estimate D2E/DX2                !
 ! D8    D(8,1,2,5)            -60.0151         estimate D2E/DX2                !
 ! D9    D(8,1,2,6)            179.9877         estimate D2E/DX2                !
 --------------------------------------------------------------------------------
 Trust Radius=3.00D-01 FncErr=1.00D-07 GrdErr=1.00D-07 EigMax=2.50D+02 EigMin=1.00D-04
 Number of steps in this run=     43 maximum allowed number of steps=    100.
 GradGradGradGradGradGradGradGradGradGradGradGradGradGradGradGradGradGrad

 Leave Link  103 at Wed Nov 13 12:36:57 2024, MaxMem=  2147483648 cpu:               1.3 elap:               0.1
 (Enter /home/szhao/Apps/g16/l202.exe)
                          Input orientation:                          
 ---------------------------------------------------------------------
 Center     Atomic      Atomic             Coordinates (Angstroms)
 Number     Number       Type             X           Y           Z
 ---------------------------------------------------------------------
      1          6           0       -1.597873    0.000000    0.000000
      2          6           0        1.597873    0.000000    0.000000
      3          1           0        1.664032   -0.936832    0.542231
      4          1           0       -1.662359   -0.937931   -0.540431
      5          1           0        1.663346    0.938036    0.540185
      6          1           0        1.662519   -0.001152   -1.082495
      7          1           0       -1.663963    0.936911   -0.542078
      8          1           0       -1.663229    0.000919    1.082457
 ---------------------------------------------------------------------
                    Distance matrix (angstroms):
                    1          2          3          4          5
     1  C    0.000000
     2  C    3.195745   0.000000
     3  H    3.436814   1.084456   0.000000
     4  H    1.084407   3.435242   3.498147   0.000000
     5  H    3.436169   1.084434   1.874869   3.968286   0.000000
     6  H    3.435397   1.084424   1.874896   3.496599   1.874877
     7  H    1.084444   3.436746   3.970162   1.874843   3.498896
     8  H    1.084429   3.436059   3.498841   1.874888   3.498335
                    6          7          8
     6  H    0.000000
     7  H    3.498213   0.000000
     8  H    3.968327   1.874885   0.000000
 Symmetry turned off by external request.
 Stoichiometry    C2H6(1+,2)
 Framework group  C1[X(C2H6)]
 Deg. of freedom    18
 Full point group                 C1      NOp   1
 Rotational constants (GHZ):          71.3274761           6.1973629           6.1973509
 Leave Link  202 at Wed Nov 13 12:36:57 2024, MaxMem=  2147483648 cpu:               1.6 elap:               0.1
 (Enter /home/szhao/Apps/g16/l301.exe)
 Standard basis: 6-311+G(d,p) (5D, 7F)
 Ernie: Thresh=  0.10000D-02 Tol=  0.10000D-05 Strict=F.
    80 basis functions,   120 primitive gaussians,    82 cartesian basis functions
     9 alpha electrons        8 beta electrons
       nuclear repulsion energy        32.0736495795 Hartrees.
 IExCor= 4336 DFT=T Ex+Corr=M062X ExCW=0 ScaHFX=  0.540000
 ScaDFX=  1.000000  1.000000  1.000000  1.000000 ScalE2=  1.000000  1.000000
 IRadAn=      7 IRanWt=     -1 IRanGd=            0 ICorTp=0 IEmpDi=  4
 NAtoms=    8 NActive=    8 NUniq=    8 SFac= 1.00D+00 NAtFMM=   60 NAOKFM=F Big=F
 Integral buffers will be    131072 words long.
 Raffenetti 2 integral format.
 Two-electron integral symmetry is turned off.
 Leave Link  301 at Wed Nov 13 12:36:57 2024, MaxMem=  2147483648 cpu:               3.3 elap:               0.1
 (Enter /home/szhao/Apps/g16/l302.exe)
 NPDir=0 NMtPBC=     1 NCelOv=     1 NCel=       1 NClECP=     1 NCelD=      1
         NCelK=      1 NCelE2=     1 NClLst=     1 CellRange=     0.0.
 One-electron integrals computed using PRISM.
 NBasis=    80 RedAO= T EigKep=  3.24D-03  NBF=    80
 NBsUse=    80 1.00D-06 EigRej= -1.00D+00 NBFU=    80
 Precomputing XC quadrature grid using
 IXCGrd= 4 IRadAn=           7 IRanWt=          -1 IRanGd=           0 AccXCQ= 0.00D+00.
 Generated NRdTot=       0 NPtTot=           0 NUsed=           0 NTot=          32
 NSgBfM=    82    82    82    82    82 MxSgAt=     8 MxSgA2=     8.
 Leave Link  302 at Wed Nov 13 12:36:57 2024, MaxMem=  2147483648 cpu:               8.5 elap:               0.3
 (Enter /home/szhao/Apps/g16/l303.exe)
 DipDrv:  MaxL=1.
 Leave Link  303 at Wed Nov 13 12:36:57 2024, MaxMem=  2147483648 cpu:               2.6 elap:               0.1
 (Enter /home/szhao/Apps/g16/l401.exe)
 ExpMin= 4.38D-02 ExpMax= 4.56D+03 ExpMxC= 6.82D+02 IAcc=3 IRadAn=         7 AccDes= 0.00D+00
 Harris functional with IExCor= 1009 and IRadAn=       7 diagonalized for initial guess.
 HarFok:  IExCor= 1009 AccDes= 0.00D+00 IRadAn=         7 IDoV= 1 UseB2=F ITyADJ=14
 ICtDFT=  3500011 ScaDFX=  1.000000  1.000000  1.000000  1.000000
 FoFCou: FMM=F IPFlag=           0 FMFlag=      100000 FMFlg1=           0
         NFxFlg=           0 DoJE=T BraDBF=F KetDBF=T FulRan=T
         wScrn=  0.000000 ICntrl=       500 IOpCl=  0 I1Cent=   200000004 NGrid=           0
         NMat0=    1 NMatS0=      1 NMatT0=    0 NMatD0=    1 NMtDS0=    0 NMtDT0=    0
 Symmetry not used in FoFCou.
 Harris En= -79.3546227136324    
 JPrj=0 DoOrth=F DoCkMO=F.
 Initial guess <Sx>= 0.0000 <Sy>= 0.0000 <Sz>= 0.5000 <S**2>= 0.7500 S= 0.5000
 Leave Link  401 at Wed Nov 13 12:36:58 2024, MaxMem=  2147483648 cpu:              14.4 elap:               0.6
 (Enter /home/szhao/Apps/g16/l502.exe)
 Keep R1 and R2 ints in memory in canonical form, NReq=35964362.
 FoFCou: FMM=F IPFlag=           0 FMFlag=           0 FMFlg1=           0
         NFxFlg=           0 DoJE=F BraDBF=F KetDBF=F FulRan=T
         wScrn=  0.000000 ICntrl=       600 IOpCl=  0 I1Cent=           0 NGrid=           0
         NMat0=    1 NMatS0=   3240 NMatT0=    0 NMatD0=    1 NMtDS0=    0 NMtDT0=    0
 Symmetry not used in FoFCou.
 Two-electron integral symmetry not used.
 UHF open shell SCF:
 Using DIIS extrapolation, IDIIS=  1040.
 NGot=  2147483648 LenX=  2136966234 LenY=  2136959069
 Requested convergence on RMS density matrix=1.00D-08 within 128 cycles.
 Requested convergence on MAX density matrix=1.00D-06.
 Requested convergence on             energy=1.00D-06.
 No special actions if energy rises.

 Cycle   1  Pass 1  IDiag  1:
 E= -79.3135853949023    
 DIIS: error= 2.42D-02 at cycle   1 NSaved=   1.
 NSaved= 1 IEnMin= 1 EnMin= -79.3135853949023     IErMin= 1 ErrMin= 2.42D-02
 ErrMax= 2.42D-02  0.00D+00 EMaxC= 1.00D-01 BMatC= 1.08D-01 BMatP= 1.08D-01
 IDIUse=3 WtCom= 7.58D-01 WtEn= 2.42D-01
 Coeff-Com:  0.100D+01
 Coeff-En:   0.100D+01
 Coeff:      0.100D+01
 Gap=     0.157 Goal=   None    Shift=    0.000
 Gap=     0.419 Goal=   None    Shift=    0.000
 GapD=    0.157 DampG=1.000 DampE=0.500 DampFc=0.5000 IDamp=-1.
 Damping current iteration by 5.00D-01
 RMSDP=1.92D-03 MaxDP=4.79D-02              OVMax= 8.77D-02

 Cycle   2  Pass 1  IDiag  1:
 E= -79.3243087867239     Delta-E=       -0.010723391822 Rises=F Damp=T
 DIIS: error= 1.01D-02 at cycle   2 NSaved=   2.
 NSaved= 2 IEnMin= 2 EnMin= -79.3243087867239     IErMin= 2 ErrMin= 1.01D-02
 ErrMax= 1.01D-02  0.00D+00 EMaxC= 1.00D-01 BMatC= 1.65D-02 BMatP= 1.08D-01
 IDIUse=3 WtCom= 8.99D-01 WtEn= 1.01D-01
 Coeff-Com: -0.444D+00 0.144D+01
 Coeff-En:   0.000D+00 0.100D+01
 Coeff:     -0.399D+00 0.140D+01
 Gap=     0.156 Goal=   None    Shift=    0.000
 Gap=     0.407 Goal=   None    Shift=    0.000
 RMSDP=8.14D-04 MaxDP=1.49D-02 DE=-1.07D-02 OVMax= 2.10D-02

 Cycle   3  Pass 1  IDiag  1:
 E= -79.3337823869140     Delta-E=       -0.009473600190 Rises=F Damp=F
 DIIS: error= 1.87D-03 at cycle   3 NSaved=   3.
 NSaved= 3 IEnMin= 3 EnMin= -79.3337823869140     IErMin= 3 ErrMin= 1.87D-03
 ErrMax= 1.87D-03  0.00D+00 EMaxC= 1.00D-01 BMatC= 5.25D-04 BMatP= 1.65D-02
 IDIUse=3 WtCom= 9.81D-01 WtEn= 1.87D-02
 Coeff-Com: -0.120D+00 0.227D+00 0.893D+00
 Coeff-En:   0.000D+00 0.000D+00 0.100D+01
 Coeff:     -0.118D+00 0.223D+00 0.895D+00
 Gap=     0.157 Goal=   None    Shift=    0.000
 Gap=     0.406 Goal=   None    Shift=    0.000
 RMSDP=1.12D-04 MaxDP=3.41D-03 DE=-9.47D-03 OVMax= 6.21D-03

 Cycle   4  Pass 1  IDiag  1:
 E= -79.3339347270975     Delta-E=       -0.000152340184 Rises=F Damp=F
 DIIS: error= 3.20D-04 at cycle   4 NSaved=   4.
 NSaved= 4 IEnMin= 4 EnMin= -79.3339347270975     IErMin= 4 ErrMin= 3.20D-04
 ErrMax= 3.20D-04  0.00D+00 EMaxC= 1.00D-01 BMatC= 1.58D-05 BMatP= 5.25D-04
 IDIUse=3 WtCom= 9.97D-01 WtEn= 3.20D-03
 Coeff-Com:  0.552D-02-0.177D-01 0.381D-01 0.974D+00
 Coeff-En:   0.000D+00 0.000D+00 0.000D+00 0.100D+01
 Coeff:      0.550D-02-0.176D-01 0.380D-01 0.974D+00
 Gap=     0.157 Goal=   None    Shift=    0.000
 Gap=     0.405 Goal=   None    Shift=    0.000
 RMSDP=2.70D-05 MaxDP=5.93D-04 DE=-1.52D-04 OVMax= 1.12D-03

 Cycle   5  Pass 1  IDiag  1:
 E= -79.3339415870791     Delta-E=       -0.000006859982 Rises=F Damp=F
 DIIS: error= 9.50D-05 at cycle   5 NSaved=   5.
 NSaved= 5 IEnMin= 5 EnMin= -79.3339415870791     IErMin= 5 ErrMin= 9.50D-05
 ErrMax= 9.50D-05  0.00D+00 EMaxC= 1.00D-01 BMatC= 1.92D-06 BMatP= 1.58D-05
 IDIUse=1 WtCom= 1.00D+00 WtEn= 0.00D+00
 Coeff-Com:  0.131D-01-0.252D-01-0.954D-01-0.795D-02 0.112D+01
 Coeff:      0.131D-01-0.252D-01-0.954D-01-0.795D-02 0.112D+01
 Gap=     0.157 Goal=   None    Shift=    0.000
 Gap=     0.406 Goal=   None    Shift=    0.000
 RMSDP=1.30D-05 MaxDP=2.41D-04 DE=-6.86D-06 OVMax= 4.53D-04

 Cycle   6  Pass 1  IDiag  1:
 E= -79.3339428302832     Delta-E=       -0.000001243204 Rises=F Damp=F
 DIIS: error= 2.44D-05 at cycle   6 NSaved=   6.
 NSaved= 6 IEnMin= 6 EnMin= -79.3339428302832     IErMin= 6 ErrMin= 2.44D-05
 ErrMax= 2.44D-05  0.00D+00 EMaxC= 1.00D-01 BMatC= 1.16D-07 BMatP= 1.92D-06
 IDIUse=1 WtCom= 1.00D+00 WtEn= 0.00D+00
 Coeff-Com: -0.375D-02 0.763D-02 0.188D-01-0.657D-01-0.267D+00 0.131D+01
 Coeff:     -0.375D-02 0.763D-02 0.188D-01-0.657D-01-0.267D+00 0.131D+01
 Gap=     0.157 Goal=   None    Shift=    0.000
 Gap=     0.406 Goal=   None    Shift=    0.000
 RMSDP=3.78D-06 MaxDP=9.47D-05 DE=-1.24D-06 OVMax= 1.16D-04

 Cycle   7  Pass 1  IDiag  1:
 E= -79.3339429122476     Delta-E=       -0.000000081964 Rises=F Damp=F
 DIIS: error= 8.16D-06 at cycle   7 NSaved=   7.
 NSaved= 7 IEnMin= 7 EnMin= -79.3339429122476     IErMin= 7 ErrMin= 8.16D-06
 ErrMax= 8.16D-06  0.00D+00 EMaxC= 1.00D-01 BMatC= 8.95D-09 BMatP= 1.16D-07
 IDIUse=1 WtCom= 1.00D+00 WtEn= 0.00D+00
 Coeff-Com: -0.128D-02 0.260D-02 0.722D-02-0.128D-01-0.106D+00 0.329D+00
 Coeff-Com:  0.782D+00
 Coeff:     -0.128D-02 0.260D-02 0.722D-02-0.128D-01-0.106D+00 0.329D+00
 Coeff:      0.782D+00
 Gap=     0.157 Goal=   None    Shift=    0.000
 Gap=     0.406 Goal=   None    Shift=    0.000
 RMSDP=8.09D-07 MaxDP=2.41D-05 DE=-8.20D-08 OVMax= 1.02D-04

 Cycle   8  Pass 1  IDiag  1:
 E= -79.3339429137467     Delta-E=       -0.000000001499 Rises=F Damp=F
 DIIS: error= 7.45D-06 at cycle   8 NSaved=   8.
 NSaved= 8 IEnMin= 8 EnMin= -79.3339429137467     IErMin= 8 ErrMin= 7.45D-06
 ErrMax= 7.45D-06  0.00D+00 EMaxC= 1.00D-01 BMatC= 6.05D-09 BMatP= 8.95D-09
 IDIUse=1 WtCom= 1.00D+00 WtEn= 0.00D+00
 Coeff-Com: -0.152D-04 0.312D-04 0.598D-03 0.684D-02-0.129D-01-0.703D-01
 Coeff-Com:  0.494D+00 0.582D+00
 Coeff:     -0.152D-04 0.312D-04 0.598D-03 0.684D-02-0.129D-01-0.703D-01
 Coeff:      0.494D+00 0.582D+00
 Gap=     0.157 Goal=   None    Shift=    0.000
 Gap=     0.406 Goal=   None    Shift=    0.000
 RMSDP=3.81D-07 MaxDP=1.16D-05 DE=-1.50D-09 OVMax= 4.98D-05

 Cycle   9  Pass 1  IDiag  1:
 E= -79.3339429157004     Delta-E=       -0.000000001954 Rises=F Damp=F
 DIIS: error= 4.11D-07 at cycle   9 NSaved=   9.
 NSaved= 9 IEnMin= 9 EnMin= -79.3339429157004     IErMin= 9 ErrMin= 4.11D-07
 ErrMax= 4.11D-07  0.00D+00 EMaxC= 1.00D-01 BMatC= 1.02D-11 BMatP= 6.05D-09
 IDIUse=1 WtCom= 1.00D+00 WtEn= 0.00D+00
 Coeff-Com:  0.206D-04-0.436D-04-0.125D-03-0.529D-04 0.212D-02 0.721D-04
 Coeff-Com: -0.703D-01-0.572D-01 0.113D+01
 Coeff:      0.206D-04-0.436D-04-0.125D-03-0.529D-04 0.212D-02 0.721D-04
 Coeff:     -0.703D-01-0.572D-01 0.113D+01
 Gap=     0.157 Goal=   None    Shift=    0.000
 Gap=     0.406 Goal=   None    Shift=    0.000
 RMSDP=3.68D-08 MaxDP=5.75D-07 DE=-1.95D-09 OVMax= 3.63D-06

 Cycle  10  Pass 1  IDiag  1:
 E= -79.3339429157077     Delta-E=       -0.000000000007 Rises=F Damp=F
 DIIS: error= 4.55D-08 at cycle  10 NSaved=  10.
 NSaved=10 IEnMin=10 EnMin= -79.3339429157077     IErMin=10 ErrMin= 4.55D-08
 ErrMax= 4.55D-08  0.00D+00 EMaxC= 1.00D-01 BMatC= 1.80D-13 BMatP= 1.02D-11
 IDIUse=1 WtCom= 1.00D+00 WtEn= 0.00D+00
 Coeff-Com:  0.109D-06-0.579D-06-0.981D-05-0.789D-04 0.290D-04 0.136D-02
 Coeff-Com: -0.527D-02-0.738D-02-0.419D-01 0.105D+01
 Coeff:      0.109D-06-0.579D-06-0.981D-05-0.789D-04 0.290D-04 0.136D-02
 Coeff:     -0.527D-02-0.738D-02-0.419D-01 0.105D+01
 Gap=     0.157 Goal=   None    Shift=    0.000
 Gap=     0.406 Goal=   None    Shift=    0.000
 RMSDP=6.77D-09 MaxDP=1.26D-07 DE=-7.26D-12 OVMax= 4.18D-07

 SCF Done:  E(UM062X) =  -79.3339429157     A.U. after   10 cycles
            NFock= 10  Conv=0.68D-08     -V/T= 2.0057
 <Sx>= 0.0000 <Sy>= 0.0000 <Sz>= 0.5000 <S**2>= 0.7526 S= 0.5013
 <L.S>=  0.00000000000    
 KE= 7.888316319197D+01 PE=-2.428577461716D+02 EE= 5.256699048436D+01
 Annihilation of the first spin contaminant:
 S**2 before annihilation     0.7526,   after     0.7500
 Leave Link  502 at Wed Nov 13 12:37:03 2024, MaxMem=  2147483648 cpu:             142.1 elap:               5.3
 (Enter /home/szhao/Apps/g16/l601.exe)
 Copying SCF densities to generalized density rwf, IOpCl= 1 IROHF=0.

 **********************************************************************

            Population analysis using the SCF density.

 **********************************************************************

 Alpha  occ. eigenvalues --  -10.84819 -10.84817  -1.03616  -1.02482  -0.74350
 Alpha  occ. eigenvalues --   -0.74349  -0.73829  -0.73828  -0.51700
 Alpha virt. eigenvalues --   -0.35975  -0.13747  -0.10218  -0.10141  -0.10141
 Alpha virt. eigenvalues --   -0.06244  -0.06244  -0.05051  -0.03252  -0.01666
 Alpha virt. eigenvalues --   -0.01663   0.01218   0.01222   0.04657   0.07882
 Alpha virt. eigenvalues --    0.19197   0.21142   0.21143   0.28062   0.28064
 Alpha virt. eigenvalues --    0.31259   0.35614   0.41808   0.41808   0.44916
 Alpha virt. eigenvalues --    0.44920   0.51570   0.57540   0.65806   0.84745
 Alpha virt. eigenvalues --    0.84747   0.85665   0.85667   1.20102   1.20105
 Alpha virt. eigenvalues --    1.21355   1.21357   1.28492   1.29235   1.29238
 Alpha virt. eigenvalues --    1.31004   1.45784   1.58044   1.66718   1.66720
 Alpha virt. eigenvalues --    1.69185   1.69187   1.77861   1.77865   1.78827
 Alpha virt. eigenvalues --    1.78830   2.19767   2.24027   2.24039   2.24889
 Alpha virt. eigenvalues --    2.26024   2.26035   2.41768   2.41769   2.43065
 Alpha virt. eigenvalues --    2.43070   2.49852   2.50080   2.56883   2.78408
 Alpha virt. eigenvalues --    3.49706   3.49708   3.50337   3.50340  23.69345
 Alpha virt. eigenvalues --   23.69540
  Beta  occ. eigenvalues --  -10.84621 -10.84621  -1.00814  -1.00066  -0.73821
  Beta  occ. eigenvalues --   -0.73819  -0.73314  -0.73313
  Beta virt. eigenvalues --   -0.32745  -0.25856  -0.15427  -0.11144  -0.11143
  Beta virt. eigenvalues --   -0.10065  -0.06393  -0.06392  -0.05368  -0.02416
  Beta virt. eigenvalues --   -0.01971  -0.01968   0.01522   0.01526   0.05504
  Beta virt. eigenvalues --    0.08348   0.18743   0.20195   0.20196   0.27348
  Beta virt. eigenvalues --    0.27349   0.31475   0.35440   0.42653   0.42654
  Beta virt. eigenvalues --    0.45975   0.45979   0.52371   0.58320   0.66578
  Beta virt. eigenvalues --    0.87266   0.87268   0.88069   0.88071   1.20913
  Beta virt. eigenvalues --    1.20915   1.22486   1.22488   1.30305   1.30307
  Beta virt. eigenvalues --    1.32912   1.35073   1.47068   1.59160   1.68071
  Beta virt. eigenvalues --    1.68073   1.70578   1.70580   1.79122   1.79127
  Beta virt. eigenvalues --    1.80157   1.80160   2.23202   2.24955   2.24967
  Beta virt. eigenvalues --    2.27290   2.27300   2.28334   2.44236   2.44236
  Beta virt. eigenvalues --    2.45430   2.45435   2.50311   2.52969   2.60129
  Beta virt. eigenvalues --    2.79961   3.53529   3.53532   3.54150   3.54152
  Beta virt. eigenvalues --   23.70520  23.70710
          Condensed to atoms (all electrons):
               1          2          3          4          5          6
     1  C    5.099696   0.057008  -0.002333   0.373882  -0.002323  -0.002325
     2  C    0.057008   5.099738   0.373915  -0.002324   0.373892   0.373882
     3  H   -0.002333   0.373915   0.404861  -0.000034  -0.016833  -0.016832
     4  H    0.373882  -0.002324  -0.000034   0.404939   0.000116  -0.000035
     5  H   -0.002323   0.373892  -0.016833   0.000116   0.404897  -0.016831
     6  H   -0.002325   0.373882  -0.016832  -0.000035  -0.016831   0.404945
     7  H    0.373918  -0.002333   0.000117  -0.016837  -0.000034  -0.000034
     8  H    0.373897  -0.002323  -0.000034  -0.016830  -0.000035   0.000116
               7          8
     1  C    0.373918   0.373897
     2  C   -0.002333  -0.002323
     3  H    0.000117  -0.000034
     4  H   -0.016837  -0.016830
     5  H   -0.000034  -0.000035
     6  H   -0.000034   0.000116
     7  H    0.404859  -0.016831
     8  H   -0.016831   0.404899
          Atomic-Atomic Spin Densities.
               1          2          3          4          5          6
     1  C    0.524115   0.068664  -0.001988  -0.007976  -0.001995  -0.001997
     2  C    0.068664   0.524149  -0.007986  -0.001997  -0.007979  -0.007980
     3  H   -0.001988  -0.007986  -0.013814   0.000047   0.001359   0.001357
     4  H   -0.007976  -0.001997   0.000047  -0.013819   0.000027   0.000047
     5  H   -0.001995  -0.007979   0.001359   0.000027  -0.013818   0.001357
     6  H   -0.001997  -0.007980   0.001357   0.000047   0.001357  -0.013825
     7  H   -0.007985  -0.001988   0.000027   0.001358   0.000047   0.000047
     8  H   -0.007980  -0.001994   0.000047   0.001357   0.000047   0.000027
               7          8
     1  C   -0.007985  -0.007980
     2  C   -0.001988  -0.001994
     3  H    0.000027   0.000047
     4  H    0.001358   0.001357
     5  H    0.000047   0.000047
     6  H    0.000047   0.000027
     7  H   -0.013817   0.001358
     8  H    0.001358  -0.013828
 Mulliken charges and spin densities:
               1          2
     1  C   -0.271421   0.562859
     2  C   -0.271455   0.562889
     3  H    0.257175  -0.020952
     4  H    0.257122  -0.020956
     5  H    0.257150  -0.020954
     6  H    0.257113  -0.020966
     7  H    0.257176  -0.020953
     8  H    0.257140  -0.020967
 Sum of Mulliken charges =   1.00000   1.00000
 Mulliken charges and spin densities with hydrogens summed into heavy atoms:
               1          2
     1  C    0.500017   0.499983
     2  C    0.499983   0.500017
 Electronic spatial extent (au):  <R**2>=            209.1548
 Charge=              1.0000 electrons
 Dipole moment (field-independent basis, Debye):
    X=             -0.0000    Y=             -0.0001    Z=             -0.0001  Tot=              0.0001
 Quadrupole moment (field-independent basis, Debye-Ang):
   XX=              1.4587   YY=            -11.0621   ZZ=            -11.0619
   XY=             -0.0017   XZ=              0.0010   YZ=             -0.0000
 Traceless Quadrupole moment (field-independent basis, Debye-Ang):
   XX=              8.3471   YY=             -4.1737   ZZ=             -4.1735
   XY=             -0.0017   XZ=              0.0010   YZ=             -0.0000
 Octapole moment (field-independent basis, Debye-Ang**2):
  XXX=              0.0000  YYY=              0.0007  ZZZ=             -0.0002  XYY=              0.0011
  XXY=              0.0025  XXZ=              0.0038  XZZ=             -0.0014  YZZ=             -0.0009
  YYZ=             -0.0000  XYZ=              0.0006
 Hexadecapole moment (field-independent basis, Debye-Ang**3):
 XXXX=           -179.4319 YYYY=            -21.6619 ZZZZ=            -21.6618 XXXY=             -0.0116
 XXXZ=              0.0067 YYYX=              0.0150 YYYZ=              0.0002 ZZZX=             -4.8530
 ZZZY=             -0.0001 XXYY=            -33.5817 XXZZ=            -33.5879 YYZZ=             -7.2206
 XXYZ=             -0.0062 YYXZ=              4.8524 ZZXY=             -0.0141
 N-N= 3.207364957955D+01 E-N=-2.428577458705D+02  KE= 7.888316319197D+01
                          Isotropic Fermi Contact Couplings
        Atom                 a.u.       MegaHertz       Gauss      10(-4) cm-1
     1  C(13)              0.08280      93.07937      33.21303      31.04794
     2  C(13)              0.08280      93.07792      33.21252      31.04745
     3  H(1)              -0.00656     -29.32673     -10.46451      -9.78234
     4  H(1)              -0.00656     -29.31491     -10.46029      -9.77840
     5  H(1)              -0.00656     -29.31792     -10.46136      -9.77941
     6  H(1)              -0.00656     -29.31470     -10.46021      -9.77833
     7  H(1)              -0.00656     -29.33133     -10.46615      -9.78388
     8  H(1)              -0.00656     -29.32564     -10.46412      -9.78198
 --------------------------------------------------------
       Center         ----  Spin Dipole Couplings  ----
                      3XX-RR        3YY-RR        3ZZ-RR
 --------------------------------------------------------
     1   Atom        0.506494     -0.253246     -0.253249
     2   Atom        0.506528     -0.253263     -0.253266
     3   Atom        0.002693      0.016471     -0.019164
     4   Atom        0.002711      0.016582     -0.019294
     5   Atom        0.002702      0.016599     -0.019302
     6   Atom        0.002709     -0.037130      0.034422
     7   Atom        0.002696      0.016485     -0.019181
     8   Atom        0.002706     -0.037125      0.034420
 --------------------------------------------------------
                        XY            XZ            YZ
 --------------------------------------------------------
     1   Atom        0.000767      0.000032     -0.000001
     2   Atom        0.000343     -0.000625     -0.000000
     3   Atom       -0.000631      0.000348     -0.031022
     4   Atom        0.000564      0.000311      0.030953
     5   Atom        0.000608      0.000319      0.030947
     6   Atom        0.000011     -0.000654      0.000080
     7   Atom       -0.000612      0.000374     -0.031011
     8   Atom        0.000029     -0.000683      0.000069
 --------------------------------------------------------


 ---------------------------------------------------------------------------------
              Anisotropic Spin Dipole Couplings in Principal Axis System
 ---------------------------------------------------------------------------------

       Atom             a.u.   MegaHertz   Gauss  10(-4) cm-1        Axes

              Baa    -0.2532   -33.984   -12.126   -11.336 -0.0004  0.3164  0.9486
     1 C(13)  Bbb    -0.2532   -33.983   -12.126   -11.336 -0.0009  0.9486 -0.3164
              Bcc     0.5065    67.967    24.252    22.671  1.0000  0.0010  0.0000
 
              Baa    -0.2533   -33.986   -12.127   -11.336  0.0008 -0.0295  0.9996
     2 C(13)  Bbb    -0.2533   -33.985   -12.127   -11.336 -0.0004  0.9996  0.0295
              Bcc     0.5065    67.971    24.254    22.673  1.0000  0.0005 -0.0008
 
              Baa    -0.0371   -19.806    -7.067    -6.607  0.0004  0.5010  0.8655
     3 H(1)   Bbb     0.0027     1.428     0.510     0.476  0.9997  0.0194 -0.0117
              Bcc     0.0344    18.378     6.558     6.130 -0.0227  0.8652 -0.5008
 
              Baa    -0.0371   -19.811    -7.069    -6.608  0.0003 -0.4993  0.8664
     4 H(1)   Bbb     0.0027     1.440     0.514     0.480  0.9998 -0.0174 -0.0104
              Bcc     0.0344    18.372     6.555     6.128  0.0203  0.8663  0.4992
 
              Baa    -0.0371   -19.809    -7.068    -6.608  0.0007 -0.4991  0.8665
     5 H(1)   Bbb     0.0027     1.434     0.512     0.478  0.9998 -0.0184 -0.0114
              Bcc     0.0344    18.375     6.557     6.129  0.0216  0.8663  0.4990
 
              Baa    -0.0371   -19.811    -7.069    -6.608 -0.0003  1.0000 -0.0011
     6 H(1)   Bbb     0.0027     1.438     0.513     0.480  0.9998  0.0003  0.0206
              Bcc     0.0344    18.373     6.556     6.129 -0.0206  0.0011  0.9998
 
              Baa    -0.0371   -19.806    -7.067    -6.606 -0.0004  0.5007  0.8656
     7 H(1)   Bbb     0.0027     1.430     0.510     0.477  0.9997  0.0198 -0.0109
              Bcc     0.0344    18.376     6.557     6.130 -0.0226  0.8654 -0.5006
 
              Baa    -0.0371   -19.808    -7.068    -6.607 -0.0007  1.0000 -0.0010
     8 H(1)   Bbb     0.0027     1.436     0.512     0.479  0.9998  0.0008  0.0215
              Bcc     0.0344    18.373     6.556     6.128 -0.0215  0.0010  0.9998
 

 ---------------------------------------------------------------------------------

 No NMR shielding tensors so no spin-rotation constants.
 Leave Link  601 at Wed Nov 13 12:37:04 2024, MaxMem=  2147483648 cpu:               9.0 elap:               0.4
 (Enter /home/szhao/Apps/g16/l701.exe)
 ... and contract with generalized density number  0.
 Compute integral first derivatives.
 Leave Link  701 at Wed Nov 13 12:37:04 2024, MaxMem=  2147483648 cpu:               7.4 elap:               0.3
 (Enter /home/szhao/Apps/g16/l702.exe)
 L702 exits ... SP integral derivatives will be done elsewhere.
 Leave Link  702 at Wed Nov 13 12:37:04 2024, MaxMem=  2147483648 cpu:               2.0 elap:               0.1
 (Enter /home/szhao/Apps/g16/l703.exe)
 Integral derivatives from FoFJK, PRISM(SPDF).
 Compute integral first derivatives, UseDBF=F ICtDFT=           0.
 Calling FoFJK, ICntrl=      2127 FMM=F ISym2X=0 I1Cent= 0 IOpClX= 1 NMat=1 NMatS=1 NMatT=0.
 FoFJK:  IHMeth= 1 ICntrl=    2127 DoSepK=F KAlg= 0 I1Cent=           0 FoldK=F
 IRaf=         0 NMat=       1 IRICut=       1 DoRegI=T DoRafI=F ISym2E= 0 IDoP0=0 IntGTp=1.
 FoFCou: FMM=F IPFlag=           0 FMFlag=      100000 FMFlg1=         800
         NFxFlg=           0 DoJE=F BraDBF=F KetDBF=F FulRan=T
         wScrn=  0.000000 ICntrl=      2127 IOpCl=  1 I1Cent=           0 NGrid=           0
         NMat0=    1 NMatS0=      1 NMatT0=    0 NMatD0=    1 NMtDS0=    0 NMtDT0=    0
 Symmetry not used in FoFCou.
 Leave Link  703 at Wed Nov 13 12:37:05 2024, MaxMem=  2147483648 cpu:              31.7 elap:               1.2
 (Enter /home/szhao/Apps/g16/l716.exe)
 Dipole        =-1.49989457D-05-2.08724915D-05-4.44363020D-05
 -------------------------------------------------------------------
 Center     Atomic                   Forces (Hartrees/Bohr)
 Number     Number              X              Y              Z
 -------------------------------------------------------------------
      1        6          -0.000000000   -0.000000000   -0.000000000
      2        6          -0.000000000   -0.000000000   -0.000000000
      3        1          -0.001571181    0.000083450   -0.000053548
      4        1           0.001548117    0.000056779    0.000040726
      5        1          -0.001562970   -0.000072050   -0.000046113
      6        1          -0.001557816   -0.000000145    0.000082341
      7        1           0.001562910   -0.000075740    0.000050243
      8        1           0.001555059   -0.000001634   -0.000084459
 -------------------------------------------------------------------
 Cartesian Forces:  Max     0.001571181 RMS     0.000781026
 Leave Link  716 at Wed Nov 13 12:37:05 2024, MaxMem=  2147483648 cpu:               1.5 elap:               0.1
 (Enter /home/szhao/Apps/g16/l103.exe)

 GradGradGradGradGradGradGradGradGradGradGradGradGradGradGradGradGradGrad
 Berny optimization.
 FormGI is forming the generalized inverse of G from B-inverse, IUseBI=4.
 Internal  Forces:  Max     0.004691967 RMS     0.001759321
 Search for a local minimum.
 Step number   1 out of a maximum of   43
 All quantities printed in internal units (Hartrees-Bohrs-Radians)
 RMS Force = .14701D-02 SwitMx=.10000D-02 MixMth= 1
 Mixed Optimization -- RFO/linear search
 Second derivative matrix not updated -- first step.
 ITU=  0
     Eigenvalues ---    0.00230   0.08015   0.08015   0.08016   0.08017
     Eigenvalues ---    0.16000   0.16000   0.16000   0.16000   0.16000
     Eigenvalues ---    0.16000   0.35461   0.35463   0.35464   0.35465
     Eigenvalues ---    0.35465   0.354671000.000001000.000001000.00000
     Eigenvalues --- 1000.000001000.000001000.000001000.000001000.00000
     Eigenvalues --- 1000.000001000.000001000.000001000.000001000.00000
     Eigenvalues --- 1000.000001000.000001000.00000
 RFO step:  Lambda=-3.63228054D-04 EMin= 2.30000000D-03
 Linear search not attempted -- first point.
 Iteration  1 RMS(Cart)=  0.01661207 RMS(Int)=  0.00030665
 Iteration  2 RMS(Cart)=  0.00017408 RMS(Int)=  0.00026038
 Iteration  3 RMS(Cart)=  0.00000016 RMS(Int)=  0.00026038
 ITry= 1 IFail=0 DXMaxC= 3.94D-02 DCOld= 1.00D+10 DXMaxT= 3.00D-01 DXLimC= 3.00D+00 Rises=F
 Variable       Old X    -DE/DX   Delta X   Delta X   Delta X     New X
                                 (Linear)    (Quad)   (Total)
    X1       -3.01954   0.00467   0.00000   0.00000   0.00000  -3.01954
    Y1        0.00000  -0.00001   0.00000   0.00000   0.00000   0.00000
    Z1        0.00000   0.00000   0.00000   0.00000   0.00000   0.00000
    X2        3.01954  -0.00469   0.00000   0.00000   0.00000   3.01954
    Y2        0.00000   0.00001   0.00000   0.00000   0.00000   0.00000
    Z2        0.00000  -0.00001   0.00000   0.00000   0.00000   0.00000
    R1        2.04923  -0.00016   0.00000  -0.00045  -0.00045   2.04878
    R2        2.04930  -0.00019   0.00000  -0.00052  -0.00052   2.04878
    R3        2.04927  -0.00018   0.00000  -0.00050  -0.00050   2.04877
    R4        2.04933  -0.00019   0.00000  -0.00055  -0.00055   2.04878
    R5        2.04928  -0.00018   0.00000  -0.00051  -0.00051   2.04878
    R6        2.04926  -0.00018   0.00000  -0.00049  -0.00049   2.04877
    A1        1.63030  -0.00303   0.00000  -0.01888  -0.01896   1.61134
    A2        1.63178  -0.00305   0.00000  -0.01904  -0.01913   1.61265
    A3        1.63110  -0.00304   0.00000  -0.01896  -0.01905   1.61206
    A4        2.08807   0.00064   0.00000   0.00399   0.00339   2.09146
    A5        2.08818   0.00063   0.00000   0.00390   0.00330   2.09148
    A6        2.08812   0.00063   0.00000   0.00392   0.00332   2.09143
    A7        1.63184  -0.00307   0.00000  -0.01914  -0.01923   1.61262
    A8        1.63121  -0.00305   0.00000  -0.01905  -0.01913   1.61208
    A9        1.63045  -0.00305   0.00000  -0.01899  -0.01908   1.61137
   A10        2.08806   0.00064   0.00000   0.00400   0.00339   2.09145
   A11        2.08812   0.00063   0.00000   0.00394   0.00333   2.09146
   A12        2.08812   0.00063   0.00000   0.00394   0.00334   2.09146
    D1       -1.04741   0.00000   0.00000   0.00003   0.00003  -1.04738
    D2        3.14135   0.00000   0.00000   0.00003   0.00003   3.14137
    D3        1.04700   0.00000   0.00000   0.00001   0.00001   1.04701
    D4        3.14143  -0.00000   0.00000  -0.00002  -0.00002   3.14141
    D5        1.04701  -0.00000   0.00000  -0.00003  -0.00003   1.04698
    D6       -1.04734  -0.00000   0.00000  -0.00004  -0.00004  -1.04738
    D7        1.04697   0.00000   0.00000   0.00003   0.00003   1.04699
    D8       -1.04746   0.00000   0.00000   0.00002   0.00002  -1.04744
    D9        3.14138   0.00000   0.00000   0.00001   0.00001   3.14139
         Item               Value     Threshold  Converged?
 Maximum Force            0.003069     0.000450     NO 
 RMS     Force            0.001470     0.000300     NO 
 Maximum Displacement     0.039369     0.001800     NO 
 RMS     Displacement     0.016685     0.001200     NO 
 Predicted change in Energy=-1.818454D-04
 Lowest energy point so far.  Saving SCF results.
 GradGradGradGradGradGradGradGradGradGradGradGradGradGradGradGradGradGrad

 Leave Link  103 at Wed Nov 13 12:37:05 2024, MaxMem=  2147483648 cpu:               1.4 elap:               0.1
 (Enter /home/szhao/Apps/g16/l202.exe)
                          Input orientation:                          
 ---------------------------------------------------------------------
 Center     Atomic      Atomic             Coordinates (Angstroms)
 Number     Number       Type             X           Y           Z
 ---------------------------------------------------------------------
      1          6           0       -1.597873    0.000000    0.000000
      2          6           0        1.597873    0.000000    0.000000
      3          1           0        1.643199   -0.937515    0.542611
      4          1           0       -1.641812   -0.938626   -0.540803
      5          1           0        1.642614    0.938715    0.540582
      6          1           0        1.641848   -0.001161   -1.083270
      7          1           0       -1.643233    0.937612   -0.542443
      8          1           0       -1.642592    0.000938    1.083240
 ---------------------------------------------------------------------
                    Distance matrix (angstroms):
                    1          2          3          4          5
     1  C    0.000000
     2  C    3.195745   0.000000
     3  H    3.417295   1.084166   0.000000
     4  H    1.084166   3.415998   3.459058   0.000000
     5  H    3.416749   1.084167   1.876232   3.934623   0.000000
     6  H    3.416031   1.084163   1.876233   3.457678   1.876237
     7  H    1.084167   3.417327   3.936252   1.876239   3.459731
     8  H    1.084163   3.416726   3.459681   1.876245   3.459261
                    6          7          8
     6  H    0.000000
     7  H    3.459125   0.000000
     8  H    3.934631   1.876221   0.000000
 Symmetry turned off by external request.
 Stoichiometry    C2H6(1+,2)
 Framework group  C1[X(C2H6)]
 Deg. of freedom    18
 Full point group                 C1      NOp   1
 Rotational constants (GHZ):          71.2242567           6.2285594           6.2285547
 Leave Link  202 at Wed Nov 13 12:37:05 2024, MaxMem=  2147483648 cpu:               0.5 elap:               0.0
 (Enter /home/szhao/Apps/g16/l301.exe)
 Standard basis: 6-311+G(d,p) (5D, 7F)
 Ernie: Thresh=  0.10000D-02 Tol=  0.10000D-05 Strict=F.
    80 basis functions,   120 primitive gaussians,    82 cartesian basis functions
     9 alpha electrons        8 beta electrons
       nuclear repulsion energy        32.1218893667 Hartrees.
 IExCor= 4336 DFT=T Ex+Corr=M062X ExCW=0 ScaHFX=  0.540000
 ScaDFX=  1.000000  1.000000  1.000000  1.000000 ScalE2=  1.000000  1.000000
 IRadAn=      7 IRanWt=     -1 IRanGd=            0 ICorTp=0 IEmpDi=  4
 NAtoms=    8 NActive=    8 NUniq=    8 SFac= 1.00D+00 NAtFMM=   60 NAOKFM=F Big=F
 Integral buffers will be    131072 words long.
 Raffenetti 2 integral format.
 Two-electron integral symmetry is turned off.
 Leave Link  301 at Wed Nov 13 12:37:06 2024, MaxMem=  2147483648 cpu:               2.6 elap:               0.1
 (Enter /home/szhao/Apps/g16/l302.exe)
 NPDir=0 NMtPBC=     1 NCelOv=     1 NCel=       1 NClECP=     1 NCelD=      1
         NCelK=      1 NCelE2=     1 NClLst=     1 CellRange=     0.0.
 One-electron integrals computed using PRISM.
 NBasis=    80 RedAO= T EigKep=  3.21D-03  NBF=    80
 NBsUse=    80 1.00D-06 EigRej= -1.00D+00 NBFU=    80
 Precomputing XC quadrature grid using
 IXCGrd= 4 IRadAn=           7 IRanWt=          -1 IRanGd=           0 AccXCQ= 0.00D+00.
 Generated NRdTot=       0 NPtTot=           0 NUsed=           0 NTot=          32
 NSgBfM=    82    82    82    82    82 MxSgAt=     8 MxSgA2=     8.
 Leave Link  302 at Wed Nov 13 12:37:06 2024, MaxMem=  2147483648 cpu:              11.5 elap:               0.4
 (Enter /home/szhao/Apps/g16/l303.exe)
 DipDrv:  MaxL=1.
 Leave Link  303 at Wed Nov 13 12:37:06 2024, MaxMem=  2147483648 cpu:               2.5 elap:               0.1
 (Enter /home/szhao/Apps/g16/l401.exe)
 Initial guess from the checkpoint file:  "opt.chk"
 B after Tr=    -0.000034    0.000001    0.000005
         Rot=    1.000000   -0.000000    0.000000    0.000003 Ang=  -0.00 deg.
 Guess basis will be translated and rotated to current coordinates.
 JPrj=2 DoOrth=T DoCkMO=T.
 Initial guess <Sx>= 0.0000 <Sy>= 0.0000 <Sz>= 0.5000 <S**2>= 0.7526 S= 0.5013
 Generating alternative initial guess.
 ExpMin= 4.38D-02 ExpMax= 4.56D+03 ExpMxC= 6.82D+02 IAcc=3 IRadAn=         5 AccDes= 0.00D+00
 Harris functional with IExCor= 1009 and IRadAn=       5 diagonalized for initial guess.
 HarFok:  IExCor= 1009 AccDes= 0.00D+00 IRadAn=         5 IDoV= 1 UseB2=F ITyADJ=14
 ICtDFT=  3500011 ScaDFX=  1.000000  1.000000  1.000000  1.000000
 FoFCou: FMM=F IPFlag=           0 FMFlag=      100000 FMFlg1=           0
         NFxFlg=           0 DoJE=T BraDBF=F KetDBF=T FulRan=T
         wScrn=  0.000000 ICntrl=       500 IOpCl=  0 I1Cent=   200000004 NGrid=           0
         NMat0=    1 NMatS0=      1 NMatT0=    0 NMatD0=    1 NMtDS0=    0 NMtDT0=    0
 Symmetry not used in FoFCou.
 Harris En= -79.3555358964876    
 Leave Link  401 at Wed Nov 13 12:37:07 2024, MaxMem=  2147483648 cpu:              10.0 elap:               0.4
 (Enter /home/szhao/Apps/g16/l502.exe)
 Keep R1 and R2 ints in memory in canonical form, NReq=35964362.
 FoFCou: FMM=F IPFlag=           0 FMFlag=           0 FMFlg1=           0
         NFxFlg=           0 DoJE=F BraDBF=F KetDBF=F FulRan=T
         wScrn=  0.000000 ICntrl=       600 IOpCl=  0 I1Cent=           0 NGrid=           0
         NMat0=    1 NMatS0=   3240 NMatT0=    0 NMatD0=    1 NMtDS0=    0 NMtDT0=    0
 Symmetry not used in FoFCou.
 Two-electron integral symmetry not used.
 UHF open shell SCF:
 Using DIIS extrapolation, IDIIS=  1040.
 NGot=  2147483648 LenX=  2136966234 LenY=  2136959069
 Requested convergence on RMS density matrix=1.00D-08 within 128 cycles.
 Requested convergence on MAX density matrix=1.00D-06.
 Requested convergence on             energy=1.00D-06.
 No special actions if energy rises.

 Cycle   1  Pass 1  IDiag  1:
 E= -79.3340039351933    
 DIIS: error= 2.39D-03 at cycle   1 NSaved=   1.
 NSaved= 1 IEnMin= 1 EnMin= -79.3340039351933     IErMin= 1 ErrMin= 2.39D-03
 ErrMax= 2.39D-03  0.00D+00 EMaxC= 1.00D-01 BMatC= 2.97D-04 BMatP= 2.97D-04
 IDIUse=3 WtCom= 9.76D-01 WtEn= 2.39D-02
 Coeff-Com:  0.100D+01
 Coeff-En:   0.100D+01
 Coeff:      0.100D+01
 Gap=     0.488 Goal=   None    Shift=    0.000
 Gap=     0.643 Goal=   None    Shift=    0.000
 GapD=    0.488 DampG=2.000 DampE=1.000 DampFc=2.0000 IDamp=-1.
 RMSDP=9.00D-05 MaxDP=1.48D-03              OVMax= 5.73D-03

 Cycle   2  Pass 1  IDiag  1:
 E= -79.3341166550654     Delta-E=       -0.000112719872 Rises=F Damp=F
 DIIS: error= 6.42D-04 at cycle   2 NSaved=   2.
 NSaved= 2 IEnMin= 2 EnMin= -79.3341166550654     IErMin= 2 ErrMin= 6.42D-04
 ErrMax= 6.42D-04  0.00D+00 EMaxC= 1.00D-01 BMatC= 2.21D-05 BMatP= 2.97D-04
 IDIUse=3 WtCom= 9.94D-01 WtEn= 6.42D-03
 Coeff-Com:  0.381D-01 0.962D+00
 Coeff-En:   0.000D+00 0.100D+01
 Coeff:      0.378D-01 0.962D+00
 Gap=     0.156 Goal=   None    Shift=    0.000
 Gap=     0.408 Goal=   None    Shift=    0.000
 RMSDP=5.01D-05 MaxDP=1.01D-03 DE=-1.13D-04 OVMax= 2.70D-03

 Cycle   3  Pass 1  IDiag  1:
 E= -79.3341258128229     Delta-E=       -0.000009157757 Rises=F Damp=F
 DIIS: error= 2.33D-04 at cycle   3 NSaved=   3.
 NSaved= 3 IEnMin= 3 EnMin= -79.3341258128229     IErMin= 3 ErrMin= 2.33D-04
 ErrMax= 2.33D-04  0.00D+00 EMaxC= 1.00D-01 BMatC= 2.27D-06 BMatP= 2.21D-05
 IDIUse=3 WtCom= 9.98D-01 WtEn= 2.33D-03
 Coeff-Com: -0.529D-01 0.815D-01 0.971D+00
 Coeff-En:   0.000D+00 0.000D+00 0.100D+01
 Coeff:     -0.527D-01 0.813D-01 0.971D+00
 Gap=     0.156 Goal=   None    Shift=    0.000
 Gap=     0.408 Goal=   None    Shift=    0.000
 RMSDP=1.33D-05 MaxDP=2.36D-04 DE=-9.16D-06 OVMax= 8.23D-04

 Cycle   4  Pass 1  IDiag  1:
 E= -79.3341273571869     Delta-E=       -0.000001544364 Rises=F Damp=F
 DIIS: error= 5.90D-05 at cycle   4 NSaved=   4.
 NSaved= 4 IEnMin= 4 EnMin= -79.3341273571869     IErMin= 4 ErrMin= 5.90D-05
 ErrMax= 5.90D-05  0.00D+00 EMaxC= 1.00D-01 BMatC= 2.38D-07 BMatP= 2.27D-06
 IDIUse=1 WtCom= 1.00D+00 WtEn= 0.00D+00
 Coeff-Com:  0.188D-01-0.116D+00-0.349D+00 0.145D+01
 Coeff:      0.188D-01-0.116D+00-0.349D+00 0.145D+01
 Gap=     0.156 Goal=   None    Shift=    0.000
 Gap=     0.408 Goal=   None    Shift=    0.000
 RMSDP=8.10D-06 MaxDP=1.60D-04 DE=-1.54D-06 OVMax= 3.72D-04

 Cycle   5  Pass 1  IDiag  1:
 E= -79.3341275848799     Delta-E=       -0.000000227693 Rises=F Damp=F
 DIIS: error= 9.24D-06 at cycle   5 NSaved=   5.
 NSaved= 5 IEnMin= 5 EnMin= -79.3341275848799     IErMin= 5 ErrMin= 9.24D-06
 ErrMax= 9.24D-06  0.00D+00 EMaxC= 1.00D-01 BMatC= 4.50D-09 BMatP= 2.38D-07
 IDIUse=1 WtCom= 1.00D+00 WtEn= 0.00D+00
 Coeff-Com: -0.120D-02 0.154D-01 0.197D-01-0.208D+00 0.117D+01
 Coeff:     -0.120D-02 0.154D-01 0.197D-01-0.208D+00 0.117D+01
 Gap=     0.156 Goal=   None    Shift=    0.000
 Gap=     0.408 Goal=   None    Shift=    0.000
 RMSDP=6.65D-07 MaxDP=1.17D-05 DE=-2.28D-07 OVMax= 4.81D-05

 Cycle   6  Pass 1  IDiag  1:
 E= -79.3341275879227     Delta-E=       -0.000000003043 Rises=F Damp=F
 DIIS: error= 3.09D-06 at cycle   6 NSaved=   6.
 NSaved= 6 IEnMin= 6 EnMin= -79.3341275879227     IErMin= 6 ErrMin= 3.09D-06
 ErrMax= 3.09D-06  0.00D+00 EMaxC= 1.00D-01 BMatC= 1.66D-09 BMatP= 4.50D-09
 IDIUse=1 WtCom= 1.00D+00 WtEn= 0.00D+00
 Coeff-Com: -0.179D-02 0.148D-01 0.323D-01-0.191D+00 0.530D+00 0.616D+00
 Coeff:     -0.179D-02 0.148D-01 0.323D-01-0.191D+00 0.530D+00 0.616D+00
 Gap=     0.156 Goal=   None    Shift=    0.000
 Gap=     0.408 Goal=   None    Shift=    0.000
 RMSDP=2.48D-07 MaxDP=6.92D-06 DE=-3.04D-09 OVMax= 2.90D-05

 Cycle   7  Pass 1  IDiag  1:
 E= -79.3341275883700     Delta-E=       -0.000000000447 Rises=F Damp=F
 DIIS: error= 1.40D-06 at cycle   7 NSaved=   7.
 NSaved= 7 IEnMin= 7 EnMin= -79.3341275883700     IErMin= 7 ErrMin= 1.40D-06
 ErrMax= 1.40D-06  0.00D+00 EMaxC= 1.00D-01 BMatC= 2.12D-10 BMatP= 1.66D-09
 IDIUse=1 WtCom= 1.00D+00 WtEn= 0.00D+00
 Coeff-Com: -0.851D-03 0.666D-02 0.157D-01-0.852D-01 0.193D+00 0.327D+00
 Coeff-Com:  0.544D+00
 Coeff:     -0.851D-03 0.666D-02 0.157D-01-0.852D-01 0.193D+00 0.327D+00
 Coeff:      0.544D+00
 Gap=     0.156 Goal=   None    Shift=    0.000
 Gap=     0.408 Goal=   None    Shift=    0.000
 RMSDP=7.97D-08 MaxDP=2.29D-06 DE=-4.47D-10 OVMax= 1.01D-05

 Cycle   8  Pass 1  IDiag  1:
 E= -79.3341275884349     Delta-E=       -0.000000000065 Rises=F Damp=F
 DIIS: error= 1.80D-07 at cycle   8 NSaved=   8.
 NSaved= 8 IEnMin= 8 EnMin= -79.3341275884349     IErMin= 8 ErrMin= 1.80D-07
 ErrMax= 1.80D-07  0.00D+00 EMaxC= 1.00D-01 BMatC= 5.66D-12 BMatP= 2.12D-10
 IDIUse=1 WtCom= 1.00D+00 WtEn= 0.00D+00
 Coeff-Com:  0.395D-04-0.409D-03-0.562D-03 0.546D-02-0.260D-01-0.286D-02
 Coeff-Com:  0.140D+00 0.884D+00
 Coeff:      0.395D-04-0.409D-03-0.562D-03 0.546D-02-0.260D-01-0.286D-02
 Coeff:      0.140D+00 0.884D+00
 Gap=     0.156 Goal=   None    Shift=    0.000
 Gap=     0.408 Goal=   None    Shift=    0.000
 RMSDP=2.15D-08 MaxDP=4.36D-07 DE=-6.50D-11 OVMax= 1.31D-06

 Cycle   9  Pass 1  IDiag  1:
 E= -79.3341275884368     Delta-E=       -0.000000000002 Rises=F Damp=F
 DIIS: error= 1.11D-08 at cycle   9 NSaved=   9.
 NSaved= 9 IEnMin= 9 EnMin= -79.3341275884368     IErMin= 9 ErrMin= 1.11D-08
 ErrMax= 1.11D-08  0.00D+00 EMaxC= 1.00D-01 BMatC= 1.31D-14 BMatP= 5.66D-12
 IDIUse=1 WtCom= 1.00D+00 WtEn= 0.00D+00
 Coeff-Com:  0.286D-05-0.111D-04-0.888D-04 0.211D-03 0.104D-02-0.179D-02
 Coeff-Com: -0.170D-01-0.889D-01 0.111D+01
 Coeff:      0.286D-05-0.111D-04-0.888D-04 0.211D-03 0.104D-02-0.179D-02
 Coeff:     -0.170D-01-0.889D-01 0.111D+01
 Gap=     0.156 Goal=   None    Shift=    0.000
 Gap=     0.408 Goal=   None    Shift=    0.000
 RMSDP=1.87D-09 MaxDP=3.46D-08 DE=-1.88D-12 OVMax= 1.24D-07

 SCF Done:  E(UM062X) =  -79.3341275884     A.U. after    9 cycles
            NFock=  9  Conv=0.19D-08     -V/T= 2.0057
 <Sx>= 0.0000 <Sy>= 0.0000 <Sz>= 0.5000 <S**2>= 0.7527 S= 0.5014
 <L.S>=  0.00000000000    
 KE= 7.888670141005D+01 PE=-2.429517383317D+02 EE= 5.260901996658D+01
 Annihilation of the first spin contaminant:
 S**2 before annihilation     0.7527,   after     0.7500
 Leave Link  502 at Wed Nov 13 12:37:11 2024, MaxMem=  2147483648 cpu:             114.2 elap:               4.3
 (Enter /home/szhao/Apps/g16/l701.exe)
 ... and contract with generalized density number  0.
 Compute integral first derivatives.
 Leave Link  701 at Wed Nov 13 12:37:11 2024, MaxMem=  2147483648 cpu:               4.0 elap:               0.2
 (Enter /home/szhao/Apps/g16/l702.exe)
 L702 exits ... SP integral derivatives will be done elsewhere.
 Leave Link  702 at Wed Nov 13 12:37:11 2024, MaxMem=  2147483648 cpu:               2.4 elap:               0.1
 (Enter /home/szhao/Apps/g16/l703.exe)
 Integral derivatives from FoFJK, PRISM(SPDF).
 Compute integral first derivatives, UseDBF=F ICtDFT=           0.
 Calling FoFJK, ICntrl=      2127 FMM=F ISym2X=0 I1Cent= 0 IOpClX= 1 NMat=1 NMatS=1 NMatT=0.
 FoFJK:  IHMeth= 1 ICntrl=    2127 DoSepK=F KAlg= 0 I1Cent=           0 FoldK=F
 IRaf=         0 NMat=       1 IRICut=       1 DoRegI=T DoRafI=F ISym2E= 0 IDoP0=0 IntGTp=1.
 FoFCou: FMM=F IPFlag=           0 FMFlag=      100000 FMFlg1=         800
         NFxFlg=           0 DoJE=F BraDBF=F KetDBF=F FulRan=T
         wScrn=  0.000000 ICntrl=      2127 IOpCl=  1 I1Cent=           0 NGrid=           0
         NMat0=    1 NMatS0=      1 NMatT0=    0 NMatD0=    1 NMtDS0=    0 NMtDT0=    0
 Symmetry not used in FoFCou.
 Leave Link  703 at Wed Nov 13 12:37:12 2024, MaxMem=  2147483648 cpu:              23.0 elap:               0.8
 (Enter /home/szhao/Apps/g16/l716.exe)
 Dipole        =-5.24024011D-07-1.70305824D-05-3.19946300D-05
 -------------------------------------------------------------------
 Center     Atomic                   Forces (Hartrees/Bohr)
 Number     Number              X              Y              Z
 -------------------------------------------------------------------
      1        6          -0.000000000   -0.000000000   -0.000000000
      2        6          -0.000000000   -0.000000000   -0.000000000
      3        1          -0.000032638    0.000055085   -0.000034466
      4        1           0.000020842    0.000056306    0.000035950
      5        1          -0.000026430   -0.000055763   -0.000035228
      6        1          -0.000021800    0.000000864    0.000065923
      7        1           0.000032350   -0.000056126    0.000033504
      8        1           0.000025932   -0.000002421   -0.000065175
 -------------------------------------------------------------------
 Cartesian Forces:  Max     0.000065923 RMS     0.000035532
 Leave Link  716 at Wed Nov 13 12:37:12 2024, MaxMem=  2147483648 cpu:               2.8 elap:               0.1
 (Enter /home/szhao/Apps/g16/l103.exe)

 GradGradGradGradGradGradGradGradGradGradGradGradGradGradGradGradGradGrad
 Berny optimization.
 Using GEDIIS/GDIIS optimizer.
 FormGI is forming the generalized inverse of G from B-inverse, IUseBI=4.
 Internal  Forces:  Max     0.000080868 RMS     0.000040536
 Search for a local minimum.
 Step number   2 out of a maximum of   43
 All quantities printed in internal units (Hartrees-Bohrs-Radians)
 RMS Force = .39152D-04 SwitMx=.10000D-02 MixMth= 2
 Mixed Optimization -- En-DIIS/RFO-DIIS
 Update second derivatives using D2CorX and points    1    2
 DE= -1.85D-04 DEPred=-1.82D-04 R= 1.02D+00
 TightC=F SS=  1.41D+00  RLast= 4.75D-02 DXNew= 5.0454D-01 1.4251D-01
 Trust test= 1.02D+00 RLast= 4.75D-02 DXMaxT set to 3.00D-01
 ITU=  1  0
 Use linear search instead of GDIIS.
     Eigenvalues ---    0.00230   0.08068   0.08068   0.08069   0.08069
     Eigenvalues ---    0.15763   0.16000   0.16000   0.16000   0.16000
     Eigenvalues ---    0.16010   0.35438   0.35462   0.35463   0.35464
     Eigenvalues ---    0.35465   0.354671000.000001000.000001000.00000
     Eigenvalues --- 1000.000001000.000001000.000001000.000001000.00000
     Eigenvalues --- 1000.000001000.000001000.000001000.000001000.00000
     Eigenvalues --- 1000.000001000.000001000.00000
 RFO step:  Lambda=-7.47359031D-08 EMin= 2.29999999D-03
 Quartic linear search produced a step of  0.01627.
 Iteration  1 RMS(Cart)=  0.00028416 RMS(Int)=  0.00000435
 Iteration  2 RMS(Cart)=  0.00000005 RMS(Int)=  0.00000435
 ITry= 1 IFail=0 DXMaxC= 7.91D-04 DCOld= 1.00D+10 DXMaxT= 3.00D-01 DXLimC= 3.00D+00 Rises=F
 Variable       Old X    -DE/DX   Delta X   Delta X   Delta X     New X
                                 (Linear)    (Quad)   (Total)
    X1       -3.01954   0.00008   0.00000   0.00000   0.00000  -3.01954
    Y1        0.00000   0.00000   0.00000   0.00000   0.00000   0.00000
    Z1        0.00000   0.00000   0.00000   0.00000   0.00000   0.00000
    X2        3.01954  -0.00008   0.00000   0.00000   0.00000   3.01954
    Y2        0.00000  -0.00000   0.00000   0.00000   0.00000   0.00000
    Z2        0.00000  -0.00000   0.00000   0.00000   0.00000   0.00000
    R1        2.04878  -0.00007  -0.00001  -0.00019  -0.00019   2.04858
    R2        2.04878  -0.00007  -0.00001  -0.00018  -0.00019   2.04859
    R3        2.04877  -0.00007  -0.00001  -0.00018  -0.00019   2.04858
    R4        2.04878  -0.00007  -0.00001  -0.00018  -0.00019   2.04859
    R5        2.04878  -0.00007  -0.00001  -0.00018  -0.00019   2.04859
    R6        2.04877  -0.00007  -0.00001  -0.00018  -0.00019   2.04858
    A1        1.61134  -0.00004  -0.00031   0.00008  -0.00023   1.61110
    A2        1.61265  -0.00006  -0.00031  -0.00007  -0.00038   1.61227
    A3        1.61206  -0.00005  -0.00031   0.00001  -0.00030   1.61176
    A4        2.09146   0.00001   0.00006   0.00001   0.00006   2.09152
    A5        2.09148   0.00000   0.00005  -0.00002   0.00002   2.09150
    A6        2.09143   0.00001   0.00005   0.00001   0.00005   2.09148
    A7        1.61262  -0.00006  -0.00031  -0.00007  -0.00038   1.61223
    A8        1.61208  -0.00005  -0.00031   0.00001  -0.00030   1.61177
    A9        1.61137  -0.00004  -0.00031   0.00007  -0.00024   1.61112
   A10        2.09145   0.00001   0.00006   0.00002   0.00007   2.09151
   A11        2.09146   0.00001   0.00005  -0.00001   0.00004   2.09149
   A12        2.09146   0.00001   0.00005  -0.00002   0.00003   2.09149
    D1       -1.04738   0.00000   0.00000   0.00002   0.00002  -1.04735
    D2        3.14137   0.00000   0.00000   0.00001   0.00001   3.14138
    D3        1.04701   0.00000   0.00000   0.00002   0.00002   1.04703
    D4        3.14141   0.00000  -0.00000   0.00001   0.00001   3.14142
    D5        1.04698  -0.00000  -0.00000  -0.00001  -0.00001   1.04697
    D6       -1.04738  -0.00000  -0.00000   0.00000   0.00000  -1.04738
    D7        1.04699   0.00000   0.00000   0.00001   0.00001   1.04700
    D8       -1.04744  -0.00000   0.00000  -0.00001  -0.00001  -1.04745
    D9        3.14139  -0.00000   0.00000   0.00000   0.00000   3.14139
         Item               Value     Threshold  Converged?
 Maximum Force            0.000068     0.000450     YES
 RMS     Force            0.000039     0.000300     YES
 Maximum Displacement     0.000791     0.001800     YES
 RMS     Displacement     0.000284     0.001200     YES
 Predicted change in Energy=-8.548125D-08
 Optimization completed.
    -- Stationary point found.
                           ----------------------------
                           !   Optimized Parameters   !
                           ! (Angstroms and Degrees)  !
 --------------------------                            --------------------------
 ! Name  Definition              Value          Derivative Info.                !
 --------------------------------------------------------------------------------
 ! X1    R(1,-1)                -1.5979         -DE/DX =    0.0001              !
 ! Y1    R(1,-2)                 0.0            -DE/DX =    0.0                 !
 ! Z1    R(1,-3)                 0.0            -DE/DX =    0.0                 !
 ! X2    R(2,-1)                 1.5979         -DE/DX =   -0.0001              !
 ! Y2    R(2,-2)                 0.0            -DE/DX =    0.0                 !
 ! Z2    R(2,-3)                 0.0            -DE/DX =    0.0                 !
 ! R1    R(1,4)                  1.0842         -DE/DX =   -0.0001              !
 ! R2    R(1,7)                  1.0842         -DE/DX =   -0.0001              !
 ! R3    R(1,8)                  1.0842         -DE/DX =   -0.0001              !
 ! R4    R(2,3)                  1.0842         -DE/DX =   -0.0001              !
 ! R5    R(2,5)                  1.0842         -DE/DX =   -0.0001              !
 ! R6    R(2,6)                  1.0842         -DE/DX =   -0.0001              !
 ! A1    A(2,1,4)               92.3227         -DE/DX =    0.0                 !
 ! A2    A(2,1,7)               92.3979         -DE/DX =   -0.0001              !
 ! A3    A(2,1,8)               92.364          -DE/DX =    0.0                 !
 ! A4    A(4,1,7)              119.8318         -DE/DX =    0.0                 !
 ! A5    A(4,1,8)              119.8329         -DE/DX =    0.0                 !
 ! A6    A(7,1,8)              119.8303         -DE/DX =    0.0                 !
 ! A7    A(1,2,3)               92.3961         -DE/DX =   -0.0001              !
 ! A8    A(1,2,5)               92.3652         -DE/DX =    0.0                 !
 ! A9    A(1,2,6)               92.3247         -DE/DX =    0.0                 !
 ! A10   A(3,2,5)              119.8311         -DE/DX =    0.0                 !
 ! A11   A(3,2,6)              119.8316         -DE/DX =    0.0                 !
 ! A12   A(5,2,6)              119.832          -DE/DX =    0.0                 !
 ! D1    D(4,1,2,3)            -60.0103         -DE/DX =    0.0                 !
 ! D2    D(4,1,2,5)            179.9875         -DE/DX =    0.0                 !
 ! D3    D(4,1,2,6)             59.9895         -DE/DX =    0.0                 !
 ! D4    D(7,1,2,3)            179.9898         -DE/DX =    0.0                 !
 ! D5    D(7,1,2,5)             59.9875         -DE/DX =    0.0                 !
 ! D6    D(7,1,2,6)            -60.0104         -DE/DX =    0.0                 !
 ! D7    D(8,1,2,3)             59.9884         -DE/DX =    0.0                 !
 ! D8    D(8,1,2,5)            -60.0139         -DE/DX =    0.0                 !
 ! D9    D(8,1,2,6)            179.9882         -DE/DX =    0.0                 !
 --------------------------------------------------------------------------------
 Lowest energy point so far.  Saving SCF results.
 Largest change from initial coordinates is atom    3       0.021 Angstoms.
 GradGradGradGradGradGradGradGradGradGradGradGradGradGradGradGradGradGrad

 Leave Link  103 at Wed Nov 13 12:37:12 2024, MaxMem=  2147483648 cpu:               3.5 elap:               0.1
 (Enter /home/szhao/Apps/g16/l202.exe)
                          Input orientation:                          
 ---------------------------------------------------------------------
 Center     Atomic      Atomic             Coordinates (Angstroms)
 Number     Number       Type             X           Y           Z
 ---------------------------------------------------------------------
      1          6           0       -1.597873    0.000000    0.000000
      2          6           0        1.597873    0.000000    0.000000
      3          1           0        1.643199   -0.937515    0.542611
      4          1           0       -1.641812   -0.938626   -0.540803
      5          1           0        1.642614    0.938715    0.540582
      6          1           0        1.641848   -0.001161   -1.083270
      7          1           0       -1.643233    0.937612   -0.542443
      8          1           0       -1.642592    0.000938    1.083240
 ---------------------------------------------------------------------
                    Distance matrix (angstroms):
                    1          2          3          4          5
     1  C    0.000000
     2  C    3.195745   0.000000
     3  H    3.417295   1.084166   0.000000
     4  H    1.084166   3.415998   3.459058   0.000000
     5  H    3.416749   1.084167   1.876232   3.934623   0.000000
     6  H    3.416031   1.084163   1.876233   3.457678   1.876237
     7  H    1.084167   3.417327   3.936252   1.876239   3.459731
     8  H    1.084163   3.416726   3.459681   1.876245   3.459261
                    6          7          8
     6  H    0.000000
     7  H    3.459125   0.000000
     8  H    3.934631   1.876221   0.000000
 Symmetry turned off by external request.
 Stoichiometry    C2H6(1+,2)
 Framework group  C1[X(C2H6)]
 Deg. of freedom    18
 Full point group                 C1      NOp   1
 Rotational constants (GHZ):          71.2242567           6.2285594           6.2285547
 Leave Link  202 at Wed Nov 13 12:37:12 2024, MaxMem=  2147483648 cpu:               0.7 elap:               0.0
 (Enter /home/szhao/Apps/g16/l601.exe)
 Copying SCF densities to generalized density rwf, IOpCl= 1 IROHF=0.

 **********************************************************************

            Population analysis using the SCF density.

 **********************************************************************

 Alpha  occ. eigenvalues --  -10.84832 -10.84829  -1.03665  -1.02504  -0.74423
 Alpha  occ. eigenvalues --   -0.74423  -0.73885  -0.73885  -0.51594
 Alpha virt. eigenvalues --   -0.35995  -0.13803  -0.10188  -0.10181  -0.10180
 Alpha virt. eigenvalues --   -0.06240  -0.06240  -0.05056  -0.03276  -0.01760
 Alpha virt. eigenvalues --   -0.01757   0.01297   0.01299   0.04589   0.07765
 Alpha virt. eigenvalues --    0.18841   0.21138   0.21140   0.27990   0.27992
 Alpha virt. eigenvalues --    0.31519   0.35732   0.41763   0.41765   0.45004
 Alpha virt. eigenvalues --    0.45006   0.51505   0.57619   0.65868   0.84841
 Alpha virt. eigenvalues --    0.84842   0.85647   0.85648   1.19998   1.20001
 Alpha virt. eigenvalues --    1.21232   1.21233   1.28976   1.28987   1.28989
 Alpha virt. eigenvalues --    1.31789   1.45041   1.57187   1.68345   1.68346
 Alpha virt. eigenvalues --    1.70743   1.70743   1.76270   1.76274   1.77172
 Alpha virt. eigenvalues --    1.77176   2.19798   2.24271   2.24280   2.25244
 Alpha virt. eigenvalues --    2.25662   2.25673   2.42065   2.42067   2.43059
 Alpha virt. eigenvalues --    2.43063   2.50078   2.50324   2.56583   2.78837
 Alpha virt. eigenvalues --    3.49856   3.49857   3.50438   3.50439  23.69367
 Alpha virt. eigenvalues --   23.69697
  Beta  occ. eigenvalues --  -10.84631 -10.84631  -1.00860  -1.00084  -0.73899
  Beta  occ. eigenvalues --   -0.73898  -0.73376  -0.73376
  Beta virt. eigenvalues --   -0.32613  -0.25892  -0.15463  -0.11138  -0.11137
  Beta virt. eigenvalues --   -0.10017  -0.06391  -0.06391  -0.05308  -0.02384
  Beta virt. eigenvalues --   -0.02067  -0.02065   0.01599   0.01601   0.05504
  Beta virt. eigenvalues --    0.08272   0.18528   0.20208   0.20209   0.27296
  Beta virt. eigenvalues --    0.27298   0.31710   0.35603   0.42618   0.42620
  Beta virt. eigenvalues --    0.46047   0.46049   0.52334   0.58368   0.66632
  Beta virt. eigenvalues --    0.87380   0.87381   0.88067   0.88068   1.20836
  Beta virt. eigenvalues --    1.20838   1.22376   1.22378   1.30061   1.30063
  Beta virt. eigenvalues --    1.33482   1.35964   1.46241   1.58264   1.69674
  Beta virt. eigenvalues --    1.69675   1.72145   1.72145   1.77510   1.77514
  Beta virt. eigenvalues --    1.78523   1.78527   2.23262   2.25230   2.25239
  Beta virt. eigenvalues --    2.26927   2.26938   2.28712   2.44538   2.44539
  Beta virt. eigenvalues --    2.45451   2.45455   2.50532   2.53265   2.59882
  Beta virt. eigenvalues --    2.80415   3.53731   3.53731   3.54301   3.54303
  Beta virt. eigenvalues --   23.70543  23.70869
          Condensed to atoms (all electrons):
               1          2          3          4          5          6
     1  C    5.098416   0.056110  -0.002291   0.374196  -0.002280  -0.002282
     2  C    0.056110   5.098418   0.374232  -0.002282   0.374209   0.374198
     3  H   -0.002291   0.374232   0.405245  -0.000034  -0.017015  -0.017016
     4  H    0.374196  -0.002282  -0.000034   0.405320   0.000114  -0.000034
     5  H   -0.002280   0.374209  -0.017015   0.000114   0.405278  -0.017014
     6  H   -0.002282   0.374198  -0.017016  -0.000034  -0.017014   0.405327
     7  H    0.374232  -0.002291   0.000114  -0.017016  -0.000034  -0.000033
     8  H    0.374211  -0.002281  -0.000033  -0.017013  -0.000034   0.000114
               7          8
     1  C    0.374232   0.374211
     2  C   -0.002291  -0.002281
     3  H    0.000114  -0.000033
     4  H   -0.017016  -0.017013
     5  H   -0.000034  -0.000034
     6  H   -0.000033   0.000114
     7  H    0.405243  -0.017014
     8  H   -0.017014   0.405286
          Atomic-Atomic Spin Densities.
               1          2          3          4          5          6
     1  C    0.526673   0.067953  -0.001944  -0.007858  -0.001949  -0.001951
     2  C    0.067953   0.526675  -0.007866  -0.001951  -0.007860  -0.007861
     3  H   -0.001944  -0.007866  -0.014625   0.000041   0.001299   0.001297
     4  H   -0.007858  -0.001951   0.000041  -0.014629   0.000030   0.000041
     5  H   -0.001949  -0.007860   0.001299   0.000030  -0.014629   0.001298
     6  H   -0.001951  -0.007861   0.001297   0.000041   0.001298  -0.014636
     7  H   -0.007866  -0.001944   0.000029   0.001298   0.000041   0.000041
     8  H   -0.007862  -0.001949   0.000041   0.001298   0.000041   0.000030
               7          8
     1  C   -0.007866  -0.007862
     2  C   -0.001944  -0.001949
     3  H    0.000029   0.000041
     4  H    0.001298   0.001298
     5  H    0.000041   0.000041
     6  H    0.000041   0.000030
     7  H   -0.014625   0.001298
     8  H    0.001298  -0.014637
 Mulliken charges and spin densities:
               1          2
     1  C   -0.270311   0.565195
     2  C   -0.270314   0.565196
     3  H    0.256798  -0.021726
     4  H    0.256749  -0.021730
     5  H    0.256776  -0.021729
     6  H    0.256739  -0.021740
     7  H    0.256799  -0.021726
     8  H    0.256765  -0.021740
 Sum of Mulliken charges =   1.00000   1.00000
 Mulliken charges and spin densities with hydrogens summed into heavy atoms:
               1          2
     1  C    0.500001   0.499999
     2  C    0.499999   0.500001
 Electronic spatial extent (au):  <R**2>=            207.9254
 Charge=              1.0000 electrons
 Dipole moment (field-independent basis, Debye):
    X=             -0.0000    Y=             -0.0000    Z=             -0.0001  Tot=              0.0001
 Quadrupole moment (field-independent basis, Debye-Ang):
   XX=              1.1677   YY=            -11.0508   ZZ=            -11.0510
   XY=             -0.0015   XZ=              0.0009   YZ=              0.0000
 Traceless Quadrupole moment (field-independent basis, Debye-Ang):
   XX=              8.1457   YY=             -4.0728   ZZ=             -4.0729
   XY=             -0.0015   XZ=              0.0009   YZ=              0.0000
 Octapole moment (field-independent basis, Debye-Ang**2):
  XXX=              0.0000  YYY=              0.0008  ZZZ=             -0.0001  XYY=              0.0010
  XXY=              0.0022  XXZ=              0.0034  XZZ=             -0.0010  YZZ=             -0.0009
  YYZ=             -0.0000  XYZ=              0.0006
 Hexadecapole moment (field-independent basis, Debye-Ang**3):
 XXXX=           -179.6435 YYYY=            -21.6538 ZZZZ=            -21.6540 XXXY=             -0.0098
 XXXZ=              0.0058 YYYX=              0.0146 YYYZ=              0.0001 ZZZX=             -4.7808
 ZZZY=             -0.0001 XXYY=            -33.6913 XXZZ=            -33.6976 YYZZ=             -7.2180
 XXYZ=             -0.0052 YYXZ=              4.7806 ZZXY=             -0.0139
 N-N= 3.212188936667D+01 E-N=-2.429517383436D+02  KE= 7.888670141005D+01
                          Isotropic Fermi Contact Couplings
        Atom                 a.u.       MegaHertz       Gauss      10(-4) cm-1
     1  C(13)              0.08443      94.92030      33.86992      31.66200
     2  C(13)              0.08443      94.91998      33.86981      31.66190
     3  H(1)              -0.00685     -30.63805     -10.93242     -10.21975
     4  H(1)              -0.00685     -30.62929     -10.92929     -10.21683
     5  H(1)              -0.00685     -30.63331     -10.93073     -10.21817
     6  H(1)              -0.00685     -30.63166     -10.93014     -10.21762
     7  H(1)              -0.00685     -30.63866     -10.93264     -10.21996
     8  H(1)              -0.00685     -30.63609     -10.93172     -10.21910
 --------------------------------------------------------
       Center         ----  Spin Dipole Couplings  ----
                      3XX-RR        3YY-RR        3ZZ-RR
 --------------------------------------------------------
     1   Atom        0.507248     -0.253624     -0.253624
     2   Atom        0.507251     -0.253625     -0.253625
     3   Atom        0.003009      0.016336     -0.019345
     4   Atom        0.003026      0.016448     -0.019474
     5   Atom        0.003018      0.016463     -0.019481
     6   Atom        0.003026     -0.037329      0.034303
     7   Atom        0.003009      0.016352     -0.019361
     8   Atom        0.003019     -0.037326      0.034307
 --------------------------------------------------------
                        XY            XZ            YZ
 --------------------------------------------------------
     1   Atom        0.000683      0.000038      0.000000
     2   Atom        0.000295     -0.000564      0.000000
     3   Atom        0.000339     -0.000213     -0.031059
     4   Atom       -0.000395     -0.000240      0.030988
     5   Atom       -0.000359     -0.000235      0.030982
     6   Atom        0.000011      0.000458      0.000080
     7   Atom        0.000352     -0.000186     -0.031049
     8   Atom        0.000027      0.000428      0.000069
 --------------------------------------------------------


 ---------------------------------------------------------------------------------
              Anisotropic Spin Dipole Couplings in Principal Axis System
 ---------------------------------------------------------------------------------

       Atom             a.u.   MegaHertz   Gauss  10(-4) cm-1        Axes

              Baa    -0.2536   -34.034   -12.144   -11.353 -0.0006  0.7333 -0.6800
     1 C(13)  Bbb    -0.2536   -34.034   -12.144   -11.352 -0.0006  0.6800  0.7333
              Bcc     0.5072    68.068    24.288    22.705  1.0000  0.0009  0.0000
 
              Baa    -0.2536   -34.034   -12.144   -11.353  0.0008 -0.6545  0.7561
     2 C(13)  Bbb    -0.2536   -34.034   -12.144   -11.353  0.0002  0.7561  0.6545
              Bcc     0.5073    68.068    24.288    22.705  1.0000  0.0004 -0.0007
 
              Baa    -0.0373   -19.914    -7.106    -6.642  0.0004  0.5010  0.8655
     3 H(1)   Bbb     0.0030     1.603     0.572     0.535  0.9999 -0.0112  0.0061
              Bcc     0.0343    18.311     6.534     6.108  0.0128  0.8654 -0.5009
 
              Baa    -0.0373   -19.917    -7.107    -6.644  0.0003 -0.4993  0.8664
     4 H(1)   Bbb     0.0030     1.611     0.575     0.537  0.9999  0.0129  0.0071
              Bcc     0.0343    18.307     6.532     6.106 -0.0148  0.8664  0.4992
 
              Baa    -0.0373   -19.916    -7.106    -6.643  0.0006 -0.4991  0.8665
     5 H(1)   Bbb     0.0030     1.607     0.574     0.536  0.9999  0.0122  0.0063
              Bcc     0.0343    18.309     6.533     6.107 -0.0137  0.8665  0.4991
 
              Baa    -0.0373   -19.917    -7.107    -6.644 -0.0003  1.0000 -0.0011
     6 H(1)   Bbb     0.0030     1.611     0.575     0.537  0.9999  0.0002 -0.0147
              Bcc     0.0343    18.306     6.532     6.106  0.0147  0.0011  0.9999
 
              Baa    -0.0373   -19.913    -7.106    -6.642 -0.0004  0.5007  0.8656
     7 H(1)   Bbb     0.0030     1.603     0.572     0.535  0.9999 -0.0108  0.0067
              Bcc     0.0343    18.311     6.534     6.108  0.0127  0.8655 -0.5007
 
              Baa    -0.0373   -19.916    -7.106    -6.643 -0.0007  1.0000 -0.0010
     8 H(1)   Bbb     0.0030     1.608     0.574     0.536  0.9999  0.0006 -0.0137
              Bcc     0.0343    18.308     6.533     6.107  0.0137  0.0010  0.9999
 

 ---------------------------------------------------------------------------------

 No NMR shielding tensors so no spin-rotation constants.
 Leave Link  601 at Wed Nov 13 12:37:13 2024, MaxMem=  2147483648 cpu:               6.8 elap:               0.3
 (Enter /home/szhao/Apps/g16/l9999.exe)
 1\1\GINC-NODE01\FOpt\UM062X\6-311+G(d,p)\C2H6(1+,2)\SZHAO\13-Nov-2024\
 0\\#p opt UM062X/6-311+G** nosymm int=superfine\\Title Card Required\\
 1,2\C,-1.59787264,0.,0.\C,1.59787264,0.,0.\H,1.6431988527,-0.937515136
 6,0.5426114115\H,-1.6418120728,-0.9386256752,-0.5408030751\H,1.6426144
 982,0.9387153424,0.5405820856\H,1.6418484066,-0.0011614547,-1.08327042
 52\H,-1.6432329945,0.937611655,-0.5424434199\H,-1.6425916209,0.0009376
 219,1.0832401997\\Version=ES64L-G16RevA.03\HF=-79.3341276\S2=0.752741\
 S2-1=0.\S2A=0.750006\RMSD=1.871e-09\RMSF=3.553e-05\Dipole=-0.0000032,-
 0.0000131,-0.0000233\Quadrupole=6.0561564,-3.0280337,-3.0281228,-0.001
 1367,0.0006663,0.0000074\PG=C01 [X(C2H6)]\\@


 ASKING FOR EFFICIENCY AND ADAPTABILITY IN THE SAME PROGRAM IS LIKE
 ASKING FOR A BEAUTIFUL AND MODEST WIFE ...
 WE'LL PROBABLY HAVE TO SETTLE FOR ONE OR THE OTHER.

             -- THE PSYCHOLOGY OF COMPUTER PROGRAMMING
                GERALD M. WEINBERG
 Job cpu time:       0 days  0 hours  7 minutes 16.7 seconds.
 Elapsed time:       0 days  0 hours  0 minutes 16.6 seconds.
 File lengths (MBytes):  RWF=     10 Int=      0 D2E=      0 Chk=      2 Scr=      1
 Normal termination of Gaussian 16 at Wed Nov 13 12:37:13 2024.
