 Entering Gaussian System, Link 0=g16
 Initial command:
 /home/szhao/Apps/g16/l1.exe "/home/szhao/tmp/Gau-125289.inp" -scrdir="/home/szhao/tmp/"
 Default is to use a total of  16 processors:
                               16 via shared-memory
                                1 via Linda
 Entering Link 1 = /home/szhao/Apps/g16/l1.exe PID=    125290.
  
 Copyright (c) 1988,1990,1992,1993,1995,1998,2003,2009,2016,
            Gaussian, Inc.  All Rights Reserved.
  
 This is part of the Gaussian(R) 16 program.  It is based on
 the Gaussian(R) 09 system (copyright 2009, Gaussian, Inc.),
 the Gaussian(R) 03 system (copyright 2003, Gaussian, Inc.),
 the Gaussian(R) 98 system (copyright 1998, Gaussian, Inc.),
 the Gaussian(R) 94 system (copyright 1995, Gaussian, Inc.),
 the Gaussian 92(TM) system (copyright 1992, Gaussian, Inc.),
 the Gaussian 90(TM) system (copyright 1990, Gaussian, Inc.),
 the Gaussian 88(TM) system (copyright 1988, Gaussian, Inc.),
 the Gaussian 86(TM) system (copyright 1986, Carnegie Mellon
 University), and the Gaussian 82(TM) system (copyright 1983,
 Carnegie Mellon University). Gaussian is a federally registered
 trademark of Gaussian, Inc.
  
 This software contains proprietary and confidential information,
 including trade secrets, belonging to Gaussian, Inc.
  
 This software is provided under written license and may be
 used, copied, transmitted, or stored only in accord with that
 written license.
  
 The following legend is applicable only to US Government
 contracts under FAR:
  
                    RESTRICTED RIGHTS LEGEND
  
 Use, reproduction and disclosure by the US Government is
 subject to restrictions as set forth in subparagraphs (a)
 and (c) of the Commercial Computer Software - Restricted
 Rights clause in FAR 52.227-19.
  
 Gaussian, Inc.
 340 Quinnipiac St., Bldg. 40, Wallingford CT 06492
  
  
 ---------------------------------------------------------------
 Warning -- This program may not be used in any manner that
 competes with the business of Gaussian, Inc. or will provide
 assistance to any competitor of Gaussian, Inc.  The licensee
 of this program is prohibited from giving any competitor of
 Gaussian, Inc. access to this program.  By using this program,
 the user acknowledges that Gaussian, Inc. is engaged in the
 business of creating and licensing software in the field of
 computational chemistry and represents and warrants to the
 licensee that it is not a competitor of Gaussian, Inc. and that
 it will not use this program in any manner prohibited above.
 ---------------------------------------------------------------
  

 Cite this work as:
 Gaussian 16, Revision A.03,
 M. J. Frisch, G. W. Trucks, H. B. Schlegel, G. E. Scuseria, 
 M. A. Robb, J. R. Cheeseman, G. Scalmani, V. Barone, 
 G. A. Petersson, H. Nakatsuji, X. Li, M. Caricato, A. V. Marenich, 
 J. Bloino, B. G. Janesko, R. Gomperts, B. Mennucci, H. P. Hratchian, 
 J. V. Ortiz, A. F. Izmaylov, J. L. Sonnenberg, D. Williams-Young, 
 F. Ding, F. Lipparini, F. Egidi, J. Goings, B. Peng, A. Petrone, 
 T. Henderson, D. Ranasinghe, V. G. Zakrzewski, J. Gao, N. Rega, 
 G. Zheng, W. Liang, M. Hada, M. Ehara, K. Toyota, R. Fukuda, 
 J. Hasegawa, M. Ishida, T. Nakajima, Y. Honda, O. Kitao, H. Nakai, 
 T. Vreven, K. Throssell, J. A. Montgomery, Jr., J. E. Peralta, 
 F. Ogliaro, M. J. Bearpark, J. J. Heyd, E. N. Brothers, K. N. Kudin, 
 V. N. Staroverov, T. A. Keith, R. Kobayashi, J. Normand, 
 K. Raghavachari, A. P. Rendell, J. C. Burant, S. S. Iyengar, 
 J. Tomasi, M. Cossi, J. M. Millam, M. Klene, C. Adamo, R. Cammi, 
 J. W. Ochterski, R. L. Martin, K. Morokuma, O. Farkas, 
 J. B. Foresman, and D. J. Fox, Gaussian, Inc., Wallingford CT, 2016.
 
 ******************************************
 Gaussian 16:  ES64L-G16RevA.03 25-Dec-2016
                21-Apr-2025 
 ******************************************
 %chk=opt.chk
 %mem=4GB
 %nprocshared=8
 Will use up to    8 processors via shared memory.
 --------------------------------------------
 #p opt UM062X/6-311+G** nosymm int=superfine
 --------------------------------------------
 1/18=20,19=15,26=5,38=1/1,3;
 2/9=110,12=2,15=1,17=6,18=5,40=1/2;
 3/5=4,6=6,7=111,11=2,25=1,30=1,71=1,74=-55,75=-7,116=2/1,2,3;
 4//1;
 5/5=2,38=5/2;
 6/7=2,8=2,9=2,10=2,28=1/1;
 7/30=1/1,2,3,16;
 1/18=20,19=15,26=5/3(2);
 2/9=110,15=1/2;
 99//99;
 2/9=110,15=1/2;
 3/5=4,6=6,7=111,11=2,25=1,30=1,71=1,74=-55,75=-7,116=2/1,2,3;
 4/5=5,16=3,69=1/1;
 5/5=2,38=5/2;
 7/30=1/1,2,3,16;
 1/18=20,19=15,26=5/3(-5);
 2/9=110,15=1/2;
 6/7=2,8=2,9=2,10=2,19=2,28=1/1;
 99/9=1/99;
 Leave Link    1 at Mon Apr 21 20:33:08 2025, MaxMem=   536870912 cpu:               1.5 elap:               0.2
 (Enter /home/szhao/Apps/g16/l101.exe)
 -------------------
 Title Card Required
 -------------------
 Symbolic Z-matrix:
 Charge =  1 Multiplicity = 2
 Si                   -1   -1.77797   0.        0. 
 Si                   -1    1.77797   0.        0. 
 H                    0    -2.3494   -1.37463   0. 
 H                    0     2.76431   1.10449   0. 
 
 Add virtual bond connecting atoms Si2        and Si1        Dist= 6.72D+00.
 ITRead=  2  2  0  0
 MicOpt= -2 -2 -1 -1
 NAtoms=      4 NQM=        2 NQMF=       2 NMMI=      0 NMMIF=      0
                NMic=       0 NMicF=      0.
                    Isotopes and Nuclear Properties:
 (Nuclear quadrupole moments (NQMom) in fm**2, nuclear magnetic moments (NMagM)
  in nuclear magnetons)

  Atom         1           2           3           4
 IAtWgt=          28          28           1           1
 AtmWgt=  27.9769284  27.9769284   1.0078250   1.0078250
 NucSpn=           0           0           1           1
 AtZEff=  -0.0000000  -0.0000000  -0.0000000  -0.0000000
 NQMom=    0.0000000   0.0000000   0.0000000   0.0000000
 NMagM=    0.0000000   0.0000000   2.7928460   2.7928460
 AtZNuc=  14.0000000  14.0000000   1.0000000   1.0000000
 Leave Link  101 at Mon Apr 21 20:33:09 2025, MaxMem=   536870912 cpu:               3.8 elap:               0.6
 (Enter /home/szhao/Apps/g16/l103.exe)

 GradGradGradGradGradGradGradGradGradGradGradGradGradGradGradGradGradGrad
 Berny optimization.
 Initialization pass.
                           ----------------------------
                           !    Initial Parameters    !
                           ! (Angstroms and Degrees)  !
 --------------------------                            --------------------------
 ! Name  Definition              Value          Derivative Info.                !
 --------------------------------------------------------------------------------
 ! X1    R(1,-1)                -1.778          Frozen                          !
 ! Y1    R(1,-2)                 0.0            Frozen                          !
 ! Z1    R(1,-3)                 0.0            Frozen                          !
 ! X2    R(2,-1)                 1.778          Frozen                          !
 ! Y2    R(2,-2)                 0.0            Frozen                          !
 ! Z2    R(2,-3)                 0.0            Frozen                          !
 ! R1    R(1,3)                  1.4887         estimate D2E/DX2                !
 ! R2    R(2,4)                  1.4808         estimate D2E/DX2                !
 ! A1    A(2,1,3)              112.5724         estimate D2E/DX2                !
 ! A2    A(1,2,4)              131.7655         estimate D2E/DX2                !
 ! D1    D(3,1,2,4)            180.0            estimate D2E/DX2                !
 --------------------------------------------------------------------------------
 Trust Radius=3.00D-01 FncErr=1.00D-07 GrdErr=1.00D-07 EigMax=2.50D+02 EigMin=1.00D-04
 Number of steps in this run=     21 maximum allowed number of steps=    100.
 GradGradGradGradGradGradGradGradGradGradGradGradGradGradGradGradGradGrad

 Leave Link  103 at Mon Apr 21 20:33:10 2025, MaxMem=   536870912 cpu:               0.9 elap:               0.2
 (Enter /home/szhao/Apps/g16/l202.exe)
                          Input orientation:                          
 ---------------------------------------------------------------------
 Center     Atomic      Atomic             Coordinates (Angstroms)
 Number     Number       Type             X           Y           Z
 ---------------------------------------------------------------------
      1         14           0       -1.777975    0.000000    0.000000
      2         14           0        1.777975    0.000000    0.000000
      3          1           0       -2.349400   -1.374629    0.000000
      4          1           0        2.764306    1.104488    0.000000
 ---------------------------------------------------------------------
                    Distance matrix (angstroms):
                    1          2          3          4
     1  Si   0.000000
     2  Si   3.555949   0.000000
     3  H    1.488667   4.350267   0.000000
     4  H    4.674634   1.480791   5.682957   0.000000
 Symmetry turned off by external request.
 Stoichiometry    H2Si2(1+,2)
 Framework group  CS[SG(H2Si2)]
 Deg. of freedom     5
 Full point group                 CS      NOp   2
 Rotational constants (GHZ):         173.1772007           2.6549111           2.6148243
 Leave Link  202 at Mon Apr 21 20:33:10 2025, MaxMem=   536870912 cpu:               0.1 elap:               0.1
 (Enter /home/szhao/Apps/g16/l301.exe)
 Standard basis: 6-311+G(d,p) (5D, 7F)
 Ernie: Thresh=  0.10000D-02 Tol=  0.10000D-05 Strict=F.
    72 basis functions,   116 primitive gaussians,    74 cartesian basis functions
    15 alpha electrons       14 beta electrons
       nuclear repulsion energy        42.5282428374 Hartrees.
 IExCor= 4336 DFT=T Ex+Corr=M062X ExCW=0 ScaHFX=  0.540000
 ScaDFX=  1.000000  1.000000  1.000000  1.000000 ScalE2=  1.000000  1.000000
 IRadAn=      7 IRanWt=     -1 IRanGd=            0 ICorTp=0 IEmpDi=  4
 NAtoms=    4 NActive=    4 NUniq=    4 SFac= 1.00D+00 NAtFMM=   60 NAOKFM=F Big=F
 Integral buffers will be    131072 words long.
 Raffenetti 2 integral format.
 Two-electron integral symmetry is turned off.
 Leave Link  301 at Mon Apr 21 20:33:10 2025, MaxMem=   536870912 cpu:               1.0 elap:               0.2
 (Enter /home/szhao/Apps/g16/l302.exe)
 NPDir=0 NMtPBC=     1 NCelOv=     1 NCel=       1 NClECP=     1 NCelD=      1
         NCelK=      1 NCelE2=     1 NClLst=     1 CellRange=     0.0.
 One-electron integrals computed using PRISM.
 NBasis=    72 RedAO= T EigKep=  8.56D-03  NBF=    72
 NBsUse=    72 1.00D-06 EigRej= -1.00D+00 NBFU=    72
 Precomputing XC quadrature grid using
 IXCGrd= 4 IRadAn=           7 IRanWt=          -1 IRanGd=           0 AccXCQ= 0.00D+00.
 Generated NRdTot=       0 NPtTot=           0 NUsed=           0 NTot=          32
 NSgBfM=    67    67    67    67    67 MxSgAt=     4 MxSgA2=     4.
 Leave Link  302 at Mon Apr 21 20:33:11 2025, MaxMem=   536870912 cpu:               2.2 elap:               0.3
 (Enter /home/szhao/Apps/g16/l303.exe)
 DipDrv:  MaxL=1.
 Leave Link  303 at Mon Apr 21 20:33:11 2025, MaxMem=   536870912 cpu:               1.0 elap:               0.2
 (Enter /home/szhao/Apps/g16/l401.exe)
 ExpMin= 3.31D-02 ExpMax= 6.94D+04 ExpMxC= 2.33D+03 IAcc=3 IRadAn=         7 AccDes= 0.00D+00
 Harris functional with IExCor= 1009 and IRadAn=       7 diagonalized for initial guess.
 HarFok:  IExCor= 1009 AccDes= 0.00D+00 IRadAn=         7 IDoV= 1 UseB2=F ITyADJ=14
 ICtDFT=  3500011 ScaDFX=  1.000000  1.000000  1.000000  1.000000
 FoFCou: FMM=F IPFlag=           0 FMFlag=      100000 FMFlg1=           0
         NFxFlg=           0 DoJE=T BraDBF=F KetDBF=T FulRan=T
         wScrn=  0.000000 ICntrl=       500 IOpCl=  0 I1Cent=   200000004 NGrid=           0
         NMat0=    1 NMatS0=      1 NMatT0=    0 NMatD0=    1 NMtDS0=    0 NMtDT0=    0
 Symmetry not used in FoFCou.
 Harris En= -579.458874109559    
 JPrj=0 DoOrth=F DoCkMO=F.
 Initial guess <Sx>= 0.0000 <Sy>= 0.0000 <Sz>= 0.5000 <S**2>= 0.7500 S= 0.5000
 Leave Link  401 at Mon Apr 21 20:33:12 2025, MaxMem=   536870912 cpu:               4.2 elap:               0.7
 (Enter /home/szhao/Apps/g16/l502.exe)
 Keep R1 and R2 ints in memory in canonical form, NReq=14118010.
 FoFCou: FMM=F IPFlag=           0 FMFlag=           0 FMFlg1=           0
         NFxFlg=           0 DoJE=F BraDBF=F KetDBF=F FulRan=T
         wScrn=  0.000000 ICntrl=       600 IOpCl=  0 I1Cent=           0 NGrid=           0
         NMat0=    1 NMatS0=   2628 NMatT0=    0 NMatD0=    1 NMtDS0=    0 NMtDT0=    0
 Symmetry not used in FoFCou.
 Two-electron integral symmetry not used.
 UHF open shell SCF:
 Using DIIS extrapolation, IDIIS=  1040.
 NGot=   536870912 LenX=   529949706 LenY=   529943789
 Requested convergence on RMS density matrix=1.00D-08 within 128 cycles.
 Requested convergence on MAX density matrix=1.00D-06.
 Requested convergence on             energy=1.00D-06.
 No special actions if energy rises.

 Cycle   1  Pass 1  IDiag  1:
 E= -579.641288238410    
 DIIS: error= 2.81D-02 at cycle   1 NSaved=   1.
 NSaved= 1 IEnMin= 1 EnMin= -579.641288238410     IErMin= 1 ErrMin= 2.81D-02
 ErrMax= 2.81D-02  0.00D+00 EMaxC= 1.00D-01 BMatC= 2.27D-01 BMatP= 2.27D-01
 IDIUse=3 WtCom= 7.19D-01 WtEn= 2.81D-01
 Coeff-Com:  0.100D+01
 Coeff-En:   0.100D+01
 Coeff:      0.100D+01
 Gap=     0.119 Goal=   None    Shift=    0.000
 Gap=     0.217 Goal=   None    Shift=    0.000
 GapD=    0.119 DampG=1.000 DampE=0.500 DampFc=0.5000 IDamp=-1.
 Damping current iteration by 5.00D-01
 RMSDP=6.36D-03 MaxDP=1.67D-01              OVMax= 1.30D-01

 Cycle   2  Pass 1  IDiag  1:
 E= -579.665900143236     Delta-E=       -0.024611904826 Rises=F Damp=T
 DIIS: error= 1.42D-02 at cycle   2 NSaved=   2.
 NSaved= 2 IEnMin= 2 EnMin= -579.665900143236     IErMin= 2 ErrMin= 1.42D-02
 ErrMax= 1.42D-02  0.00D+00 EMaxC= 1.00D-01 BMatC= 3.89D-02 BMatP= 2.27D-01
 IDIUse=3 WtCom= 8.58D-01 WtEn= 1.42D-01
 Coeff-Com: -0.515D+00 0.151D+01
 Coeff-En:   0.000D+00 0.100D+01
 Coeff:     -0.442D+00 0.144D+01
 Gap=     0.127 Goal=   None    Shift=    0.000
 Gap=     0.222 Goal=   None    Shift=    0.000
 RMSDP=2.05D-03 MaxDP=4.97D-02 DE=-2.46D-02 OVMax= 3.71D-02

 Cycle   3  Pass 1  IDiag  1:
 E= -579.687785128460     Delta-E=       -0.021884985224 Rises=F Damp=F
 DIIS: error= 1.18D-03 at cycle   3 NSaved=   3.
 NSaved= 3 IEnMin= 3 EnMin= -579.687785128460     IErMin= 3 ErrMin= 1.18D-03
 ErrMax= 1.18D-03  0.00D+00 EMaxC= 1.00D-01 BMatC= 3.75D-04 BMatP= 3.89D-02
 IDIUse=3 WtCom= 9.88D-01 WtEn= 1.18D-02
 Coeff-Com: -0.518D-01 0.917D-01 0.960D+00
 Coeff-En:   0.000D+00 0.000D+00 0.100D+01
 Coeff:     -0.512D-01 0.906D-01 0.961D+00
 Gap=     0.127 Goal=   None    Shift=    0.000
 Gap=     0.221 Goal=   None    Shift=    0.000
 RMSDP=2.82D-04 MaxDP=5.02D-03 DE=-2.19D-02 OVMax= 1.72D-02

 Cycle   4  Pass 1  IDiag  1:
 E= -579.688070292805     Delta-E=       -0.000285164345 Rises=F Damp=F
 DIIS: error= 5.40D-04 at cycle   4 NSaved=   4.
 NSaved= 4 IEnMin= 4 EnMin= -579.688070292805     IErMin= 4 ErrMin= 5.40D-04
 ErrMax= 5.40D-04  0.00D+00 EMaxC= 1.00D-01 BMatC= 5.41D-05 BMatP= 3.75D-04
 IDIUse=3 WtCom= 9.95D-01 WtEn= 5.40D-03
 Coeff-Com:  0.292D-02-0.977D-02-0.142D+00 0.115D+01
 Coeff-En:   0.000D+00 0.000D+00 0.000D+00 0.100D+01
 Coeff:      0.290D-02-0.971D-02-0.141D+00 0.115D+01
 Gap=     0.128 Goal=   None    Shift=    0.000
 Gap=     0.221 Goal=   None    Shift=    0.000
 RMSDP=1.80D-04 MaxDP=2.57D-03 DE=-2.85D-04 OVMax= 1.05D-02

 Cycle   5  Pass 1  IDiag  1:
 E= -579.688177849246     Delta-E=       -0.000107556441 Rises=F Damp=F
 DIIS: error= 2.95D-04 at cycle   5 NSaved=   5.
 NSaved= 5 IEnMin= 5 EnMin= -579.688177849246     IErMin= 5 ErrMin= 2.95D-04
 ErrMax= 2.95D-04  0.00D+00 EMaxC= 1.00D-01 BMatC= 1.57D-05 BMatP= 5.41D-05
 IDIUse=3 WtCom= 9.97D-01 WtEn= 2.95D-03
 Coeff-Com:  0.135D-01-0.227D-01-0.113D+00-0.512D+00 0.163D+01
 Coeff-En:   0.000D+00 0.000D+00 0.000D+00 0.000D+00 0.100D+01
 Coeff:      0.135D-01-0.227D-01-0.112D+00-0.510D+00 0.163D+01
 Gap=     0.128 Goal=   None    Shift=    0.000
 Gap=     0.221 Goal=   None    Shift=    0.000
 RMSDP=1.71D-04 MaxDP=2.37D-03 DE=-1.08D-04 OVMax= 9.89D-03

 Cycle   6  Pass 1  IDiag  1:
 E= -579.688226843163     Delta-E=       -0.000048993917 Rises=F Damp=F
 DIIS: error= 1.07D-04 at cycle   6 NSaved=   6.
 NSaved= 6 IEnMin= 6 EnMin= -579.688226843163     IErMin= 6 ErrMin= 1.07D-04
 ErrMax= 1.07D-04  0.00D+00 EMaxC= 1.00D-01 BMatC= 2.10D-06 BMatP= 1.57D-05
 IDIUse=3 WtCom= 9.99D-01 WtEn= 1.07D-03
 Coeff-Com:  0.175D-02-0.229D-02 0.374D-02-0.206D+00 0.207D+00 0.996D+00
 Coeff-En:   0.000D+00 0.000D+00 0.000D+00 0.000D+00 0.000D+00 0.100D+01
 Coeff:      0.175D-02-0.229D-02 0.374D-02-0.206D+00 0.206D+00 0.996D+00
 Gap=     0.129 Goal=   None    Shift=    0.000
 Gap=     0.221 Goal=   None    Shift=    0.000
 RMSDP=4.73D-05 MaxDP=6.40D-04 DE=-4.90D-05 OVMax= 2.66D-03

 Cycle   7  Pass 1  IDiag  1:
 E= -579.688231119891     Delta-E=       -0.000004276729 Rises=F Damp=F
 DIIS: error= 5.00D-05 at cycle   7 NSaved=   7.
 NSaved= 7 IEnMin= 7 EnMin= -579.688231119891     IErMin= 7 ErrMin= 5.00D-05
 ErrMax= 5.00D-05  0.00D+00 EMaxC= 1.00D-01 BMatC= 3.73D-07 BMatP= 2.10D-06
 IDIUse=1 WtCom= 1.00D+00 WtEn= 0.00D+00
 Coeff-Com: -0.300D-02 0.533D-02 0.288D-01 0.661D-01-0.339D+00 0.199D+00
 Coeff-Com:  0.104D+01
 Coeff:     -0.300D-02 0.533D-02 0.288D-01 0.661D-01-0.339D+00 0.199D+00
 Coeff:      0.104D+01
 Gap=     0.129 Goal=   None    Shift=    0.000
 Gap=     0.221 Goal=   None    Shift=    0.000
 RMSDP=2.25D-05 MaxDP=3.19D-04 DE=-4.28D-06 OVMax= 1.31D-03

 Cycle   8  Pass 1  IDiag  1:
 E= -579.688231826522     Delta-E=       -0.000000706631 Rises=F Damp=F
 DIIS: error= 1.14D-05 at cycle   8 NSaved=   8.
 NSaved= 8 IEnMin= 8 EnMin= -579.688231826522     IErMin= 8 ErrMin= 1.14D-05
 ErrMax= 1.14D-05  0.00D+00 EMaxC= 1.00D-01 BMatC= 1.63D-08 BMatP= 3.73D-07
 IDIUse=1 WtCom= 1.00D+00 WtEn= 0.00D+00
 Coeff-Com: -0.344D-03 0.607D-03 0.125D-02 0.152D-01-0.312D-01-0.501D-01
 Coeff-Com:  0.901D-01 0.975D+00
 Coeff:     -0.344D-03 0.607D-03 0.125D-02 0.152D-01-0.312D-01-0.501D-01
 Coeff:      0.901D-01 0.975D+00
 Gap=     0.129 Goal=   None    Shift=    0.000
 Gap=     0.221 Goal=   None    Shift=    0.000
 RMSDP=3.03D-06 MaxDP=5.58D-05 DE=-7.07D-07 OVMax= 2.17D-04

 Cycle   9  Pass 1  IDiag  1:
 E= -579.688231850394     Delta-E=       -0.000000023872 Rises=F Damp=F
 DIIS: error= 3.42D-06 at cycle   9 NSaved=   9.
 NSaved= 9 IEnMin= 9 EnMin= -579.688231850394     IErMin= 9 ErrMin= 3.42D-06
 ErrMax= 3.42D-06  0.00D+00 EMaxC= 1.00D-01 BMatC= 2.59D-09 BMatP= 1.63D-08
 IDIUse=1 WtCom= 1.00D+00 WtEn= 0.00D+00
 Coeff-Com:  0.353D-03-0.627D-03-0.306D-02-0.790D-02 0.364D-01-0.228D-01
 Coeff-Com: -0.110D+00-0.438D-01 0.115D+01
 Coeff:      0.353D-03-0.627D-03-0.306D-02-0.790D-02 0.364D-01-0.228D-01
 Coeff:     -0.110D+00-0.438D-01 0.115D+01
 Gap=     0.129 Goal=   None    Shift=    0.000
 Gap=     0.221 Goal=   None    Shift=    0.000
 RMSDP=1.55D-06 MaxDP=2.65D-05 DE=-2.39D-08 OVMax= 9.10D-05

 Cycle  10  Pass 1  IDiag  1:
 E= -579.688231855875     Delta-E=       -0.000000005480 Rises=F Damp=F
 DIIS: error= 1.62D-06 at cycle  10 NSaved=  10.
 NSaved=10 IEnMin=10 EnMin= -579.688231855875     IErMin=10 ErrMin= 1.62D-06
 ErrMax= 1.62D-06  0.00D+00 EMaxC= 1.00D-01 BMatC= 5.05D-10 BMatP= 2.59D-09
 IDIUse=1 WtCom= 1.00D+00 WtEn= 0.00D+00
 Coeff-Com: -0.489D-04 0.812D-04 0.782D-03-0.848D-04-0.465D-02 0.830D-02
 Coeff-Com:  0.214D-01-0.865D-01-0.337D+00 0.140D+01
 Coeff:     -0.489D-04 0.812D-04 0.782D-03-0.848D-04-0.465D-02 0.830D-02
 Coeff:      0.214D-01-0.865D-01-0.337D+00 0.140D+01
 Gap=     0.129 Goal=   None    Shift=    0.000
 Gap=     0.221 Goal=   None    Shift=    0.000
 RMSDP=8.46D-07 MaxDP=1.51D-05 DE=-5.48D-09 OVMax= 5.54D-05

 Cycle  11  Pass 1  IDiag  1:
 E= -579.688231857494     Delta-E=       -0.000000001620 Rises=F Damp=F
 DIIS: error= 8.37D-07 at cycle  11 NSaved=  11.
 NSaved=11 IEnMin=11 EnMin= -579.688231857494     IErMin=11 ErrMin= 8.37D-07
 ErrMax= 8.37D-07  0.00D+00 EMaxC= 1.00D-01 BMatC= 1.28D-10 BMatP= 5.05D-10
 IDIUse=1 WtCom= 1.00D+00 WtEn= 0.00D+00
 Coeff-Com: -0.549D-04 0.102D-03 0.301D-03 0.156D-02-0.550D-02 0.591D-03
 Coeff-Com:  0.186D-01 0.497D-01-0.137D+00-0.634D+00 0.171D+01
 Coeff:     -0.549D-04 0.102D-03 0.301D-03 0.156D-02-0.550D-02 0.591D-03
 Coeff:      0.186D-01 0.497D-01-0.137D+00-0.634D+00 0.171D+01
 Gap=     0.129 Goal=   None    Shift=    0.000
 Gap=     0.221 Goal=   None    Shift=    0.000
 RMSDP=6.65D-07 MaxDP=1.03D-05 DE=-1.62D-09 OVMax= 4.53D-05

 Cycle  12  Pass 1  IDiag  1:
 E= -579.688231858041     Delta-E=       -0.000000000547 Rises=F Damp=F
 DIIS: error= 2.70D-07 at cycle  12 NSaved=  12.
 NSaved=12 IEnMin=12 EnMin= -579.688231858041     IErMin=12 ErrMin= 2.70D-07
 ErrMax= 2.70D-07  0.00D+00 EMaxC= 1.00D-01 BMatC= 1.54D-11 BMatP= 1.28D-10
 IDIUse=1 WtCom= 1.00D+00 WtEn= 0.00D+00
 Coeff-Com:  0.232D-04-0.416D-04-0.222D-03-0.443D-03 0.240D-02-0.251D-02
 Coeff-Com: -0.685D-02-0.589D-02 0.112D+00-0.866D-01-0.426D+00 0.141D+01
 Coeff:      0.232D-04-0.416D-04-0.222D-03-0.443D-03 0.240D-02-0.251D-02
 Coeff:     -0.685D-02-0.589D-02 0.112D+00-0.866D-01-0.426D+00 0.141D+01
 Gap=     0.129 Goal=   None    Shift=    0.000
 Gap=     0.221 Goal=   None    Shift=    0.000
 RMSDP=2.28D-07 MaxDP=4.19D-06 DE=-5.47D-10 OVMax= 1.57D-05

 Cycle  13  Pass 1  IDiag  1:
 E= -579.688231858096     Delta-E=       -0.000000000055 Rises=F Damp=F
 DIIS: error= 7.56D-08 at cycle  13 NSaved=  13.
 NSaved=13 IEnMin=13 EnMin= -579.688231858096     IErMin=13 ErrMin= 7.56D-08
 ErrMax= 7.56D-08  0.00D+00 EMaxC= 1.00D-01 BMatC= 1.29D-12 BMatP= 1.54D-11
 IDIUse=1 WtCom= 1.00D+00 WtEn= 0.00D+00
 Coeff-Com: -0.298D-05 0.493D-05 0.454D-04 0.259D-04-0.282D-03 0.340D-03
 Coeff-Com:  0.120D-02-0.475D-02-0.119D-01 0.681D-01-0.491D-01-0.331D+00
 Coeff-Com:  0.133D+01
 Coeff:     -0.298D-05 0.493D-05 0.454D-04 0.259D-04-0.282D-03 0.340D-03
 Coeff:      0.120D-02-0.475D-02-0.119D-01 0.681D-01-0.491D-01-0.331D+00
 Coeff:      0.133D+01
 Gap=     0.129 Goal=   None    Shift=    0.000
 Gap=     0.221 Goal=   None    Shift=    0.000
 RMSDP=6.02D-08 MaxDP=1.36D-06 DE=-5.47D-11 OVMax= 3.75D-06

 Cycle  14  Pass 1  IDiag  1:
 E= -579.688231858100     Delta-E=       -0.000000000004 Rises=F Damp=F
 DIIS: error= 2.34D-08 at cycle  14 NSaved=  14.
 NSaved=14 IEnMin=14 EnMin= -579.688231858100     IErMin=14 ErrMin= 2.34D-08
 ErrMax= 2.34D-08  0.00D+00 EMaxC= 1.00D-01 BMatC= 1.54D-13 BMatP= 1.29D-12
 IDIUse=1 WtCom= 1.00D+00 WtEn= 0.00D+00
 Coeff-Com: -0.629D-06 0.127D-05 0.139D-05 0.891D-05-0.535D-04-0.106D-04
 Coeff-Com:  0.409D-03 0.103D-02-0.357D-02-0.167D-01 0.591D-01-0.505D-01
 Coeff-Com: -0.390D+00 0.140D+01
 Coeff:     -0.629D-06 0.127D-05 0.139D-05 0.891D-05-0.535D-04-0.106D-04
 Coeff:      0.409D-03 0.103D-02-0.357D-02-0.167D-01 0.591D-01-0.505D-01
 Coeff:     -0.390D+00 0.140D+01
 Gap=     0.129 Goal=   None    Shift=    0.000
 Gap=     0.221 Goal=   None    Shift=    0.000
 RMSDP=1.93D-08 MaxDP=5.34D-07 DE=-3.98D-12 OVMax= 1.24D-06

 Cycle  15  Pass 1  IDiag  1:
 E= -579.688231858100     Delta-E=       -0.000000000000 Rises=F Damp=F
 DIIS: error= 4.46D-09 at cycle  15 NSaved=  15.
 NSaved=15 IEnMin=15 EnMin= -579.688231858100     IErMin=15 ErrMin= 4.46D-09
 ErrMax= 4.46D-09  0.00D+00 EMaxC= 1.00D-01 BMatC= 8.35D-15 BMatP= 1.54D-13
 IDIUse=1 WtCom= 1.00D+00 WtEn= 0.00D+00
 Coeff-Com:  0.217D-06-0.428D-06-0.105D-05-0.210D-05 0.250D-04-0.387D-04
 Coeff-Com: -0.989D-04-0.123D-03 0.121D-02 0.333D-02-0.177D-01 0.249D-01
 Coeff-Com:  0.113D+00-0.600D+00 0.147D+01
 Coeff:      0.217D-06-0.428D-06-0.105D-05-0.210D-05 0.250D-04-0.387D-04
 Coeff:     -0.989D-04-0.123D-03 0.121D-02 0.333D-02-0.177D-01 0.249D-01
 Coeff:      0.113D+00-0.600D+00 0.147D+01
 Gap=     0.129 Goal=   None    Shift=    0.000
 Gap=     0.221 Goal=   None    Shift=    0.000
 RMSDP=4.46D-09 MaxDP=1.07D-07 DE=-3.41D-13 OVMax= 3.24D-07

 SCF Done:  E(UM062X) =  -579.688231858     A.U. after   15 cycles
            NFock= 15  Conv=0.45D-08     -V/T= 2.0015
 <Sx>= 0.0000 <Sy>= 0.0000 <Sz>= 0.5000 <S**2>= 0.7821 S= 0.5159
 <L.S>=  0.00000000000    
 KE= 5.788472181815D+02 PE=-1.459869017175D+03 EE= 2.588053242981D+02
 Annihilation of the first spin contaminant:
 S**2 before annihilation     0.7821,   after     0.7501
 Leave Link  502 at Mon Apr 21 20:33:26 2025, MaxMem=   536870912 cpu:             104.9 elap:              13.9
 (Enter /home/szhao/Apps/g16/l601.exe)
 Copying SCF densities to generalized density rwf, IOpCl= 1 IROHF=0.

 **********************************************************************

            Population analysis using the SCF density.

 **********************************************************************

 Alpha  occ. eigenvalues --  -67.26905 -67.26320  -5.81116  -5.80557  -4.12215
 Alpha  occ. eigenvalues --   -4.12142  -4.11728  -4.11618  -4.11481  -4.10949
 Alpha  occ. eigenvalues --   -0.76766  -0.75569  -0.54459  -0.51950  -0.41640
 Alpha virt. eigenvalues --   -0.28761  -0.27959  -0.26604  -0.11264  -0.10952
 Alpha virt. eigenvalues --   -0.08984  -0.08176  -0.07534  -0.06376  -0.06259
 Alpha virt. eigenvalues --   -0.05731  -0.04959  -0.02903   0.12429   0.14284
 Alpha virt. eigenvalues --    0.14915   0.16562   0.17547   0.17799   0.19789
 Alpha virt. eigenvalues --    0.25595   0.26718   0.30505   0.38284   0.38444
 Alpha virt. eigenvalues --    0.38957   0.39085   0.39518   0.39538   0.40463
 Alpha virt. eigenvalues --    0.48162   0.64527   0.65188   0.98180   1.00667
 Alpha virt. eigenvalues --    1.01477   1.02051   1.02789   1.06503   1.29477
 Alpha virt. eigenvalues --    1.29820   1.29875   1.30125   1.79699   1.80899
 Alpha virt. eigenvalues --    2.42374   2.42653   5.20981   5.27376  11.19291
 Alpha virt. eigenvalues --   11.20510  11.21830  11.22341  11.29931  11.31658
 Alpha virt. eigenvalues --  140.75644 140.83629
  Beta  occ. eigenvalues --  -67.26660 -67.26016  -5.81047  -5.80454  -4.12081
  Beta  occ. eigenvalues --   -4.11583  -4.11540  -4.11344  -4.10989  -4.10732
  Beta  occ. eigenvalues --   -0.74982  -0.73816  -0.54159  -0.50438
  Beta virt. eigenvalues --   -0.28344  -0.27312  -0.26067  -0.23628  -0.12870
  Beta virt. eigenvalues --   -0.11617  -0.08677  -0.07900  -0.07180  -0.06375
  Beta virt. eigenvalues --   -0.05981  -0.05174  -0.04713  -0.03019   0.11143
  Beta virt. eigenvalues --    0.12594   0.12997   0.15518   0.16131   0.16233
  Beta virt. eigenvalues --    0.20099   0.25190   0.26451   0.30953   0.39464
  Beta virt. eigenvalues --    0.39865   0.41928   0.42413   0.42579   0.43363
  Beta virt. eigenvalues --    0.43558   0.49655   0.65320   0.66186   0.97600
  Beta virt. eigenvalues --    1.01023   1.01405   1.02518   1.03468   1.07228
  Beta virt. eigenvalues --    1.29804   1.30266   1.30678   1.31091   1.80470
  Beta virt. eigenvalues --    1.81814   2.42773   2.43107   5.21947   5.28307
  Beta virt. eigenvalues --   11.20887  11.21276  11.22247  11.24557  11.30424
  Beta virt. eigenvalues --   11.32138 140.76112 140.84106
          Condensed to atoms (all electrons):
               1          2          3          4
     1  Si  13.100659   0.069842   0.235431   0.002353
     2  Si   0.069842  13.134543   0.004925   0.256418
     3  H    0.235431   0.004925   0.830147   0.000006
     4  H    0.002353   0.256418   0.000006   0.796703
          Atomic-Atomic Spin Densities.
               1          2          3          4
     1  Si   0.404735   0.061156  -0.004501   0.000460
     2  Si   0.061156   0.510720  -0.000444  -0.012004
     3  H   -0.004501  -0.000444  -0.006358   0.000008
     4  H    0.000460  -0.012004   0.000008   0.001553
 Mulliken charges and spin densities:
               1          2
     1  Si   0.591715   0.461850
     2  Si   0.534273   0.559428
     3  H   -0.070509  -0.011295
     4  H   -0.055480  -0.009983
 Sum of Mulliken charges =   1.00000   1.00000
 Mulliken charges and spin densities with hydrogens summed into heavy atoms:
               1          2
     1  Si   0.521207   0.450555
     2  Si   0.478793   0.549445
 Electronic spatial extent (au):  <R**2>=            411.9289
 Charge=              1.0000 electrons
 Dipole moment (field-independent basis, Debye):
    X=             -0.0830    Y=             -0.0707    Z=             -0.0000  Tot=              0.1091
 Quadrupole moment (field-independent basis, Debye-Ang):
   XX=             -4.6567   YY=            -26.4287   ZZ=            -19.6741
   XY=              1.2657   XZ=             -0.0000   YZ=             -0.0000
 Traceless Quadrupole moment (field-independent basis, Debye-Ang):
   XX=             12.2631   YY=             -9.5089   ZZ=             -2.7542
   XY=              1.2657   XZ=             -0.0000   YZ=             -0.0000
 Octapole moment (field-independent basis, Debye-Ang**2):
  XXX=             -3.3431  YYY=              1.0233  ZZZ=              0.0000  XYY=              0.4280
  XXY=             -0.6497  XXZ=              0.0000  XZZ=             -0.3481  YZZ=              0.1364
  YYZ=              0.0000  XYZ=             -0.0000
 Hexadecapole moment (field-independent basis, Debye-Ang**3):
 XXXX=           -447.0090 YYYY=            -62.3710 ZZZZ=            -24.5505 XXXY=            -18.2527
 XXXZ=             -0.0000 YYYX=            -15.0551 YYYZ=             -0.0000 ZZZX=             -0.0000
 ZZZY=              0.0000 XXYY=           -105.7051 XXZZ=            -75.2037 YYZZ=            -14.5501
 XXYZ=             -0.0000 YYXZ=             -0.0000 ZZXY=             -3.9800
 N-N= 4.252824283740D+01 E-N=-1.459869017256D+03  KE= 5.788472181815D+02
                          Isotropic Fermi Contact Couplings
        Atom                 a.u.       MegaHertz       Gauss      10(-4) cm-1
     1  Si(29)            -0.00291       2.58323       0.92176       0.86167
     2  Si(29)             0.04235     -37.63531     -13.42921     -12.55379
     3  H(1)              -0.00288     -12.86413      -4.59024      -4.29101
     4  H(1)              -0.00283     -12.64121      -4.51070      -4.21665
 --------------------------------------------------------
       Center         ----  Spin Dipole Couplings  ----
                      3XX-RR        3YY-RR        3ZZ-RR
 --------------------------------------------------------
     1   Atom        0.468221      0.011550     -0.479771
     2   Atom       -0.093419      0.672513     -0.579094
     3   Atom        0.005156      0.006829     -0.011985
     4   Atom        0.007887      0.006216     -0.014102
 --------------------------------------------------------
                        XY            XZ            YZ
 --------------------------------------------------------
     1   Atom       -0.764164     -0.000000      0.000000
     2   Atom       -0.889157     -0.000000      0.000000
     3   Atom        0.002971      0.000000     -0.000000
     4   Atom        0.004073     -0.000000      0.000000
 --------------------------------------------------------


 ---------------------------------------------------------------------------------
              Anisotropic Spin Dipole Couplings in Principal Axis System
 ---------------------------------------------------------------------------------

       Atom             a.u.   MegaHertz   Gauss  10(-4) cm-1        Axes

              Baa    -0.5577    59.159    21.109    19.733  0.5974  0.8020 -0.0000
     1 Si(29) Bbb    -0.4798    50.896    18.161    16.977  0.0000  0.0000  1.0000
              Bcc     1.0374  -110.055   -39.270   -36.710  0.8020 -0.5974 -0.0000
 
              Baa    -0.6786    71.986    25.686    24.012  0.8353  0.5497 -0.0000
     2 Si(29) Bbb    -0.5791    61.433    21.921    20.492  0.0000  0.0000  1.0000
              Bcc     1.2577  -133.419   -47.607   -44.504 -0.5497  0.8353  0.0000
 
              Baa    -0.0120    -6.394    -2.282    -2.133 -0.0000  0.0000  1.0000
     3 H(1)   Bbb     0.0029     1.550     0.553     0.517  0.7972 -0.6037  0.0000
              Bcc     0.0091     4.844     1.729     1.616  0.6037  0.7972 -0.0000
 
              Baa    -0.0141    -7.524    -2.685    -2.510  0.0000 -0.0000  1.0000
     4 H(1)   Bbb     0.0029     1.544     0.551     0.515 -0.6321  0.7749  0.0000
              Bcc     0.0112     5.981     2.134     1.995  0.7749  0.6321 -0.0000
 

 ---------------------------------------------------------------------------------

 No NMR shielding tensors so no spin-rotation constants.
 Leave Link  601 at Mon Apr 21 20:33:26 2025, MaxMem=   536870912 cpu:               2.5 elap:               0.4
 (Enter /home/szhao/Apps/g16/l701.exe)
 ... and contract with generalized density number  0.
 Compute integral first derivatives.
 Leave Link  701 at Mon Apr 21 20:33:27 2025, MaxMem=   536870912 cpu:               2.2 elap:               0.4
 (Enter /home/szhao/Apps/g16/l702.exe)
 L702 exits ... SP integral derivatives will be done elsewhere.
 Leave Link  702 at Mon Apr 21 20:33:28 2025, MaxMem=   536870912 cpu:               0.6 elap:               0.2
 (Enter /home/szhao/Apps/g16/l703.exe)
 Integral derivatives from FoFJK, PRISM(SPDF).
 Compute integral first derivatives, UseDBF=F ICtDFT=           0.
 Calling FoFJK, ICntrl=      2127 FMM=F ISym2X=0 I1Cent= 0 IOpClX= 1 NMat=1 NMatS=1 NMatT=0.
 FoFJK:  IHMeth= 1 ICntrl=    2127 DoSepK=F KAlg= 0 I1Cent=           0 FoldK=F
 IRaf=         0 NMat=       1 IRICut=       1 DoRegI=T DoRafI=F ISym2E= 0 IDoP0=0 IntGTp=1.
 FoFCou: FMM=F IPFlag=           0 FMFlag=      100000 FMFlg1=         800
         NFxFlg=           0 DoJE=F BraDBF=F KetDBF=F FulRan=T
         wScrn=  0.000000 ICntrl=      2127 IOpCl=  1 I1Cent=           0 NGrid=           0
         NMat0=    1 NMatS0=      1 NMatT0=    0 NMatD0=    1 NMtDS0=    0 NMtDT0=    0
 Symmetry not used in FoFCou.
 Leave Link  703 at Mon Apr 21 20:33:30 2025, MaxMem=   536870912 cpu:              13.6 elap:               1.8
 (Enter /home/szhao/Apps/g16/l716.exe)
 Dipole        =-3.26616008D-02-2.78234637D-02-3.26726968D-15
 -------------------------------------------------------------------
 Center     Atomic                   Forces (Hartrees/Bohr)
 Number     Number              X              Y              Z
 -------------------------------------------------------------------
      1       14          -0.000000000   -0.000000000   -0.000000000
      2       14          -0.000000000   -0.000000000   -0.000000000
      3        1           0.002705752   -0.008271451    0.000000000
      4        1           0.000278374    0.011123660    0.000000000
 -------------------------------------------------------------------
 Cartesian Forces:  Max     0.011123660 RMS     0.004077901
 Leave Link  716 at Mon Apr 21 20:33:30 2025, MaxMem=   536870912 cpu:               0.9 elap:               0.2
 (Enter /home/szhao/Apps/g16/l103.exe)

 GradGradGradGradGradGradGradGradGradGradGradGradGradGradGradGradGradGrad
 Berny optimization.
 FormGI is forming the generalized inverse of G from B-inverse, IUseBI=4.
 Internal  Forces:  Max     0.020152326 RMS     0.010626418
 Search for a local minimum.
 Step number   1 out of a maximum of   21
 All quantities printed in internal units (Hartrees-Bohrs-Radians)
 RMS Force = .12461D-01 SwitMx=.10000D-02 MixMth= 1
 Mixed Optimization -- RFO/linear search
 Second derivative matrix not updated -- first step.
 The second derivative matrix:
                          X1        Y1        Z1        X2        Y2
           X1           0.50000
           Y1           0.00000   0.50000
           Z1           0.00000   0.00000   0.50000
           X2           0.00000   0.00000   0.00000   0.50000
           Y2           0.00000   0.00000   0.00000   0.00000   0.50000
           Z2           0.00000   0.00000   0.00000   0.00000   0.00000
           R1           0.00000   0.00000   0.00000   0.00000   0.00000
           R2           0.00000   0.00000   0.00000   0.00000   0.00000
           A1           0.00000   0.00000   0.00000   0.00000   0.00000
           A2           0.00000   0.00000   0.00000   0.00000   0.00000
           D1           0.00000   0.00000   0.00000   0.00000   0.00000
                          Z2        R1        R2        A1        A2
           Z2           0.50000
           R1           0.00000   0.17370
           R2           0.00000   0.00000   0.17736
           A1           0.00000   0.00000   0.00000   0.16000
           A2           0.00000   0.00000   0.00000   0.00000   0.16000
           D1           0.00000   0.00000   0.00000   0.00000   0.00000
                          D1
           D1           0.00230
 ITU=  0
     Eigenvalues ---    0.00230   0.16000   0.16000   0.17370   0.17736
     Eigenvalues --- 1000.000001000.000001000.000001000.000001000.00000
     Eigenvalues --- 1000.00000
 RFO step:  Lambda=-4.65307898D-03 EMin= 2.30000000D-03
 Linear search not attempted -- first point.
 Iteration  1 RMS(Cart)=  0.12633299 RMS(Int)=  0.00653743
 Iteration  2 RMS(Cart)=  0.01085750 RMS(Int)=  0.00004009
 Iteration  3 RMS(Cart)=  0.00005862 RMS(Int)=  0.00000000
 Iteration  4 RMS(Cart)=  0.00000000 RMS(Int)=  0.00000000
 ITry= 1 IFail=0 DXMaxC= 2.50D-01 DCOld= 1.00D+10 DXMaxT= 3.00D-01 DXLimC= 3.00D+00 Rises=F
 Variable       Old X    -DE/DX   Delta X   Delta X   Delta X     New X
                                 (Linear)    (Quad)   (Total)
    X1       -3.35988   0.00271   0.00000   0.00000   0.00000  -3.35988
    Y1        0.00000  -0.01365   0.00000   0.00000   0.00000   0.00000
    Z1        0.00000   0.00000   0.00000   0.00000   0.00000   0.00000
    X2        3.35988   0.00028   0.00000   0.00000   0.00000   3.35988
    Y2        0.00000   0.01650   0.00000   0.00000   0.00000   0.00000
    Z2        0.00000   0.00000   0.00000   0.00000   0.00000   0.00000
    R1        2.81317   0.00660   0.00000   0.03700   0.03700   2.85017
    R2        2.79829   0.00848   0.00000   0.04660   0.04660   2.84489
    A1        1.96476  -0.01596   0.00000  -0.09693  -0.09693   1.86782
    A2        2.29974  -0.02015   0.00000  -0.12239  -0.12239   2.17735
    D1        3.14159   0.00000   0.00000   0.00000   0.00000   3.14159
         Item               Value     Threshold  Converged?
 Maximum Force            0.020152     0.000450     NO 
 RMS     Force            0.012461     0.000300     NO 
 Maximum Displacement     0.250235     0.001800     NO 
 RMS     Displacement     0.134139     0.001200     NO 
 Predicted change in Energy=-2.391491D-03
 Lowest energy point so far.  Saving SCF results.
 GradGradGradGradGradGradGradGradGradGradGradGradGradGradGradGradGradGrad

 Leave Link  103 at Mon Apr 21 20:33:30 2025, MaxMem=   536870912 cpu:               0.8 elap:               0.1
 (Enter /home/szhao/Apps/g16/l202.exe)
                          Input orientation:                          
 ---------------------------------------------------------------------
 Center     Atomic      Atomic             Coordinates (Angstroms)
 Number     Number       Type             X           Y           Z
 ---------------------------------------------------------------------
      1         14           0       -1.777975    0.000000    0.000000
      2         14           0        1.777975    0.000000    0.000000
      3          1           0       -2.219408   -1.442202    0.000000
      4          1           0        2.636141    1.236907    0.000000
 ---------------------------------------------------------------------
                    Distance matrix (angstroms):
                    1          2          3          4
     1  Si   0.000000
     2  Si   3.555949   0.000000
     3  H    1.508247   4.249590   0.000000
     4  H    4.584142   1.505453   5.545627   0.000000
 Symmetry turned off by external request.
 Stoichiometry    H2Si2(1+,2)
 Framework group  CS[SG(H2Si2)]
 Deg. of freedom     5
 Full point group                 CS      NOp   2
 Rotational constants (GHZ):         148.2658095           2.6729072           2.6255739
 Leave Link  202 at Mon Apr 21 20:33:31 2025, MaxMem=   536870912 cpu:               1.6 elap:               0.3
 (Enter /home/szhao/Apps/g16/l301.exe)
 Standard basis: 6-311+G(d,p) (5D, 7F)
 Ernie: Thresh=  0.10000D-02 Tol=  0.10000D-05 Strict=F.
    72 basis functions,   116 primitive gaussians,    74 cartesian basis functions
    15 alpha electrons       14 beta electrons
       nuclear repulsion energy        42.4556180748 Hartrees.
 IExCor= 4336 DFT=T Ex+Corr=M062X ExCW=0 ScaHFX=  0.540000
 ScaDFX=  1.000000  1.000000  1.000000  1.000000 ScalE2=  1.000000  1.000000
 IRadAn=      7 IRanWt=     -1 IRanGd=            0 ICorTp=0 IEmpDi=  4
 NAtoms=    4 NActive=    4 NUniq=    4 SFac= 1.00D+00 NAtFMM=   60 NAOKFM=F Big=F
 Integral buffers will be    131072 words long.
 Raffenetti 2 integral format.
 Two-electron integral symmetry is turned off.
 Leave Link  301 at Mon Apr 21 20:33:31 2025, MaxMem=   536870912 cpu:               1.8 elap:               0.3
 (Enter /home/szhao/Apps/g16/l302.exe)
 NPDir=0 NMtPBC=     1 NCelOv=     1 NCel=       1 NClECP=     1 NCelD=      1
         NCelK=      1 NCelE2=     1 NClLst=     1 CellRange=     0.0.
 One-electron integrals computed using PRISM.
 NBasis=    72 RedAO= T EigKep=  8.43D-03  NBF=    72
 NBsUse=    72 1.00D-06 EigRej= -1.00D+00 NBFU=    72
 Precomputing XC quadrature grid using
 IXCGrd= 4 IRadAn=           7 IRanWt=          -1 IRanGd=           0 AccXCQ= 0.00D+00.
 Generated NRdTot=       0 NPtTot=           0 NUsed=           0 NTot=          32
 NSgBfM=    67    67    67    67    67 MxSgAt=     4 MxSgA2=     4.
 Leave Link  302 at Mon Apr 21 20:33:32 2025, MaxMem=   536870912 cpu:               2.5 elap:               0.4
 (Enter /home/szhao/Apps/g16/l303.exe)
 DipDrv:  MaxL=1.
 Leave Link  303 at Mon Apr 21 20:33:32 2025, MaxMem=   536870912 cpu:               0.9 elap:               0.2
 (Enter /home/szhao/Apps/g16/l401.exe)
 Initial guess from the checkpoint file:  "opt.chk"
 B after Tr=    -0.000022    0.003873    0.000000
         Rot=    0.999992    0.000000    0.000000   -0.004044 Ang=  -0.46 deg.
 Guess basis will be translated and rotated to current coordinates.
 JPrj=2 DoOrth=T DoCkMO=T.
 Initial guess <Sx>= 0.0000 <Sy>= 0.0000 <Sz>= 0.5000 <S**2>= 0.7817 S= 0.5157
 Generating alternative initial guess.
 ExpMin= 3.31D-02 ExpMax= 6.94D+04 ExpMxC= 2.33D+03 IAcc=3 IRadAn=         5 AccDes= 0.00D+00
 Harris functional with IExCor= 1009 and IRadAn=       5 diagonalized for initial guess.
 HarFok:  IExCor= 1009 AccDes= 0.00D+00 IRadAn=         5 IDoV= 1 UseB2=F ITyADJ=14
 ICtDFT=  3500011 ScaDFX=  1.000000  1.000000  1.000000  1.000000
 FoFCou: FMM=F IPFlag=           0 FMFlag=      100000 FMFlg1=           0
         NFxFlg=           0 DoJE=T BraDBF=F KetDBF=T FulRan=T
         wScrn=  0.000000 ICntrl=       500 IOpCl=  0 I1Cent=   200000004 NGrid=           0
         NMat0=    1 NMatS0=      1 NMatT0=    0 NMatD0=    1 NMtDS0=    0 NMtDT0=    0
 Symmetry not used in FoFCou.
 Harris En= -579.462815008780    
 Leave Link  401 at Mon Apr 21 20:33:33 2025, MaxMem=   536870912 cpu:               3.9 elap:               0.6
 (Enter /home/szhao/Apps/g16/l502.exe)
 Keep R1 and R2 ints in memory in canonical form, NReq=14118010.
 FoFCou: FMM=F IPFlag=           0 FMFlag=           0 FMFlg1=           0
         NFxFlg=           0 DoJE=F BraDBF=F KetDBF=F FulRan=T
         wScrn=  0.000000 ICntrl=       600 IOpCl=  0 I1Cent=           0 NGrid=           0
         NMat0=    1 NMatS0=   2628 NMatT0=    0 NMatD0=    1 NMtDS0=    0 NMtDT0=    0
 Symmetry not used in FoFCou.
 Two-electron integral symmetry not used.
 UHF open shell SCF:
 Using DIIS extrapolation, IDIIS=  1040.
 NGot=   536870912 LenX=   529949706 LenY=   529943789
 Requested convergence on RMS density matrix=1.00D-08 within 128 cycles.
 Requested convergence on MAX density matrix=1.00D-06.
 Requested convergence on             energy=1.00D-06.
 No special actions if energy rises.

 Cycle   1  Pass 1  IDiag  1:
 E= -579.689925300578    
 DIIS: error= 4.09D-03 at cycle   1 NSaved=   1.
 NSaved= 1 IEnMin= 1 EnMin= -579.689925300578     IErMin= 1 ErrMin= 4.09D-03
 ErrMax= 4.09D-03  0.00D+00 EMaxC= 1.00D-01 BMatC= 2.46D-03 BMatP= 2.46D-03
 IDIUse=3 WtCom= 9.59D-01 WtEn= 4.09D-02
 Coeff-Com:  0.100D+01
 Coeff-En:   0.100D+01
 Coeff:      0.100D+01
 Gap=     0.417 Goal=   None    Shift=    0.000
 Gap=     0.418 Goal=   None    Shift=    0.000
 GapD=    0.417 DampG=2.000 DampE=1.000 DampFc=2.0000 IDamp=-1.
 RMSDP=5.63D-04 MaxDP=6.91D-03              OVMax= 2.91D-02

 Cycle   2  Pass 1  IDiag  1:
 E= -579.691799611669     Delta-E=       -0.001874311092 Rises=F Damp=F
 DIIS: error= 1.09D-03 at cycle   2 NSaved=   2.
 NSaved= 2 IEnMin= 2 EnMin= -579.691799611669     IErMin= 2 ErrMin= 1.09D-03
 ErrMax= 1.09D-03  0.00D+00 EMaxC= 1.00D-01 BMatC= 1.80D-04 BMatP= 2.46D-03
 IDIUse=3 WtCom= 9.89D-01 WtEn= 1.09D-02
 Coeff-Com: -0.192D+00 0.119D+01
 Coeff-En:   0.000D+00 0.100D+01
 Coeff:     -0.190D+00 0.119D+01
 Gap=     0.133 Goal=   None    Shift=    0.000
 Gap=     0.222 Goal=   None    Shift=    0.000
 RMSDP=2.75D-04 MaxDP=4.27D-03 DE=-1.87D-03 OVMax= 1.55D-02

 Cycle   3  Pass 1  IDiag  1:
 E= -579.692096380659     Delta-E=       -0.000296768989 Rises=F Damp=F
 DIIS: error= 4.82D-04 at cycle   3 NSaved=   3.
 NSaved= 3 IEnMin= 3 EnMin= -579.692096380659     IErMin= 3 ErrMin= 4.82D-04
 ErrMax= 4.82D-04  0.00D+00 EMaxC= 1.00D-01 BMatC= 2.08D-05 BMatP= 1.80D-04
 IDIUse=3 WtCom= 9.95D-01 WtEn= 4.82D-03
 Coeff-Com:  0.181D-01-0.410D+00 0.139D+01
 Coeff-En:   0.000D+00 0.000D+00 0.100D+01
 Coeff:      0.180D-01-0.408D+00 0.139D+01
 Gap=     0.133 Goal=   None    Shift=    0.000
 Gap=     0.223 Goal=   None    Shift=    0.000
 RMSDP=1.33D-04 MaxDP=2.37D-03 DE=-2.97D-04 OVMax= 8.81D-03

 Cycle   4  Pass 1  IDiag  1:
 E= -579.692140910119     Delta-E=       -0.000044529461 Rises=F Damp=F
 DIIS: error= 1.42D-04 at cycle   4 NSaved=   4.
 NSaved= 4 IEnMin= 4 EnMin= -579.692140910119     IErMin= 4 ErrMin= 1.42D-04
 ErrMax= 1.42D-04  0.00D+00 EMaxC= 1.00D-01 BMatC= 3.00D-06 BMatP= 2.08D-05
 IDIUse=3 WtCom= 9.99D-01 WtEn= 1.42D-03
 Coeff-Com:  0.186D-01-0.187D+00 0.328D+00 0.841D+00
 Coeff-En:   0.000D+00 0.000D+00 0.000D+00 0.100D+01
 Coeff:      0.185D-01-0.187D+00 0.328D+00 0.841D+00
 Gap=     0.134 Goal=   None    Shift=    0.000
 Gap=     0.223 Goal=   None    Shift=    0.000
 RMSDP=3.33D-05 MaxDP=6.68D-04 DE=-4.45D-05 OVMax= 2.24D-03

 Cycle   5  Pass 1  IDiag  1:
 E= -579.692144599880     Delta-E=       -0.000003689761 Rises=F Damp=F
 DIIS: error= 6.26D-05 at cycle   5 NSaved=   5.
 NSaved= 5 IEnMin= 5 EnMin= -579.692144599880     IErMin= 5 ErrMin= 6.26D-05
 ErrMax= 6.26D-05  0.00D+00 EMaxC= 1.00D-01 BMatC= 5.62D-07 BMatP= 3.00D-06
 IDIUse=1 WtCom= 1.00D+00 WtEn= 0.00D+00
 Coeff-Com: -0.140D-04 0.408D-01-0.192D+00 0.925D-01 0.106D+01
 Coeff:     -0.140D-04 0.408D-01-0.192D+00 0.925D-01 0.106D+01
 Gap=     0.133 Goal=   None    Shift=    0.000
 Gap=     0.223 Goal=   None    Shift=    0.000
 RMSDP=1.93D-05 MaxDP=3.31D-04 DE=-3.69D-06 OVMax= 1.32D-03

 Cycle   6  Pass 1  IDiag  1:
 E= -579.692145753537     Delta-E=       -0.000001153657 Rises=F Damp=F
 DIIS: error= 2.09D-05 at cycle   6 NSaved=   6.
 NSaved= 6 IEnMin= 6 EnMin= -579.692145753537     IErMin= 6 ErrMin= 2.09D-05
 ErrMax= 2.09D-05  0.00D+00 EMaxC= 1.00D-01 BMatC= 1.17D-07 BMatP= 5.62D-07
 IDIUse=1 WtCom= 1.00D+00 WtEn= 0.00D+00
 Coeff-Com: -0.435D-02 0.395D-01-0.633D-01-0.173D+00-0.408D-01 0.124D+01
 Coeff:     -0.435D-02 0.395D-01-0.633D-01-0.173D+00-0.408D-01 0.124D+01
 Gap=     0.133 Goal=   None    Shift=    0.000
 Gap=     0.223 Goal=   None    Shift=    0.000
 RMSDP=1.26D-05 MaxDP=2.06D-04 DE=-1.15D-06 OVMax= 6.91D-04

 Cycle   7  Pass 1  IDiag  1:
 E= -579.692146085588     Delta-E=       -0.000000332051 Rises=F Damp=F
 DIIS: error= 8.61D-06 at cycle   7 NSaved=   7.
 NSaved= 7 IEnMin= 7 EnMin= -579.692146085588     IErMin= 7 ErrMin= 8.61D-06
 ErrMax= 8.61D-06  0.00D+00 EMaxC= 1.00D-01 BMatC= 1.90D-08 BMatP= 1.17D-07
 IDIUse=1 WtCom= 1.00D+00 WtEn= 0.00D+00
 Coeff-Com:  0.101D-02-0.175D-01 0.570D-01-0.799D-02-0.164D+00-0.298D+00
 Coeff-Com:  0.143D+01
 Coeff:      0.101D-02-0.175D-01 0.570D-01-0.799D-02-0.164D+00-0.298D+00
 Coeff:      0.143D+01
 Gap=     0.133 Goal=   None    Shift=    0.000
 Gap=     0.223 Goal=   None    Shift=    0.000
 RMSDP=6.70D-06 MaxDP=9.93D-05 DE=-3.32D-07 OVMax= 3.70D-04

 Cycle   8  Pass 1  IDiag  1:
 E= -579.692146141068     Delta-E=       -0.000000055480 Rises=F Damp=F
 DIIS: error= 1.50D-06 at cycle   8 NSaved=   8.
 NSaved= 8 IEnMin= 8 EnMin= -579.692146141068     IErMin= 8 ErrMin= 1.50D-06
 ErrMax= 1.50D-06  0.00D+00 EMaxC= 1.00D-01 BMatC= 1.31D-09 BMatP= 1.90D-08
 IDIUse=1 WtCom= 1.00D+00 WtEn= 0.00D+00
 Coeff-Com:  0.475D-03-0.472D-02 0.878D-02 0.124D-01-0.256D-02-0.120D+00
 Coeff-Com:  0.756D-01 0.103D+01
 Coeff:      0.475D-03-0.472D-02 0.878D-02 0.124D-01-0.256D-02-0.120D+00
 Coeff:      0.756D-01 0.103D+01
 Gap=     0.133 Goal=   None    Shift=    0.000
 Gap=     0.223 Goal=   None    Shift=    0.000
 RMSDP=1.16D-06 MaxDP=1.95D-05 DE=-5.55D-08 OVMax= 6.62D-05

 Cycle   9  Pass 1  IDiag  1:
 E= -579.692146143254     Delta-E=       -0.000000002186 Rises=F Damp=F
 DIIS: error= 7.09D-07 at cycle   9 NSaved=   9.
 NSaved= 9 IEnMin= 9 EnMin= -579.692146143254     IErMin= 9 ErrMin= 7.09D-07
 ErrMax= 7.09D-07  0.00D+00 EMaxC= 1.00D-01 BMatC= 1.84D-10 BMatP= 1.31D-09
 IDIUse=1 WtCom= 1.00D+00 WtEn= 0.00D+00
 Coeff-Com: -0.902D-04 0.152D-02-0.460D-02-0.234D-03 0.183D-01 0.260D-01
 Coeff-Com: -0.132D+00-0.373D-01 0.113D+01
 Coeff:     -0.902D-04 0.152D-02-0.460D-02-0.234D-03 0.183D-01 0.260D-01
 Coeff:     -0.132D+00-0.373D-01 0.113D+01
 Gap=     0.133 Goal=   None    Shift=    0.000
 Gap=     0.223 Goal=   None    Shift=    0.000
 RMSDP=4.22D-07 MaxDP=6.46D-06 DE=-2.19D-09 OVMax= 2.41D-05

 Cycle  10  Pass 1  IDiag  1:
 E= -579.692146143709     Delta-E=       -0.000000000455 Rises=F Damp=F
 DIIS: error= 4.70D-07 at cycle  10 NSaved=  10.
 NSaved=10 IEnMin=10 EnMin= -579.692146143709     IErMin=10 ErrMin= 4.70D-07
 ErrMax= 4.70D-07  0.00D+00 EMaxC= 1.00D-01 BMatC= 5.53D-11 BMatP= 1.84D-10
 IDIUse=1 WtCom= 1.00D+00 WtEn= 0.00D+00
 Coeff-Com: -0.258D-04 0.134D-04 0.649D-03-0.308D-02-0.385D-02 0.224D-02
 Coeff-Com:  0.406D-01-0.708D-01-0.598D+00 0.163D+01
 Coeff:     -0.258D-04 0.134D-04 0.649D-03-0.308D-02-0.385D-02 0.224D-02
 Coeff:      0.406D-01-0.708D-01-0.598D+00 0.163D+01
 Gap=     0.133 Goal=   None    Shift=    0.000
 Gap=     0.223 Goal=   None    Shift=    0.000
 RMSDP=3.40D-07 MaxDP=5.86D-06 DE=-4.55D-10 OVMax= 2.29D-05

 Cycle  11  Pass 1  IDiag  1:
 E= -579.692146143910     Delta-E=       -0.000000000201 Rises=F Damp=F
 DIIS: error= 2.22D-07 at cycle  11 NSaved=  11.
 NSaved=11 IEnMin=11 EnMin= -579.692146143910     IErMin=11 ErrMin= 2.22D-07
 ErrMax= 2.22D-07  0.00D+00 EMaxC= 1.00D-01 BMatC= 1.11D-11 BMatP= 5.53D-11
 IDIUse=1 WtCom= 1.00D+00 WtEn= 0.00D+00
 Coeff-Com:  0.342D-04-0.427D-03 0.111D-02 0.132D-02-0.375D-02-0.934D-02
 Coeff-Com:  0.230D-01 0.474D-01-0.733D-01-0.692D+00 0.171D+01
 Coeff:      0.342D-04-0.427D-03 0.111D-02 0.132D-02-0.375D-02-0.934D-02
 Coeff:      0.230D-01 0.474D-01-0.733D-01-0.692D+00 0.171D+01
 Gap=     0.133 Goal=   None    Shift=    0.000
 Gap=     0.223 Goal=   None    Shift=    0.000
 RMSDP=2.26D-07 MaxDP=4.21D-06 DE=-2.01D-10 OVMax= 1.52D-05

 Cycle  12  Pass 1  IDiag  1:
 E= -579.692146143960     Delta-E=       -0.000000000050 Rises=F Damp=F
 DIIS: error= 5.16D-08 at cycle  12 NSaved=  12.
 NSaved=12 IEnMin=12 EnMin= -579.692146143960     IErMin=12 ErrMin= 5.16D-08
 ErrMax= 5.16D-08  0.00D+00 EMaxC= 1.00D-01 BMatC= 8.03D-13 BMatP= 1.11D-11
 IDIUse=1 WtCom= 1.00D+00 WtEn= 0.00D+00
 Coeff-Com:  0.837D-06 0.206D-04-0.125D-03 0.200D-03 0.958D-03-0.634D-03
 Coeff-Com: -0.524D-02 0.737D-02 0.665D-01-0.188D+00-0.155D-02 0.112D+01
 Coeff:      0.837D-06 0.206D-04-0.125D-03 0.200D-03 0.958D-03-0.634D-03
 Coeff:     -0.524D-02 0.737D-02 0.665D-01-0.188D+00-0.155D-02 0.112D+01
 Gap=     0.133 Goal=   None    Shift=    0.000
 Gap=     0.223 Goal=   None    Shift=    0.000
 RMSDP=4.78D-08 MaxDP=9.57D-07 DE=-4.98D-11 OVMax= 3.52D-06

 Cycle  13  Pass 1  IDiag  1:
 E= -579.692146143962     Delta-E=       -0.000000000002 Rises=F Damp=F
 DIIS: error= 1.44D-08 at cycle  13 NSaved=  13.
 NSaved=13 IEnMin=13 EnMin= -579.692146143962     IErMin=13 ErrMin= 1.44D-08
 ErrMax= 1.44D-08  0.00D+00 EMaxC= 1.00D-01 BMatC= 5.67D-14 BMatP= 8.03D-13
 IDIUse=1 WtCom= 1.00D+00 WtEn= 0.00D+00
 Coeff-Com: -0.258D-05 0.307D-04-0.744D-04-0.954D-04 0.154D-03 0.790D-03
 Coeff-Com: -0.172D-02-0.159D-02-0.477D-02 0.858D-01-0.151D+00-0.126D+00
 Coeff-Com:  0.120D+01
 Coeff:     -0.258D-05 0.307D-04-0.744D-04-0.954D-04 0.154D-03 0.790D-03
 Coeff:     -0.172D-02-0.159D-02-0.477D-02 0.858D-01-0.151D+00-0.126D+00
 Coeff:      0.120D+01
 Gap=     0.133 Goal=   None    Shift=    0.000
 Gap=     0.223 Goal=   None    Shift=    0.000
 RMSDP=7.59D-09 MaxDP=1.49D-07 DE=-2.05D-12 OVMax= 3.66D-07

 SCF Done:  E(UM062X) =  -579.692146144     A.U. after   13 cycles
            NFock= 13  Conv=0.76D-08     -V/T= 2.0015
 <Sx>= 0.0000 <Sy>= 0.0000 <Sz>= 0.5000 <S**2>= 0.7795 S= 0.5147
 <L.S>=  0.00000000000    
 KE= 5.787987643709D+02 PE=-1.459646147150D+03 EE= 2.586996185602D+02
 Annihilation of the first spin contaminant:
 S**2 before annihilation     0.7795,   after     0.7501
 Leave Link  502 at Mon Apr 21 20:33:45 2025, MaxMem=   536870912 cpu:              87.4 elap:              11.5
 (Enter /home/szhao/Apps/g16/l701.exe)
 ... and contract with generalized density number  0.
 Compute integral first derivatives.
 Leave Link  701 at Mon Apr 21 20:33:45 2025, MaxMem=   536870912 cpu:               1.6 elap:               0.3
 (Enter /home/szhao/Apps/g16/l702.exe)
 L702 exits ... SP integral derivatives will be done elsewhere.
 Leave Link  702 at Mon Apr 21 20:33:46 2025, MaxMem=   536870912 cpu:               0.9 elap:               0.2
 (Enter /home/szhao/Apps/g16/l703.exe)
 Integral derivatives from FoFJK, PRISM(SPDF).
 Compute integral first derivatives, UseDBF=F ICtDFT=           0.
 Calling FoFJK, ICntrl=      2127 FMM=F ISym2X=0 I1Cent= 0 IOpClX= 1 NMat=1 NMatS=1 NMatT=0.
 FoFJK:  IHMeth= 1 ICntrl=    2127 DoSepK=F KAlg= 0 I1Cent=           0 FoldK=F
 IRaf=         0 NMat=       1 IRICut=       1 DoRegI=T DoRafI=F ISym2E= 0 IDoP0=0 IntGTp=1.
 FoFCou: FMM=F IPFlag=           0 FMFlag=      100000 FMFlg1=         800
         NFxFlg=           0 DoJE=F BraDBF=F KetDBF=F FulRan=T
         wScrn=  0.000000 ICntrl=      2127 IOpCl=  1 I1Cent=           0 NGrid=           0
         NMat0=    1 NMatS0=      1 NMatT0=    0 NMatD0=    1 NMtDS0=    0 NMtDT0=    0
 Symmetry not used in FoFCou.
 Leave Link  703 at Mon Apr 21 20:33:47 2025, MaxMem=   536870912 cpu:              12.0 elap:               1.6
 (Enter /home/szhao/Apps/g16/l716.exe)
 Dipole        =-1.92603893D-02-2.30958634D-02 2.34605358D-11
 -------------------------------------------------------------------
 Center     Atomic                   Forces (Hartrees/Bohr)
 Number     Number              X              Y              Z
 -------------------------------------------------------------------
      1       14          -0.000000000   -0.000000000   -0.000000000
      2       14          -0.000000000   -0.000000000   -0.000000000
      3        1           0.004195314   -0.000947751    0.000000000
      4        1          -0.004830133    0.003115758    0.000000000
 -------------------------------------------------------------------
 Cartesian Forces:  Max     0.004830133 RMS     0.002072378
 Leave Link  716 at Mon Apr 21 20:33:48 2025, MaxMem=   536870912 cpu:               0.8 elap:               0.2
 (Enter /home/szhao/Apps/g16/l103.exe)

 GradGradGradGradGradGradGradGradGradGradGradGradGradGradGradGradGradGrad
 Berny optimization.
 Using GEDIIS/GDIIS optimizer.
 FormGI is forming the generalized inverse of G from B-inverse, IUseBI=4.
 Internal  Forces:  Max     0.016342849 RMS     0.006999333
 Search for a local minimum.
 Step number   2 out of a maximum of   21
 All quantities printed in internal units (Hartrees-Bohrs-Radians)
 RMS Force = .91287D-02 SwitMx=.10000D-02 MixMth= 1
 Mixed Optimization -- RFO/linear search
 Update second derivatives using D2CorX and points    1    2
 DE= -3.91D-03 DEPred=-2.39D-03 R= 1.64D+00
 TightC=F SS=  1.41D+00  RLast= 1.67D-01 DXNew= 5.0454D-01 5.0125D-01
 Trust test= 1.64D+00 RLast= 1.67D-01 DXMaxT set to 5.01D-01
 The second derivative matrix:
                          X1        Y1        Z1        X2        Y2
           X1           0.50149
           Y1           0.00845   0.54792
           Z1           0.00000   0.00000   0.50000
           X2          -0.00511  -0.02898  -0.00000   0.51753
           Y2          -0.00914  -0.05180  -0.00000   0.03133   0.55600
           Z2           0.00000   0.00000   0.00000  -0.00000  -0.00000
           R1          -0.00692  -0.03927  -0.00000   0.02375   0.04245
           R2          -0.00868  -0.04922  -0.00000   0.02977   0.05321
           A1           0.00374   0.02120   0.00000  -0.01282  -0.02291
           A2           0.00381   0.02161   0.00000  -0.01307  -0.02336
           D1           0.00000   0.00000   0.00000  -0.00000  -0.00000
                          Z2        R1        R2        A1        A2
           Z2           0.50000
           R1          -0.00000   0.19674
           R2          -0.00000   0.02859   0.21281
           A1           0.00000   0.00467   0.00657   0.11620
           A2           0.00000   0.01012   0.01359  -0.05759   0.08496
           D1           0.00000  -0.00000  -0.00000   0.00000   0.00000
                          D1
           D1           0.00230
 ITU=  1  0
 Use linear search instead of GDIIS.
     Eigenvalues ---    0.00230   0.03919   0.16005   0.17509   0.23639
     Eigenvalues --- 1000.000001000.000001000.000001000.000001000.00000
     Eigenvalues --- 1000.00000
 RFO step:  Lambda=-3.34331604D-03 EMin= 2.30000000D-03
 Quartic linear search produced a step of  1.98872.
 Iteration  1 RMS(Cart)=  0.22320970 RMS(Int)=  0.07014523
 Iteration  2 RMS(Cart)=  0.19599233 RMS(Int)=  0.01775703
 Iteration  3 RMS(Cart)=  0.01778928 RMS(Int)=  0.00000744
 Iteration  4 RMS(Cart)=  0.00002131 RMS(Int)=  0.00000000
 Iteration  5 RMS(Cart)=  0.00000000 RMS(Int)=  0.00000000
 ITry= 1 IFail=0 DXMaxC= 9.69D-01 DCOld= 1.00D+10 DXMaxT= 5.01D-01 DXLimC= 3.00D+00 Rises=F
 Variable       Old X    -DE/DX   Delta X   Delta X   Delta X     New X
                                 (Linear)    (Quad)   (Total)
    X1       -3.35988   0.00420   0.00000   0.00000   0.00000  -3.35988
    Y1        0.00000  -0.00520   0.00000   0.00000   0.00000   0.00000
    Z1        0.00000   0.00000   0.00000   0.00000   0.00000   0.00000
    X2        3.35988  -0.00483   0.00000   0.00000   0.00000   3.35988
    Y2        0.00000   0.00737   0.00000   0.00000   0.00000   0.00000
    Z2        0.00000   0.00000   0.00000   0.00000   0.00000   0.00000
    R1        2.85017  -0.00032   0.07358  -0.05367   0.01992   2.87009
    R2        2.84489  -0.00019   0.09268  -0.06395   0.02874   2.87363
    A1        1.86782  -0.01222  -0.19277  -0.09309  -0.28586   1.58196
    A2        2.17735  -0.01634  -0.24340  -0.13389  -0.37729   1.80006
    D1        3.14159   0.00000   0.00000   0.00000   0.00000   3.14159
         Item               Value     Threshold  Converged?
 Maximum Force            0.016343     0.000450     NO 
 RMS     Force            0.009129     0.000300     NO 
 Maximum Displacement     0.968651     0.001800     NO 
 RMS     Displacement     0.406218     0.001200     NO 
 Predicted change in Energy=-5.225212D-03
 Lowest energy point so far.  Saving SCF results.
 GradGradGradGradGradGradGradGradGradGradGradGradGradGradGradGradGradGrad

 Leave Link  103 at Mon Apr 21 20:33:48 2025, MaxMem=   536870912 cpu:               0.7 elap:               0.1
 (Enter /home/szhao/Apps/g16/l202.exe)
                          Input orientation:                          
 ---------------------------------------------------------------------
 Center     Atomic      Atomic             Coordinates (Angstroms)
 Number     Number       Type             X           Y           Z
 ---------------------------------------------------------------------
      1         14           0       -1.777975    0.000000    0.000000
      2         14           0        1.777975    0.000000    0.000000
      3          1           0       -1.794936   -1.518692    0.000000
      4          1           0        2.123553    1.480871   -0.000000
 ---------------------------------------------------------------------
                    Distance matrix (angstroms):
                    1          2          3          4
     1  Si   0.000000
     2  Si   3.555949   0.000000
     3  H    1.518787   3.882283   0.000000
     4  H    4.173116   1.520659   4.934768   0.000000
 Symmetry turned off by external request.
 Stoichiometry    H2Si2(1+,2)
 Framework group  CS[SG(H2Si2)]
 Deg. of freedom     5
 Full point group                 CS      NOp   2
 Rotational constants (GHZ):         116.4347135           2.7337735           2.6710596
 Leave Link  202 at Mon Apr 21 20:33:48 2025, MaxMem=   536870912 cpu:               0.6 elap:               0.2
 (Enter /home/szhao/Apps/g16/l301.exe)
 Standard basis: 6-311+G(d,p) (5D, 7F)
 Ernie: Thresh=  0.10000D-02 Tol=  0.10000D-05 Strict=F.
    72 basis functions,   116 primitive gaussians,    74 cartesian basis functions
    15 alpha electrons       14 beta electrons
       nuclear repulsion energy        42.7082505735 Hartrees.
 IExCor= 4336 DFT=T Ex+Corr=M062X ExCW=0 ScaHFX=  0.540000
 ScaDFX=  1.000000  1.000000  1.000000  1.000000 ScalE2=  1.000000  1.000000
 IRadAn=      7 IRanWt=     -1 IRanGd=            0 ICorTp=0 IEmpDi=  4
 NAtoms=    4 NActive=    4 NUniq=    4 SFac= 1.00D+00 NAtFMM=   60 NAOKFM=F Big=F
 Integral buffers will be    131072 words long.
 Raffenetti 2 integral format.
 Two-electron integral symmetry is turned off.
 Leave Link  301 at Mon Apr 21 20:33:49 2025, MaxMem=   536870912 cpu:               1.3 elap:               0.3
 (Enter /home/szhao/Apps/g16/l302.exe)
 NPDir=0 NMtPBC=     1 NCelOv=     1 NCel=       1 NClECP=     1 NCelD=      1
         NCelK=      1 NCelE2=     1 NClLst=     1 CellRange=     0.0.
 One-electron integrals computed using PRISM.
 NBasis=    72 RedAO= T EigKep=  7.99D-03  NBF=    72
 NBsUse=    72 1.00D-06 EigRej= -1.00D+00 NBFU=    72
 Precomputing XC quadrature grid using
 IXCGrd= 4 IRadAn=           7 IRanWt=          -1 IRanGd=           0 AccXCQ= 0.00D+00.
 Generated NRdTot=       0 NPtTot=           0 NUsed=           0 NTot=          32
 NSgBfM=    70    70    70    70    70 MxSgAt=     4 MxSgA2=     4.
 Leave Link  302 at Mon Apr 21 20:33:49 2025, MaxMem=   536870912 cpu:               2.3 elap:               0.4
 (Enter /home/szhao/Apps/g16/l303.exe)
 DipDrv:  MaxL=1.
 Leave Link  303 at Mon Apr 21 20:33:50 2025, MaxMem=   536870912 cpu:               0.9 elap:               0.2
 (Enter /home/szhao/Apps/g16/l401.exe)
 Initial guess from the checkpoint file:  "opt.chk"
 B after Tr=    -0.005806    0.010018   -0.000000
         Rot=    0.999949    0.000000   -0.000000   -0.010072 Ang=  -1.15 deg.
 Guess basis will be translated and rotated to current coordinates.
 JPrj=2 DoOrth=T DoCkMO=T.
 Initial guess <Sx>= 0.0000 <Sy>= 0.0000 <Sz>= 0.5000 <S**2>= 0.7787 S= 0.5143
 Generating alternative initial guess.
 ExpMin= 3.31D-02 ExpMax= 6.94D+04 ExpMxC= 2.33D+03 IAcc=3 IRadAn=         5 AccDes= 0.00D+00
 Harris functional with IExCor= 1009 and IRadAn=       5 diagonalized for initial guess.
 HarFok:  IExCor= 1009 AccDes= 0.00D+00 IRadAn=         5 IDoV= 1 UseB2=F ITyADJ=14
 ICtDFT=  3500011 ScaDFX=  1.000000  1.000000  1.000000  1.000000
 FoFCou: FMM=F IPFlag=           0 FMFlag=      100000 FMFlg1=           0
         NFxFlg=           0 DoJE=T BraDBF=F KetDBF=T FulRan=T
         wScrn=  0.000000 ICntrl=       500 IOpCl=  0 I1Cent=   200000004 NGrid=           0
         NMat0=    1 NMatS0=      1 NMatT0=    0 NMatD0=    1 NMtDS0=    0 NMtDT0=    0
 Symmetry not used in FoFCou.
 Harris En= -579.469503039855    
 Leave Link  401 at Mon Apr 21 20:33:50 2025, MaxMem=   536870912 cpu:               3.6 elap:               0.5
 (Enter /home/szhao/Apps/g16/l502.exe)
 Keep R1 and R2 ints in memory in canonical form, NReq=14118010.
 FoFCou: FMM=F IPFlag=           0 FMFlag=           0 FMFlg1=           0
         NFxFlg=           0 DoJE=F BraDBF=F KetDBF=F FulRan=T
         wScrn=  0.000000 ICntrl=       600 IOpCl=  0 I1Cent=           0 NGrid=           0
         NMat0=    1 NMatS0=   2628 NMatT0=    0 NMatD0=    1 NMtDS0=    0 NMtDT0=    0
 Symmetry not used in FoFCou.
 Two-electron integral symmetry not used.
 UHF open shell SCF:
 Using DIIS extrapolation, IDIIS=  1040.
 NGot=   536870912 LenX=   529949706 LenY=   529943789
 Requested convergence on RMS density matrix=1.00D-08 within 128 cycles.
 Requested convergence on MAX density matrix=1.00D-06.
 Requested convergence on             energy=1.00D-06.
 No special actions if energy rises.

 Cycle   1  Pass 1  IDiag  1:
 E= -579.677397156400    
 DIIS: error= 1.26D-02 at cycle   1 NSaved=   1.
 NSaved= 1 IEnMin= 1 EnMin= -579.677397156400     IErMin= 1 ErrMin= 1.26D-02
 ErrMax= 1.26D-02  0.00D+00 EMaxC= 1.00D-01 BMatC= 2.03D-02 BMatP= 2.03D-02
 IDIUse=3 WtCom= 8.74D-01 WtEn= 1.26D-01
 Coeff-Com:  0.100D+01
 Coeff-En:   0.100D+01
 Coeff:      0.100D+01
 Recover alternate guess density for next cycle.
 RMSDP=6.04D-03 MaxDP=1.38D-01              OVMax= 0.00D+00

 Cycle   2  Pass 1  IDiag  1:
 E= -579.649975004940     Delta-E=        0.027422151459 Rises=F Damp=F
 Switch densities from cycles 1 and 2 for lowest energy.
 DIIS: error= 2.83D-02 at cycle   2 NSaved=   2.
 NSaved= 2 IEnMin= 1 EnMin= -579.677397156400     IErMin= 1 ErrMin= 1.26D-02
 ErrMax= 2.83D-02  0.00D+00 EMaxC= 1.00D+00 BMatC= 2.30D-01 BMatP= 2.03D-02
 IDIUse=1 WtCom= 1.00D+00 WtEn= 0.00D+00
 Coeff-Com:  0.930D+00 0.701D-01
 Coeff:      0.930D+00 0.701D-01
 Gap=     0.137 Goal=   None    Shift=    0.000
 Gap=     0.206 Goal=   None    Shift=    0.000
 RMSDP=1.69D-03 MaxDP=2.57D-02 DE= 2.74D-02 OVMax= 1.85D-01

 Cycle   3  Pass 1  IDiag  1:
 E= -579.694370218934     Delta-E=       -0.044395213994 Rises=F Damp=F
 DIIS: error= 3.08D-03 at cycle   3 NSaved=   3.
 NSaved= 3 IEnMin= 3 EnMin= -579.694370218934     IErMin= 3 ErrMin= 3.08D-03
 ErrMax= 3.08D-03  0.00D+00 EMaxC= 1.00D+00 BMatC= 1.48D-03 BMatP= 2.03D-02
 IDIUse=1 WtCom= 1.00D+00 WtEn= 0.00D+00
 Coeff-Com: -0.189D+00 0.128D-01 0.118D+01
 Coeff:     -0.189D+00 0.128D-01 0.118D+01
 Gap=     0.144 Goal=   None    Shift=    0.000
 Gap=     0.222 Goal=   None    Shift=    0.000
 RMSDP=7.61D-04 MaxDP=1.22D-02 DE=-4.44D-02 OVMax= 5.26D-02

 Cycle   4  Pass 1  IDiag  1:
 E= -579.696784668022     Delta-E=       -0.002414449087 Rises=F Damp=F
 DIIS: error= 1.42D-03 at cycle   4 NSaved=   4.
 NSaved= 4 IEnMin= 4 EnMin= -579.696784668022     IErMin= 4 ErrMin= 1.42D-03
 ErrMax= 1.42D-03  0.00D+00 EMaxC= 1.00D+00 BMatC= 1.60D-04 BMatP= 1.48D-03
 IDIUse=1 WtCom= 1.00D+00 WtEn= 0.00D+00
 Coeff-Com:  0.392D-02-0.583D-02-0.272D+00 0.127D+01
 Coeff:      0.392D-02-0.583D-02-0.272D+00 0.127D+01
 Gap=     0.144 Goal=   None    Shift=    0.000
 Gap=     0.225 Goal=   None    Shift=    0.000
 RMSDP=3.23D-04 MaxDP=4.69D-03 DE=-2.41D-03 OVMax= 2.74D-02

 Cycle   5  Pass 1  IDiag  1:
 E= -579.697138874216     Delta-E=       -0.000354206194 Rises=F Damp=F
 DIIS: error= 5.50D-04 at cycle   5 NSaved=   5.
 NSaved= 5 IEnMin= 5 EnMin= -579.697138874216     IErMin= 5 ErrMin= 5.50D-04
 ErrMax= 5.50D-04  0.00D+00 EMaxC= 1.00D+00 BMatC= 2.33D-05 BMatP= 1.60D-04
 IDIUse=1 WtCom= 1.00D+00 WtEn= 0.00D+00
 Coeff-Com:  0.146D-01 0.284D-03-0.119D+00-0.312D-01 0.114D+01
 Coeff:      0.146D-01 0.284D-03-0.119D+00-0.312D-01 0.114D+01
 Gap=     0.144 Goal=   None    Shift=    0.000
 Gap=     0.226 Goal=   None    Shift=    0.000
 RMSDP=1.36D-04 MaxDP=2.29D-03 DE=-3.54D-04 OVMax= 1.24D-02

 Cycle   6  Pass 1  IDiag  1:
 E= -579.697194018620     Delta-E=       -0.000055144404 Rises=F Damp=F
 DIIS: error= 1.84D-04 at cycle   6 NSaved=   6.
 NSaved= 6 IEnMin= 6 EnMin= -579.697194018620     IErMin= 6 ErrMin= 1.84D-04
 ErrMax= 1.84D-04  0.00D+00 EMaxC= 1.00D+00 BMatC= 3.94D-06 BMatP= 2.33D-05
 IDIUse=1 WtCom= 1.00D+00 WtEn= 0.00D+00
 Coeff-Com: -0.134D-02 0.907D-03 0.336D-01-0.103D+00-0.117D+00 0.119D+01
 Coeff:     -0.134D-02 0.907D-03 0.336D-01-0.103D+00-0.117D+00 0.119D+01
 Gap=     0.144 Goal=   None    Shift=    0.000
 Gap=     0.226 Goal=   None    Shift=    0.000
 RMSDP=6.03D-05 MaxDP=1.07D-03 DE=-5.51D-05 OVMax= 4.47D-03

 Cycle   7  Pass 1  IDiag  1:
 E= -579.697204864665     Delta-E=       -0.000010846045 Rises=F Damp=F
 DIIS: error= 6.71D-05 at cycle   7 NSaved=   7.
 NSaved= 7 IEnMin= 7 EnMin= -579.697204864665     IErMin= 7 ErrMin= 6.71D-05
 ErrMax= 6.71D-05  0.00D+00 EMaxC= 1.00D+00 BMatC= 1.32D-06 BMatP= 3.94D-06
 IDIUse=1 WtCom= 1.00D+00 WtEn= 0.00D+00
 Coeff-Com: -0.353D-02-0.104D-03 0.340D-01-0.176D-01-0.296D+00 0.204D+00
 Coeff-Com:  0.108D+01
 Coeff:     -0.353D-02-0.104D-03 0.340D-01-0.176D-01-0.296D+00 0.204D+00
 Coeff:      0.108D+01
 Gap=     0.144 Goal=   None    Shift=    0.000
 Gap=     0.226 Goal=   None    Shift=    0.000
 RMSDP=3.98D-05 MaxDP=7.48D-04 DE=-1.08D-05 OVMax= 2.49D-03

 Cycle   8  Pass 1  IDiag  1:
 E= -579.697208108030     Delta-E=       -0.000003243365 Rises=F Damp=F
 DIIS: error= 2.48D-05 at cycle   8 NSaved=   8.
 NSaved= 8 IEnMin= 8 EnMin= -579.697208108030     IErMin= 8 ErrMin= 2.48D-05
 ErrMax= 2.48D-05  0.00D+00 EMaxC= 1.00D+00 BMatC= 2.03D-07 BMatP= 1.32D-06
 IDIUse=1 WtCom= 1.00D+00 WtEn= 0.00D+00
 Coeff-Com:  0.465D-03-0.228D-03-0.902D-02 0.199D-01 0.416D-01-0.241D+00
 Coeff-Com: -0.127D+00 0.132D+01
 Coeff:      0.465D-03-0.228D-03-0.902D-02 0.199D-01 0.416D-01-0.241D+00
 Coeff:     -0.127D+00 0.132D+01
 Gap=     0.144 Goal=   None    Shift=    0.000
 Gap=     0.226 Goal=   None    Shift=    0.000
 RMSDP=2.01D-05 MaxDP=3.93D-04 DE=-3.24D-06 OVMax= 1.00D-03

 Cycle   9  Pass 1  IDiag  1:
 E= -579.697208660067     Delta-E=       -0.000000552037 Rises=F Damp=F
 DIIS: error= 8.12D-06 at cycle   9 NSaved=   9.
 NSaved= 9 IEnMin= 9 EnMin= -579.697208660067     IErMin= 9 ErrMin= 8.12D-06
 ErrMax= 8.12D-06  0.00D+00 EMaxC= 1.00D+00 BMatC= 2.05D-08 BMatP= 2.03D-07
 IDIUse=1 WtCom= 1.00D+00 WtEn= 0.00D+00
 Coeff-Com:  0.374D-03 0.755D-04-0.488D-02 0.808D-02 0.353D-01-0.385D-01
 Coeff-Com: -0.152D+00 0.775D-01 0.107D+01
 Coeff:      0.374D-03 0.755D-04-0.488D-02 0.808D-02 0.353D-01-0.385D-01
 Coeff:     -0.152D+00 0.775D-01 0.107D+01
 Gap=     0.144 Goal=   None    Shift=    0.000
 Gap=     0.226 Goal=   None    Shift=    0.000
 RMSDP=4.72D-06 MaxDP=1.21D-04 DE=-5.52D-07 OVMax= 2.44D-04

 Cycle  10  Pass 1  IDiag  1:
 E= -579.697208692801     Delta-E=       -0.000000032734 Rises=F Damp=F
 DIIS: error= 2.57D-06 at cycle  10 NSaved=  10.
 NSaved=10 IEnMin=10 EnMin= -579.697208692801     IErMin=10 ErrMin= 2.57D-06
 ErrMax= 2.57D-06  0.00D+00 EMaxC= 1.00D+00 BMatC= 1.59D-09 BMatP= 2.05D-08
 IDIUse=1 WtCom= 1.00D+00 WtEn= 0.00D+00
 Coeff-Com: -0.498D-04 0.476D-05 0.112D-02-0.278D-02-0.868D-02 0.262D-01
 Coeff-Com:  0.293D-01-0.102D+00-0.149D+00 0.121D+01
 Coeff:     -0.498D-04 0.476D-05 0.112D-02-0.278D-02-0.868D-02 0.262D-01
 Coeff:      0.293D-01-0.102D+00-0.149D+00 0.121D+01
 Gap=     0.144 Goal=   None    Shift=    0.000
 Gap=     0.226 Goal=   None    Shift=    0.000
 RMSDP=1.11D-06 MaxDP=2.09D-05 DE=-3.27D-08 OVMax= 7.10D-05

 Cycle  11  Pass 1  IDiag  1:
 E= -579.697208696327     Delta-E=       -0.000000003526 Rises=F Damp=F
 DIIS: error= 1.47D-06 at cycle  11 NSaved=  11.
 NSaved=11 IEnMin=11 EnMin= -579.697208696327     IErMin=11 ErrMin= 1.47D-06
 ErrMax= 1.47D-06  0.00D+00 EMaxC= 1.00D+00 BMatC= 4.11D-10 BMatP= 1.59D-09
 IDIUse=1 WtCom= 1.00D+00 WtEn= 0.00D+00
 Coeff-Com: -0.487D-04-0.132D-04 0.465D-03-0.574D-03-0.173D-02-0.775D-03
 Coeff-Com:  0.977D-02 0.141D-01-0.927D-01-0.178D+00 0.125D+01
 Coeff:     -0.487D-04-0.132D-04 0.465D-03-0.574D-03-0.173D-02-0.775D-03
 Coeff:      0.977D-02 0.141D-01-0.927D-01-0.178D+00 0.125D+01
 Gap=     0.144 Goal=   None    Shift=    0.000
 Gap=     0.226 Goal=   None    Shift=    0.000
 RMSDP=6.40D-07 MaxDP=1.32D-05 DE=-3.53D-09 OVMax= 4.18D-05

 Cycle  12  Pass 1  IDiag  1:
 E= -579.697208697501     Delta-E=       -0.000000001174 Rises=F Damp=F
 DIIS: error= 8.70D-07 at cycle  12 NSaved=  12.
 NSaved=12 IEnMin=12 EnMin= -579.697208697501     IErMin=12 ErrMin= 8.70D-07
 ErrMax= 8.70D-07  0.00D+00 EMaxC= 1.00D+00 BMatC= 1.21D-10 BMatP= 4.11D-10
 IDIUse=1 WtCom= 1.00D+00 WtEn= 0.00D+00
 Coeff-Com:  0.334D-04 0.443D-05-0.461D-03 0.927D-03 0.242D-02-0.736D-02
 Coeff-Com: -0.104D-01 0.273D-01 0.582D-01-0.303D+00-0.594D+00 0.183D+01
 Coeff:      0.334D-04 0.443D-05-0.461D-03 0.927D-03 0.242D-02-0.736D-02
 Coeff:     -0.104D-01 0.273D-01 0.582D-01-0.303D+00-0.594D+00 0.183D+01
 Gap=     0.144 Goal=   None    Shift=    0.000
 Gap=     0.226 Goal=   None    Shift=    0.000
 RMSDP=7.04D-07 MaxDP=1.52D-05 DE=-1.17D-09 OVMax= 5.00D-05

 Cycle  13  Pass 1  IDiag  1:
 E= -579.697208698040     Delta-E=       -0.000000000539 Rises=F Damp=F
 DIIS: error= 1.41D-07 at cycle  13 NSaved=  13.
 NSaved=13 IEnMin=13 EnMin= -579.697208698040     IErMin=13 ErrMin= 1.41D-07
 ErrMax= 1.41D-07  0.00D+00 EMaxC= 1.00D+00 BMatC= 6.71D-12 BMatP= 1.21D-10
 IDIUse=1 WtCom= 1.00D+00 WtEn= 0.00D+00
 Coeff-Com: -0.514D-07 0.221D-07 0.142D-04-0.273D-04-0.119D-03 0.938D-03
 Coeff-Com:  0.142D-03-0.315D-02-0.480D-02 0.782D-01-0.331D-02-0.366D+00
 Coeff-Com:  0.130D+01
 Coeff:     -0.514D-07 0.221D-07 0.142D-04-0.273D-04-0.119D-03 0.938D-03
 Coeff:      0.142D-03-0.315D-02-0.480D-02 0.782D-01-0.331D-02-0.366D+00
 Coeff:      0.130D+01
 Gap=     0.144 Goal=   None    Shift=    0.000
 Gap=     0.226 Goal=   None    Shift=    0.000
 RMSDP=1.31D-07 MaxDP=3.03D-06 DE=-5.39D-10 OVMax= 8.98D-06

 Cycle  14  Pass 1  IDiag  1:
 E= -579.697208698060     Delta-E=       -0.000000000019 Rises=F Damp=F
 DIIS: error= 3.22D-08 at cycle  14 NSaved=  14.
 NSaved=14 IEnMin=14 EnMin= -579.697208698060     IErMin=14 ErrMin= 3.22D-08
 ErrMax= 3.22D-08  0.00D+00 EMaxC= 1.00D+00 BMatC= 4.26D-13 BMatP= 6.71D-12
 IDIUse=1 WtCom= 1.00D+00 WtEn= 0.00D+00
 Coeff-Com: -0.262D-05-0.310D-06 0.323D-04-0.756D-04-0.156D-03 0.433D-03
 Coeff-Com:  0.600D-03-0.154D-02-0.373D-02 0.137D-01 0.307D-01-0.645D-01
 Coeff-Com: -0.225D+00 0.125D+01
 Coeff:     -0.262D-05-0.310D-06 0.323D-04-0.756D-04-0.156D-03 0.433D-03
 Coeff:      0.600D-03-0.154D-02-0.373D-02 0.137D-01 0.307D-01-0.645D-01
 Coeff:     -0.225D+00 0.125D+01
 Gap=     0.144 Goal=   None    Shift=    0.000
 Gap=     0.226 Goal=   None    Shift=    0.000
 RMSDP=3.06D-08 MaxDP=5.13D-07 DE=-1.93D-11 OVMax= 1.80D-06

 Cycle  15  Pass 1  IDiag  1:
 E= -579.697208698061     Delta-E=       -0.000000000001 Rises=F Damp=F
 DIIS: error= 8.99D-09 at cycle  15 NSaved=  15.
 NSaved=15 IEnMin=15 EnMin= -579.697208698061     IErMin=15 ErrMin= 8.99D-09
 ErrMax= 8.99D-09  0.00D+00 EMaxC= 1.00D+00 BMatC= 3.21D-14 BMatP= 4.26D-13
 IDIUse=1 WtCom= 1.00D+00 WtEn= 0.00D+00
 Coeff-Com:  0.378D-06 0.607D-07-0.576D-05 0.113D-04 0.214D-04-0.805D-04
 Coeff-Com: -0.159D-03 0.512D-03 0.642D-03-0.668D-02-0.694D-02 0.409D-01
 Coeff-Com: -0.896D-01-0.696D-01 0.113D+01
 Coeff:      0.378D-06 0.607D-07-0.576D-05 0.113D-04 0.214D-04-0.805D-04
 Coeff:     -0.159D-03 0.512D-03 0.642D-03-0.668D-02-0.694D-02 0.409D-01
 Coeff:     -0.896D-01-0.696D-01 0.113D+01
 Gap=     0.144 Goal=   None    Shift=    0.000
 Gap=     0.226 Goal=   None    Shift=    0.000
 RMSDP=5.57D-09 MaxDP=1.65D-07 DE=-1.14D-12 OVMax= 2.47D-07

 SCF Done:  E(UM062X) =  -579.697208698     A.U. after   15 cycles
            NFock= 15  Conv=0.56D-08     -V/T= 2.0016
 <Sx>= 0.0000 <Sy>= 0.0000 <Sz>= 0.5000 <S**2>= 0.7712 S= 0.5105
 <L.S>=  0.00000000000    
 KE= 5.787750397288D+02 PE=-1.460068229354D+03 EE= 2.588877303540D+02
 Annihilation of the first spin contaminant:
 S**2 before annihilation     0.7712,   after     0.7501
 Leave Link  502 at Mon Apr 21 20:34:05 2025, MaxMem=   536870912 cpu:             113.3 elap:              14.8
 (Enter /home/szhao/Apps/g16/l701.exe)
 ... and contract with generalized density number  0.
 Compute integral first derivatives.
 Leave Link  701 at Mon Apr 21 20:34:06 2025, MaxMem=   536870912 cpu:               1.4 elap:               0.3
 (Enter /home/szhao/Apps/g16/l702.exe)
 L702 exits ... SP integral derivatives will be done elsewhere.
 Leave Link  702 at Mon Apr 21 20:34:06 2025, MaxMem=   536870912 cpu:               0.6 elap:               0.1
 (Enter /home/szhao/Apps/g16/l703.exe)
 Integral derivatives from FoFJK, PRISM(SPDF).
 Compute integral first derivatives, UseDBF=F ICtDFT=           0.
 Calling FoFJK, ICntrl=      2127 FMM=F ISym2X=0 I1Cent= 0 IOpClX= 1 NMat=1 NMatS=1 NMatT=0.
 FoFJK:  IHMeth= 1 ICntrl=    2127 DoSepK=F KAlg= 0 I1Cent=           0 FoldK=F
 IRaf=         0 NMat=       1 IRICut=       1 DoRegI=T DoRafI=F ISym2E= 0 IDoP0=0 IntGTp=1.
 FoFCou: FMM=F IPFlag=           0 FMFlag=      100000 FMFlg1=         800
         NFxFlg=           0 DoJE=F BraDBF=F KetDBF=F FulRan=T
         wScrn=  0.000000 ICntrl=      2127 IOpCl=  1 I1Cent=           0 NGrid=           0
         NMat0=    1 NMatS0=      1 NMatT0=    0 NMatD0=    1 NMtDS0=    0 NMtDT0=    0
 Symmetry not used in FoFCou.
 Leave Link  703 at Mon Apr 21 20:34:08 2025, MaxMem=   536870912 cpu:              14.4 elap:               1.9
 (Enter /home/szhao/Apps/g16/l716.exe)
 Dipole        =-2.71228324D-03-1.45766645D-02-1.52258405D-10
 -------------------------------------------------------------------
 Center     Atomic                   Forces (Hartrees/Bohr)
 Number     Number              X              Y              Z
 -------------------------------------------------------------------
      1       14          -0.000000000   -0.000000000   -0.000000000
      2       14          -0.000000000   -0.000000000   -0.000000000
      3        1          -0.000454480    0.003910830   -0.000000000
      4        1          -0.001904957   -0.004614838    0.000000000
 -------------------------------------------------------------------
 Cartesian Forces:  Max     0.004614838 RMS     0.001835455
 Leave Link  716 at Mon Apr 21 20:34:09 2025, MaxMem=   536870912 cpu:               0.8 elap:               0.2
 (Enter /home/szhao/Apps/g16/l103.exe)

 GradGradGradGradGradGradGradGradGradGradGradGradGradGradGradGradGradGrad
 Berny optimization.
 Using GEDIIS/GDIIS optimizer.
 FormGI is forming the generalized inverse of G from B-inverse, IUseBI=4.
 Internal  Forces:  Max     0.004927003 RMS     0.002782269
 Search for a local minimum.
 Step number   3 out of a maximum of   21
 All quantities printed in internal units (Hartrees-Bohrs-Radians)
 RMS Force = .30640D-02 SwitMx=.10000D-02 MixMth= 1
 Mixed Optimization -- RFO/linear search
 Update second derivatives using D2CorX and points    2    3
 DE= -5.06D-03 DEPred=-5.23D-03 R= 9.69D-01
 TightC=F SS=  1.41D+00  RLast= 4.75D-01 DXNew= 8.4300D-01 1.4239D+00
 Trust test= 9.69D-01 RLast= 4.75D-01 DXMaxT set to 8.43D-01
 The second derivative matrix:
                          X1        Y1        Z1        X2        Y2
           X1           0.50284
           Y1          -0.00136   0.52605
           Z1           0.00000  -0.00000   0.50000
           X2          -0.00331  -0.00778  -0.00000   0.50730
           Y2           0.00253  -0.03021   0.00000   0.00774   0.53536
           Z2          -0.00000   0.00000  -0.00000   0.00000  -0.00000
           R1          -0.00529  -0.04345   0.00000   0.02309   0.04779
           R2          -0.00644  -0.05433   0.00000   0.02865   0.05981
           A1          -0.00668   0.01345  -0.00000   0.00400  -0.01765
           A2          -0.00803   0.00718  -0.00000   0.00812  -0.01096
[...]
 RMSDP=1.50D-08 MaxDP=3.31D-07 DE=-1.83D-11 OVMax= 5.45D-07

 Cycle   9  Pass 1  IDiag  1:
 E= -579.697536005440     Delta-E=       -0.000000000000 Rises=F Damp=F
 DIIS: error= 1.63D-08 at cycle   9 NSaved=   9.
 NSaved= 9 IEnMin= 9 EnMin= -579.697536005440     IErMin= 9 ErrMin= 1.63D-08
 ErrMax= 1.63D-08  0.00D+00 EMaxC= 1.00D-01 BMatC= 4.98D-14 BMatP= 4.69D-13
 IDIUse=1 WtCom= 1.00D+00 WtEn= 0.00D+00
 Coeff-Com: -0.112D-03 0.215D-02-0.600D-02-0.318D-02 0.166D-01 0.188D-01
 Coeff-Com: -0.116D+00-0.725D-01 0.116D+01
 Coeff:     -0.112D-03 0.215D-02-0.600D-02-0.318D-02 0.166D-01 0.188D-01
 Coeff:     -0.116D+00-0.725D-01 0.116D+01
 Gap=     0.145 Goal=   None    Shift=    0.000
 Gap=     0.226 Goal=   None    Shift=    0.000
 RMSDP=5.81D-09 MaxDP=1.14D-07 DE=-4.55D-13 OVMax= 3.50D-07

 SCF Done:  E(UM062X) =  -579.697536005     A.U. after    9 cycles
            NFock=  9  Conv=0.58D-08     -V/T= 2.0016
 <Sx>= 0.0000 <Sy>= 0.0000 <Sz>= 0.5000 <S**2>= 0.7713 S= 0.5106
 <L.S>=  0.00000000000    
 KE= 5.787997331823D+02 PE=-1.460297912147D+03 EE= 2.589907533389D+02
 Annihilation of the first spin contaminant:
 S**2 before annihilation     0.7713,   after     0.7501
 Leave Link  502 at Mon Apr 21 20:36:06 2025, MaxMem=   536870912 cpu:              73.9 elap:               9.7
 (Enter /home/szhao/Apps/g16/l701.exe)
 ... and contract with generalized density number  0.
 Compute integral first derivatives.
 Leave Link  701 at Mon Apr 21 20:36:06 2025, MaxMem=   536870912 cpu:               1.6 elap:               0.3
 (Enter /home/szhao/Apps/g16/l702.exe)
 L702 exits ... SP integral derivatives will be done elsewhere.
 Leave Link  702 at Mon Apr 21 20:36:07 2025, MaxMem=   536870912 cpu:               0.5 elap:               0.1
 (Enter /home/szhao/Apps/g16/l703.exe)
 Integral derivatives from FoFJK, PRISM(SPDF).
 Compute integral first derivatives, UseDBF=F ICtDFT=           0.
 Calling FoFJK, ICntrl=      2127 FMM=F ISym2X=0 I1Cent= 0 IOpClX= 1 NMat=1 NMatS=1 NMatT=0.
 FoFJK:  IHMeth= 1 ICntrl=    2127 DoSepK=F KAlg= 0 I1Cent=           0 FoldK=F
 IRaf=         0 NMat=       1 IRICut=       1 DoRegI=T DoRafI=F ISym2E= 0 IDoP0=0 IntGTp=1.
 FoFCou: FMM=F IPFlag=           0 FMFlag=      100000 FMFlg1=         800
         NFxFlg=           0 DoJE=F BraDBF=F KetDBF=F FulRan=T
         wScrn=  0.000000 ICntrl=      2127 IOpCl=  1 I1Cent=           0 NGrid=           0
         NMat0=    1 NMatS0=      1 NMatT0=    0 NMatD0=    1 NMtDS0=    0 NMtDT0=    0
 Symmetry not used in FoFCou.
 Leave Link  703 at Mon Apr 21 20:36:08 2025, MaxMem=   536870912 cpu:              12.5 elap:               1.6
 (Enter /home/szhao/Apps/g16/l716.exe)
 Dipole        = 1.24755248D-06 6.39649150D-06-1.92102064D-07
 -------------------------------------------------------------------
 Center     Atomic                   Forces (Hartrees/Bohr)
 Number     Number              X              Y              Z
 -------------------------------------------------------------------
      1       14          -0.000000000   -0.000000000   -0.000000000
      2       14          -0.000000000   -0.000000000   -0.000000000
      3        1           0.000000329    0.000000116   -0.000000001
      4        1           0.000000171    0.000001652   -0.000000001
 -------------------------------------------------------------------
 Cartesian Forces:  Max     0.000001652 RMS     0.000000490
 Leave Link  716 at Mon Apr 21 20:36:09 2025, MaxMem=   536870912 cpu:               0.9 elap:               0.2
 (Enter /home/szhao/Apps/g16/l103.exe)

 GradGradGradGradGradGradGradGradGradGradGradGradGradGradGradGradGradGrad
 Berny optimization.
 Using GEDIIS/GDIIS optimizer.
 FormGI is forming the generalized inverse of G from B-inverse, IUseBI=4.
 Internal  Forces:  Max     0.000001788 RMS     0.000000793
 Search for a local minimum.
 Step number  10 out of a maximum of   21
 All quantities printed in internal units (Hartrees-Bohrs-Radians)
 RMS Force = .84611D-06 SwitMx=.10000D-02 MixMth= 2
 Mixed Optimization -- En-DIIS/RFO-DIIS
 Swapping is turned off.
 Update second derivatives using D2CorX and points    2    3    4    5    6
                                                      7    8    9   10
 DE= -8.02D-08 DEPred=-7.91D-08 R= 1.01D+00
 Trust test= 1.01D+00 RLast= 1.93D-03 DXMaxT set to 8.43D-01
 The second derivative matrix:
                          X1        Y1        Z1        X2        Y2
           X1           0.50423
           Y1           0.00411   0.56795
           Z1          -0.00000  -0.00000   0.50000
           X2          -0.00220  -0.00684   0.00000   0.50381
           Y2          -0.00545  -0.08752   0.00000   0.00819   0.61293
           Z2           0.00000  -0.00000   0.00000   0.00000   0.00000
           R1          -0.00709  -0.06738   0.00000   0.00996   0.08605
           R2          -0.00888  -0.08325   0.00000   0.01108   0.10733
           A1          -0.01020   0.00777  -0.00000   0.00343  -0.00944
           A2          -0.00462   0.00748   0.00000   0.00869  -0.01157
           D1          -0.00000  -0.00000   0.00000   0.00000   0.00000
                          Z2        R1        R2        A1        A2
           Z2           0.50000
           R1           0.00000   0.17598
           R2           0.00000   0.00067   0.17554
           A1          -0.00000   0.00105  -0.00038   0.02969
           A2           0.00000  -0.00098   0.00120   0.01263   0.02952
           D1           0.00000   0.00000   0.00000  -0.00000   0.00000
                          D1
           D1           0.00230
 ITU=  0  1  1  1  1  1  1  1  1  0
     Eigenvalues ---    0.00230   0.01695   0.04223   0.17508   0.17647
     Eigenvalues --- 1000.000001000.000001000.000001000.000001000.00000
     Eigenvalues --- 1000.00000
 En-DIIS/RFO-DIIS/Sim-DIIS IScMMF=       -3 using points:    10    9    8
 RFO step:  Lambda=-2.28689523D-11.
 NNeg= 0 NGDIIS= 3 SimSw=  2.50D-01 Rises=F DC= -8.02D-08 SmlDif=  1.00D-05
 NRisDI= 0 DoIntr=F SqrtH=F CThrHd= 10.0 CDAdj=  3.0
 RMS Error=  0.1199423367D-04 NUsed= 3 OKEnD=F EnDIS=F
 InvSVX:  RCond= 6.17D-07 Info=           0 Equed=N FErr=  1.16D-15 BErr=  6.99D-17
 DidBck=F Rises=F RFO-DIIS coefs:    1.01876   -0.01990    0.00114
 Iteration  1 RMS(Cart)=  0.00003337 RMS(Int)=  0.00000000
 Iteration  2 RMS(Cart)=  0.00000000 RMS(Int)=  0.00000000
 ITry= 1 IFail=0 DXMaxC= 1.02D-04 DCOld= 1.00D+10 DXMaxT= 8.43D-01 DXLimC= 3.00D+00 Rises=F
 Variable       Old X    -DE/DX   Delta X   Delta X   Delta X     New X
                                 (Linear)    (Quad)   (Total)
    X1       -3.35988   0.00000  -0.00000   0.00000   0.00000  -3.35988
    Y1        0.00000  -0.00000   0.00000   0.00000   0.00000   0.00000
    Z1        0.00000  -0.00000   0.00000   0.00000   0.00000   0.00000
    X2        3.35988   0.00000   0.00000   0.00000   0.00000   3.35988
    Y2        0.00000   0.00000   0.00000   0.00000   0.00000   0.00000
    Z2        0.00000  -0.00000   0.00000   0.00000   0.00000   0.00000
    R1        2.84601  -0.00000   0.00000  -0.00001  -0.00000   2.84601
    R2        2.84600   0.00000   0.00001   0.00000   0.00001   2.84601
    A1        1.67923  -0.00000  -0.00003  -0.00000  -0.00004   1.67920
    A2        1.67918  -0.00000   0.00002  -0.00000   0.00001   1.67920
    D1        3.14159  -0.00000  -0.00000  -0.00000  -0.00000   3.14159
         Item               Value     Threshold  Converged?
 Maximum Force            0.000002     0.000450     YES
 RMS     Force            0.000001     0.000300     YES
 Maximum Displacement     0.000102     0.001800     YES
 RMS     Displacement     0.000033     0.001200     YES
 Predicted change in Energy=-2.366297D-11
 Optimization completed.
    -- Stationary point found.
                           ----------------------------
                           !   Optimized Parameters   !
                           ! (Angstroms and Degrees)  !
 --------------------------                            --------------------------
 ! Name  Definition              Value          Derivative Info.                !
 --------------------------------------------------------------------------------
 ! X1    R(1,-1)                -1.778          -DE/DX =    0.0                 !
 ! Y1    R(1,-2)                 0.0            -DE/DX =    0.0                 !
 ! Z1    R(1,-3)                 0.0            -DE/DX =    0.0                 !
 ! X2    R(2,-1)                 1.778          -DE/DX =    0.0                 !
 ! Y2    R(2,-2)                 0.0            -DE/DX =    0.0                 !
 ! Z2    R(2,-3)                 0.0            -DE/DX =    0.0                 !
 ! R1    R(1,3)                  1.506          -DE/DX =    0.0                 !
 ! R2    R(2,4)                  1.506          -DE/DX =    0.0                 !
 ! A1    A(2,1,3)               96.2131         -DE/DX =    0.0                 !
 ! A2    A(1,2,4)               96.2101         -DE/DX =    0.0                 !
 ! D1    D(3,1,2,4)            179.9999         -DE/DX =    0.0                 !
 --------------------------------------------------------------------------------
 Lowest energy point so far.  Saving SCF results.
 Largest change from initial coordinates is atom    4       0.912 Angstoms.
 GradGradGradGradGradGradGradGradGradGradGradGradGradGradGradGradGradGrad

 Leave Link  103 at Mon Apr 21 20:36:09 2025, MaxMem=   536870912 cpu:               0.8 elap:               0.2
 (Enter /home/szhao/Apps/g16/l202.exe)
                          Input orientation:                          
 ---------------------------------------------------------------------
 Center     Atomic      Atomic             Coordinates (Angstroms)
 Number     Number       Type             X           Y           Z
 ---------------------------------------------------------------------
      1         14           0       -1.777975    0.000000    0.000000
      2         14           0        1.777975    0.000000    0.000000
      3          1           0       -1.940968   -1.497200   -0.000001
      4          1           0        1.940889    1.497203   -0.000001
 ---------------------------------------------------------------------
                    Distance matrix (angstroms):
                    1          2          3          4
     1  Si   0.000000
     2  Si   3.555949   0.000000
     3  H    1.506046   4.009008   0.000000
     4  H    4.008936   1.506041   4.902578   0.000000
 Symmetry turned off by external request.
 Stoichiometry    H2Si2(1+,2)
 Framework group  C1[X(H2Si2)]
 Deg. of freedom     6
 Full point group                 C1      NOp   1
 Rotational constants (GHZ):         116.7735159           2.7367373           2.6740671
 Leave Link  202 at Mon Apr 21 20:36:09 2025, MaxMem=   536870912 cpu:               0.6 elap:               0.1
 (Enter /home/szhao/Apps/g16/l601.exe)
 Copying SCF densities to generalized density rwf, IOpCl= 1 IROHF=0.

 **********************************************************************

            Population analysis using the SCF density.

 **********************************************************************

 Alpha  occ. eigenvalues --  -67.27126 -67.27125  -5.81295  -5.81294  -4.12404
 Alpha  occ. eigenvalues --   -4.12403  -4.12328  -4.12328  -4.11668  -4.11668
 Alpha  occ. eigenvalues --   -0.77006  -0.75361  -0.53354  -0.52931  -0.43546
 Alpha virt. eigenvalues --   -0.29077  -0.26836  -0.26824  -0.11646  -0.10180
 Alpha virt. eigenvalues --   -0.08927  -0.08621  -0.08143  -0.07241  -0.05742
 Alpha virt. eigenvalues --   -0.05715  -0.05577  -0.02944   0.12569   0.14131
 Alpha virt. eigenvalues --    0.14166   0.15818   0.16781   0.17613   0.20037
 Alpha virt. eigenvalues --    0.25018   0.27116   0.30477   0.38111   0.38131
 Alpha virt. eigenvalues --    0.38286   0.38483   0.39055   0.39187   0.39894
 Alpha virt. eigenvalues --    0.48141   0.63093   0.64104   0.98588   1.00565
 Alpha virt. eigenvalues --    1.01233   1.01639   1.02459   1.04850   1.28485
 Alpha virt. eigenvalues --    1.28946   1.29053   1.30677   1.77635   1.77980
 Alpha virt. eigenvalues --    2.41376   2.43080   5.20065   5.26598  11.18167
 Alpha virt. eigenvalues --   11.20120  11.21340  11.23553  11.28616  11.28910
 Alpha virt. eigenvalues --  140.74275 140.82695
  Beta  occ. eigenvalues --  -67.26860 -67.26860  -5.81209  -5.81207  -4.12261
  Beta  occ. eigenvalues --   -4.12261  -4.11729  -4.11729  -4.11519  -4.11519
  Beta  occ. eigenvalues --   -0.75009  -0.73632  -0.52869  -0.51704
  Beta virt. eigenvalues --   -0.29095  -0.28602  -0.26276  -0.22018  -0.13016
  Beta virt. eigenvalues --   -0.10339  -0.08905  -0.08873  -0.08243  -0.06915
  Beta virt. eigenvalues --   -0.05635  -0.05457  -0.05348  -0.02680   0.11376
  Beta virt. eigenvalues --    0.12372   0.12511   0.15422   0.16048   0.16265
  Beta virt. eigenvalues --    0.19500   0.24840   0.27137   0.30853   0.39425
  Beta virt. eigenvalues --    0.39426   0.41086   0.41605   0.42279   0.42981
  Beta virt. eigenvalues --    0.43178   0.49727   0.64172   0.65218   0.99167
  Beta virt. eigenvalues --    1.00638   1.00784   1.02376   1.02406   1.07018
  Beta virt. eigenvalues --    1.29317   1.29378   1.29419   1.31583   1.78579
  Beta virt. eigenvalues --    1.78943   2.41836   2.43620   5.21067   5.27523
  Beta virt. eigenvalues --   11.20189  11.20508  11.21758  11.25781  11.29046
  Beta virt. eigenvalues --   11.29472 140.74733 140.83150
          Condensed to atoms (all electrons):
               1          2          3          4
     1  Si  13.086350   0.112823   0.228903  -0.001703
     2  Si   0.112823  13.086345  -0.001702   0.228900
     3  H    0.228903  -0.001702   0.846145   0.000284
     4  H   -0.001703   0.228900   0.000284   0.846151
          Atomic-Atomic Spin Densities.
               1          2          3          4
     1  Si   0.424363   0.086958   0.000586  -0.001158
     2  Si   0.086958   0.424351  -0.001158   0.000586
     3  H    0.000586  -0.001158  -0.010180   0.000009
     4  H   -0.001158   0.000586   0.000009  -0.010180
 Mulliken charges and spin densities:
               1          2
     1  Si   0.573627   0.510749
     2  Si   0.573635   0.510737
     3  H   -0.073630  -0.010743
     4  H   -0.073632  -0.010743
 Sum of Mulliken charges =   1.00000   1.00000
 Mulliken charges and spin densities with hydrogens summed into heavy atoms:
               1          2
     1  Si   0.499997   0.500006
     2  Si   0.500003   0.499994
 Electronic spatial extent (au):  <R**2>=            397.2395
 Charge=              1.0000 electrons
 Dipole moment (field-independent basis, Debye):
    X=              0.0000    Y=              0.0000    Z=             -0.0000  Tot=              0.0000
 Quadrupole moment (field-independent basis, Debye-Ang):
   XX=             -4.3619   YY=            -27.3466   ZZ=            -19.7209
   XY=              1.8221   XZ=             -0.0000   YZ=              0.0000
 Traceless Quadrupole moment (field-independent basis, Debye-Ang):
   XX=             12.7812   YY=            -10.2035   ZZ=             -2.5778
   XY=              1.8221   XZ=             -0.0000   YZ=              0.0000
 Octapole moment (field-independent basis, Debye-Ang**2):
  XXX=              0.0003  YYY=             -0.0000  ZZZ=              0.0000  XYY=              0.0001
  XXY=              0.0004  XXZ=             -0.0000  XZZ=              0.0001  YZZ=              0.0000
  YYZ=              0.0000  XYZ=              0.0000
 Hexadecapole moment (field-independent basis, Debye-Ang**3):
 XXXX=           -405.6233 YYYY=            -72.3514 ZZZZ=            -24.7053 XXXY=             -6.3450
 XXXZ=              0.0000 YYYX=            -14.9586 YYYZ=              0.0000 ZZZX=              0.0000
 ZZZY=              0.0000 XXYY=           -104.2226 XXZZ=            -70.6596 YYZZ=            -16.2955
 XXYZ=              0.0000 YYXZ=              0.0000 ZZXY=             -3.1623
 N-N= 4.280988962048D+01 E-N=-1.460297912146D+03  KE= 5.787997331823D+02
                          Isotropic Fermi Contact Couplings
        Atom                 a.u.       MegaHertz       Gauss      10(-4) cm-1
     1  Si(29)             0.03965     -35.23500     -12.57272     -11.75313
     2  Si(29)             0.03964     -35.23002     -12.57095     -11.75147
     3  H(1)              -0.00243     -10.85271      -3.87252      -3.62008
     4  H(1)              -0.00243     -10.85296      -3.87261      -3.62016
 --------------------------------------------------------
       Center         ----  Spin Dipole Couplings  ----
                      3XX-RR        3YY-RR        3ZZ-RR
 --------------------------------------------------------
     1   Atom        0.867181     -0.360956     -0.506224
     2   Atom        0.867221     -0.361008     -0.506214
     3   Atom        0.004593      0.008730     -0.013323
     4   Atom        0.004593      0.008730     -0.013323
 --------------------------------------------------------
                        XY            XZ            YZ
 --------------------------------------------------------
     1   Atom       -0.527245     -0.000000      0.000000
     2   Atom       -0.527160      0.000000     -0.000000
     3   Atom        0.001739     -0.000000      0.000000
     4   Atom        0.001739      0.000000     -0.000000
 --------------------------------------------------------


 ---------------------------------------------------------------------------------
              Anisotropic Spin Dipole Couplings in Principal Axis System
 ---------------------------------------------------------------------------------

       Atom             a.u.   MegaHertz   Gauss  10(-4) cm-1        Axes

              Baa    -0.5562    59.009    21.056    19.683  0.3473  0.9377  0.0000
     1 Si(29) Bbb    -0.5062    53.702    19.162    17.913  0.0000 -0.0000  1.0000
              Bcc     1.0625  -112.712   -40.218   -37.597  0.9377 -0.3473 -0.0000
 
              Baa    -0.5562    59.008    21.055    19.683  0.3473  0.9378 -0.0000
     2 Si(29) Bbb    -0.5062    53.701    19.162    17.913 -0.0000  0.0000  1.0000
              Bcc     1.0624  -112.709   -40.217   -37.596  0.9378 -0.3473  0.0000
 
              Baa    -0.0133    -7.109    -2.537    -2.371  0.0000 -0.0000  1.0000
     3 H(1)   Bbb     0.0040     2.112     0.754     0.705  0.9395 -0.3425 -0.0000
              Bcc     0.0094     4.996     1.783     1.667  0.3425  0.9395  0.0000
 
              Baa    -0.0133    -7.109    -2.537    -2.371 -0.0000  0.0000  1.0000
     4 H(1)   Bbb     0.0040     2.112     0.754     0.705  0.9396 -0.3424  0.0000
              Bcc     0.0094     4.996     1.783     1.667  0.3424  0.9396 -0.0000
 

 ---------------------------------------------------------------------------------

 No NMR shielding tensors so no spin-rotation constants.
 Leave Link  601 at Mon Apr 21 20:36:10 2025, MaxMem=   536870912 cpu:               3.0 elap:               0.6
 (Enter /home/szhao/Apps/g16/l9999.exe)
 1\1\GINC-NODE03\FOpt\UM062X\6-311+G(d,p)\H2Si2(1+,2)\SZHAO\21-Apr-2025
 \0\\#p opt UM062X/6-311+G** nosymm int=superfine\\Title Card Required\
 \1,2\Si,-1.77797457,0.,0.\Si,1.77797457,0.,0.\H,-1.9409679291,-1.49720
 01506,-0.0000006932\H,1.9408894741,1.4972034527,-0.0000007042\\Version
 =ES64L-G16RevA.03\HF=-579.697536\S2=0.771289\S2-1=0.\S2A=0.750077\RMSD
 =5.811e-09\RMSF=4.898e-07\Dipole=0.0000062,0.0000062,-0.0000001\Quadru
 pole=9.5025427,-7.5860295,-1.9165132,1.3546802,0.,0.\PG=C01 [X(H2Si2)]
 \\@


 IF OTHER PEOPLE ARE GOING TO TALK, CONVERSATION IS SIMPLY IMPOSSIBLE.

                                               -- WHISTLER'S PRINCIPLE
 Job cpu time:       0 days  0 hours 19 minutes 28.3 seconds.
 Elapsed time:       0 days  0 hours  2 minutes 41.2 seconds.
 File lengths (MBytes):  RWF=     22 Int=      0 D2E=      0 Chk=      2 Scr=      2
 Normal termination of Gaussian 16 at Mon Apr 21 20:36:11 2025.
