 Entering Gaussian System, Link 0=g16
 Initial command:
 /home/szhao/Apps/g16/l1.exe "/home/szhao/tmp/Gau-68543.inp" -scrdir="/home/szhao/tmp/"
 Default is to use a total of  16 processors:
                               16 via shared-memory
                                1 via Linda
 Entering Link 1 = /home/szhao/Apps/g16/l1.exe PID=     68545.
  
 Copyright (c) 1988,1990,1992,1993,1995,1998,2003,2009,2016,
            Gaussian, Inc.  All Rights Reserved.
  
 This is part of the Gaussian(R) 16 program.  It is based on
 the Gaussian(R) 09 system (copyright 2009, Gaussian, Inc.),
 the Gaussian(R) 03 system (copyright 2003, Gaussian, Inc.),
 the Gaussian(R) 98 system (copyright 1998, Gaussian, Inc.),
 the Gaussian(R) 94 system (copyright 1995, Gaussian, Inc.),
 the Gaussian 92(TM) system (copyright 1992, Gaussian, Inc.),
 the Gaussian 90(TM) system (copyright 1990, Gaussian, Inc.),
 the Gaussian 88(TM) system (copyright 1988, Gaussian, Inc.),
 the Gaussian 86(TM) system (copyright 1986, Carnegie Mellon
 University), and the Gaussian 82(TM) system (copyright 1983,
 Carnegie Mellon University). Gaussian is a federally registered
 trademark of Gaussian, Inc.
  
 This software contains proprietary and confidential information,
 including trade secrets, belonging to Gaussian, Inc.
  
 This software is provided under written license and may be
 used, copied, transmitted, or stored only in accord with that
 written license.
  
 The following legend is applicable only to US Government
 contracts under FAR:
  
                    RESTRICTED RIGHTS LEGEND
  
 Use, reproduction and disclosure by the US Government is
 subject to restrictions as set forth in subparagraphs (a)
 and (c) of the Commercial Computer Software - Restricted
 Rights clause in FAR 52.227-19.
  
 Gaussian, Inc.
 340 Quinnipiac St., Bldg. 40, Wallingford CT 06492
  
  
 ---------------------------------------------------------------
 Warning -- This program may not be used in any manner that
 competes with the business of Gaussian, Inc. or will provide
 assistance to any competitor of Gaussian, Inc.  The licensee
 of this program is prohibited from giving any competitor of
 Gaussian, Inc. access to this program.  By using this program,
 the user acknowledges that Gaussian, Inc. is engaged in the
 business of creating and licensing software in the field of
 computational chemistry and represents and warrants to the
 licensee that it is not a competitor of Gaussian, Inc. and that
 it will not use this program in any manner prohibited above.
 ---------------------------------------------------------------
  

 Cite this work as:
 Gaussian 16, Revision A.03,
 M. J. Frisch, G. W. Trucks, H. B. Schlegel, G. E. Scuseria, 
 M. A. Robb, J. R. Cheeseman, G. Scalmani, V. Barone, 
 G. A. Petersson, H. Nakatsuji, X. Li, M. Caricato, A. V. Marenich, 
 J. Bloino, B. G. Janesko, R. Gomperts, B. Mennucci, H. P. Hratchian, 
 J. V. Ortiz, A. F. Izmaylov, J. L. Sonnenberg, D. Williams-Young, 
 F. Ding, F. Lipparini, F. Egidi, J. Goings, B. Peng, A. Petrone, 
 T. Henderson, D. Ranasinghe, V. G. Zakrzewski, J. Gao, N. Rega, 
 G. Zheng, W. Liang, M. Hada, M. Ehara, K. Toyota, R. Fukuda, 
 J. Hasegawa, M. Ishida, T. Nakajima, Y. Honda, O. Kitao, H. Nakai, 
 T. Vreven, K. Throssell, J. A. Montgomery, Jr., J. E. Peralta, 
 F. Ogliaro, M. J. Bearpark, J. J. Heyd, E. N. Brothers, K. N. Kudin, 
 V. N. Staroverov, T. A. Keith, R. Kobayashi, J. Normand, 
 K. Raghavachari, A. P. Rendell, J. C. Burant, S. S. Iyengar, 
 J. Tomasi, M. Cossi, J. M. Millam, M. Klene, C. Adamo, R. Cammi, 
 J. W. Ochterski, R. L. Martin, K. Morokuma, O. Farkas, 
 J. B. Foresman, and D. J. Fox, Gaussian, Inc., Wallingford CT, 2016.
 
 ******************************************
 Gaussian 16:  ES64L-G16RevA.03 25-Dec-2016
                19-Nov-2024 
 ******************************************
 %chk=opt.chk
 %mem=4GB
 %nprocshared=8
 Will use up to    8 processors via shared memory.
 ---------------------------------------
 #p UM062X/6-311+G** force int=superfine
 ---------------------------------------
 1/10=7,30=1,38=1/1,3;
 2/12=2,17=6,18=5,40=1/2;
 3/5=4,6=6,7=111,11=2,25=1,30=1,71=1,74=-55,75=-7,116=2/1,2,3;
 4//1;
 5/5=2,38=5/2;
 6/7=2,8=2,9=2,10=2,28=1/1;
 7/29=1/1,2,3,16;
 1/10=7,30=1/3;
 99//99;
 Leave Link    1 at Tue Nov 19 11:54:03 2024, MaxMem=   536870912 cpu:               0.3 elap:               0.0
 (Enter /home/szhao/Apps/g16/l101.exe)
 -------------------
 Title Card Required
 -------------------
 Symbolic Z-matrix:
 Charge =  1 Multiplicity = 2
 C                    -0.70689   0.        0. 
 C                     0.70689   0.        0. 
 H                    -1.26092  -0.93462   0. 
 H                    -1.26046   0.93491   0. 
 H                     1.26092   0.93462   0. 
 H                     1.26046  -0.93491   0. 
 
 ITRead=  0  0  0  0  0  0
 MicOpt= -1 -1 -1 -1 -1 -1
 NAtoms=      6 NQM=        6 NQMF=       0 NMMI=      0 NMMIF=      0
                NMic=       0 NMicF=      0.
                    Isotopes and Nuclear Properties:
 (Nuclear quadrupole moments (NQMom) in fm**2, nuclear magnetic moments (NMagM)
  in nuclear magnetons)

  Atom         1           2           3           4           5           6
 IAtWgt=          12          12           1           1           1           1
 AtmWgt=  12.0000000  12.0000000   1.0078250   1.0078250   1.0078250   1.0078250
 NucSpn=           0           0           1           1           1           1
 AtZEff=  -0.0000000  -0.0000000  -0.0000000  -0.0000000  -0.0000000  -0.0000000
 NQMom=    0.0000000   0.0000000   0.0000000   0.0000000   0.0000000   0.0000000
 NMagM=    0.0000000   0.0000000   2.7928460   2.7928460   2.7928460   2.7928460
 AtZNuc=   6.0000000   6.0000000   1.0000000   1.0000000   1.0000000   1.0000000
 Leave Link  101 at Tue Nov 19 11:54:03 2024, MaxMem=   536870912 cpu:               1.2 elap:               0.2
 (Enter /home/szhao/Apps/g16/l103.exe)

 GradGradGradGradGradGradGradGradGradGradGradGradGradGradGradGradGradGrad
 Berny optimization.
 Initialization pass.
 Trust Radius=3.00D-01 FncErr=1.00D-07 GrdErr=1.00D-07 EigMax=2.50D+02 EigMin=1.00D-04
 Number of steps in this run=      2 maximum allowed number of steps=      2.
 GradGradGradGradGradGradGradGradGradGradGradGradGradGradGradGradGradGrad

 Leave Link  103 at Tue Nov 19 11:54:03 2024, MaxMem=   536870912 cpu:               0.2 elap:               0.0
 (Enter /home/szhao/Apps/g16/l202.exe)
                          Input orientation:                          
 ---------------------------------------------------------------------
 Center     Atomic      Atomic             Coordinates (Angstroms)
 Number     Number       Type             X           Y           Z
 ---------------------------------------------------------------------
      1          6           0       -0.706892    0.000000    0.000000
      2          6           0        0.706892    0.000000    0.000000
      3          1           0       -1.260922   -0.934615    0.000000
      4          1           0       -1.260455    0.934914    0.000000
      5          1           0        1.260922    0.934615    0.000000
      6          1           0        1.260455   -0.934914    0.000000
 ---------------------------------------------------------------------
                    Distance matrix (angstroms):
                    1          2          3          4          5
     1  C    0.000000
     2  C    1.413784   0.000000
     3  H    1.086487   2.178485   0.000000
     4  H    1.086506   2.178192   1.869529   0.000000
     5  H    2.178485   1.086487   3.139063   2.521377   0.000000
     6  H    2.178192   1.086506   2.521377   3.138669   1.869529
                    6
     6  H    0.000000
 Stoichiometry    C2H4(1+,2)
 Framework group  C2H[SGH(C2H4)]
 Deg. of freedom     5
 Full point group                 C2H     NOp   4
 Largest Abelian subgroup         C2H     NOp   4
 Largest concise Abelian subgroup C2      NOp   2
                         Standard orientation:                         
 ---------------------------------------------------------------------
 Center     Atomic      Atomic             Coordinates (Angstroms)
 Number     Number       Type             X           Y           Z
 ---------------------------------------------------------------------
      1          6           0        0.000000    0.706892    0.000000
      2          6           0       -0.000000   -0.706892    0.000000
      3          1           0        0.934615    1.260922   -0.000000
      4          1           0       -0.934914    1.260455    0.000000
      5          1           0       -0.934615   -1.260922    0.000000
      6          1           0        0.934914   -1.260455   -0.000000
 ---------------------------------------------------------------------
 Rotational constants (GHZ):         143.4721587          27.4665493          23.0532053
 Leave Link  202 at Tue Nov 19 11:54:03 2024, MaxMem=   536870912 cpu:               0.0 elap:               0.0
 (Enter /home/szhao/Apps/g16/l301.exe)
 Standard basis: 6-311+G(d,p) (5D, 7F)
 Ernie: Thresh=  0.10000D-02 Tol=  0.10000D-05 Strict=F.
 There are    27 symmetry adapted cartesian basis functions of AG  symmetry.
 There are     8 symmetry adapted cartesian basis functions of BG  symmetry.
 There are     8 symmetry adapted cartesian basis functions of AU  symmetry.
 There are    27 symmetry adapted cartesian basis functions of BU  symmetry.
 There are    26 symmetry adapted basis functions of AG  symmetry.
 There are     8 symmetry adapted basis functions of BG  symmetry.
 There are     8 symmetry adapted basis functions of AU  symmetry.
 There are    26 symmetry adapted basis functions of BU  symmetry.
    68 basis functions,   104 primitive gaussians,    70 cartesian basis functions
     8 alpha electrons        7 beta electrons
       nuclear repulsion energy        32.3172077380 Hartrees.
 IExCor= 4336 DFT=T Ex+Corr=M062X ExCW=0 ScaHFX=  0.540000
 ScaDFX=  1.000000  1.000000  1.000000  1.000000 ScalE2=  1.000000  1.000000
 IRadAn=      7 IRanWt=     -1 IRanGd=            0 ICorTp=0 IEmpDi=  4
 NAtoms=    6 NActive=    6 NUniq=    3 SFac= 4.00D+00 NAtFMM=   60 NAOKFM=F Big=F
 Integral buffers will be    131072 words long.
 Raffenetti 2 integral format.
 Two-electron integral symmetry is turned on.
 Leave Link  301 at Tue Nov 19 11:54:03 2024, MaxMem=   536870912 cpu:               0.3 elap:               0.0
 (Enter /home/szhao/Apps/g16/l302.exe)
 NPDir=0 NMtPBC=     1 NCelOv=     1 NCel=       1 NClECP=     1 NCelD=      1
         NCelK=      1 NCelE2=     1 NClLst=     1 CellRange=     0.0.
 One-electron integrals computed using PRISM.
 One-electron integral symmetry used in STVInt
 NBasis=    68 RedAO= T EigKep=  2.05D-04  NBF=    26     8     8    26
 NBsUse=    68 1.00D-06 EigRej= -1.00D+00 NBFU=    26     8     8    26
 Precomputing XC quadrature grid using
 IXCGrd= 4 IRadAn=           7 IRanWt=          -1 IRanGd=           0 AccXCQ= 0.00D+00.
 Generated NRdTot=       0 NPtTot=           0 NUsed=           0 NTot=          32
 NSgBfM=    70    70    70    70    70 MxSgAt=     6 MxSgA2=     6.
 Leave Link  302 at Tue Nov 19 11:54:03 2024, MaxMem=   536870912 cpu:               1.0 elap:               0.1
 (Enter /home/szhao/Apps/g16/l303.exe)
 DipDrv:  MaxL=1.
 Leave Link  303 at Tue Nov 19 11:54:03 2024, MaxMem=   536870912 cpu:               0.2 elap:               0.0
 (Enter /home/szhao/Apps/g16/l401.exe)
 ExpMin= 4.38D-02 ExpMax= 4.56D+03 ExpMxC= 6.82D+02 IAcc=3 IRadAn=         7 AccDes= 0.00D+00
 Harris functional with IExCor= 1009 and IRadAn=       7 diagonalized for initial guess.
 HarFok:  IExCor= 1009 AccDes= 0.00D+00 IRadAn=         7 IDoV= 1 UseB2=F ITyADJ=14
 ICtDFT=  3500011 ScaDFX=  1.000000  1.000000  1.000000  1.000000
 FoFCou: FMM=F IPFlag=           0 FMFlag=      100000 FMFlg1=           0
         NFxFlg=           0 DoJE=T BraDBF=F KetDBF=T FulRan=T
         wScrn=  0.000000 ICntrl=       500 IOpCl=  0 I1Cent=   200000004 NGrid=           0
         NMat0=    1 NMatS0=      1 NMatT0=    0 NMatD0=    1 NMtDS0=    0 NMtDT0=    0
 Petite list used in FoFCou.
 Harris En= -78.1942150228838    
 JPrj=0 DoOrth=F DoCkMO=F.
 Initial guess orbital symmetries:
 Alpha Orbitals:
       Occupied  (AG) (BU) (AG) (BU) (BU) (AG) (AG) (AU)
       Virtual   (BG) (AG) (BU) (BU) (AU) (AG) (AG) (AG) (BG) (BU)
                 (BU) (BU) (BU) (AG) (BU) (AG) (BU) (AG) (AU) (BG)
                 (BU) (BU) (AG) (AG) (AG) (BU) (BG) (AU) (AU) (AG)
                 (BU) (AG) (AG) (BU) (BU) (BG) (AU) (BG) (BU) (AG)
                 (BG) (AG) (AU) (BU) (AG) (BU) (BU) (AG) (AG) (AU)
                 (BU) (BU) (BG) (AG) (AG) (BU) (AG) (BU) (AG) (BU)
 Beta  Orbitals:
       Occupied  (AG) (BU) (AG) (BU) (BU) (AG) (AG)
       Virtual   (AU) (BG) (AG) (BU) (BU) (AU) (AG) (AG) (AG) (BG)
                 (BU) (BU) (BU) (BU) (AG) (BU) (AG) (BU) (AG) (AU)
                 (BG) (BU) (BU) (AG) (AG) (AG) (BU) (BG) (AU) (AU)
                 (AG) (BU) (AG) (AG) (BU) (BU) (BG) (AU) (BG) (BU)
                 (AG) (BG) (AG) (AU) (BU) (AG) (BU) (BU) (AG) (AG)
                 (AU) (BU) (BU) (BG) (AG) (AG) (BU) (AG) (BU) (AG)
                 (BU)
 The electronic state of the initial guess is 2-AU.
 Initial guess <Sx>= 0.0000 <Sy>= 0.0000 <Sz>= 0.5000 <S**2>= 0.7500 S= 0.5000
 Leave Link  401 at Tue Nov 19 11:54:03 2024, MaxMem=   536870912 cpu:               1.6 elap:               0.2
 (Enter /home/szhao/Apps/g16/l502.exe)
 Keep R1 and R2 ints in memory in symmetry-blocked form, NReq=9935231.
 FoFCou: FMM=F IPFlag=           0 FMFlag=           0 FMFlg1=           0
         NFxFlg=           0 DoJE=F BraDBF=F KetDBF=F FulRan=T
         wScrn=  0.000000 ICntrl=       600 IOpCl=  0 I1Cent=           0 NGrid=           0
         NMat0=    1 NMatS0=   2346 NMatT0=    0 NMatD0=    1 NMtDS0=    0 NMtDT0=    0
 Petite list used in FoFCou.
 UHF open shell SCF:
 Using DIIS extrapolation, IDIIS=  1040.
 NGot=   536870912 LenX=   535358062 LenY=   535352721
 Requested convergence on RMS density matrix=1.00D-08 within 128 cycles.
 Requested convergence on MAX density matrix=1.00D-06.
 Requested convergence on             energy=1.00D-06.
 No special actions if energy rises.

 Cycle   1  Pass 1  IDiag  1:
 E= -78.1750982862658    
 DIIS: error= 2.49D-02 at cycle   1 NSaved=   1.
 NSaved= 1 IEnMin= 1 EnMin= -78.1750982862658     IErMin= 1 ErrMin= 2.49D-02
 ErrMax= 2.49D-02  0.00D+00 EMaxC= 1.00D-01 BMatC= 7.11D-02 BMatP= 7.11D-02
 IDIUse=3 WtCom= 7.51D-01 WtEn= 2.49D-01
 Coeff-Com:  0.100D+01
 Coeff-En:   0.100D+01
 Coeff:      0.100D+01
 Gap=     0.373 Goal=   None    Shift=    0.000
 Gap=     0.311 Goal=   None    Shift=    0.000
 GapD=    0.311 DampG=1.000 DampE=0.500 DampFc=0.5000 IDamp=-1.
 Damping current iteration by 5.00D-01
 RMSDP=2.14D-03 MaxDP=3.11D-02              OVMax= 2.90D-02

 Cycle   2  Pass 1  IDiag  1:
 E= -78.1796714622734     Delta-E=       -0.004573176008 Rises=F Damp=T
 DIIS: error= 1.13D-02 at cycle   2 NSaved=   2.
 NSaved= 2 IEnMin= 2 EnMin= -78.1796714622734     IErMin= 2 ErrMin= 1.13D-02
 ErrMax= 1.13D-02  0.00D+00 EMaxC= 1.00D-01 BMatC= 1.57D-02 BMatP= 7.11D-02
 IDIUse=3 WtCom= 8.87D-01 WtEn= 1.13D-01
 Coeff-Com: -0.797D+00 0.180D+01
 Coeff-En:   0.000D+00 0.100D+01
 Coeff:     -0.707D+00 0.171D+01
 Gap=     0.373 Goal=   None    Shift=    0.000
 Gap=     0.301 Goal=   None    Shift=    0.000
 RMSDP=1.09D-03 MaxDP=1.60D-02 DE=-4.57D-03 OVMax= 1.16D-02

 Cycle   3  Pass 1  IDiag  1:
 E= -78.1840677582619     Delta-E=       -0.004396295989 Rises=F Damp=F
 DIIS: error= 2.13D-03 at cycle   3 NSaved=   3.
 NSaved= 3 IEnMin= 3 EnMin= -78.1840677582619     IErMin= 3 ErrMin= 2.13D-03
 ErrMax= 2.13D-03  0.00D+00 EMaxC= 1.00D-01 BMatC= 3.78D-04 BMatP= 1.57D-02
 IDIUse=3 WtCom= 9.79D-01 WtEn= 2.13D-02
 Coeff-Com: -0.238D+00 0.469D+00 0.769D+00
 Coeff-En:   0.000D+00 0.000D+00 0.100D+01
 Coeff:     -0.233D+00 0.459D+00 0.774D+00
 Gap=     0.372 Goal=   None    Shift=    0.000
 Gap=     0.304 Goal=   None    Shift=    0.000
 RMSDP=1.05D-04 MaxDP=3.18D-03 DE=-4.40D-03 OVMax= 4.31D-03

 Cycle   4  Pass 1  IDiag  1:
 E= -78.1841696730587     Delta-E=       -0.000101914797 Rises=F Damp=F
 DIIS: error= 4.51D-04 at cycle   4 NSaved=   4.
 NSaved= 4 IEnMin= 4 EnMin= -78.1841696730587     IErMin= 4 ErrMin= 4.51D-04
 ErrMax= 4.51D-04  0.00D+00 EMaxC= 1.00D-01 BMatC= 1.26D-05 BMatP= 3.78D-04
 IDIUse=3 WtCom= 9.95D-01 WtEn= 4.51D-03
 Coeff-Com:  0.268D-01-0.595D-01 0.207D-01 0.101D+01
 Coeff-En:   0.000D+00 0.000D+00 0.000D+00 0.100D+01
 Coeff:      0.267D-01-0.593D-01 0.206D-01 0.101D+01
 Gap=     0.372 Goal=   None    Shift=    0.000
 Gap=     0.304 Goal=   None    Shift=    0.000
 RMSDP=2.96D-05 MaxDP=5.04D-04 DE=-1.02D-04 OVMax= 9.79D-04

 Cycle   5  Pass 1  IDiag  1:
 E= -78.1841756997951     Delta-E=       -0.000006026736 Rises=F Damp=F
 DIIS: error= 1.31D-04 at cycle   5 NSaved=   5.
 NSaved= 5 IEnMin= 5 EnMin= -78.1841756997951     IErMin= 5 ErrMin= 1.31D-04
 ErrMax= 1.31D-04  0.00D+00 EMaxC= 1.00D-01 BMatC= 1.43D-06 BMatP= 1.26D-05
 IDIUse=3 WtCom= 9.99D-01 WtEn= 1.31D-03
 Coeff-Com:  0.223D-01-0.431D-01-0.856D-01-0.143D+00 0.125D+01
 Coeff-En:   0.000D+00 0.000D+00 0.000D+00 0.000D+00 0.100D+01
 Coeff:      0.222D-01-0.431D-01-0.855D-01-0.143D+00 0.125D+01
 Gap=     0.372 Goal=   None    Shift=    0.000
 Gap=     0.304 Goal=   None    Shift=    0.000
 RMSDP=1.46D-05 MaxDP=2.63D-04 DE=-6.03D-06 OVMax= 5.13D-04

 Cycle   6  Pass 1  IDiag  1:
 E= -78.1841766467823     Delta-E=       -0.000000946987 Rises=F Damp=F
 DIIS: error= 2.51D-05 at cycle   6 NSaved=   6.
 NSaved= 6 IEnMin= 6 EnMin= -78.1841766467823     IErMin= 6 ErrMin= 2.51D-05
 ErrMax= 2.51D-05  0.00D+00 EMaxC= 1.00D-01 BMatC= 3.54D-08 BMatP= 1.43D-06
 IDIUse=1 WtCom= 1.00D+00 WtEn= 0.00D+00
 Coeff-Com: -0.556D-02 0.112D-01 0.151D-01-0.171D-01-0.243D+00 0.124D+01
 Coeff:     -0.556D-02 0.112D-01 0.151D-01-0.171D-01-0.243D+00 0.124D+01
 Gap=     0.372 Goal=   None    Shift=    0.000
 Gap=     0.304 Goal=   None    Shift=    0.000
 RMSDP=2.43D-06 MaxDP=3.45D-05 DE=-9.47D-07 OVMax= 7.96D-05

 Cycle   7  Pass 1  IDiag  1:
 E= -78.1841766689305     Delta-E=       -0.000000022148 Rises=F Damp=F
 DIIS: error= 1.97D-06 at cycle   7 NSaved=   7.
 NSaved= 7 IEnMin= 7 EnMin= -78.1841766689305     IErMin= 7 ErrMin= 1.97D-06
 ErrMax= 1.97D-06  0.00D+00 EMaxC= 1.00D-01 BMatC= 1.72D-10 BMatP= 3.54D-08
 IDIUse=1 WtCom= 1.00D+00 WtEn= 0.00D+00
 Coeff-Com:  0.198D-03-0.396D-03-0.509D-03 0.243D-02 0.888D-02-0.115D+00
 Coeff-Com:  0.110D+01
 Coeff:      0.198D-03-0.396D-03-0.509D-03 0.243D-02 0.888D-02-0.115D+00
 Coeff:      0.110D+01
 Gap=     0.372 Goal=   None    Shift=    0.000
 Gap=     0.304 Goal=   None    Shift=    0.000
 RMSDP=1.28D-07 MaxDP=2.04D-06 DE=-2.21D-08 OVMax= 5.50D-06

 Cycle   8  Pass 1  IDiag  1:
 E= -78.1841766690219     Delta-E=       -0.000000000091 Rises=F Damp=F
 DIIS: error= 1.47D-07 at cycle   8 NSaved=   8.
 NSaved= 8 IEnMin= 8 EnMin= -78.1841766690219     IErMin= 8 ErrMin= 1.47D-07
 ErrMax= 1.47D-07  0.00D+00 EMaxC= 1.00D-01 BMatC= 1.85D-12 BMatP= 1.72D-10
 IDIUse=1 WtCom= 1.00D+00 WtEn= 0.00D+00
 Coeff-Com:  0.250D-04-0.510D-04-0.483D-04-0.172D-03 0.967D-03 0.264D-02
 Coeff-Com: -0.139D+00 0.114D+01
 Coeff:      0.250D-04-0.510D-04-0.483D-04-0.172D-03 0.967D-03 0.264D-02
 Coeff:     -0.139D+00 0.114D+01
 Gap=     0.372 Goal=   None    Shift=    0.000
 Gap=     0.304 Goal=   None    Shift=    0.000
 RMSDP=2.02D-08 MaxDP=2.60D-07 DE=-9.14D-11 OVMax= 4.76D-07

 Cycle   9  Pass 1  IDiag  1:
 E= -78.1841766690230     Delta-E=       -0.000000000001 Rises=F Damp=F
 DIIS: error= 1.34D-08 at cycle   9 NSaved=   9.
 NSaved= 9 IEnMin= 9 EnMin= -78.1841766690230     IErMin= 9 ErrMin= 1.34D-08
 ErrMax= 1.34D-08  0.00D+00 EMaxC= 1.00D-01 BMatC= 1.63D-14 BMatP= 1.85D-12
 IDIUse=1 WtCom= 1.00D+00 WtEn= 0.00D+00
 Coeff-Com: -0.467D-05 0.927D-05 0.723D-05-0.470D-06-0.177D-03 0.560D-03
 Coeff-Com:  0.566D-02-0.122D+00 0.112D+01
 Coeff:     -0.467D-05 0.927D-05 0.723D-05-0.470D-06-0.177D-03 0.560D-03
 Coeff:      0.566D-02-0.122D+00 0.112D+01
 Gap=     0.372 Goal=   None    Shift=    0.000
 Gap=     0.304 Goal=   None    Shift=    0.000
 RMSDP=1.63D-09 MaxDP=2.48D-08 DE=-1.05D-12 OVMax= 4.95D-08

 SCF Done:  E(UM062X) =  -78.1841766690     A.U. after    9 cycles
            NFock=  9  Conv=0.16D-08     -V/T= 2.0041
 <Sx>= 0.0000 <Sy>= 0.0000 <Sz>= 0.5000 <S**2>= 0.7525 S= 0.5013
 <L.S>=  0.00000000000    
 KE= 7.786375674150D+01 PE=-2.409228833007D+02 EE= 5.255774215212D+01
 Annihilation of the first spin contaminant:
 S**2 before annihilation     0.7525,   after     0.7500
 Leave Link  502 at Tue Nov 19 11:54:05 2024, MaxMem=   536870912 cpu:              13.0 elap:               1.6
 (Enter /home/szhao/Apps/g16/l601.exe)
 Copying SCF densities to generalized density rwf, IOpCl= 1 IROHF=0.

 **********************************************************************

            Population analysis using the SCF density.

 **********************************************************************

 Orbital symmetries:
 Alpha Orbitals:
       Occupied  (AG) (BU) (AG) (BU) (BU) (AG) (AG) (AU)
       Virtual   (BG) (AG) (BU) (BU) (AU) (AG) (AG) (AG) (BG) (BU)
                 (BU) (BU) (BU) (AG) (BU) (AG) (AG) (BU) (AU) (BG)
                 (BU) (BU) (AG) (AG) (AG) (BU) (BG) (AU) (AU) (AG)
                 (BU) (AG) (AG) (BU) (BU) (BG) (AU) (BG) (BU) (BG)
                 (AG) (AU) (AG) (BU) (AG) (BU) (BU) (AG) (AG) (BU)
                 (AU) (BU) (BG) (AG) (AG) (BU) (AG) (BU) (AG) (BU)
 Beta  Orbitals:
       Occupied  (AG) (BU) (AG) (BU) (BU) (AG) (AG)
       Virtual   (AU) (BG) (AG) (BU) (BU) (AU) (AG) (AG) (AG) (BG)
                 (BU) (BU) (BU) (BU) (AG) (BU) (AG) (AG) (AU) (BU)
                 (BG) (BU) (AG) (BU) (AG) (AG) (BU) (BG) (AU) (AU)
                 (AG) (BU) (AG) (AG) (BU) (BU) (BG) (AU) (BG) (BU)
                 (AG) (BG) (AU) (AG) (BU) (AG) (BU) (BU) (AG) (AG)
                 (BU) (AU) (BU) (BG) (AG) (AG) (BU) (AG) (BU) (AG)
                 (BU)
 The electronic state is 2-AU.
 Alpha  occ. eigenvalues --  -10.89605 -10.89527  -1.18479  -0.97739  -0.84743
 Alpha  occ. eigenvalues --   -0.79499  -0.72847  -0.66701
 Alpha virt. eigenvalues --   -0.29462  -0.14690  -0.12632  -0.12451  -0.09709
 Alpha virt. eigenvalues --   -0.07773  -0.06884  -0.04808  -0.04464  -0.02520
 Alpha virt. eigenvalues --   -0.00545   0.01921   0.07480   0.10795   0.20334
 Alpha virt. eigenvalues --    0.22847   0.28295   0.29237   0.31426   0.37801
 Alpha virt. eigenvalues --    0.40147   0.45439   0.46050   0.48648   0.56249
 Alpha virt. eigenvalues --    0.59913   0.74551   0.79636   0.86001   1.13072
 Alpha virt. eigenvalues --    1.16059   1.19359   1.29840   1.31302   1.35510
 Alpha virt. eigenvalues --    1.36491   1.49592   1.55029   1.69162   1.75125
 Alpha virt. eigenvalues --    1.76086   1.84976   1.86980   1.92208   2.13339
 Alpha virt. eigenvalues --    2.17097   2.28083   2.32148   2.40089   2.42292
 Alpha virt. eigenvalues --    2.43036   2.52580   2.57263   2.77444   2.98644
 Alpha virt. eigenvalues --    3.40030   3.54024   3.84668  23.51948  23.74233
  Beta  occ. eigenvalues --  -10.89374 -10.89310  -1.14501  -0.95814  -0.83635
  Beta  occ. eigenvalues --   -0.78554  -0.72527
  Beta virt. eigenvalues --   -0.42115  -0.22382  -0.16443  -0.12579  -0.12578
  Beta virt. eigenvalues --   -0.10211  -0.08644  -0.06945  -0.04768  -0.03668
  Beta virt. eigenvalues --   -0.02027  -0.00862   0.02222   0.08883   0.11254
  Beta virt. eigenvalues --    0.19667   0.22264   0.29821   0.30033   0.30138
  Beta virt. eigenvalues --    0.36921   0.41302   0.47079   0.47191   0.49915
  Beta virt. eigenvalues --    0.53286   0.58922   0.78046   0.83434   0.88407
  Beta virt. eigenvalues --    1.17076   1.17783   1.20231   1.32939   1.34212
  Beta virt. eigenvalues --    1.36883   1.37370   1.51135   1.57191   1.71721
  Beta virt. eigenvalues --    1.77589   1.78226   1.87118   1.88611   1.95992
  Beta virt. eigenvalues --    2.16693   2.20174   2.29023   2.32746   2.41321
  Beta virt. eigenvalues --    2.44013   2.46834   2.54926   2.61920   2.81318
  Beta virt. eigenvalues --    3.01476   3.44760   3.58736   3.90169  23.53203
  Beta virt. eigenvalues --   23.75808
          Condensed to atoms (all electrons):
               1          2          3          4          5          6
     1  C    4.874129   0.452802   0.384820   0.384843  -0.022232  -0.022280
     2  C    0.452802   4.874129  -0.022232  -0.022280   0.384820   0.384843
     3  H    0.384820  -0.022232   0.367513  -0.006207   0.001557  -0.001516
     4  H    0.384843  -0.022280  -0.006207   0.367582  -0.001516   0.001562
     5  H   -0.022232   0.384820   0.001557  -0.001516   0.367513  -0.006207
     6  H   -0.022280   0.384843  -0.001516   0.001562  -0.006207   0.367582
          Atomic-Atomic Spin Densities.
               1          2          3          4          5          6
     1  C    0.421292   0.126925  -0.006346  -0.006347   0.001100   0.001100
     2  C    0.126925   0.421292   0.001100   0.001100  -0.006346  -0.006347
     3  H   -0.006346   0.001100  -0.012841  -0.000561   0.000034  -0.000245
     4  H   -0.006347   0.001100  -0.000561  -0.012846  -0.000245   0.000034
     5  H    0.001100  -0.006346   0.000034  -0.000245  -0.012841  -0.000561
     6  H    0.001100  -0.006347  -0.000245   0.000034  -0.000561  -0.012846
 Mulliken charges and spin densities:
               1          2
     1  C   -0.052080   0.537724
     2  C   -0.052080   0.537724
     3  H    0.276064  -0.018858
     4  H    0.276016  -0.018865
     5  H    0.276064  -0.018858
     6  H    0.276016  -0.018865
 Sum of Mulliken charges =   1.00000   1.00000
 Mulliken charges and spin densities with hydrogens summed into heavy atoms:
               1          2
     1  C    0.500000   0.500000
     2  C    0.500000   0.500000
 Electronic spatial extent (au):  <R**2>=             75.5544
 Charge=              1.0000 electrons
 Dipole moment (field-independent basis, Debye):
    X=             -0.0000    Y=             -0.0000    Z=             -0.0000  Tot=              0.0000
 Quadrupole moment (field-independent basis, Debye-Ang):
   XX=             -8.4646   YY=             -5.5379   ZZ=            -11.4955
   XY=              0.0010   XZ=             -0.0000   YZ=             -0.0000
 Traceless Quadrupole moment (field-independent basis, Debye-Ang):
   XX=              0.0347   YY=              2.9615   ZZ=             -2.9962
   XY=              0.0010   XZ=             -0.0000   YZ=             -0.0000
 Octapole moment (field-independent basis, Debye-Ang**2):
  XXX=             -0.0000  YYY=             -0.0000  ZZZ=             -0.0000  XYY=              0.0000
  XXY=             -0.0000  XXZ=             -0.0000  XZZ=              0.0000  YZZ=              0.0000
  YYZ=             -0.0000  XYZ=             -0.0000
 Hexadecapole moment (field-independent basis, Debye-Ang**3):
 XXXX=            -18.0135 YYYY=            -51.9673 ZZZZ=            -10.4095 XXXY=             -0.0010
 XXXZ=              0.0000 YYYX=              0.0071 YYYZ=             -0.0000 ZZZX=              0.0000
 ZZZY=             -0.0000 XXYY=             -6.4612 XXZZ=             -5.8290 YYZZ=            -11.9423
 XXYZ=              0.0000 YYXZ=             -0.0000 ZZXY=              0.0002
 N-N= 3.231720773804D+01 E-N=-2.409228830624D+02  KE= 7.786375674150D+01
 Symmetry AG   KE= 3.996138711560D+01
 Symmetry BG   KE= 1.432532853945D-32
 Symmetry AU   KE= 1.127366216087D+00
 Symmetry BU   KE= 3.677500340980D+01
 Symmetry AG   SP= 1.591841524406D-15
 Symmetry BG   SP= 5.309065042800D-33
 Symmetry AU   SP= 1.000000000000D+00
 Symmetry BU   SP= 2.549571752668D-15
                          Isotropic Fermi Contact Couplings
        Atom                 a.u.       MegaHertz       Gauss      10(-4) cm-1
     1  C(13)              0.08540      96.00587      34.25728      32.02411
     2  C(13)              0.08540      96.00587      34.25728      32.02411
     3  H(1)              -0.00906     -40.50963     -14.45484     -13.51256
     4  H(1)              -0.00906     -40.50817     -14.45432     -13.51207
     5  H(1)              -0.00906     -40.50963     -14.45484     -13.51256
     6  H(1)              -0.00906     -40.50817     -14.45432     -13.51207
 --------------------------------------------------------
       Center         ----  Spin Dipole Couplings  ----
                      3XX-RR        3YY-RR        3ZZ-RR
 --------------------------------------------------------
     1   Atom       -0.300991     -0.279392      0.580383
     2   Atom       -0.300991     -0.279392      0.580383
     3   Atom        0.013545     -0.002135     -0.011410
     4   Atom        0.013583     -0.002172     -0.011411
     5   Atom        0.013545     -0.002135     -0.011410
     6   Atom        0.013583     -0.002172     -0.011411
 --------------------------------------------------------
                        XY            XZ            YZ
 --------------------------------------------------------
     1   Atom       -0.000002     -0.000000      0.000000
     2   Atom       -0.000002     -0.000000      0.000000
     3   Atom        0.044320      0.000000      0.000000
     4   Atom       -0.044312      0.000000     -0.000000
     5   Atom        0.044320      0.000000      0.000000
     6   Atom       -0.044312      0.000000     -0.000000
 --------------------------------------------------------


 ---------------------------------------------------------------------------------
              Anisotropic Spin Dipole Couplings in Principal Axis System
 ---------------------------------------------------------------------------------

       Atom             a.u.   MegaHertz   Gauss  10(-4) cm-1        Axes

              Baa    -0.3010   -40.390   -14.412   -13.473  1.0000  0.0001  0.0000
     1 C(13)  Bbb    -0.2794   -37.492   -13.378   -12.506 -0.0001  1.0000 -0.0000
              Bcc     0.5804    77.882    27.790    25.979  0.0000  0.0000  1.0000
 
              Baa    -0.3010   -40.390   -14.412   -13.473  1.0000  0.0001  0.0000
     2 C(13)  Bbb    -0.2794   -37.492   -13.378   -12.506 -0.0001  1.0000 -0.0000
              Bcc     0.5804    77.882    27.790    25.979  0.0000  0.0000  1.0000
 
              Baa    -0.0393   -20.970    -7.483    -6.995 -0.6426  0.7662  0.0000
     3 H(1)   Bbb    -0.0114    -6.088    -2.172    -2.031  0.0000  0.0000  1.0000
              Bcc     0.0507    27.058     9.655     9.026  0.7662  0.6426 -0.0000
 
              Baa    -0.0393   -20.970    -7.482    -6.995  0.6422  0.7665  0.0000
     4 H(1)   Bbb    -0.0114    -6.088    -2.173    -2.031  0.0000  0.0000  1.0000
              Bcc     0.0507    27.058     9.655     9.026  0.7665 -0.6422  0.0000
 
              Baa    -0.0393   -20.970    -7.483    -6.995 -0.6426  0.7662  0.0000
     5 H(1)   Bbb    -0.0114    -6.088    -2.172    -2.031  0.0000  0.0000  1.0000
              Bcc     0.0507    27.058     9.655     9.026  0.7662  0.6426 -0.0000
 
              Baa    -0.0393   -20.970    -7.482    -6.995  0.6422  0.7665  0.0000
     6 H(1)   Bbb    -0.0114    -6.088    -2.173    -2.031  0.0000  0.0000  1.0000
              Bcc     0.0507    27.058     9.655     9.026  0.7665 -0.6422  0.0000
 

 ---------------------------------------------------------------------------------

 No NMR shielding tensors so no spin-rotation constants.
 Leave Link  601 at Tue Nov 19 11:54:05 2024, MaxMem=   536870912 cpu:               1.3 elap:               0.2
 (Enter /home/szhao/Apps/g16/l701.exe)
 ... and contract with generalized density number  0.
 Compute integral first derivatives.
 Leave Link  701 at Tue Nov 19 11:54:05 2024, MaxMem=   536870912 cpu:               0.7 elap:               0.1
 (Enter /home/szhao/Apps/g16/l702.exe)
 L702 exits ... SP integral derivatives will be done elsewhere.
 Leave Link  702 at Tue Nov 19 11:54:05 2024, MaxMem=   536870912 cpu:               0.2 elap:               0.0
 (Enter /home/szhao/Apps/g16/l703.exe)
 Integral derivatives from FoFJK, PRISM(SPDF).
 Compute integral first derivatives, UseDBF=F ICtDFT=           0.
 Calling FoFJK, ICntrl=      2127 FMM=F ISym2X=1 I1Cent= 0 IOpClX= 1 NMat=1 NMatS=1 NMatT=0.
 FoFJK:  IHMeth= 1 ICntrl=    2127 DoSepK=F KAlg= 0 I1Cent=           0 FoldK=F
 IRaf=         0 NMat=       1 IRICut=       1 DoRegI=T DoRafI=F ISym2E= 1 IDoP0=0 IntGTp=1.
 FoFCou: FMM=F IPFlag=           0 FMFlag=      100000 FMFlg1=         800
         NFxFlg=           0 DoJE=F BraDBF=F KetDBF=F FulRan=T
         wScrn=  0.000000 ICntrl=      2127 IOpCl=  1 I1Cent=           0 NGrid=           0
         NMat0=    1 NMatS0=      1 NMatT0=    0 NMatD0=    1 NMtDS0=    0 NMtDT0=    0
 Petite list used in FoFCou.
 Leave Link  703 at Tue Nov 19 11:54:06 2024, MaxMem=   536870912 cpu:               3.6 elap:               0.5
 (Enter /home/szhao/Apps/g16/l716.exe)
 Dipole        =-2.22044605D-16-8.88178420D-16-1.11401040D-41
 ***** Axes restored to original set *****
 -------------------------------------------------------------------
 Center     Atomic                   Forces (Hartrees/Bohr)
 Number     Number              X              Y              Z
 -------------------------------------------------------------------
      1        6          -0.000216890    0.000083366   -0.000000000
      2        6           0.000216890   -0.000083366    0.000000000
      3        1           0.000042439   -0.000022167    0.000000000
      4        1           0.000013848   -0.000003343    0.000000000
      5        1          -0.000042439    0.000022167   -0.000000000
      6        1          -0.000013848    0.000003343   -0.000000000
 -------------------------------------------------------------------
 Cartesian Forces:  Max     0.000216890 RMS     0.000079223
 Z-matrix is all fixed cartesians, so copy forces.
 Force constants in Cartesian coordinates: 
                1             2             3             4             5 
      1  0.785676D+00
      2  0.641926D-04  0.690259D+00
      3  0.000000D+00  0.000000D+00  0.139206D+00
      4 -0.434104D+00 -0.713962D-05  0.000000D+00  0.785676D+00
      5 -0.713962D-05 -0.149133D+00  0.000000D+00  0.641926D-04  0.690259D+00
      6  0.000000D+00  0.000000D+00 -0.720687D-01  0.000000D+00  0.000000D+00
      7 -0.175852D+00 -0.112745D+00  0.000000D+00  0.000000D+00 -0.250913D-01
      8 -0.104548D+00 -0.285384D+00  0.000000D+00  0.000000D+00  0.148738D-01
      9  0.000000D+00  0.000000D+00 -0.465638D-01  0.000000D+00  0.000000D+00
     10 -0.175720D+00  0.112681D+00  0.000000D+00  0.000000D+00  0.250984D-01
     11  0.104491D+00 -0.285477D+00  0.000000D+00  0.000000D+00  0.148608D-01
     12  0.000000D+00  0.000000D+00 -0.465539D-01  0.000000D+00  0.000000D+00
     13  0.000000D+00 -0.250913D-01  0.000000D+00 -0.175852D+00 -0.112745D+00
     14  0.000000D+00  0.148738D-01  0.000000D+00 -0.104548D+00 -0.285384D+00
     15  0.000000D+00  0.000000D+00  0.129889D-01  0.000000D+00  0.000000D+00
     16  0.000000D+00  0.250984D-01  0.000000D+00 -0.175720D+00  0.112681D+00
     17  0.000000D+00  0.148608D-01  0.000000D+00  0.104491D+00 -0.285477D+00
     18  0.000000D+00  0.000000D+00  0.129911D-01  0.000000D+00  0.000000D+00
                6             7             8             9            10 
      6  0.139206D+00
      7  0.000000D+00  0.147758D+00
      8  0.000000D+00  0.121202D+00  0.280371D+00
      9  0.129889D-01  0.000000D+00  0.000000D+00  0.228982D-01
     10  0.000000D+00  0.280940D-01 -0.166538D-01  0.000000D+00  0.147626D+00
     11  0.000000D+00  0.166344D-01 -0.986072D-02  0.000000D+00 -0.121125D+00
     12  0.129911D-01  0.000000D+00  0.000000D+00  0.106748D-01  0.000000D+00
     13  0.000000D+00  0.000000D+00  0.000000D+00  0.000000D+00  0.000000D+00
     14  0.000000D+00  0.000000D+00  0.000000D+00  0.000000D+00  0.000000D+00
     15 -0.465638D-01  0.000000D+00  0.000000D+00  0.611161D-02  0.000000D+00
     16  0.000000D+00  0.000000D+00  0.000000D+00  0.000000D+00  0.000000D+00
     17  0.000000D+00  0.000000D+00  0.000000D+00  0.000000D+00  0.000000D+00
     18 -0.465539D-01  0.000000D+00  0.000000D+00 -0.610965D-02  0.000000D+00
               11            12            13            14            15 
     11  0.280477D+00
     12  0.000000D+00  0.228900D-01
     13  0.000000D+00  0.000000D+00  0.147758D+00
     14  0.000000D+00  0.000000D+00  0.121202D+00  0.280371D+00
     15  0.000000D+00 -0.610965D-02  0.000000D+00  0.000000D+00  0.228982D-01
     16  0.000000D+00  0.000000D+00  0.280940D-01 -0.166538D-01  0.000000D+00
     17  0.000000D+00  0.000000D+00  0.166344D-01 -0.986072D-02  0.000000D+00
     18  0.000000D+00  0.610770D-02  0.000000D+00  0.000000D+00  0.106748D-01
               16            17            18 
     16  0.147626D+00
     17 -0.121125D+00  0.280477D+00
     18  0.000000D+00  0.000000D+00  0.228900D-01
 Leave Link  716 at Tue Nov 19 11:54:06 2024, MaxMem=   536870912 cpu:               0.3 elap:               0.0
 (Enter /home/szhao/Apps/g16/l103.exe)

 GradGradGradGradGradGradGradGradGradGradGradGradGradGradGradGradGradGrad
 Berny optimization.
 Search for a local minimum.
 Step number   1 out of a maximum of    2
 All quantities printed in internal units (Hartrees-Bohrs-Radians)
 Second derivative matrix not updated -- first step.
 The second derivative matrix:
                          X1        Y1        Z1        X2        Y2
           X1           0.78568
           Y1           0.00006   0.69026
           Z1           0.00000   0.00000   0.13921
           X2          -0.43410  -0.00001  -0.00000   0.78568
           Y2          -0.00001  -0.14913  -0.00000   0.00006   0.69026
           Z2          -0.00000  -0.00000  -0.07207   0.00000   0.00000
           X3          -0.17585  -0.11274  -0.00000  -0.00000  -0.02509
           Y3          -0.10455  -0.28538  -0.00000   0.00000   0.01487
           Z3          -0.00000  -0.00000  -0.04656  -0.00000  -0.00000
           X4          -0.17572   0.11268  -0.00000   0.00000   0.02510
           Y4           0.10449  -0.28548   0.00000   0.00000   0.01486
           Z4          -0.00000   0.00000  -0.04655  -0.00000   0.00000
           X5          -0.00000  -0.02509  -0.00000  -0.17585  -0.11274
           Y5           0.00000   0.01487   0.00000  -0.10455  -0.28538
           Z5          -0.00000  -0.00000   0.01299  -0.00000  -0.00000
           X6           0.00000   0.02510  -0.00000  -0.17572   0.11268
           Y6           0.00000   0.01486   0.00000   0.10449  -0.28548
           Z6          -0.00000   0.00000   0.01299  -0.00000   0.00000
                          Z2        X3        Y3        Z3        X4
           Z2           0.13921
           X3          -0.00000   0.14776
           Y3           0.00000   0.12120   0.28037
           Z3           0.01299   0.00000   0.00000   0.02290
           X4          -0.00000   0.02809  -0.01665   0.00000   0.14763
           Y4           0.00000   0.01663  -0.00986   0.00000  -0.12113
           Z4           0.01299   0.00000  -0.00000   0.01067   0.00000
           X5          -0.00000   0.00000   0.00000  -0.00000  -0.00000
           Y5          -0.00000   0.00000   0.00000  -0.00000  -0.00000
           Z5          -0.04656  -0.00000  -0.00000   0.00611   0.00000
           X6          -0.00000  -0.00000  -0.00000   0.00000   0.00000
           Y6           0.00000  -0.00000  -0.00000   0.00000   0.00000
           Z6          -0.04655   0.00000   0.00000  -0.00611  -0.00000
                          Y4        Z4        X5        Y5        Z5
           Y4           0.28048
           Z4          -0.00000   0.02289
           X5          -0.00000   0.00000   0.14776
           Y5          -0.00000   0.00000   0.12120   0.28037
           Z5           0.00000  -0.00611   0.00000   0.00000   0.02290
           X6           0.00000  -0.00000   0.02809  -0.01665   0.00000
           Y6           0.00000  -0.00000   0.01663  -0.00986   0.00000
           Z6          -0.00000   0.00611   0.00000  -0.00000   0.01067
                          X6        Y6        Z6
           X6           0.14763
           Y6          -0.12113   0.28048
           Z6           0.00000  -0.00000   0.02289
 ITU=  0
     Eigenvalues ---    0.02444   0.04442   0.08307   0.09205   0.12908
     Eigenvalues ---    0.18301   0.20920   0.29014   0.54230   0.74475
     Eigenvalues ---    0.98926   1.30366
 Angle between quadratic step and forces=  50.39 degrees.
 ClnCor:  largest displacement from symmetrization is 5.46D-14 for atom     6.
 Linear search not attempted -- first point.
 ClnCor:  largest displacement from symmetrization is 2.71D-20 for atom     2.
 B after Tr=     0.000000   -0.000000   -0.000000
         Rot=    1.000000    0.000000   -0.000000    0.000008 Ang=   0.00 deg.
 Variable       Old X    -DE/DX   Delta X   Delta X   Delta X     New X
                                 (Linear)    (Quad)   (Total)
    X1       -1.33583  -0.00022   0.00000  -0.00018  -0.00018  -1.33602
    Y1        0.00000   0.00008   0.00000   0.00017   0.00019   0.00019
    Z1       -0.00000  -0.00000   0.00000  -0.00000   0.00000   0.00000
    X2        1.33583   0.00022   0.00000   0.00018   0.00018   1.33602
    Y2        0.00000  -0.00008   0.00000  -0.00017  -0.00019  -0.00019
    Z2        0.00000   0.00000   0.00000   0.00000  -0.00000  -0.00000
    X3       -2.38280   0.00004   0.00000   0.00024   0.00021  -2.38258
    Y3       -1.76617  -0.00002   0.00000  -0.00008  -0.00004  -1.76621
    Z3       -0.00000   0.00000   0.00000   0.00000   0.00000   0.00000
    X4       -2.38191   0.00001   0.00000  -0.00016  -0.00013  -2.38204
    Y4        1.76673  -0.00000   0.00000   0.00015   0.00019   1.76692
    Z4       -0.00000   0.00000   0.00000  -0.00000   0.00000   0.00000
    X5        2.38280  -0.00004   0.00000  -0.00024  -0.00021   2.38258
    Y5        1.76617   0.00002   0.00000   0.00008   0.00004   1.76621
    Z5        0.00000  -0.00000   0.00000  -0.00000  -0.00000  -0.00000
    X6        2.38191  -0.00001   0.00000   0.00016   0.00013   2.38204
    Y6       -1.76673   0.00000   0.00000  -0.00015  -0.00019  -1.76692
    Z6        0.00000  -0.00000   0.00000   0.00000  -0.00000  -0.00000
         Item               Value     Threshold  Converged?
 Maximum Force            0.000217     0.000450     YES
 RMS     Force            0.000079     0.000300     YES
 Maximum Displacement     0.000215     0.001800     YES
 RMS     Displacement     0.000137     0.001200     YES
 Predicted change in Energy=-6.343850D-08
 Optimization completed.
    -- Stationary point found.
 GradGradGradGradGradGradGradGradGradGradGradGradGradGradGradGradGradGrad

 Leave Link  103 at Tue Nov 19 11:54:06 2024, MaxMem=   536870912 cpu:               0.1 elap:               0.0
 (Enter /home/szhao/Apps/g16/l9999.exe)
 1\1\GINC-NODE01\Force\UM062X\6-311+G(d,p)\C2H4(1+,2)\SZHAO\19-Nov-2024
 \0\\#p UM062X/6-311+G** force int=superfine\\Title Card Required\\1,2\
 C,-0.706892,0.,0.\C,0.706892,0.,0.\H,-1.260922,-0.934615,0.\H,-1.26045
 5,0.934914,0.\H,1.260922,0.934615,0.\H,1.260455,-0.934914,0.\\Version=
 ES64L-G16RevA.03\State=2-AU\HF=-78.1841767\S2=0.752517\S2-1=0.\S2A=0.7
 50005\RMSD=1.628e-09\RMSF=7.922e-05\Dipole=0.,0.,0.\Quadrupole=2.20177
 4,0.0258137,-2.2275878,0.0007739,0.,0.\PG=C02H [SGH(C2H4)]\\@


 A CHEMICAL PHYSICIST MAKES PRECISE MEASUREMENTS ON IMPURE COMPOUNDS.
 A THEORETICAL PHYSICAL CHEMIST MAKES IMPRECISE
     MEASUREMENTS ON PURE COMPOUNDS.
 AN EXPERIMENTAL PHYSICAL CHEMIST MAKES IMPRECISE
     MEASUREMENTS ON IMPURE COMPOUNDS.
 Job cpu time:       0 days  0 hours  0 minutes 24.5 seconds.
 Elapsed time:       0 days  0 hours  0 minutes  3.1 seconds.
 File lengths (MBytes):  RWF=      6 Int=      0 D2E=      0 Chk=      1 Scr=      1
 Normal termination of Gaussian 16 at Tue Nov 19 11:54:06 2024.
