 Entering Gaussian System, Link 0=g16
 Initial command:
 /home/szhao/Apps/g16/l1.exe "/home/szhao/tmp/Gau-40645.inp" -scrdir="/home/szhao/tmp/"
 Default is to use a total of  16 processors:
                               16 via shared-memory
                                1 via Linda
 Entering Link 1 = /home/szhao/Apps/g16/l1.exe PID=     40648.
  
 Copyright (c) 1988,1990,1992,1993,1995,1998,2003,2009,2016,
            Gaussian, Inc.  All Rights Reserved.
  
 This is part of the Gaussian(R) 16 program.  It is based on
 the Gaussian(R) 09 system (copyright 2009, Gaussian, Inc.),
 the Gaussian(R) 03 system (copyright 2003, Gaussian, Inc.),
 the Gaussian(R) 98 system (copyright 1998, Gaussian, Inc.),
 the Gaussian(R) 94 system (copyright 1995, Gaussian, Inc.),
 the Gaussian 92(TM) system (copyright 1992, Gaussian, Inc.),
 the Gaussian 90(TM) system (copyright 1990, Gaussian, Inc.),
 the Gaussian 88(TM) system (copyright 1988, Gaussian, Inc.),
 the Gaussian 86(TM) system (copyright 1986, Carnegie Mellon
 University), and the Gaussian 82(TM) system (copyright 1983,
 Carnegie Mellon University). Gaussian is a federally registered
 trademark of Gaussian, Inc.
  
 This software contains proprietary and confidential information,
 including trade secrets, belonging to Gaussian, Inc.
  
 This software is provided under written license and may be
 used, copied, transmitted, or stored only in accord with that
 written license.
  
 The following legend is applicable only to US Government
 contracts under FAR:
  
                    RESTRICTED RIGHTS LEGEND
  
 Use, reproduction and disclosure by the US Government is
 subject to restrictions as set forth in subparagraphs (a)
 and (c) of the Commercial Computer Software - Restricted
 Rights clause in FAR 52.227-19.
  
 Gaussian, Inc.
 340 Quinnipiac St., Bldg. 40, Wallingford CT 06492
  
  
 ---------------------------------------------------------------
 Warning -- This program may not be used in any manner that
 competes with the business of Gaussian, Inc. or will provide
 assistance to any competitor of Gaussian, Inc.  The licensee
 of this program is prohibited from giving any competitor of
 Gaussian, Inc. access to this program.  By using this program,
 the user acknowledges that Gaussian, Inc. is engaged in the
 business of creating and licensing software in the field of
 computational chemistry and represents and warrants to the
 licensee that it is not a competitor of Gaussian, Inc. and that
 it will not use this program in any manner prohibited above.
 ---------------------------------------------------------------
  

 Cite this work as:
 Gaussian 16, Revision A.03,
 M. J. Frisch, G. W. Trucks, H. B. Schlegel, G. E. Scuseria, 
 M. A. Robb, J. R. Cheeseman, G. Scalmani, V. Barone, 
 G. A. Petersson, H. Nakatsuji, X. Li, M. Caricato, A. V. Marenich, 
 J. Bloino, B. G. Janesko, R. Gomperts, B. Mennucci, H. P. Hratchian, 
 J. V. Ortiz, A. F. Izmaylov, J. L. Sonnenberg, D. Williams-Young, 
 F. Ding, F. Lipparini, F. Egidi, J. Goings, B. Peng, A. Petrone, 
 T. Henderson, D. Ranasinghe, V. G. Zakrzewski, J. Gao, N. Rega, 
 G. Zheng, W. Liang, M. Hada, M. Ehara, K. Toyota, R. Fukuda, 
 J. Hasegawa, M. Ishida, T. Nakajima, Y. Honda, O. Kitao, H. Nakai, 
 T. Vreven, K. Throssell, J. A. Montgomery, Jr., J. E. Peralta, 
 F. Ogliaro, M. J. Bearpark, J. J. Heyd, E. N. Brothers, K. N. Kudin, 
 V. N. Staroverov, T. A. Keith, R. Kobayashi, J. Normand, 
 K. Raghavachari, A. P. Rendell, J. C. Burant, S. S. Iyengar, 
 J. Tomasi, M. Cossi, J. M. Millam, M. Klene, C. Adamo, R. Cammi, 
 J. W. Ochterski, R. L. Martin, K. Morokuma, O. Farkas, 
 J. B. Foresman, and D. J. Fox, Gaussian, Inc., Wallingford CT, 2016.
 
 ******************************************
 Gaussian 16:  ES64L-G16RevA.03 25-Dec-2016
                19-Nov-2024 
 ******************************************
 %chk=opt.chk
 %mem=8GB
 %nprocshared=24
 Will use up to   24 processors via shared memory.
 ---------------------------------------
 #p UM062X/6-311+G** force int=superfine
 ---------------------------------------
 1/10=7,30=1,38=1/1,3;
 2/12=2,17=6,18=5,40=1/2;
 3/5=4,6=6,7=111,11=2,25=1,30=1,71=1,74=-55,75=-7,116=2/1,2,3;
 4//1;
 5/5=2,38=5/2;
 6/7=2,8=2,9=2,10=2,28=1/1;
 7/29=1/1,2,3,16;
 1/10=7,30=1/3;
 99//99;
 Leave Link    1 at Tue Nov 19 12:36:46 2024, MaxMem=  1073741824 cpu:               4.4 elap:               0.3
 (Enter /home/szhao/Apps/g16/l101.exe)
 -------------------
 Title Card Required
 -------------------
 Symbolic Z-matrix:
 Charge =  0 Multiplicity = 1
 C                    -0.54975   0.        0. 
 C                     0.54981   0.        0. 
 H                     1.05173  -0.85503   0.49475 
 H                    -1.05167  -0.85603  -0.49307 
 H                     1.05172   0.85603   0.49307 
 H                     1.05174  -0.00094  -0.98787 
 H                    -1.05167   0.85503  -0.49475 
 H                    -1.05168   0.00094   0.98787 
 
 ITRead=  0  0  0  0  0  0  0  0
 MicOpt= -1 -1 -1 -1 -1 -1 -1 -1
 NAtoms=      8 NQM=        8 NQMF=       0 NMMI=      0 NMMIF=      0
                NMic=       0 NMicF=      0.
                    Isotopes and Nuclear Properties:
 (Nuclear quadrupole moments (NQMom) in fm**2, nuclear magnetic moments (NMagM)
  in nuclear magnetons)

  Atom         1           2           3           4           5           6           7           8
 IAtWgt=          12          12           1           1           1           1           1           1
 AtmWgt=  12.0000000  12.0000000   1.0078250   1.0078250   1.0078250   1.0078250   1.0078250   1.0078250
 NucSpn=           0           0           1           1           1           1           1           1
 AtZEff=  -0.0000000  -0.0000000  -0.0000000  -0.0000000  -0.0000000  -0.0000000  -0.0000000  -0.0000000
 NQMom=    0.0000000   0.0000000   0.0000000   0.0000000   0.0000000   0.0000000   0.0000000   0.0000000
 NMagM=    0.0000000   0.0000000   2.7928460   2.7928460   2.7928460   2.7928460   2.7928460   2.7928460
 AtZNuc=   6.0000000   6.0000000   1.0000000   1.0000000   1.0000000   1.0000000   1.0000000   1.0000000
 Leave Link  101 at Tue Nov 19 12:36:46 2024, MaxMem=  1073741824 cpu:               4.3 elap:               0.2
 (Enter /home/szhao/Apps/g16/l103.exe)

 GradGradGradGradGradGradGradGradGradGradGradGradGradGradGradGradGradGrad
 Berny optimization.
 Initialization pass.
 Trust Radius=3.00D-01 FncErr=1.00D-07 GrdErr=1.00D-07 EigMax=2.50D+02 EigMin=1.00D-04
 Number of steps in this run=      2 maximum allowed number of steps=      2.
 GradGradGradGradGradGradGradGradGradGradGradGradGradGradGradGradGradGrad

 Leave Link  103 at Tue Nov 19 12:36:46 2024, MaxMem=  1073741824 cpu:               0.6 elap:               0.1
 (Enter /home/szhao/Apps/g16/l202.exe)
                          Input orientation:                          
 ---------------------------------------------------------------------
 Center     Atomic      Atomic             Coordinates (Angstroms)
 Number     Number       Type             X           Y           Z
 ---------------------------------------------------------------------
      1          6           0       -0.549754    0.000000    0.000000
      2          6           0        0.549810    0.000000    0.000000
      3          1           0        1.051727   -0.855034    0.494751
      4          1           0       -1.051665   -0.856025   -0.493069
      5          1           0        1.051721    0.856026    0.493066
      6          1           0        1.051738   -0.000939   -0.987871
      7          1           0       -1.051671    0.855033   -0.494754
      8          1           0       -1.051682    0.000937    0.987870
 ---------------------------------------------------------------------
                    Distance matrix (angstroms):
                    1          2          3          4          5
     1  C    0.000000
     2  C    1.099564   0.000000
     3  H    1.881649   1.108053   0.000000
     4  H    1.108066   1.881653   2.323800   0.000000
     5  H    1.881653   1.108066   1.711061   2.885795   0.000000
     6  H    1.881666   1.108071   1.711037   2.323856   1.711012
     7  H    1.108054   1.881649   2.885781   1.711059   2.323800
     8  H    1.108070   1.881665   2.323829   1.711013   2.323857
                    6          7          8
     6  H    0.000000
     7  H    2.323829   0.000000
     8  H    2.885816   1.711039   0.000000
 Stoichiometry    C2H6
 Framework group  C1[X(C2H6)]
 Deg. of freedom    18
 Full point group                 C1      NOp   1
 Largest Abelian subgroup         C1      NOp   1
 Largest concise Abelian subgroup C1      NOp   1
                         Standard orientation:                         
 ---------------------------------------------------------------------
 Center     Atomic      Atomic             Coordinates (Angstroms)
 Number     Number       Type             X           Y           Z
 ---------------------------------------------------------------------
      1          6           0        0.549782    0.000010    0.000007
      2          6           0       -0.549782   -0.000010   -0.000008
      3          1           0       -1.051678   -0.958888   -0.237569
      4          1           0        1.051696   -0.685193    0.711618
      5          1           0       -1.051696    0.685194   -0.711616
      6          1           0       -1.051728    0.273701    0.949178
      7          1           0        1.051678    0.958888    0.237571
      8          1           0        1.051728   -0.273703   -0.949177
 ---------------------------------------------------------------------
 Rotational constants (GHZ):          85.6413329          29.9163273          29.9159933
 Leave Link  202 at Tue Nov 19 12:36:47 2024, MaxMem=  1073741824 cpu:               1.4 elap:               0.1
 (Enter /home/szhao/Apps/g16/l301.exe)
 Standard basis: 6-311+G(d,p) (5D, 7F)
 Ernie: Thresh=  0.10000D-02 Tol=  0.10000D-05 Strict=F.
 There are    82 symmetry adapted cartesian basis functions of A   symmetry.
 There are    80 symmetry adapted basis functions of A   symmetry.
    80 basis functions,   120 primitive gaussians,    82 cartesian basis functions
     9 alpha electrons        9 beta electrons
       nuclear repulsion energy        48.4142197621 Hartrees.
 IExCor= 4336 DFT=T Ex+Corr=M062X ExCW=0 ScaHFX=  0.540000
 ScaDFX=  1.000000  1.000000  1.000000  1.000000 ScalE2=  1.000000  1.000000
 IRadAn=      7 IRanWt=     -1 IRanGd=            0 ICorTp=0 IEmpDi=  4
 NAtoms=    8 NActive=    8 NUniq=    8 SFac= 1.00D+00 NAtFMM=   60 NAOKFM=F Big=F
 Integral buffers will be    131072 words long.
 Raffenetti 2 integral format.
 Two-electron integral symmetry is turned on.
 Leave Link  301 at Tue Nov 19 12:36:47 2024, MaxMem=  1073741824 cpu:               2.0 elap:               0.1
 (Enter /home/szhao/Apps/g16/l302.exe)
 NPDir=0 NMtPBC=     1 NCelOv=     1 NCel=       1 NClECP=     1 NCelD=      1
         NCelK=      1 NCelE2=     1 NClLst=     1 CellRange=     0.0.
 One-electron integrals computed using PRISM.
 One-electron integral symmetry used in STVInt
 NBasis=    80 RedAO= T EigKep=  3.16D-05  NBF=    80
 NBsUse=    80 1.00D-06 EigRej= -1.00D+00 NBFU=    80
 Precomputing XC quadrature grid using
 IXCGrd= 4 IRadAn=           7 IRanWt=          -1 IRanGd=           0 AccXCQ= 0.00D+00.
 Generated NRdTot=       0 NPtTot=           0 NUsed=           0 NTot=          32
 NSgBfM=    82    82    82    82    82 MxSgAt=     8 MxSgA2=     8.
 Leave Link  302 at Tue Nov 19 12:36:47 2024, MaxMem=  1073741824 cpu:              10.9 elap:               0.6
 (Enter /home/szhao/Apps/g16/l303.exe)
 DipDrv:  MaxL=1.
 Leave Link  303 at Tue Nov 19 12:36:48 2024, MaxMem=  1073741824 cpu:               2.8 elap:               0.2
 (Enter /home/szhao/Apps/g16/l401.exe)
 ExpMin= 4.38D-02 ExpMax= 4.56D+03 ExpMxC= 6.82D+02 IAcc=3 IRadAn=         7 AccDes= 0.00D+00
 Harris functional with IExCor= 1009 and IRadAn=       7 diagonalized for initial guess.
 HarFok:  IExCor= 1009 AccDes= 0.00D+00 IRadAn=         7 IDoV= 1 UseB2=F ITyADJ=14
 ICtDFT=  3500011 ScaDFX=  1.000000  1.000000  1.000000  1.000000
 FoFCou: FMM=F IPFlag=           0 FMFlag=      100000 FMFlg1=           0
         NFxFlg=           0 DoJE=T BraDBF=F KetDBF=T FulRan=T
         wScrn=  0.000000 ICntrl=       500 IOpCl=  0 I1Cent=   200000004 NGrid=           0
         NMat0=    1 NMatS0=      1 NMatT0=    0 NMatD0=    1 NMtDS0=    0 NMtDT0=    0
 Petite list used in FoFCou.
 Harris En= -79.7173712325018    
 JPrj=0 DoOrth=F DoCkMO=F.
 Initial guess <Sx>= 0.0000 <Sy>= 0.0000 <Sz>= 0.0000 <S**2>=-0.0000 S=-0.0000
 Leave Link  401 at Tue Nov 19 12:36:49 2024, MaxMem=  1073741824 cpu:              17.0 elap:               0.8
 (Enter /home/szhao/Apps/g16/l502.exe)
 Keep R1 and R2 ints in memory in canonical form, NReq=32327004.
 FoFCou: FMM=F IPFlag=           0 FMFlag=           0 FMFlg1=           0
         NFxFlg=           0 DoJE=F BraDBF=F KetDBF=F FulRan=T
         wScrn=  0.000000 ICntrl=       600 IOpCl=  0 I1Cent=           0 NGrid=           0
         NMat0=    1 NMatS0=   3240 NMatT0=    0 NMatD0=    1 NMtDS0=    0 NMtDT0=    0
 Symmetry not used in FoFCou.
 Two-electron integral symmetry not used.
 UHF open shell SCF:
 Using DIIS extrapolation, IDIIS=  1040.
 NGot=  1073741824 LenX=  1063224540 LenY=  1063217375
 Requested convergence on RMS density matrix=1.00D-08 within 128 cycles.
 Requested convergence on MAX density matrix=1.00D-06.
 Requested convergence on             energy=1.00D-06.
 No special actions if energy rises.

 Cycle   1  Pass 1  IDiag  1:
 E= -79.2872815230049    
 DIIS: error= 8.95D-02 at cycle   1 NSaved=   1.
 NSaved= 1 IEnMin= 1 EnMin= -79.2872815230049     IErMin= 1 ErrMin= 8.95D-02
 ErrMax= 8.95D-02  0.00D+00 EMaxC= 1.00D-01 BMatC= 1.36D+00 BMatP= 1.36D+00
 IDIUse=3 WtCom= 1.05D-01 WtEn= 8.95D-01
 Coeff-Com:  0.100D+01
 Coeff-En:   0.100D+01
 Coeff:      0.100D+01
 Gap=     0.258 Goal=   None    Shift=    0.000
 Gap=     0.258 Goal=   None    Shift=    0.000
 GapD=    0.258 DampG=1.000 DampE=0.500 DampFc=0.5000 IDamp=-1.
 Damping current iteration by 5.00D-01
 RMSDP=9.38D-03 MaxDP=1.43D-01              OVMax= 2.67D-01

 Cycle   2  Pass 1  IDiag  1:
 E= -79.4309571664510     Delta-E=       -0.143675643446 Rises=F Damp=T
 DIIS: error= 1.19D-02 at cycle   2 NSaved=   2.
 NSaved= 2 IEnMin= 2 EnMin= -79.4309571664510     IErMin= 2 ErrMin= 1.19D-02
 ErrMax= 1.19D-02  0.00D+00 EMaxC= 1.00D-01 BMatC= 2.62D-02 BMatP= 1.36D+00
 IDIUse=3 WtCom= 8.81D-01 WtEn= 1.19D-01
 Coeff-Com:  0.283D-02 0.997D+00
 Coeff-En:   0.583D-01 0.942D+00
 Coeff:      0.943D-02 0.991D+00
 Gap=     0.358 Goal=   None    Shift=    0.000
 Gap=     0.358 Goal=   None    Shift=    0.000
 RMSDP=2.92D-03 MaxDP=5.93D-02 DE=-1.44D-01 OVMax= 1.50D-01

 Cycle   3  Pass 1  IDiag  1:
 E= -79.5901184979654     Delta-E=       -0.159161331514 Rises=F Damp=F
 DIIS: error= 4.10D-03 at cycle   3 NSaved=   3.
 NSaved= 3 IEnMin= 3 EnMin= -79.5901184979654     IErMin= 3 ErrMin= 4.10D-03
 ErrMax= 4.10D-03  0.00D+00 EMaxC= 1.00D-01 BMatC= 1.69D-03 BMatP= 2.62D-02
 IDIUse=3 WtCom= 9.59D-01 WtEn= 4.10D-02
 Coeff-Com: -0.280D-01 0.809D-01 0.947D+00
 Coeff-En:   0.000D+00 0.000D+00 0.100D+01
 Coeff:     -0.268D-01 0.776D-01 0.949D+00
 Gap=     0.362 Goal=   None    Shift=    0.000
 Gap=     0.362 Goal=   None    Shift=    0.000
 RMSDP=1.87D-04 MaxDP=2.41D-03 DE=-1.59D-01 OVMax= 6.80D-03

 Cycle   4  Pass 1  IDiag  1:
 E= -79.5905669930195     Delta-E=       -0.000448495054 Rises=F Damp=F
 DIIS: error= 7.97D-04 at cycle   4 NSaved=   4.
 NSaved= 4 IEnMin= 4 EnMin= -79.5905669930195     IErMin= 4 ErrMin= 7.97D-04
 ErrMax= 7.97D-04  0.00D+00 EMaxC= 1.00D-01 BMatC= 2.33D-05 BMatP= 1.69D-03
 IDIUse=3 WtCom= 9.92D-01 WtEn= 7.97D-03
 Coeff-Com:  0.193D-02-0.953D-02 0.264D-01 0.981D+00
 Coeff-En:   0.000D+00 0.000D+00 0.000D+00 0.100D+01
 Coeff:      0.191D-02-0.945D-02 0.261D-01 0.981D+00
 Gap=     0.362 Goal=   None    Shift=    0.000
 Gap=     0.362 Goal=   None    Shift=    0.000
 RMSDP=4.99D-05 MaxDP=1.01D-03 DE=-4.48D-04 OVMax= 1.41D-03

 Cycle   5  Pass 1  IDiag  1:
 E= -79.5905741818350     Delta-E=       -0.000007188815 Rises=F Damp=F
 DIIS: error= 7.23D-05 at cycle   5 NSaved=   5.
 NSaved= 5 IEnMin= 5 EnMin= -79.5905741818350     IErMin= 5 ErrMin= 7.23D-05
 ErrMax= 7.23D-05  0.00D+00 EMaxC= 1.00D-01 BMatC= 7.12D-07 BMatP= 2.33D-05
 IDIUse=1 WtCom= 1.00D+00 WtEn= 0.00D+00
 Coeff-Com:  0.110D-02-0.317D-02-0.235D-01 0.447D-01 0.981D+00
 Coeff:      0.110D-02-0.317D-02-0.235D-01 0.447D-01 0.981D+00
 Gap=     0.363 Goal=   None    Shift=    0.000
 Gap=     0.363 Goal=   None    Shift=    0.000
 RMSDP=1.00D-05 MaxDP=1.25D-04 DE=-7.19D-06 OVMax= 2.62D-04

 Cycle   6  Pass 1  IDiag  1:
 E= -79.5905744117782     Delta-E=       -0.000000229943 Rises=F Damp=F
 DIIS: error= 8.20D-06 at cycle   6 NSaved=   6.
 NSaved= 6 IEnMin= 6 EnMin= -79.5905744117782     IErMin= 6 ErrMin= 8.20D-06
 ErrMax= 8.20D-06  0.00D+00 EMaxC= 1.00D-01 BMatC= 1.14D-08 BMatP= 7.12D-07
 IDIUse=1 WtCom= 1.00D+00 WtEn= 0.00D+00
 Coeff-Com: -0.140D-03 0.151D-03 0.130D-02-0.156D-01-0.826D-04 0.101D+01
 Coeff:     -0.140D-03 0.151D-03 0.130D-02-0.156D-01-0.826D-04 0.101D+01
 Gap=     0.363 Goal=   None    Shift=    0.000
 Gap=     0.363 Goal=   None    Shift=    0.000
 RMSDP=1.49D-06 MaxDP=2.54D-05 DE=-2.30D-07 OVMax= 2.16D-05

 Cycle   7  Pass 1  IDiag  1:
 E= -79.5905744156690     Delta-E=       -0.000000003891 Rises=F Damp=F
 DIIS: error= 1.59D-06 at cycle   7 NSaved=   7.
 NSaved= 7 IEnMin= 7 EnMin= -79.5905744156690     IErMin= 7 ErrMin= 1.59D-06
 ErrMax= 1.59D-06  0.00D+00 EMaxC= 1.00D-01 BMatC= 1.48D-10 BMatP= 1.14D-08
 IDIUse=1 WtCom= 1.00D+00 WtEn= 0.00D+00
 Coeff-Com:  0.109D-04 0.904D-05-0.295D-04-0.675D-03-0.369D-02-0.108D+00
 Coeff-Com:  0.111D+01
 Coeff:      0.109D-04 0.904D-05-0.295D-04-0.675D-03-0.369D-02-0.108D+00
 Coeff:      0.111D+01
 Gap=     0.363 Goal=   None    Shift=    0.000
 Gap=     0.363 Goal=   None    Shift=    0.000
 RMSDP=2.47D-07 MaxDP=2.99D-06 DE=-3.89D-09 OVMax= 4.24D-06

 Cycle   8  Pass 1  IDiag  1:
 E= -79.5905744157350     Delta-E=       -0.000000000066 Rises=F Damp=F
 DIIS: error= 7.08D-08 at cycle   8 NSaved=   8.
 NSaved= 8 IEnMin= 8 EnMin= -79.5905744157350     IErMin= 8 ErrMin= 7.08D-08
 ErrMax= 7.08D-08  0.00D+00 EMaxC= 1.00D-01 BMatC= 9.38D-13 BMatP= 1.48D-10
 IDIUse=1 WtCom= 1.00D+00 WtEn= 0.00D+00
 Coeff-Com:  0.104D-05-0.333D-05-0.848D-05 0.172D-03 0.677D-03-0.150D-03
 Coeff-Com: -0.861D-01 0.109D+01
 Coeff:      0.104D-05-0.333D-05-0.848D-05 0.172D-03 0.677D-03-0.150D-03
 Coeff:     -0.861D-01 0.109D+01
 Gap=     0.363 Goal=   None    Shift=    0.000
 Gap=     0.363 Goal=   None    Shift=    0.000
 RMSDP=2.09D-08 MaxDP=2.36D-07 DE=-6.61D-11 OVMax= 2.28D-07

 Cycle   9  Pass 1  IDiag  1:
 E= -79.5905744157353     Delta-E=       -0.000000000000 Rises=F Damp=F
 DIIS: error= 8.85D-09 at cycle   9 NSaved=   9.
 NSaved= 9 IEnMin= 9 EnMin= -79.5905744157353     IErMin= 9 ErrMin= 8.85D-09
 ErrMax= 8.85D-09  0.00D+00 EMaxC= 1.00D-01 BMatC= 1.16D-14 BMatP= 9.38D-13
 IDIUse=1 WtCom= 1.00D+00 WtEn= 0.00D+00
 Coeff-Com: -0.139D-06 0.290D-06 0.331D-05-0.169D-04-0.109D-03 0.179D-03
 Coeff-Com:  0.925D-02-0.155D+00 0.115D+01
 Coeff:     -0.139D-06 0.290D-06 0.331D-05-0.169D-04-0.109D-03 0.179D-03
 Coeff:      0.925D-02-0.155D+00 0.115D+01
 Gap=     0.363 Goal=   None    Shift=    0.000
 Gap=     0.363 Goal=   None    Shift=    0.000
 RMSDP=3.79D-09 MaxDP=5.63D-08 DE=-3.13D-13 OVMax= 2.47D-08

 SCF Done:  E(UM062X) =  -79.5905744157     A.U. after    9 cycles
            NFock=  9  Conv=0.38D-08     -V/T= 1.9861
 <Sx>= 0.0000 <Sy>= 0.0000 <Sz>= 0.0000 <S**2>=-0.0000 S=-0.0000
 <L.S>=  0.00000000000    
 KE= 8.071619393564D+01 PE=-2.815665579085D+02 EE= 7.284556979503D+01
 Annihilation of the first spin contaminant:
 S**2 before annihilation    -0.0000,   after    -0.0000
 Leave Link  502 at Tue Nov 19 12:36:56 2024, MaxMem=  1073741824 cpu:             139.8 elap:               7.3
 (Enter /home/szhao/Apps/g16/l601.exe)
 Copying SCF densities to generalized density rwf, IOpCl= 1 IROHF=0.

 **********************************************************************

            Population analysis using the SCF density.

 **********************************************************************

 Orbital symmetries:
 Alpha Orbitals:
       Occupied  (A) (A) (A) (A) (A) (A) (A) (A) (A)
       Virtual   (A) (A) (A) (A) (A) (A) (A) (A) (A) (A) (A) (A)
                 (A) (A) (A) (A) (A) (A) (A) (A) (A) (A) (A) (A)
                 (A) (A) (A) (A) (A) (A) (A) (A) (A) (A) (A) (A)
                 (A) (A) (A) (A) (A) (A) (A) (A) (A) (A) (A) (A)
                 (A) (A) (A) (A) (A) (A) (A) (A) (A) (A) (A) (A)
                 (A) (A) (A) (A) (A) (A) (A) (A) (A) (A) (A)
 Beta  Orbitals:
       Occupied  (A) (A) (A) (A) (A) (A) (A) (A) (A)
       Virtual   (A) (A) (A) (A) (A) (A) (A) (A) (A) (A) (A) (A)
                 (A) (A) (A) (A) (A) (A) (A) (A) (A) (A) (A) (A)
                 (A) (A) (A) (A) (A) (A) (A) (A) (A) (A) (A) (A)
                 (A) (A) (A) (A) (A) (A) (A) (A) (A) (A) (A) (A)
                 (A) (A) (A) (A) (A) (A) (A) (A) (A) (A) (A) (A)
                 (A) (A) (A) (A) (A) (A) (A) (A) (A) (A) (A)
 The electronic state is 1-A.
 Alpha  occ. eigenvalues --  -10.49891 -10.49317  -0.96079  -0.67488  -0.55734
 Alpha  occ. eigenvalues --   -0.55733  -0.52350  -0.34238  -0.34236
 Alpha virt. eigenvalues --    0.02018   0.04172   0.04576   0.04576   0.08600
 Alpha virt. eigenvalues --    0.09000   0.09000   0.14271   0.18422   0.18423
 Alpha virt. eigenvalues --    0.20173   0.20174   0.23957   0.27796   0.39771
 Alpha virt. eigenvalues --    0.43658   0.45460   0.45461   0.47300   0.47300
 Alpha virt. eigenvalues --    0.60440   0.60441   0.70191   0.70193   0.71501
 Alpha virt. eigenvalues --    0.76266   0.85283   0.88942   1.07714   1.07716
 Alpha virt. eigenvalues --    1.08638   1.31653   1.31653   1.54095   1.56234
 Alpha virt. eigenvalues --    1.58390   1.58392   1.63844   1.63844   1.69740
 Alpha virt. eigenvalues --    1.84422   1.84422   1.88933   1.88934   1.90067
 Alpha virt. eigenvalues --    2.26149   2.28751   2.29494   2.29496   2.32140
 Alpha virt. eigenvalues --    2.32141   2.33139   2.55319   2.55324   2.59610
 Alpha virt. eigenvalues --    2.60541   2.60543   2.75627   2.75629   2.95744
 Alpha virt. eigenvalues --    2.98367   2.98373   3.00644   3.84820   3.84829
 Alpha virt. eigenvalues --    3.89760   3.93254   3.93260   4.19381  23.85742
 Alpha virt. eigenvalues --   25.50745
  Beta  occ. eigenvalues --  -10.49891 -10.49317  -0.96079  -0.67488  -0.55734
  Beta  occ. eigenvalues --   -0.55733  -0.52350  -0.34238  -0.34236
  Beta virt. eigenvalues --    0.02018   0.04172   0.04576   0.04576   0.08600
  Beta virt. eigenvalues --    0.09000   0.09000   0.14271   0.18422   0.18423
  Beta virt. eigenvalues --    0.20173   0.20174   0.23957   0.27796   0.39771
  Beta virt. eigenvalues --    0.43658   0.45460   0.45461   0.47300   0.47300
  Beta virt. eigenvalues --    0.60440   0.60441   0.70191   0.70193   0.71501
  Beta virt. eigenvalues --    0.76266   0.85283   0.88942   1.07714   1.07716
  Beta virt. eigenvalues --    1.08638   1.31653   1.31653   1.54095   1.56234
  Beta virt. eigenvalues --    1.58390   1.58392   1.63844   1.63844   1.69740
  Beta virt. eigenvalues --    1.84422   1.84422   1.88933   1.88934   1.90067
  Beta virt. eigenvalues --    2.26149   2.28751   2.29494   2.29496   2.32140
  Beta virt. eigenvalues --    2.32141   2.33139   2.55319   2.55324   2.59610
  Beta virt. eigenvalues --    2.60541   2.60543   2.75627   2.75629   2.95744
  Beta virt. eigenvalues --    2.98367   2.98373   3.00644   3.84820   3.84829
  Beta virt. eigenvalues --    3.89760   3.93254   3.93260   4.19381  23.85742
  Beta virt. eigenvalues --   25.50745
          Condensed to atoms (all electrons):
               1          2          3          4          5          6
     1  C    5.305758   0.006268  -0.080342   0.449836  -0.080349  -0.080349
     2  C    0.006268   5.305758   0.449830  -0.080350   0.449834   0.449836
     3  H   -0.080342   0.449830   0.613469  -0.023419  -0.049402  -0.049408
     4  H    0.449836  -0.080350  -0.023419   0.613483   0.022529  -0.023422
     5  H   -0.080349   0.449834  -0.049402   0.022529   0.613482  -0.049416
     6  H   -0.080349   0.449836  -0.049408  -0.023422  -0.049416   0.613487
     7  H    0.449831  -0.080342   0.022527  -0.049402  -0.023419  -0.023420
     8  H    0.449834  -0.080347  -0.023420  -0.049416  -0.023422   0.022529
               7          8
     1  C    0.449831   0.449834
     2  C   -0.080342  -0.080347
     3  H    0.022527  -0.023420
     4  H   -0.049402  -0.049416
     5  H   -0.023419  -0.023422
     6  H   -0.023420   0.022529
     7  H    0.613469  -0.049408
     8  H   -0.049408   0.613487
          Atomic-Atomic Spin Densities.
               1          2          3          4          5          6
     1  C   -0.000000   0.000000   0.000000  -0.000000  -0.000000  -0.000000
     2  C    0.000000  -0.000000  -0.000000   0.000000   0.000000   0.000000
     3  H    0.000000  -0.000000   0.000000  -0.000000   0.000000   0.000000
     4  H   -0.000000   0.000000  -0.000000   0.000000  -0.000000  -0.000000
     5  H   -0.000000   0.000000   0.000000  -0.000000  -0.000000   0.000000
     6  H   -0.000000   0.000000   0.000000  -0.000000   0.000000   0.000000
     7  H    0.000000  -0.000000  -0.000000   0.000000   0.000000   0.000000
     8  H   -0.000000   0.000000  -0.000000   0.000000  -0.000000  -0.000000
               7          8
     1  C    0.000000  -0.000000
     2  C   -0.000000   0.000000
     3  H   -0.000000  -0.000000
     4  H    0.000000   0.000000
     5  H    0.000000  -0.000000
     6  H    0.000000  -0.000000
     7  H    0.000000   0.000000
     8  H    0.000000   0.000000
 Mulliken charges and spin densities:
               1          2
     1  C   -0.420488  -0.000000
     2  C   -0.420488   0.000000
     3  H    0.140163   0.000000
     4  H    0.140162   0.000000
     5  H    0.140162   0.000000
     6  H    0.140163   0.000000
     7  H    0.140163   0.000000
     8  H    0.140163   0.000000
 Sum of Mulliken charges =  -0.00000  -0.00000
 Mulliken charges and spin densities with hydrogens summed into heavy atoms:
               1          2
     1  C   -0.000000  -0.000000
     2  C    0.000000   0.000000
 Electronic spatial extent (au):  <R**2>=             91.4273
 Charge=             -0.0000 electrons
 Dipole moment (field-independent basis, Debye):
    X=             -0.0000    Y=             -0.0000    Z=              0.0000  Tot=              0.0000
 Quadrupole moment (field-independent basis, Debye-Ang):
   XX=            -15.6646   YY=            -14.9429   ZZ=            -14.9432
   XY=             -0.0000   XZ=             -0.0001   YZ=              0.0000
 Traceless Quadrupole moment (field-independent basis, Debye-Ang):
   XX=             -0.4810   YY=              0.2407   ZZ=              0.2403
   XY=             -0.0000   XZ=             -0.0001   YZ=              0.0000
 Octapole moment (field-independent basis, Debye-Ang**2):
  XXX=             -0.0000  YYY=             -0.0000  ZZZ=             -0.0000  XYY=             -0.0000
  XXY=             -0.0000  XXZ=              0.0000  XZZ=              0.0000  YZZ=             -0.0000
  YYZ=             -0.0000  XYZ=              0.0000
 Hexadecapole moment (field-independent basis, Debye-Ang**3):
 XXXX=            -71.0393 YYYY=            -30.3697 ZZZZ=            -30.3699 XXXY=              0.0000
 XXXZ=             -0.0001 YYYX=              0.6246 YYYZ=              0.0000 ZZZX=             -0.5573
 ZZZY=              0.0000 XXYY=            -16.7175 XXZZ=            -16.7177 YYZZ=            -10.1232
 XXYZ=              0.0000 YYXZ=              0.5573 ZZXY=             -0.6244
 N-N= 4.841421976205D+01 E-N=-2.815665583390D+02  KE= 8.071619393564D+01
                          Isotropic Fermi Contact Couplings
        Atom                 a.u.       MegaHertz       Gauss      10(-4) cm-1
     1  C(13)              0.00000       0.00000       0.00000       0.00000
     2  C(13)             -0.00000      -0.00000      -0.00000      -0.00000
     3  H(1)              -0.00000      -0.00000      -0.00000      -0.00000
     4  H(1)               0.00000       0.00000       0.00000       0.00000
     5  H(1)              -0.00000      -0.00000      -0.00000      -0.00000
     6  H(1)              -0.00000      -0.00000      -0.00000      -0.00000
     7  H(1)               0.00000       0.00000       0.00000       0.00000
     8  H(1)               0.00000       0.00000       0.00000       0.00000
 --------------------------------------------------------
       Center         ----  Spin Dipole Couplings  ----
                      3XX-RR        3YY-RR        3ZZ-RR
 --------------------------------------------------------
     1   Atom       -0.000000      0.000000      0.000000
     2   Atom       -0.000000      0.000000      0.000000
     3   Atom       -0.000000      0.000000     -0.000000
     4   Atom        0.000000     -0.000000      0.000000
     5   Atom       -0.000000      0.000000      0.000000
     6   Atom       -0.000000     -0.000000      0.000000
     7   Atom        0.000000     -0.000000      0.000000
     8   Atom        0.000000     -0.000000      0.000000
 --------------------------------------------------------
                        XY            XZ            YZ
 --------------------------------------------------------
     1   Atom        0.000000     -0.000000     -0.000000
     2   Atom       -0.000000      0.000000     -0.000000
     3   Atom        0.000000      0.000000      0.000000
     4   Atom       -0.000000      0.000000     -0.000000
     5   Atom       -0.000000      0.000000     -0.000000
     6   Atom       -0.000000     -0.000000      0.000000
     7   Atom       -0.000000     -0.000000     -0.000000
     8   Atom        0.000000     -0.000000     -0.000000
 --------------------------------------------------------


 ---------------------------------------------------------------------------------
              Anisotropic Spin Dipole Couplings in Principal Axis System
 ---------------------------------------------------------------------------------

       Atom             a.u.   MegaHertz   Gauss  10(-4) cm-1        Axes

              Baa    -0.0000    -0.000    -0.000    -0.000  0.9860 -0.0116  0.1662
     1 C(13)  Bbb     0.0000     0.000     0.000     0.000 -0.0273  0.9728  0.2300
              Bcc     0.0000     0.000     0.000     0.000 -0.1643 -0.2314  0.9589
 
              Baa    -0.0000    -0.000    -0.000    -0.000  0.8840  0.3061 -0.3532
     2 C(13)  Bbb     0.0000     0.000     0.000     0.000  0.0684  0.6629  0.7455
              Bcc     0.0000     0.000     0.000     0.000 -0.4624  0.6832 -0.5651
 
              Baa    -0.0000    -0.000    -0.000    -0.000  0.7099 -0.1749 -0.6822
     3 H(1)   Bbb    -0.0000    -0.000    -0.000    -0.000  0.6205 -0.3028  0.7234
              Bcc     0.0000     0.000     0.000     0.000  0.3330  0.9369  0.1064
 
              Baa    -0.0000    -0.000    -0.000    -0.000  0.0802  0.9964 -0.0257
     4 H(1)   Bbb    -0.0000    -0.000    -0.000    -0.000 -0.5518  0.0659  0.8313
              Bcc     0.0000     0.000     0.000     0.000  0.8301 -0.0525  0.5552
 
              Baa    -0.0000    -0.000    -0.000    -0.000  0.9367  0.3491  0.0265
     5 H(1)   Bbb    -0.0000    -0.000    -0.000    -0.000 -0.2148  0.5133  0.8309
              Bcc     0.0000     0.000     0.000     0.000 -0.2765  0.7840 -0.5558
 
              Baa    -0.0000    -0.000    -0.000    -0.000  0.8100  0.5863 -0.0114
     6 H(1)   Bbb    -0.0000    -0.000    -0.000    -0.000 -0.5288  0.7219 -0.4463
              Bcc     0.0000     0.000     0.000     0.000 -0.2535  0.3676  0.8948
 
              Baa    -0.0000    -0.000    -0.000    -0.000  0.5079  0.8284  0.2362
     7 H(1)   Bbb     0.0000     0.000     0.000     0.000  0.2479 -0.4032  0.8809
              Bcc     0.0000     0.000     0.000     0.000  0.8249 -0.3889 -0.4102
 
              Baa    -0.0000    -0.000    -0.000    -0.000  0.0623  0.9447  0.3221
     8 H(1)   Bbb    -0.0000    -0.000    -0.000    -0.000  0.6815 -0.2761  0.6778
              Bcc     0.0000     0.000     0.000     0.000  0.7292  0.1773 -0.6610
 

 ---------------------------------------------------------------------------------

 No NMR shielding tensors so no spin-rotation constants.
 Leave Link  601 at Tue Nov 19 12:36:57 2024, MaxMem=  1073741824 cpu:               7.9 elap:               0.4
 (Enter /home/szhao/Apps/g16/l701.exe)
 ... and contract with generalized density number  0.
 Compute integral first derivatives.
 Leave Link  701 at Tue Nov 19 12:36:57 2024, MaxMem=  1073741824 cpu:              11.5 elap:               0.7
 (Enter /home/szhao/Apps/g16/l702.exe)
 L702 exits ... SP integral derivatives will be done elsewhere.
 Leave Link  702 at Tue Nov 19 12:36:57 2024, MaxMem=  1073741824 cpu:               1.1 elap:               0.1
 (Enter /home/szhao/Apps/g16/l703.exe)
 Integral derivatives from FoFJK, PRISM(SPDF).
 Compute integral first derivatives, UseDBF=F ICtDFT=           0.
 Calling FoFJK, ICntrl=      2127 FMM=F ISym2X=0 I1Cent= 0 IOpClX= 1 NMat=1 NMatS=1 NMatT=0.
 FoFJK:  IHMeth= 1 ICntrl=    2127 DoSepK=F KAlg= 0 I1Cent=           0 FoldK=F
 IRaf=         0 NMat=       1 IRICut=       1 DoRegI=T DoRafI=F ISym2E= 0 IDoP0=0 IntGTp=1.
 FoFCou: FMM=F IPFlag=           0 FMFlag=      100000 FMFlg1=         800
         NFxFlg=           0 DoJE=F BraDBF=F KetDBF=F FulRan=T
         wScrn=  0.000000 ICntrl=      2127 IOpCl=  1 I1Cent=           0 NGrid=           0
         NMat0=    1 NMatS0=      1 NMatT0=    0 NMatD0=    1 NMtDS0=    0 NMtDT0=    0
 Symmetry not used in FoFCou.
 Leave Link  703 at Tue Nov 19 12:36:59 2024, MaxMem=  1073741824 cpu:              22.2 elap:               1.2
 (Enter /home/szhao/Apps/g16/l716.exe)
 Dipole        =-9.88403392D-08-2.41281883D-07 4.67515595D-07
 ***** Axes restored to original set *****
 -------------------------------------------------------------------
 Center     Atomic                   Forces (Hartrees/Bohr)
 Number     Number              X              Y              Z
 -------------------------------------------------------------------
      1        6          -0.749535782   -0.000007406    0.000008443
      2        6           0.749535738    0.000007214   -0.000009660
      3        1           0.000042353   -0.000032164    0.000021573
      4        1          -0.000034863   -0.000030684   -0.000022912
      5        1           0.000035077    0.000030690    0.000023271
      6        1           0.000035489   -0.000004093   -0.000033485
      7        1          -0.000042214    0.000032152   -0.000021038
      8        1          -0.000035798    0.000004289    0.000033809
 -------------------------------------------------------------------
 Cartesian Forces:  Max     0.749535782 RMS     0.216372338
 Z-matrix is all fixed cartesians, so copy forces.
 Force constants in Cartesian coordinates: 
                1             2             3             4             5 
      1  0.219506D+01
      2 -0.209251D-05  0.820132D+00
      3  0.000000D+00 -0.973822D-05  0.820103D+00
      4 -0.177160D+01  0.000000D+00  0.000000D+00  0.219506D+01
      5  0.102009D-05 -0.271749D+00  0.000000D+00 -0.224575D-05  0.820134D+00
      6  0.000000D+00  0.000000D+00 -0.271745D+00  0.000000D+00 -0.940010D-05
      7  0.000000D+00  0.286834D-01 -0.165972D-01 -0.141160D+00  0.915340D-01
      8  0.000000D+00  0.188890D-01  0.354452D-02  0.821974D-01 -0.238912D+00
      9  0.000000D+00  0.354525D-02  0.229633D-01 -0.475628D-01  0.612234D-01
     10 -0.141151D+00 -0.916329D-01 -0.527822D-01  0.000000D+00 -0.287159D-01
     11 -0.822867D-01 -0.239147D+00 -0.610825D-01  0.000000D+00  0.188742D-01
     12 -0.473982D-01 -0.610809D-01 -0.168281D+00  0.000000D+00 -0.353686D-02
     13  0.000000D+00 -0.287160D-01 -0.165404D-01 -0.141151D+00 -0.916332D-01
     14  0.000000D+00  0.188741D-01 -0.353551D-02 -0.822870D-01 -0.239148D+00
     15  0.000000D+00 -0.353677D-02  0.229752D-01 -0.473981D-01 -0.610808D-01
     16  0.000000D+00  0.315961D-04  0.331386D-01 -0.141151D+00  0.101502D-03
     17  0.000000D+00  0.250118D-01 -0.825180D-05  0.908165D-04 -0.133100D+00
     18  0.000000D+00 -0.772081D-05  0.168374D-01  0.949621D-01 -0.133734D-03
     19 -0.141160D+00  0.915336D-01 -0.529654D-01  0.000000D+00  0.286834D-01
     20  0.821971D-01 -0.238911D+00  0.612242D-01  0.000000D+00  0.188890D-01
     21 -0.475628D-01  0.612236D-01 -0.168530D+00  0.000000D+00  0.354534D-02
     22 -0.141151D+00  0.101341D-03  0.105748D+00  0.000000D+00  0.315335D-04
     23  0.906509D-04 -0.133100D+00 -0.132423D-03  0.000000D+00  0.250118D-01
     24  0.949624D-01 -0.133423D-03 -0.274322D+00  0.000000D+00 -0.770195D-05
                6             7             8             9            10 
      6  0.820101D+00
      7 -0.529654D-01  0.118739D+00
      8  0.612240D-01 -0.920579D-01  0.230014D+00
      9 -0.168529D+00  0.532678D-01 -0.760705D-01  0.142565D+00
     10 -0.165405D-01  0.000000D+00  0.000000D+00  0.000000D+00  0.118731D+00
     11 -0.353554D-02  0.000000D+00  0.434899D-02  0.751598D-02  0.921575D-01
     12  0.229752D-01  0.000000D+00 -0.755036D-02 -0.130486D-01  0.530830D-01
     13 -0.527821D-01  0.112110D-01  0.126909D-01  0.105593D-01  0.000000D+00
     14 -0.610824D-01 -0.126697D-01 -0.147820D-01 -0.126932D-01  0.000000D+00
     15 -0.168281D+00  0.105842D-01  0.127449D-01  0.112884D-01  0.000000D+00
     16  0.105748D+00  0.112103D-01 -0.283050D-02 -0.162644D-01  0.000000D+00
     17 -0.132770D-03 -0.154898D-01  0.479198D-02  0.239957D-01  0.000000D+00
     18 -0.274321D+00  0.571057D-02 -0.144270D-02 -0.828658D-02  0.000000D+00
     19 -0.165973D-01  0.000000D+00  0.000000D+00  0.000000D+00  0.112108D-01
     20  0.354450D-02  0.000000D+00  0.436400D-02  0.754192D-02  0.126909D-01
     21  0.229632D-01  0.000000D+00  0.754186D-02  0.130339D-01  0.105593D-01
     22  0.331386D-01  0.000000D+00  0.000000D+00  0.000000D+00  0.112088D-01
     23 -0.817883D-05  0.000000D+00 -0.871333D-02 -0.150585D-01  0.155004D-01
     24  0.168374D-01  0.000000D+00  0.826464D-05  0.142830D-04  0.568040D-02
               11            12            13            14            15 
     11  0.230307D+00
     12  0.758939D-01  0.142261D+00
     13  0.000000D+00  0.000000D+00  0.118731D+00
     14  0.433404D-02 -0.752439D-02  0.921579D-01  0.230308D+00
     15 -0.752444D-02  0.130633D-01  0.530828D-01  0.758938D-01  0.142260D+00
     16  0.000000D+00  0.000000D+00  0.112088D-01  0.279881D-02 -0.162690D-01
     17 -0.868340D-02  0.150754D-01  0.155004D-01  0.474811D-02 -0.240218D-01
     18  0.825382D-05 -0.143296D-04  0.568036D-02  0.141753D-02 -0.824327D-02
     19 -0.126697D-01  0.105841D-01  0.000000D+00  0.000000D+00  0.000000D+00
     20 -0.147821D-01  0.127449D-01  0.000000D+00  0.434899D-02 -0.755041D-02
     21 -0.126933D-01  0.112884D-01  0.000000D+00  0.751592D-02 -0.130486D-01
     22  0.279885D-02 -0.162690D-01  0.000000D+00  0.000000D+00  0.000000D+00
     23  0.474817D-02 -0.240217D-01  0.000000D+00 -0.868337D-02  0.150754D-01
     24  0.141757D-02 -0.824333D-02  0.000000D+00  0.823622D-05 -0.142991D-04
               16            17            18            19            20 
     16  0.118732D+00
     17 -0.101407D-03  0.985471D-01
     18 -0.106353D+00  0.166626D-03  0.274014D+00
     19  0.000000D+00  0.000000D+00  0.000000D+00  0.118738D+00
     20  0.000000D+00 -0.871337D-02  0.828231D-05 -0.920575D-01  0.230013D+00
     21  0.000000D+00 -0.150584D-01  0.143135D-04  0.532679D-01 -0.760707D-01
     22  0.000000D+00  0.000000D+00  0.000000D+00  0.112104D-01 -0.283052D-02
     23  0.000000D+00  0.173974D-01 -0.165368D-04 -0.154898D-01  0.479201D-02
     24  0.000000D+00 -0.165016D-04  0.000000D+00  0.571059D-02 -0.144271D-02
               21            22            23            24 
     21  0.142565D+00
     22 -0.162644D-01  0.118732D+00
     23  0.239956D-01 -0.101206D-03  0.985471D-01
     24 -0.828655D-02 -0.106353D+00  0.166265D-03  0.274014D+00
 Leave Link  716 at Tue Nov 19 12:36:59 2024, MaxMem=  1073741824 cpu:               2.1 elap:               0.2
 (Enter /home/szhao/Apps/g16/l103.exe)

 GradGradGradGradGradGradGradGradGradGradGradGradGradGradGradGradGradGrad
 Berny optimization.
 Search for a local minimum.
 Step number   1 out of a maximum of    2
 All quantities printed in internal units (Hartrees-Bohrs-Radians)
 Second derivative matrix not updated -- first step.
 ITU=  0
     Eigenvalues ---    0.04804   0.04804   0.08719   0.10129   0.10129
     Eigenvalues ---    0.10439   0.16791   0.16792   0.17682   0.22289
     Eigenvalues ---    0.22289   0.31040   0.56875   0.70475   0.70479
     Eigenvalues ---    1.16311   1.16316   3.99003
 Quadratic step=5.989D-01 exceeds max=3.000D-01 adjusted using Lamda=-2.759D-01.
 Angle between NR and scaled steps=  33.07 degrees.
 Angle between quadratic step and forces=  30.01 degrees.
 Linear search not attempted -- first point.
 B after Tr=    -0.000000   -0.000000   -0.000000
         Rot=    1.000000   -0.000000   -0.000000   -0.000000 Ang=  -0.00 deg.
 Variable       Old X    -DE/DX   Delta X   Delta X   Delta X     New X
                                 (Linear)    (Quad)   (Total)
    X1       -1.03888  -0.74954   0.00000  -0.18385  -0.18385  -1.22274
    Y1       -0.00000  -0.00001   0.00000  -0.00000  -0.00000  -0.00000
    Z1        0.00000   0.00001   0.00000   0.00000   0.00000   0.00000
    X2        1.03899   0.74954   0.00000   0.18385   0.18385   1.22284
    Y2       -0.00000   0.00001   0.00000   0.00000   0.00000   0.00000
    Z2       -0.00000  -0.00001   0.00000  -0.00001  -0.00001  -0.00001
    X3        1.98748   0.00004   0.00000   0.05739   0.05739   2.04486
    Y3       -1.61578  -0.00003   0.00000  -0.01876  -0.01876  -1.63454
    Z3        0.93494   0.00002   0.00000   0.01086   0.01086   0.94580
    X4       -1.98736  -0.00003   0.00000  -0.05737  -0.05737  -2.04473
    Y4       -1.61765  -0.00003   0.00000  -0.01878  -0.01878  -1.63643
    Z4       -0.93177  -0.00002   0.00000  -0.01083  -0.01083  -0.94259
    X5        1.98746   0.00004   0.00000   0.05737   0.05737   2.04484
    Y5        1.61765   0.00003   0.00000   0.01878   0.01878   1.63644
    Z5        0.93176   0.00002   0.00000   0.01083   0.01083   0.94259
    X6        1.98750   0.00004   0.00000   0.05737   0.05737   2.04487
    Y6       -0.00177  -0.00000   0.00000  -0.00003  -0.00003  -0.00180
    Z6       -1.86681  -0.00003   0.00000  -0.02168  -0.02168  -1.88848
    X7       -1.98737  -0.00004   0.00000  -0.05739  -0.05739  -2.04476
    Y7        1.61578   0.00003   0.00000   0.01876   0.01876   1.63454
    Z7       -0.93495  -0.00002   0.00000  -0.01086  -0.01086  -0.94581
    X8       -1.98739  -0.00004   0.00000  -0.05737  -0.05737  -2.04476
    Y8        0.00177   0.00000   0.00000   0.00003   0.00003   0.00180
    Z8        1.86680   0.00003   0.00000   0.02168   0.02168   1.88848
         Item               Value     Threshold  Converged?
 Maximum Force            0.749536     0.000450     NO 
 RMS     Force            0.216372     0.000300     NO 
 Maximum Displacement     0.183853     0.001800     NO 
 RMS     Displacement     0.061297     0.001200     NO 
 Predicted change in Energy=-1.502535D-01
 GradGradGradGradGradGradGradGradGradGradGradGradGradGradGradGradGradGrad

 Leave Link  103 at Tue Nov 19 12:36:59 2024, MaxMem=  1073741824 cpu:               2.0 elap:               0.1
 (Enter /home/szhao/Apps/g16/l9999.exe)
 1\1\GINC-NODE02\Force\UM062X\6-311+G(d,p)\C2H6\SZHAO\19-Nov-2024\0\\#p
  UM062X/6-311+G** force int=superfine\\Title Card Required\\0,1\C,-0.5
 49754,0.,0.\C,0.54981,0.,0.\H,1.051727,-0.855034,0.494751\H,-1.051665,
 -0.856025,-0.493069\H,1.051721,0.856026,0.493066\H,1.051738,-0.000939,
 -0.987871\H,-1.051671,0.855033,-0.494754\H,-1.051682,0.000937,0.98787\
 \Version=ES64L-G16RevA.03\State=1-A\HF=-79.5905744\S2=0.\S2-1=0.\S2A=0
 .\RMSD=3.790e-09\RMSF=2.164e-01\Dipole=0.,-0.0000004,-0.0000004\Quadru
 pole=-0.3576196,0.1789145,0.1787051,-0.0000075,-0.0000339,-0.0000742\P
 G=C01 [X(C2H6)]\\@


 CONTRAIWISE...CONTINUED TWEEDLEDEE, IF IT WAS SO, IT MIGHT BE,
 AND IF IT WERE SO, IT WOULD BE.....
 BUT AS IT ISN'T, IT AIN'T....
 THAT'S LOGIC.....
 ALICE THROUGH THE LOOKING GLASS
 Job cpu time:       0 days  0 hours  3 minutes 51.3 seconds.
 Elapsed time:       0 days  0 hours  0 minutes 12.3 seconds.
 File lengths (MBytes):  RWF=     22 Int=      0 D2E=      0 Chk=      2 Scr=      2
 Normal termination of Gaussian 16 at Tue Nov 19 12:36:59 2024.
