Title Card Required                                                     
FOpt      UM062X                                                      6-311+G(d,p)        
Number of atoms                            I                4
Info1-9                                    I   N=           9
          14          14           0           0           0         110
           2          18        -502
Full Title                                 C   N=           2
Title Card Required     
Route                                      C   N=           8
#p opt UM062X/6-311+G** nosymm int=superfine SCF=(MaxCycle=2
00,NoVarAcc,noincfock) guess=read   
Charge                                     I                0
Multiplicity                               I                1
Number of electrons                        I               26
Number of alpha electrons                  I               13
Number of beta electrons                   I               13
Number of basis functions                  I               64
Number of independent functions            I               64
Number of point charges in /Mol/           I                0
Number of translation vectors              I                0
Atomic numbers                             I   N=           4
           8          16           1           1
Nuclear charges                            R   N=           4
  8.00000000E+00  1.60000000E+01  1.00000000E+00  1.00000000E+00
Current cartesian coordinates              R   N=          12
 -3.09160328E+00 -1.51178090E-05  1.13383567E-05  3.09160517E+00  1.13383567E-05
 -5.66917837E-06 -3.04709230E+00  4.49542829E-01  1.77691143E+00  2.68970375E+00
 -1.86900294E+00 -1.68026687E+00
Number of symbols in /Mol/                 I                0
Force Field                                I                0
Atom Types                                 C   N=           4
                                                
Int Atom Types                             I   N=           4
           0           0           0           0
MM charges                                 R   N=           4
  0.00000000E+00  0.00000000E+00  0.00000000E+00  0.00000000E+00
Integer atomic weights                     I   N=           4
          16          32           1           1
Real atomic weights                        R   N=           4
  1.59949146E+01  3.19720718E+01  1.00782504E+00  1.00782504E+00
Atom fragment info                         I   N=           4
           0           0           0           0
Atom residue num                           I   N=           4
           0           0           0           0
Nuclear spins                              I   N=           4
           0           0           1           1
Nuclear ZEff                               R   N=           4
 -5.60000000E+00 -1.36000000E+01 -1.00000000E+00 -1.00000000E+00
Nuclear ZNuc                               R   N=           4
  8.00000000E+00  1.60000000E+01  1.00000000E+00  1.00000000E+00
Nuclear QMom                               R   N=           4
  0.00000000E+00  0.00000000E+00  0.00000000E+00  0.00000000E+00
Nuclear GFac                               R   N=           4
  0.00000000E+00  0.00000000E+00  2.79284600E+00  2.79284600E+00
MicOpt                                     I   N=           4
          -2          -2          -1          -1
Number of residues                         I                0
Number of secondary structures             I                0
Redundant internal dimensions              I   N=           4
          11           8           2           1
Redundant internal coordinate indices      I   N=          44
           1          -1           0           0           1          -2
           0           0           1          -3           0           0
           2          -1           0           0           2          -2
           0           0           2          -3           0           0
           1           3           0           0           2           4
           0           0           2           1           3           0
           1           2           4           0           3           1
           2           4
Redundant internal coordinates             R   N=          11
 -3.09160328E+00 -1.51178090E-05  1.13383567E-05  3.09160517E+00  1.13383567E-05
 -5.66917837E-06  1.83342780E+00  2.54519485E+00  1.54651810E+00  1.41222535E+00
  2.55086584E+00
ZRed-IntVec                                I   N=          11
          -1          -1          -1          -1          -1          -1
           0           0           0           0           0
ZRed-FPVec                                 R   N=          11
  0.00000000E+00  0.00000000E+00  0.00000000E+00  0.00000000E+00  0.00000000E+00
  0.00000000E+00  0.00000000E+00  0.00000000E+00  0.00000000E+00  0.00000000E+00
  0.00000000E+00
ZRed-Constraint1                           R   N=          11
 -3.09160328E+00 -1.51178090E-05  1.13383567E-05  3.09160517E+00  1.13383567E-05
 -5.66917837E-06  2.03095753E+00  2.56593906E+00  1.60964992E+00  1.51186811E+00
  1.97168847E+00
ZRed-Constraint2                           R   N=          11
 -3.09160328E+00 -1.51178090E-05  1.13383567E-05  3.09160517E+00  1.13383567E-05
 -5.66917837E-06  0.00000000E+00  0.00000000E+00  0.00000000E+00  0.00000000E+00
  0.00000000E+00
Number of contracted shells                I               27
Number of primitive shells                 I               49
Pure/Cartesian d shells                    I                0
Pure/Cartesian f shells                    I                0
Highest angular momentum                   I                2
Largest degree of contraction              I                6
Shell types                                I   N=          27
           0          -1          -1          -1          -1          -2
           0           0           0           0           0           0
          -1           1           1           1           1           1
          -2           0           0           0           1           0
           0           0           1
Number of primitives per shell             I   N=          27
           6           3           1           1           1           1
           6           3           1           1           1           1
           1           4           2           1           1           1
           1           3           1           1           1           3
           1           1           1
Shell to atom map                          I   N=          27
           1           1           1           1           1           1
           2           2           2           2           2           2
           2           2           2           2           2           2
           2           3           3           3           3           4
           4           4           4
Primitive exponents                        R   N=          49
  8.58850000E+03  1.29723000E+03  2.99296000E+02  8.73771000E+01  2.56789000E+01
  3.74004000E+00  4.21175000E+01  9.62837000E+00  2.85332000E+00  9.05661000E-01
  2.55611000E-01  8.45000000E-02  1.29200000E+00  9.34134000E+04  1.39617000E+04
  3.16991000E+03  9.02456000E+02  2.97158000E+02  1.08702000E+02  1.08702000E+02
  4.31553000E+01  1.81079000E+01  5.56009000E+00  2.13183000E+00  4.20403000E-01
  1.36045000E-01  4.05000000E-02  4.95040000E+02  1.17221000E+02  3.77749000E+01
  1.40584000E+01  5.56574000E+00  2.26297000E+00  8.07994000E-01  2.77460000E-01
  7.71410000E-02  6.50000000E-01  3.38650000E+01  5.09479000E+00  1.15879000E+00
  3.25840000E-01  1.02741000E-01  7.50000000E-01  3.38650000E+01  5.09479000E+00
  1.15879000E+00  3.25840000E-01  1.02741000E-01  7.50000000E-01
Contraction coefficients                   R   N=          49
  1.89515008E-03  1.43859006E-02  7.07320031E-02  2.40001011E-01  5.94797026E-01
  2.80802012E-01  1.13889012E-01  9.20811101E-01 -3.27447036E-03  1.00000000E+00
  1.00000000E+00  1.00000000E+00  1.00000000E+00  7.42999957E-04  5.79299966E-03
  2.99539983E-02  1.19027993E-01  3.68431979E-01  5.77298966E-01  1.43186060E-01
  6.24465262E-01  2.83366119E-01  1.00000000E+00  1.00000000E+00  1.00000000E+00
  1.00000000E+00  1.00000000E+00  8.30900251E-03  6.40240194E-02  2.77614084E-01
  7.45076225E-01  6.13711672E-01  4.43817763E-01  1.00000000E+00  1.00000000E+00
  1.00000000E+00  1.00000000E+00  2.54938145E-02  1.90373109E-01  8.52161486E-01
  1.00000000E+00  1.00000000E+00  1.00000000E+00  2.54938145E-02  1.90373109E-01
  8.52161486E-01  1.00000000E+00  1.00000000E+00  1.00000000E+00
P(S=P) Contraction coefficients            R   N=          49
  0.00000000E+00  0.00000000E+00  0.00000000E+00  0.00000000E+00  0.00000000E+00
  0.00000000E+00  3.65113974E-02  2.37152983E-01  8.19701941E-01  1.00000000E+00
  1.00000000E+00  1.00000000E+00  0.00000000E+00  0.00000000E+00  0.00000000E+00
  0.00000000E+00  0.00000000E+00  0.00000000E+00  0.00000000E+00  0.00000000E+00
  0.00000000E+00  0.00000000E+00  0.00000000E+00  0.00000000E+00  0.00000000E+00
  0.00000000E+00  1.00000000E+00  0.00000000E+00  0.00000000E+00  0.00000000E+00
  0.00000000E+00  0.00000000E+00  0.00000000E+00  0.00000000E+00  0.00000000E+00
  0.00000000E+00  0.00000000E+00  0.00000000E+00  0.00000000E+00  0.00000000E+00
  0.00000000E+00  0.00000000E+00  0.00000000E+00  0.00000000E+00  0.00000000E+00
  0.00000000E+00  0.00000000E+00  0.00000000E+00  0.00000000E+00
Coordinates of each shell                  R   N=          81
 -3.09160328E+00 -1.51178090E-05  1.13383567E-05 -3.09160328E+00 -1.51178090E-05
  1.13383567E-05 -3.09160328E+00 -1.51178090E-05  1.13383567E-05 -3.09160328E+00
 -1.51178090E-05  1.13383567E-05 -3.09160328E+00 -1.51178090E-05  1.13383567E-05
 -3.09160328E+00 -1.51178090E-05  1.13383567E-05  3.09160517E+00  1.13383567E-05
 -5.66917837E-06  3.09160517E+00  1.13383567E-05 -5.66917837E-06  3.09160517E+00
  1.13383567E-05 -5.66917837E-06  3.09160517E+00  1.13383567E-05 -5.66917837E-06
  3.09160517E+00  1.13383567E-05 -5.66917837E-06  3.09160517E+00  1.13383567E-05
 -5.66917837E-06  3.09160517E+00  1.13383567E-05 -5.66917837E-06  3.09160517E+00
  1.13383567E-05 -5.66917837E-06  3.09160517E+00  1.13383567E-05 -5.66917837E-06
  3.09160517E+00  1.13383567E-05 -5.66917837E-06  3.09160517E+00  1.13383567E-05
 -5.66917837E-06  3.09160517E+00  1.13383567E-05 -5.66917837E-06  3.09160517E+00
  1.13383567E-05 -5.66917837E-06 -3.04709230E+00  4.49542829E-01  1.77691143E+00
 -3.04709230E+00  4.49542829E-01  1.77691143E+00 -3.04709230E+00  4.49542829E-01
  1.77691143E+00 -3.04709230E+00  4.49542829E-01  1.77691143E+00  2.68970375E+00
 -1.86900294E+00 -1.68026687E+00  2.68970375E+00 -1.86900294E+00 -1.68026687E+00
  2.68970375E+00 -1.86900294E+00 -1.68026687E+00  2.68970375E+00 -1.86900294E+00
 -1.68026687E+00
Num ILSW                                   I              100
ILSW                                       I   N=         100
           1           0           0           1           2           0
           0           0           0           0        4336          -1
           7           0           0           0           2           0
           0           0           0           0           1           0
           1           1           0           0           0           0
           0           0      100000           0          -1           0
           0           0           0           0           0           0
           0           0           0           1           0           0
           0 -2000000000           1           0           0           0
           0           0           4          52           0           0
           0           0          55           0           0           0
           0           0           0           4           0           1
           0           0           0           0           0           0
           0           0           0           0           0           0
           0           0           0           0           0           0
           0           0           0           0           0           0
           0           0           0           0
Num RLSW                                   I               52
RLSW                                       R   N=          52
  1.00000000E+00  1.00000000E+00  1.00000000E+00  1.00000000E+00  5.40000000E-01
  0.00000000E+00  0.00000000E+00  1.00000000E+00  0.00000000E+00  0.00000000E+00
  0.00000000E+00  0.00000000E+00  1.00000000E+00  0.00000000E+00  0.00000000E+00
  0.00000000E+00  0.00000000E+00  1.00000000E+00  0.00000000E+00  0.00000000E+00
  0.00000000E+00  0.00000000E+00  1.00000000E+00  0.00000000E+00  0.00000000E+00
  0.00000000E+00  0.00000000E+00  1.00000000E+00  0.00000000E+00  0.00000000E+00
  0.00000000E+00  0.00000000E+00  1.00000000E+00  0.00000000E+00  0.00000000E+00
  0.00000000E+00  0.00000000E+00  0.00000000E+00  1.00000000E+00  1.00000000E+00
  0.00000000E+00  1.00000000E+00  0.00000000E+00  0.00000000E+00  0.00000000E+00
  0.00000000E+00  0.00000000E+00  0.00000000E+00  0.00000000E+00  0.00000000E+00
  0.00000000E+00  0.00000000E+00
MxBond                                     I                2
NBond                                      I   N=           4
           2           2           1           1
IBond                                      I   N=           8
           2           3           1           4           1           0
           2           0
RBond                                      R   N=           8
  1.00000000E-01  1.00000000E+00  1.00000000E-01  1.00000000E+00  1.00000000E+00
  0.00000000E+00  1.00000000E+00  0.00000000E+00
Virial Ratio                               R      2.001768734468290E+00
SCF Energy                                 R     -4.743872659627024E+02
Total Energy                               R     -4.743872659627024E+02
S**2                                       R      1.174040420437450E-09
S**2 after annihilation                    R      5.417888363351140E-13
RMS Force                                  R      4.508031369409037E-06
RMS Density                                R      6.557291349929559E-09
Job Status                                 I                1
Nuclear derivative order                   I                1
External E-field                           R   N=          35
  0.00000000E+00  0.00000000E+00  0.00000000E+00  0.00000000E+00  0.00000000E+00
  0.00000000E+00  0.00000000E+00  0.00000000E+00  0.00000000E+00  0.00000000E+00
  0.00000000E+00  0.00000000E+00  0.00000000E+00  0.00000000E+00  0.00000000E+00
  0.00000000E+00  0.00000000E+00  0.00000000E+00  0.00000000E+00  0.00000000E+00
  0.00000000E+00  0.00000000E+00  0.00000000E+00  0.00000000E+00  0.00000000E+00
  0.00000000E+00  0.00000000E+00  0.00000000E+00  0.00000000E+00  0.00000000E+00
  0.00000000E+00  0.00000000E+00  0.00000000E+00  0.00000000E+00  0.00000000E+00
IOpCl                                      I                1
IROHF                                      I                0
Alpha Orbital Energies                     R   N=          64
 -8.99785879E+01 -1.96735758E+01 -8.33992612E+00 -6.26207843E+00 -6.25837195E+00
 -6.25271225E+00 -1.08497933E+00 -8.37669195E-01 -5.25752918E-01 -4.96235558E-01
 -3.98057122E-01 -3.56663687E-01 -3.47986293E-01 -2.16987287E-01  1.61190075E-02
  3.91309518E-02  4.67171393E-02  5.47626386E-02  6.99313374E-02  1.37220476E-01
  1.93144335E-01  1.99030239E-01  2.12104583E-01  2.56091147E-01  3.08747251E-01
  3.39627696E-01  3.46052390E-01  3.92402623E-01  5.35100367E-01  5.91341286E-01
  7.01772788E-01  7.15830338E-01  7.87406136E-01  8.08669716E-01  9.68538939E-01
  1.04053098E+00  1.08169598E+00  1.09477388E+00  1.37441022E+00  1.39199648E+00
  1.39860248E+00  1.45964675E+00  1.47382875E+00  1.64145762E+00  1.66258482E+00
  1.67864744E+00  2.05949367E+00  2.08995934E+00  2.47944502E+00  2.53249709E+00
  2.88289182E+00  2.88734915E+00  3.16517836E+00  3.18751287E+00  3.84308822E+00
  5.03520621E+00  5.04460346E+00  5.51303878E+00  7.81646317E+00  1.74059682E+01
  1.74217515E+01  1.74528224E+01  4.98714873E+01  1.89076274E+02
Beta Orbital Energies                      R   N=          64
 -8.99785879E+01 -1.96735758E+01 -8.33992612E+00 -6.26207842E+00 -6.25837195E+00
 -6.25271226E+00 -1.08497934E+00 -8.37669184E-01 -5.25752926E-01 -4.96235556E-01
 -3.98057169E-01 -3.56663365E-01 -3.47986587E-01 -2.16987289E-01  1.61189994E-02
  3.91309943E-02  4.67170806E-02  5.47626890E-02  6.99313397E-02  1.37220480E-01
  1.93144388E-01  1.99030120E-01  2.12104560E-01  2.56091206E-01  3.08747258E-01
  3.39627711E-01  3.46052377E-01  3.92402614E-01  5.35100366E-01  5.91341302E-01
  7.01772796E-01  7.15830346E-01  7.87406231E-01  8.08669647E-01  9.68538932E-01
  1.04053097E+00  1.08169608E+00  1.09477379E+00  1.37441023E+00  1.39199650E+00
  1.39860246E+00  1.45964674E+00  1.47382875E+00  1.64145764E+00  1.66258479E+00
  1.67864752E+00  2.05949367E+00  2.08995935E+00  2.47944501E+00  2.53249709E+00
  2.88289151E+00  2.88734944E+00  3.16517835E+00  3.18751286E+00  3.84308822E+00
  5.03520637E+00  5.04460327E+00  5.51303876E+00  7.81646317E+00  1.74059682E+01
  1.74217515E+01  1.74528224E+01  4.98714873E+01  1.89076274E+02
Alpha MO coefficients                      R   N=        4096
  1.14202542E-07 -3.77545395E-07  2.14294754E-06 -3.89227171E-07 -4.38808877E-07
  3.79791705E-06 -6.70887532E-06  1.44410146E-06  2.15892665E-06 -2.21431437E-05
  1.03787980E-06 -1.55765052E-06  1.99766754E-06  1.67469937E-04  4.83644993E-05
  2.16124249E-05  7.81131519E-05  1.40825670E-06  1.82714267E-06  1.24907175E-06
  2.33186827E-06  3.60014702E-07  4.10786502E-01  6.54412190E-01  1.53467396E-02
 -4.34233868E-03  1.60442116E-03 -9.00104857E-04  1.26991913E-04 -2.65266992E-05
 -1.64190026E-05 -1.43160279E-05 -3.27148791E-05 -5.58467750E-05 -4.90002352E-05
  8.25500516E-06  1.85120748E-05  1.62959416E-05  2.68440806E-06  5.14462524E-06
  4.89275665E-06 -4.09595044E-05 -1.31025044E-04 -1.17944841E-04  8.63773180E-05
  1.36361636E-04  1.21152037E-04  1.24654696E-05  1.53772443E-05  7.62828014E-05
 -3.76483762E-05  1.65024759E-05  5.99710674E-07 -1.93905469E-06 -1.63777948E-04
 -6.67216452E-06  5.52123004E-07  4.34751430E-06  2.59024895E-05 -2.14114865E-04
  2.73224364E-04 -2.85152061E-05 -1.27289768E-04 -1.14727198E-04  5.52844708E-01
  4.69701066E-01  2.45796734E-04  2.99738165E-04  1.20301560E-03  8.03511954E-03
 -3.69070143E-05 -2.82088049E-05 -1.19734472E-04 -3.07555282E-03 -1.22411560E-04
  4.13875141E-05  1.73787707E-04  2.48386936E-03  3.60248980E-04  9.18372742E-05
  3.55373389E-04  1.29688821E-04  7.87347594E-06  5.40103366E-05 -2.48597686E-05
  9.86020178E-07  3.41950398E-08 -3.48338865E-07  3.44300602E-06 -9.71971961E-06
  4.18263855E-05 -5.47823573E-05 -4.72687723E-04  3.45610059E-04  4.51133414E-06
  2.23579384E-05 -8.58704215E-07 -2.76064009E-07 -1.94869597E-07  1.69004102E-05
 -5.05064136E-07 -2.09421879E-07 -5.93648898E-05  1.07852917E-06  3.53109367E-07
  9.47743268E-05 -3.75522898E-06 -3.02989957E-06 -4.01702330E-06  9.57223451E-05
  7.49113563E-05  1.67519012E-05 -5.38468301E-07 -6.85179814E-06 -2.59464519E-05
 -4.63269063E-07  6.31239012E-05 -3.05477243E-06 -1.05511311E-03  1.28250847E-05
  1.07774790E-04  4.28117240E-04  1.41656286E-05 -3.16068126E-05  2.37646166E-04
  8.92070572E-06 -1.41174993E-06 -3.16910848E-06  4.47774247E-08  2.06719404E-06
  4.50077666E-05 -3.75824687E-06 -7.03266900E-06 -1.53908237E-05 -9.61537518E-05
  1.82349145E-05  3.28878904E-05 -1.02228230E-04  1.46501145E-04 -9.56725140E-06
  5.78662946E-05  2.00629209E-03  5.40895630E-04  2.79696152E-04  1.01688150E-03
  1.92564844E-05  2.17507852E-05  1.73870572E-05  3.21472792E-05  4.91192196E-06
 -1.19759263E-01 -3.20473319E-01  5.15962628E-01  5.99042934E-01  4.28405239E-02
 -1.48944976E-02  2.33834723E-03 -4.13074266E-04 -1.90382095E-04 -1.64332683E-04
 -8.51135284E-04 -1.38469679E-03 -1.20806672E-03 -1.96597648E-03 -3.13091035E-03
 -2.73287014E-03 -1.75450189E-04 -2.78538500E-04 -2.33159276E-04 -4.42929647E-04
 -1.41204266E-03 -1.27160857E-03  1.10534347E-03  1.72016609E-03  1.52650032E-03
 -1.22360309E-04  1.13529819E-04  1.12372811E-03 -2.93561136E-05  9.22609982E-05
 -2.26986805E-06 -7.41520876E-05 -2.13006401E-03 -8.76523727E-05  1.24291127E-05
  7.21136483E-05  1.50321462E-04 -2.01568335E-03  3.47355998E-03 -2.77517040E-04
 -1.20751376E-03 -1.08845084E-03  2.87922368E-06  1.53339173E-05  4.82795104E-06
  1.57392878E-06 -7.59385451E-07 -1.52683320E-04 -6.10496401E-05 -8.08748143E-06
 -1.29127959E-06  3.53762619E-04  2.36222436E-04  2.87221955E-05  3.17662026E-05
 -1.51274863E-05  2.03108385E-04 -3.78421286E-06  7.39414478E-05 -4.50557447E-06
 -4.81379999E-06  4.97118551E-06  2.50480601E-05 -2.59761640E-07 -1.73682981E-04
 -4.77341618E-04  9.02383618E-04  6.63925744E-04  1.24011931E-04 -5.28500258E-05
 -9.93971100E-05 -2.51071957E-03  3.79515444E-04  2.89994346E-04  3.70347213E-01
 -6.33902504E-02 -4.81334384E-02  6.93169905E-01 -1.18625350E-01 -9.00675059E-02
  5.37513939E-02 -9.18581711E-03 -6.97680343E-03 -7.54227985E-03  1.23293654E-03
  9.35029874E-04  4.75074646E-03 -6.89961725E-04 -5.23559799E-04  1.02428632E-04
 -3.05640276E-04  1.11569485E-04 -2.23435904E-04 -3.51525835E-04 -5.59641653E-05
  4.33643477E-05 -2.36879049E-04  2.87566834E-05  3.30586703E-07  6.76387339E-06
  2.10764703E-05  5.48833410E-06  3.40954013E-05  6.22197788E-05 -5.10868518E-05
 -4.44231085E-05  6.59068683E-07  2.99774361E-06  1.53922824E-06 -6.43232187E-06
 -6.54984069E-06 -2.95176253E-05 -2.12855714E-05  2.90738860E-05  3.11627907E-05
  8.28212221E-05  8.58796626E-05 -6.94248204E-05 -5.46957479E-05  3.88504469E-05
  2.32606997E-05  6.68338092E-05  6.09347451E-05  3.95266671E-07  1.06508691E-08
  3.66134838E-07  4.66750867E-06 -4.01002785E-06 -7.73958739E-04 -2.09430633E-03
  3.70719355E-03  3.75278704E-03 -6.75402531E-04 -3.33633256E-04 -4.79525880E-04
 -4.11486545E-04 -1.46246516E-03 -1.32409000E-03  7.94277689E-02  2.75170708E-01
  2.48947817E-01  1.48411699E-01  5.14053719E-01  4.65067029E-01  1.12806102E-02
  3.90432165E-02  3.53221703E-02 -1.50719743E-03 -5.06662389E-03 -4.58561483E-03
  9.74976167E-04  3.20549585E-03  2.89967437E-03 -7.11261559E-05 -2.15224905E-04
 -6.12255664E-04  2.69254559E-04 -2.39957817E-04  8.31038227E-06 -2.68706753E-05
  1.10581346E-06 -2.18700014E-05  5.51300573E-06  1.24459795E-05 -5.57215853E-04
 -9.55286039E-05  1.13880795E-03  7.97015599E-05  4.77556916E-04  4.31267076E-04
 -6.98090518E-08 -5.27103892E-07 -1.52271907E-07  4.93133190E-06 -6.12847273E-06
  4.45407801E-06  1.09974293E-06 -2.16834134E-05  2.92721442E-05  4.55232501E-06
  4.64257337E-06  5.86536060E-05 -5.79778050E-05 -2.39878563E-05 -5.08580232E-06
 -5.20141223E-05  4.06287222E-05  1.51637058E-07 -1.28780615E-06  1.65384384E-06
 -6.71035135E-07  5.98215815E-06  1.62385889E-05  4.41600686E-05 -7.96223727E-05
 -7.47071764E-05  1.19699604E-05 -3.88509918E-06  5.32036651E-06  4.25474495E-05
  1.42700389E-03 -1.59101085E-03 -6.71028571E-03 -2.54019210E-01  2.82917743E-01
 -1.25111423E-02 -4.73724572E-01  5.27617357E-01 -9.18622480E-04 -3.46761170E-02
  3.86200435E-02  1.27358212E-04  4.66284064E-03 -5.18994297E-03 -8.07395743E-05
 -2.69423585E-03  3.00065896E-03 -3.58407046E-04 -1.19523581E-04 -5.33502521E-05
 -2.06666530E-04  1.16683535E-04  1.30844432E-05 -2.34645273E-05  3.44999723E-05
 -1.94914790E-05 -4.59832543E-06  1.05311339E-05  1.10862904E-06  4.95608366E-06
 -4.91879410E-06 -1.28992938E-06 -6.25859098E-05  7.16349456E-05 -1.18686482E-01
 -1.95588200E-01  1.63460214E-03  1.14477146E-02  4.58862023E-02  5.74654809E-01
  2.80725950E-03  1.83675321E-02  7.35982378E-02  4.19738262E-01  3.97242711E-03
  6.57426483E-03  2.76209618E-02 -2.04623112E-02 -5.42711864E-03 -1.54109399E-03
 -5.86578254E-03  8.57685300E-03  4.07505284E-04  5.24154846E-03  4.51345882E-03
  2.77794956E-04  4.29888348E-04  1.22237020E-03 -2.57098375E-03 -4.52831922E-03
  6.40590399E-03  8.64776444E-03  7.77306182E-03 -4.82403410E-03  1.35023275E-04
  1.14861409E-04  9.34921712E-04  2.62134485E-06 -1.72322625E-06  1.67627153E-03
  5.72193010E-06  9.08606222E-08 -1.41430941E-03  7.01473908E-05  5.22161786E-05
 -7.61144937E-03 -7.77742826E-05 -5.29743947E-05 -2.95673946E-03 -1.95596792E-03
 -1.53069487E-03 -8.55672673E-04  3.39132414E-05  4.14361898E-04  1.40643158E-03
  9.29257525E-05  1.10432541E-01  8.91074321E-02  1.68398331E-02 -7.78186487E-04
 -6.35399850E-03 -2.52090754E-02  9.02288264E-04  2.61649599E-04 -4.21278493E-03
 -7.55389464E-05  3.12925544E-05  2.73603784E-05  2.29679022E-03  3.81884125E-03
  5.48957682E-03 -5.26073842E-04 -1.96786384E-03 -1.18707419E-02  8.72011711E-03
 -7.98271838E-04 -2.99612825E-03 -6.54692115E-03  7.53692313E-03 -2.81106186E-04
 -1.35419619E-03 -8.68031917E-03 -1.72432946E-03 -1.24093696E-03 -4.38691862E-03
 -5.24288406E-04  2.31739330E-04 -1.41302203E-04  3.84775823E-04  5.60710395E-05
  3.34202803E-02  9.49706475E-02 -1.99348395E-01 -3.68825351E-01  6.69140721E-01
  4.07831402E-01 -1.02259197E-02  8.12337173E-04 -7.39858771E-04 -1.30308495E-03
  1.80976560E-03  1.26113754E-02  1.11359543E-02  3.70167427E-03  2.51968590E-02
  2.22609175E-02 -5.65985865E-03 -3.51036130E-02 -3.11236474E-02 -2.66525601E-03
 -4.72309234E-02 -4.11774254E-02 -2.24303653E-03 -7.48368319E-03 -5.03073035E-03
 -1.63614227E-03  2.21052465E-03  2.38679879E-02 -2.31181694E-03  2.19086550E-03
 -2.94723626E-03 -3.35585525E-03  9.73149404E-03  1.05738210E-03  1.80611177E-04
  6.64871242E-04  1.01044665E-01  1.33277820E-01  2.04042979E-03  4.76659216E-03
  1.72314578E-02  1.55370447E-02  3.92300309E-02  6.56851554E-02  5.50861714E-03
  6.23811898E-02  2.43550265E-01 -2.00333456E-01  8.05822971E-03  8.98138523E-02
  3.50605632E-01 -2.86218313E-01  3.37247154E-03  6.05527865E-02  2.34616463E-01
 -6.00917951E-02  1.41827374E-03  6.86040496E-03  2.48792234E-02  1.74311266E-02
  1.61431245E-03  7.39964151E-03 -2.56233358E-03  3.75342692E-04  9.88646049E-04
  2.81938162E-03 -6.01325348E-03 -1.12162185E-02  2.18501600E-02  1.89042410E-02
  1.88601773E-03 -2.05146342E-03 -1.02293960E-03 -1.21876007E-03 -2.06919935E-03
 -2.96995578E-03 -3.75297862E-03 -3.97481372E-03 -5.77114626E-03 -7.27156248E-03
  5.31363296E-03  8.23919991E-03  1.03464557E-02  1.20283519E-02  1.47677335E-02
  1.91371071E-02  6.61298847E-03  3.68442184E-03  7.77409095E-03 -1.52779878E-04
 -1.81376204E-03 -2.31206765E-03  6.89522731E-04 -1.08210813E-03  1.65737142E-01
  2.59435988E-01  8.09453673E-02 -1.01094694E-04 -7.36412364E-03 -2.90562104E-02
 -8.86324795E-03 -1.33703034E-02 -9.76787151E-03  3.88630963E-04 -1.02415343E-03
 -7.65681913E-04 -2.23339972E-03 -3.74852183E-03  4.70270247E-03 -3.33898604E-04
 -1.83962063E-02  1.14616033E-02  7.49287557E-03 -4.02638670E-04 -2.66531617E-02
  1.70178231E-02  5.86614556E-03  8.47320731E-04 -1.79342441E-02  8.88688403E-03
  5.48087039E-03  1.64038004E-03  8.53480317E-05 -1.44950095E-03  3.00529687E-04
 -3.72954368E-04  3.17696818E-04  2.52346235E-04  1.21300247E-02  3.46569856E-02
 -7.45096568E-02 -1.36142076E-01  2.50102709E-01  2.97655339E-01  2.32940729E-02
 -3.44477889E-03 -1.76395958E-02 -1.63055364E-02 -1.33009476E-02 -6.06532921E-02
 -5.48094814E-02 -2.59115012E-02 -1.18106502E-01 -1.06722441E-01  3.79445351E-02
  1.72141434E-01  1.55476963E-01  6.65164576E-02  3.00564086E-01  2.71924903E-01
  1.81534522E-02  8.01161256E-02  7.36929937E-02 -1.02781509E-02 -9.51493550E-03
 -4.11769880E-02  2.73223883E-02 -1.08191021E-02 -1.17670088E-02 -1.95544329E-02
 -7.41969321E-03  1.19408456E-03  1.03293517E-03  2.02994359E-03 -1.57396790E-01
 -2.84925690E-01 -1.31614068E-01 -6.05894700E-03 -1.93826340E-02 -1.76276027E-02
 -2.35587934E-04 -3.96041275E-04 -7.69776508E-03  2.94809001E-01 -7.45934481E-02
  1.32235399E-03 -1.13605432E-02  4.32043439E-01 -1.09317571E-01  1.51482296E-03
 -1.02497159E-02  3.89529281E-01 -9.87853730E-02 -3.94371489E-03 -3.14835172E-03
  8.49692813E-02 -2.23640013E-02 -5.87063673E-03 -7.02147911E-04  1.27262189E-02
 -3.36728489E-03  1.17907745E-03 -1.52663554E-04 -4.38486182E-04  9.63484560E-04
  1.66478089E-03 -2.73608113E-03 -5.88217996E-03 -2.84063213E-03  4.05963534E-04
  5.39460154E-05  2.89124777E-03 -2.76584579E-04 -3.41002483E-03  6.46917273E-03
 -5.33810354E-04 -6.52192488E-03  1.24849665E-02  7.10993318E-04  9.34817502E-03
 -1.82907618E-02  1.75782774E-03  2.04660264E-02 -3.65788083E-02  1.29300168E-03
  1.49068394E-02 -1.70100307E-02  1.27823926E-03  6.62703573E-04  1.27632728E-03
 -3.08274080E-04 -1.60888517E-03 -6.03843002E-06  2.95606922E-04  2.58890344E-03
 -9.00154765E-04  3.47486021E-02 -8.91205620E-03  3.65746698E-03  6.00037456E-03
  6.60695862E-03  8.14284201E-04  1.42545840E-03 -7.07351695E-04  1.54510779E-04
  2.62793112E-04  2.17362534E-02  2.39885516E-02 -1.07200442E-02 -9.22723364E-04
  3.27499314E-02  3.49870125E-02 -1.56230172E-02 -8.59088924E-04  3.03536998E-02
  3.31916672E-02 -1.34210250E-02  5.93253250E-03  8.86275804E-03  7.42060586E-03
  6.41487611E-05 -1.00203918E-03  1.42262666E-03  9.46407713E-04  4.21810799E-05
  8.92440314E-05 -2.98028217E-04 -8.46360569E-04  1.77593426E-03  3.62267246E-03
 -8.73989009E-03 -1.86780354E-03  6.14898472E-03  5.27879266E-03  3.98297095E-02
 -4.41102974E-02  8.83088571E-03  6.78267330E-02 -7.67674680E-02  1.70587214E-02
  1.30634674E-01 -1.47889688E-01 -2.40246901E-02 -1.92685448E-01  2.18036421E-01
 -5.23009586E-02 -3.96338942E-01  4.47993544E-01 -3.18350427E-02 -2.19630910E-01
  2.46555551E-01 -1.44531631E-02  8.45046727E-05 -2.40773906E-03 -7.27561100E-03
  1.86077853E-03 -2.55018222E-03 -4.15335813E-03 -4.75354164E-03  3.12697771E-03
  2.95458820E-03 -1.71138494E-06  2.31042829E-04 -2.29588896E-04 -3.48923157E-03
 -1.63761331E-03 -1.43374023E-02  1.59335501E-02 -4.36073996E-03 -7.36843987E-03
 -2.11206013E-01 -3.15682918E-03  3.58202431E-03  2.40474275E-02 -3.17925003E-01
 -4.37639266E-03  6.04747102E-03  3.01769564E-02 -2.97788175E-01 -7.26721079E-03