 Entering Gaussian System, Link 0=g16
 Initial command:
 /home/szhao/Apps/g16/l1.exe "/home/szhao/tmp/Gau-29439.inp" -scrdir="/home/szhao/tmp/"
 Default is to use a total of  16 processors:
                               16 via shared-memory
                                1 via Linda
 Entering Link 1 = /home/szhao/Apps/g16/l1.exe PID=     29441.
  
 Copyright (c) 1988,1990,1992,1993,1995,1998,2003,2009,2016,
            Gaussian, Inc.  All Rights Reserved.
  
 This is part of the Gaussian(R) 16 program.  It is based on
 the Gaussian(R) 09 system (copyright 2009, Gaussian, Inc.),
 the Gaussian(R) 03 system (copyright 2003, Gaussian, Inc.),
 the Gaussian(R) 98 system (copyright 1998, Gaussian, Inc.),
 the Gaussian(R) 94 system (copyright 1995, Gaussian, Inc.),
 the Gaussian 92(TM) system (copyright 1992, Gaussian, Inc.),
 the Gaussian 90(TM) system (copyright 1990, Gaussian, Inc.),
 the Gaussian 88(TM) system (copyright 1988, Gaussian, Inc.),
 the Gaussian 86(TM) system (copyright 1986, Carnegie Mellon
 University), and the Gaussian 82(TM) system (copyright 1983,
 Carnegie Mellon University). Gaussian is a federally registered
 trademark of Gaussian, Inc.
  
 This software contains proprietary and confidential information,
 including trade secrets, belonging to Gaussian, Inc.
  
 This software is provided under written license and may be
 used, copied, transmitted, or stored only in accord with that
 written license.
  
 The following legend is applicable only to US Government
 contracts under FAR:
  
                    RESTRICTED RIGHTS LEGEND
  
 Use, reproduction and disclosure by the US Government is
 subject to restrictions as set forth in subparagraphs (a)
 and (c) of the Commercial Computer Software - Restricted
 Rights clause in FAR 52.227-19.
  
 Gaussian, Inc.
 340 Quinnipiac St., Bldg. 40, Wallingford CT 06492
  
  
 ---------------------------------------------------------------
 Warning -- This program may not be used in any manner that
 competes with the business of Gaussian, Inc. or will provide
 assistance to any competitor of Gaussian, Inc.  The licensee
 of this program is prohibited from giving any competitor of
 Gaussian, Inc. access to this program.  By using this program,
 the user acknowledges that Gaussian, Inc. is engaged in the
 business of creating and licensing software in the field of
 computational chemistry and represents and warrants to the
 licensee that it is not a competitor of Gaussian, Inc. and that
 it will not use this program in any manner prohibited above.
 ---------------------------------------------------------------
  

 Cite this work as:
 Gaussian 16, Revision A.03,
 M. J. Frisch, G. W. Trucks, H. B. Schlegel, G. E. Scuseria, 
 M. A. Robb, J. R. Cheeseman, G. Scalmani, V. Barone, 
 G. A. Petersson, H. Nakatsuji, X. Li, M. Caricato, A. V. Marenich, 
 J. Bloino, B. G. Janesko, R. Gomperts, B. Mennucci, H. P. Hratchian, 
 J. V. Ortiz, A. F. Izmaylov, J. L. Sonnenberg, D. Williams-Young, 
 F. Ding, F. Lipparini, F. Egidi, J. Goings, B. Peng, A. Petrone, 
 T. Henderson, D. Ranasinghe, V. G. Zakrzewski, J. Gao, N. Rega, 
 G. Zheng, W. Liang, M. Hada, M. Ehara, K. Toyota, R. Fukuda, 
 J. Hasegawa, M. Ishida, T. Nakajima, Y. Honda, O. Kitao, H. Nakai, 
 T. Vreven, K. Throssell, J. A. Montgomery, Jr., J. E. Peralta, 
 F. Ogliaro, M. J. Bearpark, J. J. Heyd, E. N. Brothers, K. N. Kudin, 
 V. N. Staroverov, T. A. Keith, R. Kobayashi, J. Normand, 
 K. Raghavachari, A. P. Rendell, J. C. Burant, S. S. Iyengar, 
 J. Tomasi, M. Cossi, J. M. Millam, M. Klene, C. Adamo, R. Cammi, 
 J. W. Ochterski, R. L. Martin, K. Morokuma, O. Farkas, 
 J. B. Foresman, and D. J. Fox, Gaussian, Inc., Wallingford CT, 2016.
 
 ******************************************
 Gaussian 16:  ES64L-G16RevA.03 25-Dec-2016
                19-Nov-2024 
 ******************************************
 %chk=opt.chk
 %mem=4GB
 %nprocshared=8
 Will use up to    8 processors via shared memory.
 ---------------------------------------
 #p UM062X/6-311+G** force int=superfine
 ---------------------------------------
 1/10=7,30=1,38=1/1,3;
 2/12=2,17=6,18=5,40=1/2;
 3/5=4,6=6,7=111,11=2,25=1,30=1,71=1,74=-55,75=-7,116=2/1,2,3;
 4//1;
 5/5=2,38=5/2;
 6/7=2,8=2,9=2,10=2,28=1/1;
 7/29=1/1,2,3,16;
 1/10=7,30=1/3;
 99//99;
 Leave Link    1 at Tue Nov 19 11:41:23 2024, MaxMem=   536870912 cpu:               1.1 elap:               0.1
 (Enter /home/szhao/Apps/g16/l101.exe)
 -------------------
 Title Card Required
 -------------------
 Symbolic Z-matrix:
 Charge =  0 Multiplicity = 1
 C                    -0.49715   0.        0. 
 C                     0.49715   0.        0. 
 H                    -1.13957  -0.88763   0. 
 H                    -1.13951   0.88776   0. 
 H                     1.13957   0.88763   0. 
 H                     1.13951  -0.88776   0. 
 
 ITRead=  0  0  0  0  0  0
 MicOpt= -1 -1 -1 -1 -1 -1
 NAtoms=      6 NQM=        6 NQMF=       0 NMMI=      0 NMMIF=      0
                NMic=       0 NMicF=      0.
                    Isotopes and Nuclear Properties:
 (Nuclear quadrupole moments (NQMom) in fm**2, nuclear magnetic moments (NMagM)
  in nuclear magnetons)

  Atom         1           2           3           4           5           6
 IAtWgt=          12          12           1           1           1           1
 AtmWgt=  12.0000000  12.0000000   1.0078250   1.0078250   1.0078250   1.0078250
 NucSpn=           0           0           1           1           1           1
 AtZEff=  -0.0000000  -0.0000000  -0.0000000  -0.0000000  -0.0000000  -0.0000000
 NQMom=    0.0000000   0.0000000   0.0000000   0.0000000   0.0000000   0.0000000
 NMagM=    0.0000000   0.0000000   2.7928460   2.7928460   2.7928460   2.7928460
 AtZNuc=   6.0000000   6.0000000   1.0000000   1.0000000   1.0000000   1.0000000
 Leave Link  101 at Tue Nov 19 11:41:23 2024, MaxMem=   536870912 cpu:               1.4 elap:               0.2
 (Enter /home/szhao/Apps/g16/l103.exe)

 GradGradGradGradGradGradGradGradGradGradGradGradGradGradGradGradGradGrad
 Berny optimization.
 Initialization pass.
 Trust Radius=3.00D-01 FncErr=1.00D-07 GrdErr=1.00D-07 EigMax=2.50D+02 EigMin=1.00D-04
 Number of steps in this run=      2 maximum allowed number of steps=      2.
 GradGradGradGradGradGradGradGradGradGradGradGradGradGradGradGradGradGrad

 Leave Link  103 at Tue Nov 19 11:41:23 2024, MaxMem=   536870912 cpu:               0.2 elap:               0.0
 (Enter /home/szhao/Apps/g16/l202.exe)
                          Input orientation:                          
 ---------------------------------------------------------------------
 Center     Atomic      Atomic             Coordinates (Angstroms)
 Number     Number       Type             X           Y           Z
 ---------------------------------------------------------------------
      1          6           0       -0.497154    0.000000    0.000000
      2          6           0        0.497154    0.000000    0.000000
      3          1           0       -1.139566   -0.887633    0.000000
      4          1           0       -1.139507    0.887763    0.000000
      5          1           0        1.139566    0.887633    0.000000
      6          1           0        1.139507   -0.887763    0.000000
 ---------------------------------------------------------------------
                    Distance matrix (angstroms):
                    1          2          3          4          5
     1  C    0.000000
     2  C    0.994308   0.000000
     3  H    1.095712   1.861920   0.000000
     4  H    1.095783   1.861930   1.775396   0.000000
     5  H    1.861920   1.095712   2.888947   2.279073   0.000000
     6  H    1.861930   1.095783   2.279073   2.889013   1.775396
                    6
     6  H    0.000000
 Stoichiometry    C2H4
 Framework group  C2H[SGH(C2H4)]
 Deg. of freedom     5
 Full point group                 C2H     NOp   4
 Largest Abelian subgroup         C2H     NOp   4
 Largest concise Abelian subgroup C2      NOp   2
                         Standard orientation:                         
 ---------------------------------------------------------------------
 Center     Atomic      Atomic             Coordinates (Angstroms)
 Number     Number       Type             X           Y           Z
 ---------------------------------------------------------------------
      1          6           0       -0.000000    0.497154    0.000000
      2          6           0       -0.000000   -0.497154    0.000000
      3          1           0       -0.887633    1.139566    0.000000
      4          1           0        0.887763    1.139507    0.000000
      5          1           0        0.887633   -1.139566    0.000000
      6          1           0       -0.887763   -1.139507    0.000000
 ---------------------------------------------------------------------
 Rotational constants (GHZ):         159.0895234          45.2576512          35.2342437
 Leave Link  202 at Tue Nov 19 11:41:23 2024, MaxMem=   536870912 cpu:               0.1 elap:               0.0
 (Enter /home/szhao/Apps/g16/l301.exe)
 Standard basis: 6-311+G(d,p) (5D, 7F)
 Ernie: Thresh=  0.10000D-02 Tol=  0.10000D-05 Strict=F.
 There are    27 symmetry adapted cartesian basis functions of AG  symmetry.
 There are     8 symmetry adapted cartesian basis functions of BG  symmetry.
 There are     8 symmetry adapted cartesian basis functions of AU  symmetry.
 There are    27 symmetry adapted cartesian basis functions of BU  symmetry.
 There are    26 symmetry adapted basis functions of AG  symmetry.
 There are     8 symmetry adapted basis functions of BG  symmetry.
 There are     8 symmetry adapted basis functions of AU  symmetry.
 There are    26 symmetry adapted basis functions of BU  symmetry.
    68 basis functions,   104 primitive gaussians,    70 cartesian basis functions
     8 alpha electrons        8 beta electrons
       nuclear repulsion energy        38.9978044653 Hartrees.
 IExCor= 4336 DFT=T Ex+Corr=M062X ExCW=0 ScaHFX=  0.540000
 ScaDFX=  1.000000  1.000000  1.000000  1.000000 ScalE2=  1.000000  1.000000
 IRadAn=      7 IRanWt=     -1 IRanGd=            0 ICorTp=0 IEmpDi=  4
 NAtoms=    6 NActive=    6 NUniq=    3 SFac= 4.00D+00 NAtFMM=   60 NAOKFM=F Big=F
 Integral buffers will be    131072 words long.
 Raffenetti 2 integral format.
 Two-electron integral symmetry is turned on.
 Leave Link  301 at Tue Nov 19 11:41:24 2024, MaxMem=   536870912 cpu:               0.4 elap:               0.1
 (Enter /home/szhao/Apps/g16/l302.exe)
 NPDir=0 NMtPBC=     1 NCelOv=     1 NCel=       1 NClECP=     1 NCelD=      1
         NCelK=      1 NCelE2=     1 NClLst=     1 CellRange=     0.0.
 One-electron integrals computed using PRISM.
 One-electron integral symmetry used in STVInt
 NBasis=    68 RedAO= T EigKep=  2.77D-05  NBF=    26     8     8    26
 NBsUse=    68 1.00D-06 EigRej= -1.00D+00 NBFU=    26     8     8    26
 Precomputing XC quadrature grid using
 IXCGrd= 4 IRadAn=           7 IRanWt=          -1 IRanGd=           0 AccXCQ= 0.00D+00.
 Generated NRdTot=       0 NPtTot=           0 NUsed=           0 NTot=          32
 NSgBfM=    70    70    70    70    70 MxSgAt=     6 MxSgA2=     6.
 Leave Link  302 at Tue Nov 19 11:41:24 2024, MaxMem=   536870912 cpu:               1.3 elap:               0.2
 (Enter /home/szhao/Apps/g16/l303.exe)
 DipDrv:  MaxL=1.
 Leave Link  303 at Tue Nov 19 11:41:24 2024, MaxMem=   536870912 cpu:               0.3 elap:               0.1
 (Enter /home/szhao/Apps/g16/l401.exe)
 ExpMin= 4.38D-02 ExpMax= 4.56D+03 ExpMxC= 6.82D+02 IAcc=3 IRadAn=         7 AccDes= 0.00D+00
 Harris functional with IExCor= 1009 and IRadAn=       7 diagonalized for initial guess.
 HarFok:  IExCor= 1009 AccDes= 0.00D+00 IRadAn=         7 IDoV= 1 UseB2=F ITyADJ=14
 ICtDFT=  3500011 ScaDFX=  1.000000  1.000000  1.000000  1.000000
 FoFCou: FMM=F IPFlag=           0 FMFlag=      100000 FMFlg1=           0
         NFxFlg=           0 DoJE=T BraDBF=F KetDBF=T FulRan=T
         wScrn=  0.000000 ICntrl=       500 IOpCl=  0 I1Cent=   200000004 NGrid=           0
         NMat0=    1 NMatS0=      1 NMatT0=    0 NMatD0=    1 NMtDS0=    0 NMtDT0=    0
 Petite list used in FoFCou.
 Harris En= -78.4638169196169    
 JPrj=0 DoOrth=F DoCkMO=F.
 Initial guess orbital symmetries:
 Alpha Orbitals:
       Occupied  (AG) (BU) (AG) (BU) (BU) (AG) (AU) (AG)
       Virtual   (BG) (BU) (AG) (BU) (AU) (AG) (AG) (AG) (BU) (BG)
                 (BU) (BU) (AG) (AG) (BU) (BU) (AU) (AG) (BU) (BU)
                 (BG) (AG) (AG) (BU) (AG) (BG) (BU) (AU) (AU) (AG)
                 (BU) (AG) (AG) (BG) (BU) (BU) (BG) (AU) (BU) (AG)
                 (AG) (AU) (AG) (BG) (BU) (BU) (BU) (AG) (AU) (AG)
                 (BU) (BG) (BU) (AG) (BU) (BU) (AG) (AG) (AG) (BU)
 Beta  Orbitals:
       Occupied  (AG) (BU) (AG) (BU) (BU) (AG) (AU) (AG)
       Virtual   (BG) (BU) (AG) (BU) (AU) (AG) (AG) (AG) (BU) (BG)
                 (BU) (BU) (AG) (AG) (BU) (BU) (AU) (AG) (BU) (BU)
                 (BG) (AG) (AG) (BU) (AG) (BG) (BU) (AU) (AU) (AG)
                 (BU) (AG) (AG) (BG) (BU) (BU) (BG) (AU) (BU) (AG)
                 (AG) (AU) (AG) (BG) (BU) (BU) (BU) (AG) (AU) (AG)
                 (BU) (BG) (BU) (AG) (BU) (BU) (AG) (AG) (AG) (BU)
 The electronic state of the initial guess is 1-AG.
 Initial guess <Sx>= 0.0000 <Sy>= 0.0000 <Sz>= 0.0000 <S**2>= 0.0000 S= 0.0000
 Leave Link  401 at Tue Nov 19 11:41:24 2024, MaxMem=   536870912 cpu:               1.8 elap:               0.3
 (Enter /home/szhao/Apps/g16/l502.exe)
 Keep R1 and R2 ints in memory in symmetry-blocked form, NReq=9935231.
 FoFCou: FMM=F IPFlag=           0 FMFlag=           0 FMFlg1=           0
         NFxFlg=           0 DoJE=F BraDBF=F KetDBF=F FulRan=T
         wScrn=  0.000000 ICntrl=       600 IOpCl=  0 I1Cent=           0 NGrid=           0
         NMat0=    1 NMatS0=   2346 NMatT0=    0 NMatD0=    1 NMtDS0=    0 NMtDT0=    0
 Petite list used in FoFCou.
 UHF open shell SCF:
 Using DIIS extrapolation, IDIIS=  1040.
 NGot=   536870912 LenX=   535358062 LenY=   535352721
 Requested convergence on RMS density matrix=1.00D-08 within 128 cycles.
 Requested convergence on MAX density matrix=1.00D-06.
 Requested convergence on             energy=1.00D-06.
 No special actions if energy rises.

 Cycle   1  Pass 1  IDiag  1:
 E= -78.0357017916183    
 DIIS: error= 9.71D-02 at cycle   1 NSaved=   1.
 NSaved= 1 IEnMin= 1 EnMin= -78.0357017916183     IErMin= 1 ErrMin= 9.71D-02
 ErrMax= 9.71D-02  0.00D+00 EMaxC= 1.00D-01 BMatC= 1.28D+00 BMatP= 1.28D+00
 IDIUse=3 WtCom= 2.93D-02 WtEn= 9.71D-01
 Coeff-Com:  0.100D+01
 Coeff-En:   0.100D+01
 Coeff:      0.100D+01
 Gap=     0.229 Goal=   None    Shift=    0.000
 Gap=     0.229 Goal=   None    Shift=    0.000
 GapD=    0.229 DampG=1.000 DampE=0.500 DampFc=0.5000 IDamp=-1.
 Damping current iteration by 5.00D-01
 RMSDP=8.76D-03 MaxDP=1.49D-01              OVMax= 2.81D-01

 Cycle   2  Pass 1  IDiag  1:
 E= -78.1770490833964     Delta-E=       -0.141347291778 Rises=F Damp=T
 DIIS: error= 1.11D-02 at cycle   2 NSaved=   2.
 NSaved= 2 IEnMin= 2 EnMin= -78.1770490833964     IErMin= 2 ErrMin= 1.11D-02
 ErrMax= 1.11D-02  0.00D+00 EMaxC= 1.00D-01 BMatC= 2.80D-02 BMatP= 1.28D+00
 IDIUse=3 WtCom= 8.89D-01 WtEn= 1.11D-01
 Coeff-Com: -0.737D-01 0.107D+01
 Coeff-En:   0.000D+00 0.100D+01
 Coeff:     -0.655D-01 0.107D+01
 Gap=     0.380 Goal=   None    Shift=    0.000
 Gap=     0.380 Goal=   None    Shift=    0.000
 RMSDP=2.40D-03 MaxDP=2.28D-02 DE=-1.41D-01 OVMax= 1.58D-01

 Cycle   3  Pass 1  IDiag  1:
 E= -78.3187932303222     Delta-E=       -0.141744146926 Rises=F Damp=F
 DIIS: error= 5.47D-03 at cycle   3 NSaved=   3.
 NSaved= 3 IEnMin= 3 EnMin= -78.3187932303222     IErMin= 3 ErrMin= 5.47D-03
 ErrMax= 5.47D-03  0.00D+00 EMaxC= 1.00D-01 BMatC= 2.29D-03 BMatP= 2.80D-02
 IDIUse=3 WtCom= 9.45D-01 WtEn= 5.47D-02
 Coeff-Com: -0.445D-01 0.938D-01 0.951D+00
 Coeff-En:   0.000D+00 0.000D+00 0.100D+01
 Coeff:     -0.420D-01 0.887D-01 0.953D+00
 Gap=     0.380 Goal=   None    Shift=    0.000
 Gap=     0.380 Goal=   None    Shift=    0.000
 RMSDP=2.72D-04 MaxDP=2.89D-03 DE=-1.42D-01 OVMax= 9.42D-03

 Cycle   4  Pass 1  IDiag  1:
 E= -78.3194150913153     Delta-E=       -0.000621860993 Rises=F Damp=F
 DIIS: error= 3.98D-04 at cycle   4 NSaved=   4.
 NSaved= 4 IEnMin= 4 EnMin= -78.3194150913153     IErMin= 4 ErrMin= 3.98D-04
 ErrMax= 3.98D-04  0.00D+00 EMaxC= 1.00D-01 BMatC= 1.03D-05 BMatP= 2.29D-03
 IDIUse=3 WtCom= 9.96D-01 WtEn= 3.98D-03
 Coeff-Com:  0.591D-02-0.137D-01-0.783D-01 0.109D+01
 Coeff-En:   0.000D+00 0.000D+00 0.000D+00 0.100D+01
 Coeff:      0.589D-02-0.136D-01-0.779D-01 0.109D+01
 Gap=     0.380 Goal=   None    Shift=    0.000
 Gap=     0.380 Goal=   None    Shift=    0.000
 RMSDP=9.83D-05 MaxDP=1.55D-03 DE=-6.22D-04 OVMax= 1.40D-03

 Cycle   5  Pass 1  IDiag  1:
 E= -78.3194200244064     Delta-E=       -0.000004933091 Rises=F Damp=F
 DIIS: error= 4.98D-05 at cycle   5 NSaved=   5.
 NSaved= 5 IEnMin= 5 EnMin= -78.3194200244064     IErMin= 5 ErrMin= 4.98D-05
 ErrMax= 4.98D-05  0.00D+00 EMaxC= 1.00D-01 BMatC= 1.41D-07 BMatP= 1.03D-05
 IDIUse=1 WtCom= 1.00D+00 WtEn= 0.00D+00
 Coeff-Com: -0.209D-03-0.321D-03-0.224D-02-0.692D-01 0.107D+01
 Coeff:     -0.209D-03-0.321D-03-0.224D-02-0.692D-01 0.107D+01
 Gap=     0.380 Goal=   None    Shift=    0.000
 Gap=     0.380 Goal=   None    Shift=    0.000
 RMSDP=9.57D-06 MaxDP=1.29D-04 DE=-4.93D-06 OVMax= 1.55D-04

 Cycle   6  Pass 1  IDiag  1:
 E= -78.3194200946652     Delta-E=       -0.000000070259 Rises=F Damp=F
 DIIS: error= 4.26D-06 at cycle   6 NSaved=   6.
 NSaved= 6 IEnMin= 6 EnMin= -78.3194200946652     IErMin= 6 ErrMin= 4.26D-06
 ErrMax= 4.26D-06  0.00D+00 EMaxC= 1.00D-01 BMatC= 2.26D-09 BMatP= 1.41D-07
 IDIUse=1 WtCom= 1.00D+00 WtEn= 0.00D+00
 Coeff-Com: -0.868D-04 0.165D-03 0.112D-02-0.965D-02 0.707D-02 0.100D+01
 Coeff:     -0.868D-04 0.165D-03 0.112D-02-0.965D-02 0.707D-02 0.100D+01
 Gap=     0.380 Goal=   None    Shift=    0.000
 Gap=     0.380 Goal=   None    Shift=    0.000
 RMSDP=8.85D-07 MaxDP=1.55D-05 DE=-7.03D-08 OVMax= 1.54D-05

 Cycle   7  Pass 1  IDiag  1:
 E= -78.3194200956276     Delta-E=       -0.000000000962 Rises=F Damp=F
 DIIS: error= 8.35D-07 at cycle   7 NSaved=   7.
 NSaved= 7 IEnMin= 7 EnMin= -78.3194200956276     IErMin= 7 ErrMin= 8.35D-07
 ErrMax= 8.35D-07  0.00D+00 EMaxC= 1.00D-01 BMatC= 6.12D-11 BMatP= 2.26D-09
 IDIUse=1 WtCom= 1.00D+00 WtEn= 0.00D+00
 Coeff-Com:  0.462D-05 0.114D-04-0.163D-04-0.111D-04-0.226D-01 0.393D-01
 Coeff-Com:  0.983D+00
 Coeff:      0.462D-05 0.114D-04-0.163D-04-0.111D-04-0.226D-01 0.393D-01
 Coeff:      0.983D+00
 Gap=     0.380 Goal=   None    Shift=    0.000
 Gap=     0.380 Goal=   None    Shift=    0.000
 RMSDP=1.59D-07 MaxDP=2.22D-06 DE=-9.62D-10 OVMax= 4.06D-06

 Cycle   8  Pass 1  IDiag  1:
 E= -78.3194200956603     Delta-E=       -0.000000000033 Rises=F Damp=F
 DIIS: error= 8.56D-08 at cycle   8 NSaved=   8.
 NSaved= 8 IEnMin= 8 EnMin= -78.3194200956603     IErMin= 8 ErrMin= 8.56D-08
 ErrMax= 8.56D-08  0.00D+00 EMaxC= 1.00D-01 BMatC= 5.21D-13 BMatP= 6.12D-11
 IDIUse=1 WtCom= 1.00D+00 WtEn= 0.00D+00
 Coeff-Com:  0.115D-05-0.347D-05-0.141D-04 0.183D-03 0.169D-02-0.170D-01
 Coeff-Com: -0.698D-01 0.108D+01
 Coeff:      0.115D-05-0.347D-05-0.141D-04 0.183D-03 0.169D-02-0.170D-01
 Coeff:     -0.698D-01 0.108D+01
 Gap=     0.380 Goal=   None    Shift=    0.000
 Gap=     0.380 Goal=   None    Shift=    0.000
 RMSDP=1.89D-08 MaxDP=3.04D-07 DE=-3.27D-11 OVMax= 2.44D-07

 Cycle   9  Pass 1  IDiag  1:
 E= -78.3194200956605     Delta-E=       -0.000000000000 Rises=F Damp=F
 DIIS: error= 9.41D-09 at cycle   9 NSaved=   9.
 NSaved= 9 IEnMin= 9 EnMin= -78.3194200956605     IErMin= 9 ErrMin= 9.41D-09
 ErrMax= 9.41D-09  0.00D+00 EMaxC= 1.00D-01 BMatC= 7.40D-15 BMatP= 5.21D-13
 IDIUse=1 WtCom= 1.00D+00 WtEn= 0.00D+00
 Coeff-Com: -0.145D-06 0.275D-06 0.360D-05-0.182D-04-0.153D-03 0.207D-02
 Coeff-Com:  0.495D-02-0.134D+00 0.113D+01
 Coeff:     -0.145D-06 0.275D-06 0.360D-05-0.182D-04-0.153D-03 0.207D-02
 Coeff:      0.495D-02-0.134D+00 0.113D+01
 Gap=     0.380 Goal=   None    Shift=    0.000
 Gap=     0.380 Goal=   None    Shift=    0.000
 RMSDP=3.02D-09 MaxDP=4.86D-08 DE=-1.71D-13 OVMax= 2.07D-08

 SCF Done:  E(UM062X) =  -78.3194200957     A.U. after    9 cycles
            NFock=  9  Conv=0.30D-08     -V/T= 1.9798
 <Sx>= 0.0000 <Sy>= 0.0000 <Sz>= 0.0000 <S**2>=-0.0000 S=-0.0000
 <L.S>=  0.00000000000    
 KE= 7.993001143383D+01 PE=-2.607583835482D+02 EE= 6.351114755341D+01
 Annihilation of the first spin contaminant:
 S**2 before annihilation    -0.0000,   after     0.0000
 Leave Link  502 at Tue Nov 19 11:41:26 2024, MaxMem=   536870912 cpu:              15.4 elap:               2.0
 (Enter /home/szhao/Apps/g16/l601.exe)
 Copying SCF densities to generalized density rwf, IOpCl= 1 IROHF=0.

 **********************************************************************

            Population analysis using the SCF density.

 **********************************************************************

 Orbital symmetries:
 Alpha Orbitals:
       Occupied  (AG) (BU) (AG) (BU) (BU) (AG) (AU) (AG)
       Virtual   (AG) (BU) (BU) (AU) (BG) (AG) (AG) (BU) (BU) (AG)
                 (BG) (BU) (AG) (BU) (AG) (BU) (AG) (AU) (BU) (BU)
                 (BG) (AG) (BU) (AG) (AG) (BG) (AU) (BU) (AU) (AG)
                 (AG) (BU) (AG) (BG) (BU) (BG) (BU) (AU) (BU) (AG)
                 (AG) (AG) (AU) (BG) (BU) (BU) (AG) (AG) (BU) (BU)
                 (AU) (BG) (BU) (AG) (BU) (BU) (AG) (AG) (AG) (BU)
 Beta  Orbitals:
       Occupied  (AG) (BU) (AG) (BU) (BU) (AG) (AU) (AG)
       Virtual   (AG) (BU) (BU) (AU) (BG) (AG) (AG) (BU) (BU) (AG)
                 (BG) (BU) (AG) (BU) (AG) (BU) (AG) (AU) (BU) (BU)
                 (BG) (AG) (BU) (AG) (AG) (BG) (AU) (BU) (AU) (AG)
                 (AG) (BU) (AG) (BG) (BU) (BG) (BU) (AU) (BU) (AG)
                 (AG) (AG) (AU) (BG) (BU) (BU) (AG) (AG) (BU) (BU)
                 (AU) (BG) (BU) (AG) (BU) (BU) (AG) (AG) (AG) (BU)
 The electronic state is 1-AG.
 Alpha  occ. eigenvalues --  -10.49213 -10.47818  -0.94191  -0.62874  -0.58108
 Alpha  occ. eigenvalues --   -0.52880  -0.41878  -0.34720
 Alpha virt. eigenvalues --    0.03307   0.04263   0.04355   0.06715   0.06981
 Alpha virt. eigenvalues --    0.08821   0.09829   0.16112   0.17940   0.18222
 Alpha virt. eigenvalues --    0.19038   0.24875   0.34374   0.41622   0.43129
 Alpha virt. eigenvalues --    0.47151   0.51813   0.52609   0.60354   0.61972
 Alpha virt. eigenvalues --    0.70648   0.75824   0.78413   0.81576   0.84596
 Alpha virt. eigenvalues --    1.02033   1.22900   1.25678   1.28289   1.35592
 Alpha virt. eigenvalues --    1.55050   1.56717   1.69970   1.72742   1.74198
 Alpha virt. eigenvalues --    1.76713   1.76891   1.93100   2.10032   2.18552
 Alpha virt. eigenvalues --    2.21253   2.32494   2.32874   2.40490   2.47962
 Alpha virt. eigenvalues --    2.56187   2.59383   2.67119   2.74289   2.74873
 Alpha virt. eigenvalues --    2.82205   3.00200   3.32246   3.48296   3.52794
 Alpha virt. eigenvalues --    3.74341   3.98682   4.06590  23.89411  25.72782
  Beta  occ. eigenvalues --  -10.49213 -10.47818  -0.94191  -0.62874  -0.58108
  Beta  occ. eigenvalues --   -0.52880  -0.41878  -0.34720
  Beta virt. eigenvalues --    0.03307   0.04263   0.04355   0.06715   0.06981
  Beta virt. eigenvalues --    0.08821   0.09829   0.16112   0.17940   0.18222
  Beta virt. eigenvalues --    0.19038   0.24875   0.34374   0.41622   0.43129
  Beta virt. eigenvalues --    0.47151   0.51813   0.52609   0.60354   0.61972
  Beta virt. eigenvalues --    0.70648   0.75824   0.78413   0.81576   0.84596
  Beta virt. eigenvalues --    1.02033   1.22900   1.25678   1.28289   1.35592
  Beta virt. eigenvalues --    1.55050   1.56717   1.69970   1.72742   1.74198
  Beta virt. eigenvalues --    1.76713   1.76891   1.93100   2.10032   2.18552
  Beta virt. eigenvalues --    2.21253   2.32494   2.32874   2.40490   2.47962
  Beta virt. eigenvalues --    2.56187   2.59383   2.67119   2.74289   2.74873
  Beta virt. eigenvalues --    2.82205   3.00200   3.32246   3.48296   3.52794
  Beta virt. eigenvalues --    3.74341   3.98682   4.06590  23.89411  25.72782
          Condensed to atoms (all electrons):
               1          2          3          4          5          6
     1  C    4.789154   0.713297   0.411172   0.411162  -0.033889  -0.033903
     2  C    0.713297   4.789154  -0.033889  -0.033903   0.411172   0.411162
     3  H    0.411172  -0.033889   0.555903  -0.046943   0.013488  -0.028237
     4  H    0.411162  -0.033903  -0.046943   0.555942  -0.028237   0.013491
     5  H   -0.033889   0.411172   0.013488  -0.028237   0.555903  -0.046943
     6  H   -0.033903   0.411162  -0.028237   0.013491  -0.046943   0.555942
          Atomic-Atomic Spin Densities.
               1          2          3          4          5          6
     1  C    0.000000  -0.000000   0.000000   0.000000  -0.000000  -0.000000
     2  C   -0.000000   0.000000  -0.000000  -0.000000   0.000000   0.000000
     3  H    0.000000  -0.000000  -0.000000   0.000000   0.000000   0.000000
     4  H    0.000000  -0.000000   0.000000  -0.000000   0.000000  -0.000000
     5  H   -0.000000   0.000000   0.000000   0.000000  -0.000000   0.000000
     6  H   -0.000000   0.000000   0.000000  -0.000000   0.000000  -0.000000
 Mulliken charges and spin densities:
               1          2
     1  C   -0.256994   0.000000
     2  C   -0.256994   0.000000
     3  H    0.128506  -0.000000
     4  H    0.128488  -0.000000
     5  H    0.128506  -0.000000
     6  H    0.128488  -0.000000
 Sum of Mulliken charges =  -0.00000  -0.00000
 Mulliken charges and spin densities with hydrogens summed into heavy atoms:
               1          2
     1  C   -0.000000  -0.000000
     2  C   -0.000000  -0.000000
 Electronic spatial extent (au):  <R**2>=             69.5617
 Charge=             -0.0000 electrons
 Dipole moment (field-independent basis, Debye):
    X=             -0.0000    Y=             -0.0000    Z=              0.0000  Tot=              0.0000
 Quadrupole moment (field-independent basis, Debye-Ang):
   XX=            -12.3850   YY=            -12.5202   ZZ=            -14.3231
   XY=             -0.0003   XZ=              0.0000   YZ=              0.0000
 Traceless Quadrupole moment (field-independent basis, Debye-Ang):
   XX=              0.6911   YY=              0.5559   ZZ=             -1.2470
   XY=             -0.0003   XZ=              0.0000   YZ=              0.0000
 Octapole moment (field-independent basis, Debye-Ang**2):
  XXX=             -0.0000  YYY=              0.0000  ZZZ=              0.0000  XYY=             -0.0000
  XXY=             -0.0000  XXZ=              0.0000  XZZ=              0.0000  YZZ=             -0.0000
  YYZ=              0.0000  XYZ=              0.0000
 Hexadecapole moment (field-independent basis, Debye-Ang**3):
 XXXX=            -27.4895 YYYY=            -53.9887 ZZZZ=            -15.2068 XXXY=             -0.0011
 XXXZ=              0.0000 YYYX=             -0.0018 YYYZ=              0.0000 ZZZX=              0.0000
 ZZZY=              0.0000 XXYY=            -12.3648 XXZZ=             -7.6633 YYZZ=            -12.1246
 XXYZ=              0.0000 YYXZ=              0.0000 ZZXY=             -0.0005
 N-N= 3.899780446533D+01 E-N=-2.607583839183D+02  KE= 7.993001143383D+01
 Symmetry AG   KE= 4.104710341855D+01
 Symmetry BG   KE= 3.604932684667D-32
 Symmetry AU   KE= 2.412664309276D+00
 Symmetry BU   KE= 3.647024370600D+01
 Symmetry AG   SP=-1.807275681798D-15
 Symmetry BG   SP= 1.736159048461D-47
 Symmetry AU   SP=-1.598226297941D-15
 Symmetry BU   SP= 2.274929948132D-15
                          Isotropic Fermi Contact Couplings
        Atom                 a.u.       MegaHertz       Gauss      10(-4) cm-1
     1  C(13)             -0.00000      -0.00000      -0.00000      -0.00000
     2  C(13)             -0.00000      -0.00000      -0.00000      -0.00000
     3  H(1)               0.00000       0.00000       0.00000       0.00000
     4  H(1)               0.00000       0.00000       0.00000       0.00000
     5  H(1)               0.00000       0.00000       0.00000       0.00000
     6  H(1)               0.00000       0.00000       0.00000       0.00000
 --------------------------------------------------------
       Center         ----  Spin Dipole Couplings  ----
                      3XX-RR        3YY-RR        3ZZ-RR
 --------------------------------------------------------
     1   Atom        0.000000      0.000000     -0.000000
     2   Atom        0.000000      0.000000     -0.000000
     3   Atom        0.000000     -0.000000     -0.000000
     4   Atom        0.000000     -0.000000     -0.000000
     5   Atom        0.000000     -0.000000     -0.000000
     6   Atom        0.000000     -0.000000     -0.000000
 --------------------------------------------------------
                        XY            XZ            YZ
 --------------------------------------------------------
     1   Atom       -0.000000      0.000000      0.000000
     2   Atom       -0.000000      0.000000      0.000000
     3   Atom       -0.000000      0.000000      0.000000
     4   Atom        0.000000      0.000000      0.000000
     5   Atom       -0.000000      0.000000      0.000000
     6   Atom        0.000000      0.000000      0.000000
 --------------------------------------------------------


 ---------------------------------------------------------------------------------
              Anisotropic Spin Dipole Couplings in Principal Axis System
 ---------------------------------------------------------------------------------

       Atom             a.u.   MegaHertz   Gauss  10(-4) cm-1        Axes

              Baa    -0.0000    -0.000    -0.000    -0.000  0.0000  0.0000  1.0000
     1 C(13)  Bbb    -0.0000    -0.000    -0.000    -0.000  0.8603  0.5099  0.0000
              Bcc     0.0000     0.000     0.000     0.000 -0.5099  0.8603  0.0000
 
              Baa    -0.0000    -0.000    -0.000    -0.000  0.0000  0.0000  1.0000
     2 C(13)  Bbb    -0.0000    -0.000    -0.000    -0.000  0.8603  0.5099  0.0000
              Bcc     0.0000     0.000     0.000     0.000 -0.5099  0.8603  0.0000
 
              Baa    -0.0000    -0.000    -0.000    -0.000  0.0620  0.9981  0.0000
     3 H(1)   Bbb    -0.0000    -0.000    -0.000    -0.000  0.0000  0.0000  1.0000
              Bcc     0.0000     0.000     0.000     0.000  0.9981 -0.0620 -0.0000
 
              Baa    -0.0000    -0.000    -0.000    -0.000  0.0000  0.0000  1.0000
     4 H(1)   Bbb    -0.0000    -0.000    -0.000    -0.000 -0.0551  0.9985 -0.0000
              Bcc     0.0000     0.000     0.000     0.000  0.9985  0.0551  0.0000
 
              Baa    -0.0000    -0.000    -0.000    -0.000  0.0620  0.9981  0.0000
     5 H(1)   Bbb    -0.0000    -0.000    -0.000    -0.000  0.0000  0.0000  1.0000
              Bcc     0.0000     0.000     0.000     0.000  0.9981 -0.0620 -0.0000
 
              Baa    -0.0000    -0.000    -0.000    -0.000  0.0000  0.0000  1.0000
     6 H(1)   Bbb    -0.0000    -0.000    -0.000    -0.000 -0.0551  0.9985 -0.0000
              Bcc     0.0000     0.000     0.000     0.000  0.9985  0.0551  0.0000
 

 ---------------------------------------------------------------------------------

 No NMR shielding tensors so no spin-rotation constants.
 Leave Link  601 at Tue Nov 19 11:41:27 2024, MaxMem=   536870912 cpu:               1.4 elap:               0.2
 (Enter /home/szhao/Apps/g16/l701.exe)
 ... and contract with generalized density number  0.
 Compute integral first derivatives.
 Leave Link  701 at Tue Nov 19 11:41:27 2024, MaxMem=   536870912 cpu:               1.1 elap:               0.2
 (Enter /home/szhao/Apps/g16/l702.exe)
 L702 exits ... SP integral derivatives will be done elsewhere.
 Leave Link  702 at Tue Nov 19 11:41:27 2024, MaxMem=   536870912 cpu:               0.3 elap:               0.1
 (Enter /home/szhao/Apps/g16/l703.exe)
 Integral derivatives from FoFJK, PRISM(SPDF).
 Compute integral first derivatives, UseDBF=F ICtDFT=           0.
 Calling FoFJK, ICntrl=      2127 FMM=F ISym2X=1 I1Cent= 0 IOpClX= 1 NMat=1 NMatS=1 NMatT=0.
 FoFJK:  IHMeth= 1 ICntrl=    2127 DoSepK=F KAlg= 0 I1Cent=           0 FoldK=F
 IRaf=         0 NMat=       1 IRICut=       1 DoRegI=T DoRafI=F ISym2E= 1 IDoP0=0 IntGTp=1.
 FoFCou: FMM=F IPFlag=           0 FMFlag=      100000 FMFlg1=         800
         NFxFlg=           0 DoJE=F BraDBF=F KetDBF=F FulRan=T
         wScrn=  0.000000 ICntrl=      2127 IOpCl=  1 I1Cent=           0 NGrid=           0
         NMat0=    1 NMatS0=      1 NMatT0=    0 NMatD0=    1 NMtDS0=    0 NMtDT0=    0
 Petite list used in FoFCou.
 Leave Link  703 at Tue Nov 19 11:41:28 2024, MaxMem=   536870912 cpu:               4.0 elap:               0.5
 (Enter /home/szhao/Apps/g16/l716.exe)
 Dipole        =-2.22044605D-16-8.88178420D-16 0.00000000D+00
 ***** Axes restored to original set *****
 -------------------------------------------------------------------
 Center     Atomic                   Forces (Hartrees/Bohr)
 Number     Number              X              Y              Z
 -------------------------------------------------------------------
      1        6          -1.065523863    0.000045577   -0.000000000
      2        6           1.065523863   -0.000045577   -0.000000000
      3        1          -0.000098403   -0.000115160   -0.000000000
      4        1          -0.000080682    0.000081484   -0.000000000
      5        1           0.000098403    0.000115160   -0.000000000
      6        1           0.000080682   -0.000081484   -0.000000000
 -------------------------------------------------------------------
 Cartesian Forces:  Max     1.065523863 RMS     0.355174627
 Z-matrix is all fixed cartesians, so copy forces.
 Force constants in Cartesian coordinates: 
                1             2             3             4             5 
      1  0.384621D+01
      2  0.390706D-04  0.751710D+00
      3  0.000000D+00  0.000000D+00  0.445105D+00
      4 -0.346447D+01  0.000000D+00  0.000000D+00  0.384621D+01
      5  0.000000D+00 -0.277711D+00  0.000000D+00  0.390706D-04  0.751710D+00
      6  0.000000D+00  0.000000D+00 -0.297151D+00  0.000000D+00  0.000000D+00
      7 -0.190898D+00 -0.111205D+00  0.000000D+00  0.000000D+00 -0.333151D-01
      8 -0.109074D+00 -0.261125D+00  0.000000D+00  0.000000D+00  0.241114D-01
      9  0.000000D+00  0.000000D+00 -0.119787D+00  0.000000D+00  0.000000D+00
     10 -0.190836D+00  0.111166D+00  0.000000D+00  0.000000D+00  0.333157D-01
     11  0.109035D+00 -0.261092D+00  0.000000D+00  0.000000D+00  0.241060D-01
     12  0.000000D+00  0.000000D+00 -0.119764D+00  0.000000D+00  0.000000D+00
     13  0.000000D+00 -0.333151D-01  0.000000D+00 -0.190898D+00 -0.111205D+00
     14  0.000000D+00  0.241114D-01  0.000000D+00 -0.109074D+00 -0.261125D+00
     15  0.000000D+00  0.000000D+00  0.457975D-01  0.000000D+00  0.000000D+00
     16  0.000000D+00  0.333157D-01  0.000000D+00 -0.190836D+00  0.111166D+00
     17  0.000000D+00  0.241060D-01  0.000000D+00  0.109035D+00 -0.261092D+00
     18  0.000000D+00  0.000000D+00  0.457995D-01  0.000000D+00  0.000000D+00
                6             7             8             9            10 
      6  0.445105D+00
      7  0.000000D+00  0.166407D+00
      8  0.000000D+00  0.126799D+00  0.249839D+00
      9  0.457975D-01  0.000000D+00  0.000000D+00  0.634903D-01
     10  0.000000D+00  0.244912D-01 -0.177252D-01  0.000000D+00  0.166344D+00
     11  0.000000D+00  0.177210D-01 -0.128253D-01  0.000000D+00 -0.126756D+00
     12  0.457995D-01  0.000000D+00  0.000000D+00  0.104953D-01  0.000000D+00
     13  0.000000D+00  0.000000D+00  0.000000D+00  0.000000D+00  0.000000D+00
     14  0.000000D+00  0.000000D+00  0.000000D+00  0.000000D+00  0.000000D+00
     15 -0.119787D+00  0.000000D+00  0.000000D+00  0.264972D-01  0.000000D+00
     16  0.000000D+00  0.000000D+00  0.000000D+00  0.000000D+00  0.000000D+00
     17  0.000000D+00  0.000000D+00  0.000000D+00  0.000000D+00  0.000000D+00
     18 -0.119764D+00  0.000000D+00  0.000000D+00 -0.264933D-01  0.000000D+00
               11            12            13            14            15 
     11  0.249812D+00
     12  0.000000D+00  0.634734D-01
     13  0.000000D+00  0.000000D+00  0.166407D+00
     14  0.000000D+00  0.000000D+00  0.126799D+00  0.249839D+00
     15  0.000000D+00 -0.264933D-01  0.000000D+00  0.000000D+00  0.634903D-01
     16  0.000000D+00  0.000000D+00  0.244912D-01 -0.177252D-01  0.000000D+00
     17  0.000000D+00  0.000000D+00  0.177210D-01 -0.128253D-01  0.000000D+00
     18  0.000000D+00  0.264894D-01  0.000000D+00  0.000000D+00  0.104953D-01
               16            17            18 
     16  0.166344D+00
     17 -0.126756D+00  0.249812D+00
     18  0.000000D+00  0.000000D+00  0.634734D-01
 Leave Link  716 at Tue Nov 19 11:41:28 2024, MaxMem=   536870912 cpu:               0.7 elap:               0.1
 (Enter /home/szhao/Apps/g16/l103.exe)

 GradGradGradGradGradGradGradGradGradGradGradGradGradGradGradGradGradGrad
 Berny optimization.
 Search for a local minimum.
 Step number   1 out of a maximum of    2
 All quantities printed in internal units (Hartrees-Bohrs-Radians)
 Second derivative matrix not updated -- first step.
 The second derivative matrix:
                          X1        Y1        Z1        X2        Y2
           X1           3.84621
           Y1           0.00004   0.75171
           Z1           0.00000   0.00000   0.44511
           X2          -3.46447  -0.00000   0.00000   3.84621
           Y2          -0.00000  -0.27771   0.00000   0.00004   0.75171
           Z2           0.00000   0.00000  -0.29715   0.00000   0.00000
           X3          -0.19090  -0.11120   0.00000   0.00000  -0.03332
           Y3          -0.10907  -0.26112   0.00000  -0.00000   0.02411
           Z3           0.00000   0.00000  -0.11979   0.00000   0.00000
           X4          -0.19084   0.11117   0.00000  -0.00000   0.03332
           Y4           0.10904  -0.26109   0.00000  -0.00000   0.02411
           Z4           0.00000   0.00000  -0.11976   0.00000   0.00000
           X5           0.00000  -0.03332   0.00000  -0.19090  -0.11120
           Y5          -0.00000   0.02411   0.00000  -0.10907  -0.26112
           Z5           0.00000   0.00000   0.04580   0.00000   0.00000
           X6          -0.00000   0.03332   0.00000  -0.19084   0.11117
           Y6          -0.00000   0.02411   0.00000   0.10904  -0.26109
           Z6           0.00000   0.00000   0.04580   0.00000   0.00000
                          Z2        X3        Y3        Z3        X4
           Z2           0.44511
           X3           0.00000   0.16641
           Y3           0.00000   0.12680   0.24984
           Z3           0.04580   0.00000   0.00000   0.06349
           X4           0.00000   0.02449  -0.01773   0.00000   0.16634
           Y4           0.00000   0.01772  -0.01283   0.00000  -0.12676
           Z4           0.04580   0.00000   0.00000   0.01050   0.00000
           X5           0.00000   0.00000   0.00000   0.00000   0.00000
           Y5           0.00000   0.00000   0.00000   0.00000   0.00000
           Z5          -0.11979   0.00000   0.00000   0.02650   0.00000
           X6           0.00000   0.00000   0.00000   0.00000   0.00000
           Y6           0.00000   0.00000   0.00000   0.00000   0.00000
           Z6          -0.11976   0.00000   0.00000  -0.02649   0.00000
                          Y4        Z4        X5        Y5        Z5
           Y4           0.24981
           Z4           0.00000   0.06347
           X5           0.00000   0.00000   0.16641
           Y5           0.00000   0.00000   0.12680   0.24984
           Z5           0.00000  -0.02649   0.00000   0.00000   0.06349
           X6           0.00000   0.00000   0.02449  -0.01773   0.00000
           Y6           0.00000   0.00000   0.01772  -0.01283   0.00000
           Z6           0.00000   0.02649   0.00000   0.00000   0.01050
                          X6        Y6        Z6
           X6           0.16634
           Y6          -0.12676   0.24981
           Z6           0.00000   0.00000   0.06347
 ITU=  0
     Eigenvalues ---    0.04624   0.10597   0.10955   0.16644   0.18307
     Eigenvalues ---    0.18433   0.33020   0.56856   0.68216   0.72462
     Eigenvalues ---    1.12946   7.32444
 Quadratic step=3.773D-01 exceeds max=3.000D-01 adjusted using Lamda=-6.696D-02.
 Angle between NR and scaled steps=  11.60 degrees.
 Angle between quadratic step and forces=  44.99 degrees.
 ClnCor:  largest displacement from symmetrization is 7.31D-14 for atom     6.
 Linear search not attempted -- first point.
 ClnCor:  largest displacement from symmetrization is 3.39D-21 for atom     1.
 B after Tr=    -0.000000    0.000000    0.000000
         Rot=    1.000000    0.000000    0.000000    0.000001 Ang=   0.00 deg.
 Variable       Old X    -DE/DX   Delta X   Delta X   Delta X     New X
                                 (Linear)    (Quad)   (Total)
    X1       -0.93948  -1.06552   0.00000  -0.15032  -0.15032  -1.08980
    Y1       -0.00000   0.00005   0.00000   0.00003   0.00003   0.00003
    Z1        0.00000  -0.00000   0.00000   0.00000   0.00000   0.00000
    X2        0.93948   1.06552   0.00000   0.15032   0.15032   1.08980
    Y2       -0.00000  -0.00005   0.00000  -0.00003  -0.00003  -0.00003
    Z2        0.00000  -0.00000   0.00000   0.00000   0.00000   0.00000
    X3       -2.15347  -0.00010   0.00000  -0.10520  -0.10521  -2.25868
    Y3       -1.67738  -0.00012   0.00000  -0.01526  -0.01525  -1.69263
    Z3        0.00000  -0.00000   0.00000   0.00000   0.00000   0.00000
    X4       -2.15336  -0.00008   0.00000  -0.10516  -0.10516  -2.25852
    Y4        1.67763   0.00008   0.00000   0.01521   0.01521   1.69284
    Z4        0.00000  -0.00000   0.00000   0.00000   0.00000   0.00000
    X5        2.15347   0.00010   0.00000   0.10520   0.10521   2.25868
    Y5        1.67738   0.00012   0.00000   0.01526   0.01525   1.69263
    Z5        0.00000  -0.00000   0.00000   0.00000   0.00000   0.00000
    X6        2.15336   0.00008   0.00000   0.10516   0.10516   2.25852
    Y6       -1.67763  -0.00008   0.00000  -0.01521  -0.01521  -1.69284
    Z6        0.00000  -0.00000   0.00000   0.00000   0.00000   0.00000
         Item               Value     Threshold  Converged?
 Maximum Force            1.065524     0.000450     NO 
 RMS     Force            0.355175     0.000300     NO 
 Maximum Displacement     0.150319     0.001800     NO 
 RMS     Displacement     0.070858     0.001200     NO 
 Predicted change in Energy=-1.632159D-01
 GradGradGradGradGradGradGradGradGradGradGradGradGradGradGradGradGradGrad

 Leave Link  103 at Tue Nov 19 11:41:28 2024, MaxMem=   536870912 cpu:               0.3 elap:               0.1
 (Enter /home/szhao/Apps/g16/l9999.exe)
 1\1\GINC-NODE02\Force\UM062X\6-311+G(d,p)\C2H4\SZHAO\19-Nov-2024\0\\#p
  UM062X/6-311+G** force int=superfine\\Title Card Required\\0,1\C,-0.4
 97154,0.,0.\C,0.497154,0.,0.\H,-1.139566,-0.887633,0.\H,-1.139507,0.88
 7763,0.\H,1.139566,0.887633,0.\H,1.139507,-0.887763,0.\\Version=ES64L-
 G16RevA.03\State=1-AG\HF=-78.3194201\S2=0.\S2-1=0.\S2A=0.\RMSD=3.022e-
 09\RMSF=3.552e-01\Dipole=0.,0.,0.\Quadrupole=0.4132795,0.5138353,-0.92
 71148,0.0002138,0.,0.\PG=C02H [SGH(C2H4)]\\@


     ON THE SURVIVAL OF THE FITTEST -
 "STRONG REPRESENTATIVES FROM EACH PAST ERA THRIVE TODAY,
 SUCH AS PROGRAMMING IN THE THIRTY YEAR OLD LANGUAGE KNOWN
 AS FORTRAN, AND EVEN IN THE ANCIENT SCRIPT KNOWN AS DIRECT
 MACHINE CODE. SOME PEOPLE MIGHT LOOK ON SUCH RELICS AS LIVING
 FOSSILS; OTHERS WOULD POINT OUT THAT EVEN A VERY OLD SPECIES
 MIGHT STILL BE FILLING A PARTICULAR ECOLOGICAL NICHE."
     -- ALAN KAY, SCI.AM. SEPTEMBER 1984
 Job cpu time:       0 days  0 hours  0 minutes 30.4 seconds.
 Elapsed time:       0 days  0 hours  0 minutes  4.3 seconds.
 File lengths (MBytes):  RWF=     22 Int=      0 D2E=      0 Chk=      2 Scr=      2
 Normal termination of Gaussian 16 at Tue Nov 19 11:41:28 2024.
