 Entering Gaussian System, Link 0=g16
 Initial command:
 /home/szhao/Apps/g16/l1.exe "/home/szhao/tmp/Gau-161806.inp" -scrdir="/home/szhao/tmp/"
 Default is to use a total of  16 processors:
                               16 via shared-memory
                                1 via Linda
 Entering Link 1 = /home/szhao/Apps/g16/l1.exe PID=    161807.
  
 Copyright (c) 1988,1990,1992,1993,1995,1998,2003,2009,2016,
            Gaussian, Inc.  All Rights Reserved.
  
 This is part of the Gaussian(R) 16 program.  It is based on
 the Gaussian(R) 09 system (copyright 2009, Gaussian, Inc.),
 the Gaussian(R) 03 system (copyright 2003, Gaussian, Inc.),
 the Gaussian(R) 98 system (copyright 1998, Gaussian, Inc.),
 the Gaussian(R) 94 system (copyright 1995, Gaussian, Inc.),
 the Gaussian 92(TM) system (copyright 1992, Gaussian, Inc.),
 the Gaussian 90(TM) system (copyright 1990, Gaussian, Inc.),
 the Gaussian 88(TM) system (copyright 1988, Gaussian, Inc.),
 the Gaussian 86(TM) system (copyright 1986, Carnegie Mellon
 University), and the Gaussian 82(TM) system (copyright 1983,
 Carnegie Mellon University). Gaussian is a federally registered
 trademark of Gaussian, Inc.
  
 This software contains proprietary and confidential information,
 including trade secrets, belonging to Gaussian, Inc.
  
 This software is provided under written license and may be
 used, copied, transmitted, or stored only in accord with that
 written license.
  
 The following legend is applicable only to US Government
 contracts under FAR:
  
                    RESTRICTED RIGHTS LEGEND
  
 Use, reproduction and disclosure by the US Government is
 subject to restrictions as set forth in subparagraphs (a)
 and (c) of the Commercial Computer Software - Restricted
 Rights clause in FAR 52.227-19.
  
 Gaussian, Inc.
 340 Quinnipiac St., Bldg. 40, Wallingford CT 06492
  
  
 ---------------------------------------------------------------
 Warning -- This program may not be used in any manner that
 competes with the business of Gaussian, Inc. or will provide
 assistance to any competitor of Gaussian, Inc.  The licensee
 of this program is prohibited from giving any competitor of
 Gaussian, Inc. access to this program.  By using this program,
 the user acknowledges that Gaussian, Inc. is engaged in the
 business of creating and licensing software in the field of
 computational chemistry and represents and warrants to the
 licensee that it is not a competitor of Gaussian, Inc. and that
 it will not use this program in any manner prohibited above.
 ---------------------------------------------------------------
  

 Cite this work as:
 Gaussian 16, Revision A.03,
 M. J. Frisch, G. W. Trucks, H. B. Schlegel, G. E. Scuseria, 
 M. A. Robb, J. R. Cheeseman, G. Scalmani, V. Barone, 
 G. A. Petersson, H. Nakatsuji, X. Li, M. Caricato, A. V. Marenich, 
 J. Bloino, B. G. Janesko, R. Gomperts, B. Mennucci, H. P. Hratchian, 
 J. V. Ortiz, A. F. Izmaylov, J. L. Sonnenberg, D. Williams-Young, 
 F. Ding, F. Lipparini, F. Egidi, J. Goings, B. Peng, A. Petrone, 
 T. Henderson, D. Ranasinghe, V. G. Zakrzewski, J. Gao, N. Rega, 
 G. Zheng, W. Liang, M. Hada, M. Ehara, K. Toyota, R. Fukuda, 
 J. Hasegawa, M. Ishida, T. Nakajima, Y. Honda, O. Kitao, H. Nakai, 
 T. Vreven, K. Throssell, J. A. Montgomery, Jr., J. E. Peralta, 
 F. Ogliaro, M. J. Bearpark, J. J. Heyd, E. N. Brothers, K. N. Kudin, 
 V. N. Staroverov, T. A. Keith, R. Kobayashi, J. Normand, 
 K. Raghavachari, A. P. Rendell, J. C. Burant, S. S. Iyengar, 
 J. Tomasi, M. Cossi, J. M. Millam, M. Klene, C. Adamo, R. Cammi, 
 J. W. Ochterski, R. L. Martin, K. Morokuma, O. Farkas, 
 J. B. Foresman, and D. J. Fox, Gaussian, Inc., Wallingford CT, 2016.
 
 ******************************************
 Gaussian 16:  ES64L-G16RevA.03 25-Dec-2016
                21-Apr-2025 
 ******************************************
 %chk=opt.chk
 %mem=4GB
 %nprocshared=8
 Will use up to    8 processors via shared memory.
 --------------------------------------------
 #p opt UM062X/6-311+G** nosymm int=superfine
 --------------------------------------------
 1/18=20,19=15,26=5,38=1/1,3;
 2/9=110,12=2,15=1,17=6,18=5,40=1/2;
 3/5=4,6=6,7=111,11=2,25=1,30=1,71=1,74=-55,75=-7,116=2/1,2,3;
 4//1;
 5/5=2,38=5/2;
 6/7=2,8=2,9=2,10=2,28=1/1;
 7/30=1/1,2,3,16;
 1/18=20,19=15,26=5/3(2);
 2/9=110,15=1/2;
 99//99;
 2/9=110,15=1/2;
 3/5=4,6=6,7=111,11=2,25=1,30=1,71=1,74=-55,75=-7,116=2/1,2,3;
 4/5=5,16=3,69=1/1;
 5/5=2,38=5/2;
 7/30=1/1,2,3,16;
 1/18=20,19=15,26=5/3(-5);
 2/9=110,15=1/2;
 6/7=2,8=2,9=2,10=2,19=2,28=1/1;
 99/9=1/99;
 Leave Link    1 at Mon Apr 21 20:18:17 2025, MaxMem=   536870912 cpu:               0.9 elap:               0.1
 (Enter /home/szhao/Apps/g16/l101.exe)
 -------------------
 Title Card Required
 -------------------
 Symbolic Z-matrix:
 Charge =  0 Multiplicity = 1
 Si                   -1   -1.41982   0.        0. 
 Si                   -1    1.41982   0.        0. 
 H                    0     1.93181  -1.3902    0. 
 H                    0    -1.93171  -0.69502   1.20405 
 H                    0     1.9319    0.69519  -1.20386 
 H                    0     1.93171   0.69505   1.20403 
 H                    0    -1.93181   1.3902   -0.00012 
 H                    0    -1.93191  -0.69522  -1.20384 
 
 Add virtual bond connecting atoms Si2        and Si1        Dist= 5.37D+00.
 ITRead=  2  2  0  0  0  0  0  0
 MicOpt= -2 -2 -1 -1 -1 -1 -1 -1
 NAtoms=      8 NQM=        6 NQMF=       2 NMMI=      0 NMMIF=      0
                NMic=       0 NMicF=      0.
                    Isotopes and Nuclear Properties:
 (Nuclear quadrupole moments (NQMom) in fm**2, nuclear magnetic moments (NMagM)
  in nuclear magnetons)

  Atom         1           2           3           4           5           6           7           8
 IAtWgt=          28          28           1           1           1           1           1           1
 AtmWgt=  27.9769284  27.9769284   1.0078250   1.0078250   1.0078250   1.0078250   1.0078250   1.0078250
 NucSpn=           0           0           1           1           1           1           1           1
 AtZEff=  -0.0000000  -0.0000000  -0.0000000  -0.0000000  -0.0000000  -0.0000000  -0.0000000  -0.0000000
 NQMom=    0.0000000   0.0000000   0.0000000   0.0000000   0.0000000   0.0000000   0.0000000   0.0000000
 NMagM=    0.0000000   0.0000000   2.7928460   2.7928460   2.7928460   2.7928460   2.7928460   2.7928460
 AtZNuc=  14.0000000  14.0000000   1.0000000   1.0000000   1.0000000   1.0000000   1.0000000   1.0000000
 Leave Link  101 at Mon Apr 21 20:18:18 2025, MaxMem=   536870912 cpu:               3.1 elap:               0.4
 (Enter /home/szhao/Apps/g16/l103.exe)

 GradGradGradGradGradGradGradGradGradGradGradGradGradGradGradGradGradGrad
 Berny optimization.
 Initialization pass.
                           ----------------------------
                           !    Initial Parameters    !
                           ! (Angstroms and Degrees)  !
 --------------------------                            --------------------------
 ! Name  Definition              Value          Derivative Info.                !
 --------------------------------------------------------------------------------
 ! X1    R(1,-1)                -1.4198         Frozen                          !
 ! Y1    R(1,-2)                 0.0            Frozen                          !
 ! Z1    R(1,-3)                 0.0            Frozen                          !
 ! X2    R(2,-1)                 1.4198         Frozen                          !
 ! Y2    R(2,-2)                 0.0            Frozen                          !
 ! Z2    R(2,-3)                 0.0            Frozen                          !
 ! R1    R(1,4)                  1.4815         estimate D2E/DX2                !
 ! R2    R(1,7)                  1.4815         estimate D2E/DX2                !
 ! R3    R(1,8)                  1.4815         estimate D2E/DX2                !
 ! R4    R(2,3)                  1.4815         estimate D2E/DX2                !
 ! R5    R(2,5)                  1.4815         estimate D2E/DX2                !
 ! R6    R(2,6)                  1.4815         estimate D2E/DX2                !
 ! A1    A(2,1,4)              110.2137         estimate D2E/DX2                !
 ! A2    A(2,1,7)              110.2181         estimate D2E/DX2                !
 ! A3    A(2,1,8)              110.222          estimate D2E/DX2                !
 ! A4    A(4,1,7)              108.7164         estimate D2E/DX2                !
 ! A5    A(4,1,8)              108.7131         estimate D2E/DX2                !
 ! A6    A(7,1,8)              108.7133         estimate D2E/DX2                !
 ! A7    A(1,2,3)              110.2179         estimate D2E/DX2                !
 ! A8    A(1,2,5)              110.2218         estimate D2E/DX2                !
 ! A9    A(1,2,6)              110.214          estimate D2E/DX2                !
 ! A10   A(3,2,5)              108.7164         estimate D2E/DX2                !
 ! A11   A(3,2,6)              108.7135         estimate D2E/DX2                !
 ! A12   A(5,2,6)              108.7131         estimate D2E/DX2                !
 ! D1    D(4,1,2,3)             60.0049         estimate D2E/DX2                !
 ! D2    D(4,1,2,5)           -179.9901         estimate D2E/DX2                !
 ! D3    D(4,1,2,6)            -59.9916         estimate D2E/DX2                !
 ! D4    D(7,1,2,3)           -179.9951         estimate D2E/DX2                !
 ! D5    D(7,1,2,5)            -59.9901         estimate D2E/DX2                !
 ! D6    D(7,1,2,6)             60.0084         estimate D2E/DX2                !
 ! D7    D(8,1,2,3)            -59.9936         estimate D2E/DX2                !
 ! D8    D(8,1,2,5)             60.0114         estimate D2E/DX2                !
 ! D9    D(8,1,2,6)           -179.9901         estimate D2E/DX2                !
 --------------------------------------------------------------------------------
 Trust Radius=3.00D-01 FncErr=1.00D-07 GrdErr=1.00D-07 EigMax=2.50D+02 EigMin=1.00D-04
 Number of steps in this run=     43 maximum allowed number of steps=    100.
 GradGradGradGradGradGradGradGradGradGradGradGradGradGradGradGradGradGrad

 Leave Link  103 at Mon Apr 21 20:18:18 2025, MaxMem=   536870912 cpu:               0.4 elap:               0.1
 (Enter /home/szhao/Apps/g16/l202.exe)
                          Input orientation:                          
 ---------------------------------------------------------------------
 Center     Atomic      Atomic             Coordinates (Angstroms)
 Number     Number       Type             X           Y           Z
 ---------------------------------------------------------------------
      1         14           0       -1.419819    0.000000    0.000000
      2         14           0        1.419819    0.000000    0.000000
      3          1           0        1.931806   -1.390201    0.000000
      4          1           0       -1.931708   -0.695019    1.204047
      5          1           0        1.931903    0.695189   -1.203860
      6          1           0        1.931715    0.695048    1.204029
      7          1           0       -1.931812    1.390199   -0.000119
      8          1           0       -1.931908   -0.695219   -1.203842
 ---------------------------------------------------------------------
                    Distance matrix (angstroms):
                    1          2          3          4          5
     1  Si   0.000000
     2  Si   2.839638   0.000000
     3  H    3.628505   1.481482   0.000000
     4  H    1.481489   3.628431   4.106062   0.000000
     5  H    3.628582   1.481485   2.407931   4.760061   0.000000
     6  H    3.628437   1.481490   2.407893   4.105888   2.407889
     7  H    1.481483   3.628510   4.760059   2.407935   4.106132
     8  H    1.481486   3.628586   4.106156   2.407889   4.106369
                    6          7          8
     6  H    0.000000
     7  H    4.106098   0.000000
     8  H    4.760070   2.407887   0.000000
 Symmetry turned off by external request.
 Stoichiometry    H6Si2
 Framework group  C1[X(H6Si2)]
 Deg. of freedom    18
 Full point group                 C1      NOp   1
 Rotational constants (GHZ):          43.2437871           3.5790107           3.5790035
 Leave Link  202 at Mon Apr 21 20:18:18 2025, MaxMem=   536870912 cpu:               0.2 elap:               0.0
 (Enter /home/szhao/Apps/g16/l301.exe)
 Standard basis: 6-311+G(d,p) (5D, 7F)
 Ernie: Thresh=  0.10000D-02 Tol=  0.10000D-05 Strict=F.
    96 basis functions,   148 primitive gaussians,    98 cartesian basis functions
    17 alpha electrons       17 beta electrons
       nuclear repulsion energy        81.2054153459 Hartrees.
 IExCor= 4336 DFT=T Ex+Corr=M062X ExCW=0 ScaHFX=  0.540000
 ScaDFX=  1.000000  1.000000  1.000000  1.000000 ScalE2=  1.000000  1.000000
 IRadAn=      7 IRanWt=     -1 IRanGd=            0 ICorTp=0 IEmpDi=  4
 NAtoms=    8 NActive=    8 NUniq=    8 SFac= 1.00D+00 NAtFMM=   60 NAOKFM=F Big=F
 Integral buffers will be    131072 words long.
 Raffenetti 2 integral format.
 Two-electron integral symmetry is turned off.
 Leave Link  301 at Mon Apr 21 20:18:19 2025, MaxMem=   536870912 cpu:               0.6 elap:               0.1
 (Enter /home/szhao/Apps/g16/l302.exe)
 NPDir=0 NMtPBC=     1 NCelOv=     1 NCel=       1 NClECP=     1 NCelD=      1
         NCelK=      1 NCelE2=     1 NClLst=     1 CellRange=     0.0.
 One-electron integrals computed using PRISM.
 NBasis=    96 RedAO= T EigKep=  2.24D-03  NBF=    96
 NBsUse=    96 1.00D-06 EigRej= -1.00D+00 NBFU=    96
 Precomputing XC quadrature grid using
 IXCGrd= 4 IRadAn=           7 IRanWt=          -1 IRanGd=           0 AccXCQ= 0.00D+00.
 Generated NRdTot=       0 NPtTot=           0 NUsed=           0 NTot=          32
 NSgBfM=    95    95    95    95    95 MxSgAt=     8 MxSgA2=     8.
 Leave Link  302 at Mon Apr 21 20:18:19 2025, MaxMem=   536870912 cpu:               1.8 elap:               0.2
 (Enter /home/szhao/Apps/g16/l303.exe)
 DipDrv:  MaxL=1.
 Leave Link  303 at Mon Apr 21 20:18:20 2025, MaxMem=   536870912 cpu:               0.5 elap:               0.1
 (Enter /home/szhao/Apps/g16/l401.exe)
 ExpMin= 3.31D-02 ExpMax= 6.94D+04 ExpMxC= 2.33D+03 IAcc=3 IRadAn=         7 AccDes= 0.00D+00
 Harris functional with IExCor= 1009 and IRadAn=       7 diagonalized for initial guess.
 HarFok:  IExCor= 1009 AccDes= 0.00D+00 IRadAn=         7 IDoV= 1 UseB2=F ITyADJ=14
 ICtDFT=  3500011 ScaDFX=  1.000000  1.000000  1.000000  1.000000
 FoFCou: FMM=F IPFlag=           0 FMFlag=      100000 FMFlg1=           0
         NFxFlg=           0 DoJE=T BraDBF=F KetDBF=T FulRan=T
         wScrn=  0.000000 ICntrl=       500 IOpCl=  0 I1Cent=   200000004 NGrid=           0
         NMat0=    1 NMatS0=      1 NMatT0=    0 NMatD0=    1 NMtDS0=    0 NMtDT0=    0
 Symmetry not used in FoFCou.
 Harris En= -582.191331731910    
 JPrj=0 DoOrth=F DoCkMO=F.
 Initial guess <Sx>= 0.0000 <Sy>= 0.0000 <Sz>= 0.0000 <S**2>=-0.0000 S=-0.0000
 Leave Link  401 at Mon Apr 21 20:18:20 2025, MaxMem=   536870912 cpu:               4.6 elap:               0.6
 (Enter /home/szhao/Apps/g16/l502.exe)
 Keep R1 and R2 ints in memory in canonical form, NReq=29092346.
 FoFCou: FMM=F IPFlag=           0 FMFlag=           0 FMFlg1=           0
         NFxFlg=           0 DoJE=F BraDBF=F KetDBF=F FulRan=T
         wScrn=  0.000000 ICntrl=       600 IOpCl=  0 I1Cent=           0 NGrid=           0
         NMat0=    1 NMatS0=   4656 NMatT0=    0 NMatD0=    1 NMtDS0=    0 NMtDT0=    0
 Symmetry not used in FoFCou.
 Two-electron integral symmetry not used.
 UHF open shell SCF:
 Using DIIS extrapolation, IDIIS=  1040.
 NGot=   536870912 LenX=   515167018 LenY=   515156973
 Requested convergence on RMS density matrix=1.00D-08 within 128 cycles.
 Requested convergence on MAX density matrix=1.00D-06.
 Requested convergence on             energy=1.00D-06.
 No special actions if energy rises.

 Cycle   1  Pass 1  IDiag  1:
 E= -582.472587685680    
 DIIS: error= 2.77D-02 at cycle   1 NSaved=   1.
 NSaved= 1 IEnMin= 1 EnMin= -582.472587685680     IErMin= 1 ErrMin= 2.77D-02
 ErrMax= 2.77D-02  0.00D+00 EMaxC= 1.00D-01 BMatC= 1.91D-01 BMatP= 1.91D-01
 IDIUse=3 WtCom= 7.23D-01 WtEn= 2.77D-01
 Coeff-Com:  0.100D+01
 Coeff-En:   0.100D+01
 Coeff:      0.100D+01
 Gap=     0.307 Goal=   None    Shift=    0.000
 Gap=     0.307 Goal=   None    Shift=    0.000
 GapD=    0.307 DampG=1.000 DampE=0.500 DampFc=0.5000 IDamp=-1.
 Damping current iteration by 5.00D-01
 RMSDP=1.96D-03 MaxDP=2.20D-02              OVMax= 4.85D-02

 Cycle   2  Pass 1  IDiag  1:
 E= -582.485325560370     Delta-E=       -0.012737874690 Rises=F Damp=T
 DIIS: error= 1.40D-02 at cycle   2 NSaved=   2.
 NSaved= 2 IEnMin= 2 EnMin= -582.485325560370     IErMin= 2 ErrMin= 1.40D-02
 ErrMax= 1.40D-02  0.00D+00 EMaxC= 1.00D-01 BMatC= 3.93D-02 BMatP= 1.91D-01
 IDIUse=3 WtCom= 8.60D-01 WtEn= 1.40D-01
 Coeff-Com: -0.707D+00 0.171D+01
 Coeff-En:   0.000D+00 0.100D+01
 Coeff:     -0.608D+00 0.161D+01
 Gap=     0.291 Goal=   None    Shift=    0.000
 Gap=     0.291 Goal=   None    Shift=    0.000
 RMSDP=7.56D-04 MaxDP=8.63D-03 DE=-1.27D-02 OVMax= 1.60D-02

 Cycle   3  Pass 1  IDiag  1:
 E= -582.496917492692     Delta-E=       -0.011591932323 Rises=F Damp=F
 DIIS: error= 1.01D-03 at cycle   3 NSaved=   3.
 NSaved= 3 IEnMin= 3 EnMin= -582.496917492692     IErMin= 3 ErrMin= 1.01D-03
 ErrMax= 1.01D-03  0.00D+00 EMaxC= 1.00D-01 BMatC= 4.69D-04 BMatP= 3.93D-02
 IDIUse=3 WtCom= 9.90D-01 WtEn= 1.01D-02
 Coeff-Com: -0.150D+00 0.293D+00 0.857D+00
 Coeff-En:   0.000D+00 0.000D+00 0.100D+01
 Coeff:     -0.148D+00 0.290D+00 0.858D+00
 Gap=     0.294 Goal=   None    Shift=    0.000
 Gap=     0.294 Goal=   None    Shift=    0.000
 RMSDP=1.11D-04 MaxDP=2.58D-03 DE=-1.16D-02 OVMax= 4.13D-03

 Cycle   4  Pass 1  IDiag  1:
 E= -582.497001198610     Delta-E=       -0.000083705918 Rises=F Damp=F
 DIIS: error= 1.14D-04 at cycle   4 NSaved=   4.
 NSaved= 4 IEnMin= 4 EnMin= -582.497001198610     IErMin= 4 ErrMin= 1.14D-04
 ErrMax= 1.14D-04  0.00D+00 EMaxC= 1.00D-01 BMatC= 4.87D-06 BMatP= 4.69D-04
 IDIUse=3 WtCom= 9.99D-01 WtEn= 1.14D-03
 Coeff-Com: -0.152D-01 0.277D-01 0.143D+00 0.844D+00
 Coeff-En:   0.000D+00 0.000D+00 0.000D+00 0.100D+01
 Coeff:     -0.151D-01 0.277D-01 0.143D+00 0.845D+00
 Gap=     0.293 Goal=   None    Shift=    0.000
 Gap=     0.293 Goal=   None    Shift=    0.000
 RMSDP=1.85D-05 MaxDP=6.97D-04 DE=-8.37D-05 OVMax= 5.75D-04

 Cycle   5  Pass 1  IDiag  1:
 E= -582.497003104272     Delta-E=       -0.000001905662 Rises=F Damp=F
 DIIS: error= 1.95D-05 at cycle   5 NSaved=   5.
 NSaved= 5 IEnMin= 5 EnMin= -582.497003104272     IErMin= 5 ErrMin= 1.95D-05
 ErrMax= 1.95D-05  0.00D+00 EMaxC= 1.00D-01 BMatC= 2.06D-07 BMatP= 4.87D-06
 IDIUse=1 WtCom= 1.00D+00 WtEn= 0.00D+00
 Coeff-Com:  0.178D-02-0.354D-02-0.202D-01 0.460D-01 0.976D+00
 Coeff:      0.178D-02-0.354D-02-0.202D-01 0.460D-01 0.976D+00
 Gap=     0.293 Goal=   None    Shift=    0.000
 Gap=     0.293 Goal=   None    Shift=    0.000
 RMSDP=3.88D-06 MaxDP=7.90D-05 DE=-1.91D-06 OVMax= 1.20D-04

 Cycle   6  Pass 1  IDiag  1:
 E= -582.497003175426     Delta-E=       -0.000000071155 Rises=F Damp=F
 DIIS: error= 7.46D-06 at cycle   6 NSaved=   6.
 NSaved= 6 IEnMin= 6 EnMin= -582.497003175426     IErMin= 6 ErrMin= 7.46D-06
 ErrMax= 7.46D-06  0.00D+00 EMaxC= 1.00D-01 BMatC= 4.78D-09 BMatP= 2.06D-07
 IDIUse=1 WtCom= 1.00D+00 WtEn= 0.00D+00
 Coeff-Com:  0.600D-03-0.114D-02-0.529D-02-0.254D-01-0.400D-01 0.107D+01
 Coeff:      0.600D-03-0.114D-02-0.529D-02-0.254D-01-0.400D-01 0.107D+01
 Gap=     0.293 Goal=   None    Shift=    0.000
 Gap=     0.293 Goal=   None    Shift=    0.000
 RMSDP=1.42D-06 MaxDP=3.10D-05 DE=-7.12D-08 OVMax= 4.54D-05

 Cycle   7  Pass 1  IDiag  1:
 E= -582.497003178251     Delta-E=       -0.000000002824 Rises=F Damp=F
 DIIS: error= 1.13D-06 at cycle   7 NSaved=   7.
 NSaved= 7 IEnMin= 7 EnMin= -582.497003178251     IErMin= 7 ErrMin= 1.13D-06
 ErrMax= 1.13D-06  0.00D+00 EMaxC= 1.00D-01 BMatC= 2.84D-10 BMatP= 4.78D-09
 IDIUse=1 WtCom= 1.00D+00 WtEn= 0.00D+00
 Coeff-Com:  0.502D-04-0.883D-04-0.204D-03-0.688D-02-0.357D-01 0.213D+00
 Coeff-Com:  0.830D+00
 Coeff:      0.502D-04-0.883D-04-0.204D-03-0.688D-02-0.357D-01 0.213D+00
 Coeff:      0.830D+00
 Gap=     0.293 Goal=   None    Shift=    0.000
 Gap=     0.293 Goal=   None    Shift=    0.000
 RMSDP=1.18D-07 MaxDP=2.14D-06 DE=-2.82D-09 OVMax= 4.18D-06

 Cycle   8  Pass 1  IDiag  1:
 E= -582.497003178372     Delta-E=       -0.000000000121 Rises=F Damp=F
 DIIS: error= 9.02D-08 at cycle   8 NSaved=   8.
 NSaved= 8 IEnMin= 8 EnMin= -582.497003178372     IErMin= 8 ErrMin= 9.02D-08
 ErrMax= 9.02D-08  0.00D+00 EMaxC= 1.00D-01 BMatC= 1.82D-12 BMatP= 2.84D-10
 IDIUse=1 WtCom= 1.00D+00 WtEn= 0.00D+00
 Coeff-Com: -0.196D-04 0.353D-04 0.133D-03 0.152D-02 0.484D-02-0.471D-01
 Coeff-Com: -0.130D+00 0.117D+01
 Coeff:     -0.196D-04 0.353D-04 0.133D-03 0.152D-02 0.484D-02-0.471D-01
 Coeff:     -0.130D+00 0.117D+01
 Gap=     0.293 Goal=   None    Shift=    0.000
 Gap=     0.293 Goal=   None    Shift=    0.000
 RMSDP=3.86D-08 MaxDP=8.02D-07 DE=-1.21D-10 OVMax= 1.11D-06

 Cycle   9  Pass 1  IDiag  1:
 E= -582.497003178374     Delta-E=       -0.000000000001 Rises=F Damp=F
 DIIS: error= 6.97D-09 at cycle   9 NSaved=   9.
 NSaved= 9 IEnMin= 9 EnMin= -582.497003178374     IErMin= 9 ErrMin= 6.97D-09
 ErrMax= 6.97D-09  0.00D+00 EMaxC= 1.00D-01 BMatC= 2.28D-14 BMatP= 1.82D-12
 IDIUse=1 WtCom= 1.00D+00 WtEn= 0.00D+00
 Coeff-Com:  0.139D-05-0.251D-05-0.132D-04-0.964D-04-0.310D-03 0.383D-02
 Coeff-Com:  0.472D-02-0.145D+00 0.114D+01
 Coeff:      0.139D-05-0.251D-05-0.132D-04-0.964D-04-0.310D-03 0.383D-02
 Coeff:      0.472D-02-0.145D+00 0.114D+01
 Gap=     0.293 Goal=   None    Shift=    0.000
 Gap=     0.293 Goal=   None    Shift=    0.000
 RMSDP=3.36D-09 MaxDP=5.98D-08 DE=-1.36D-12 OVMax= 1.17D-07

 SCF Done:  E(UM062X) =  -582.497003178     A.U. after    9 cycles
            NFock=  9  Conv=0.34D-08     -V/T= 2.0020
 <Sx>= 0.0000 <Sy>= 0.0000 <Sz>= 0.0000 <S**2>=-0.0000 S=-0.0000
 <L.S>=  0.00000000000    
 KE= 5.813208897493D+02 PE=-1.548935173308D+03 EE= 3.039118650344D+02
 Annihilation of the first spin contaminant:
 S**2 before annihilation    -0.0000,   after     0.0000
 Leave Link  502 at Mon Apr 21 20:18:31 2025, MaxMem=   536870912 cpu:              80.6 elap:              10.5
 (Enter /home/szhao/Apps/g16/l601.exe)
 Copying SCF densities to generalized density rwf, IOpCl= 1 IROHF=0.

 **********************************************************************

            Population analysis using the SCF density.

 **********************************************************************

 Alpha  occ. eigenvalues --  -67.00492 -67.00492  -5.55367  -5.55366  -3.86531
 Alpha  occ. eigenvalues --   -3.86523  -3.86454  -3.86453  -3.86453  -3.86453
 Alpha  occ. eigenvalues --   -0.62028  -0.58987  -0.41444  -0.41443  -0.40309
 Alpha  occ. eigenvalues --   -0.40308  -0.30673
 Alpha virt. eigenvalues --   -0.01343   0.02000   0.02951   0.02951   0.04636
 Alpha virt. eigenvalues --    0.04972   0.05648   0.05648   0.05872   0.05873
 Alpha virt. eigenvalues --    0.08640   0.09260   0.09260   0.15876   0.18043
 Alpha virt. eigenvalues --    0.28310   0.28617   0.28617   0.29198   0.30436
 Alpha virt. eigenvalues --    0.30436   0.39249   0.39250   0.39793   0.41689
 Alpha virt. eigenvalues --    0.41689   0.50151   0.55151   0.55987   0.57460
 Alpha virt. eigenvalues --    0.57460   0.63897   0.63897   0.66743   0.85593
 Alpha virt. eigenvalues --    0.91056   0.91057   0.91599   0.91599   1.20145
 Alpha virt. eigenvalues --    1.20146   1.24072   1.24073   1.24548   1.32748
 Alpha virt. eigenvalues --    1.32750   1.35370   1.41163   1.41164   1.46596
 Alpha virt. eigenvalues --    1.46596   1.58319   1.63263   1.63264   1.63959
 Alpha virt. eigenvalues --    1.63961   1.67310   1.87062   1.88299   2.10720
 Alpha virt. eigenvalues --    2.10721   2.10851   2.10852   2.58472   2.58474
 Alpha virt. eigenvalues --    2.63235   2.63237   2.69454   2.76349   5.65217
 Alpha virt. eigenvalues --    5.66692  11.52769  11.54110  11.58628  11.58629
 Alpha virt. eigenvalues --   11.60238  11.60239 141.24086 141.26915
  Beta  occ. eigenvalues --  -67.00492 -67.00492  -5.55367  -5.55366  -3.86531
  Beta  occ. eigenvalues --   -3.86523  -3.86454  -3.86453  -3.86453  -3.86453
  Beta  occ. eigenvalues --   -0.62028  -0.58987  -0.41444  -0.41443  -0.40309
  Beta  occ. eigenvalues --   -0.40308  -0.30673
  Beta virt. eigenvalues --   -0.01343   0.02000   0.02951   0.02951   0.04636
  Beta virt. eigenvalues --    0.04972   0.05648   0.05648   0.05872   0.05873
  Beta virt. eigenvalues --    0.08640   0.09260   0.09260   0.15876   0.18043
  Beta virt. eigenvalues --    0.28310   0.28617   0.28617   0.29198   0.30436
  Beta virt. eigenvalues --    0.30436   0.39249   0.39250   0.39793   0.41689
  Beta virt. eigenvalues --    0.41689   0.50151   0.55151   0.55987   0.57460
  Beta virt. eigenvalues --    0.57460   0.63897   0.63897   0.66743   0.85593
  Beta virt. eigenvalues --    0.91056   0.91057   0.91599   0.91599   1.20145
  Beta virt. eigenvalues --    1.20146   1.24072   1.24073   1.24548   1.32748
  Beta virt. eigenvalues --    1.32750   1.35370   1.41163   1.41164   1.46596
  Beta virt. eigenvalues --    1.46596   1.58319   1.63263   1.63264   1.63959
  Beta virt. eigenvalues --    1.63961   1.67310   1.87062   1.88299   2.10720
  Beta virt. eigenvalues --    2.10721   2.10851   2.10852   2.58472   2.58474
  Beta virt. eigenvalues --    2.63235   2.63237   2.69454   2.76349   5.65217
  Beta virt. eigenvalues --    5.66692  11.52769  11.54110  11.58628  11.58629
  Beta virt. eigenvalues --   11.60238  11.60239 141.24086 141.26915
          Condensed to atoms (all electrons):
               1          2          3          4          5          6
     1  Si  12.327022   0.362539  -0.018376   0.356143  -0.018375  -0.018377
     2  Si   0.362539  12.327022   0.356143  -0.018378   0.356144   0.356144
     3  H   -0.018376   0.356143   0.804659   0.000374  -0.022290  -0.022293
     4  H    0.356143  -0.018378   0.000374   0.804662   0.000453   0.000374
     5  H   -0.018375   0.356144  -0.022290   0.000453   0.804657  -0.022293
     6  H   -0.018377   0.356144  -0.022293   0.000374  -0.022293   0.804664
     7  H    0.356144  -0.018376   0.000453  -0.022290   0.000374   0.000374
     8  H    0.356145  -0.018375   0.000374  -0.022293   0.000374   0.000453
               7          8
     1  Si   0.356144   0.356145
     2  Si  -0.018376  -0.018375
     3  H    0.000453   0.000374
     4  H   -0.022290  -0.022293
     5  H    0.000374   0.000374
     6  H    0.000374   0.000453
     7  H    0.804659  -0.022293
     8  H   -0.022293   0.804659
          Atomic-Atomic Spin Densities.
               1          2          3          4          5          6
     1  Si   0.000000   0.000000   0.000000   0.000000   0.000000   0.000000
     2  Si   0.000000  -0.000000  -0.000000  -0.000000   0.000000   0.000000
     3  H    0.000000  -0.000000   0.000000  -0.000000   0.000000   0.000000
     4  H    0.000000  -0.000000  -0.000000  -0.000000   0.000000  -0.000000
     5  H    0.000000   0.000000   0.000000   0.000000   0.000000   0.000000
     6  H    0.000000   0.000000   0.000000  -0.000000   0.000000   0.000000
     7  H   -0.000000   0.000000  -0.000000   0.000000  -0.000000  -0.000000
     8  H   -0.000000   0.000000  -0.000000  -0.000000  -0.000000  -0.000000
               7          8
     1  Si  -0.000000  -0.000000
     2  Si   0.000000   0.000000
     3  H   -0.000000  -0.000000
     4  H    0.000000  -0.000000
     5  H   -0.000000  -0.000000
     6  H   -0.000000  -0.000000
     7  H   -0.000000   0.000000
     8  H    0.000000   0.000000
 Mulliken charges and spin densities:
               1          2
     1  Si   0.297135   0.000000
     2  Si   0.297136  -0.000000
     3  H   -0.099044   0.000000
     4  H   -0.099046  -0.000000
     5  H   -0.099044   0.000000
     6  H   -0.099047   0.000000
     7  H   -0.099045  -0.000000
     8  H   -0.099045  -0.000000
 Sum of Mulliken charges =  -0.00000   0.00000
 Mulliken charges and spin densities with hydrogens summed into heavy atoms:
               1          2
     1  Si  -0.000000   0.000000
     2  Si   0.000000  -0.000000
 Electronic spatial extent (au):  <R**2>=            393.6339
 Charge=             -0.0000 electrons
 Dipole moment (field-independent basis, Debye):
    X=              0.0000    Y=             -0.0000    Z=             -0.0001  Tot=              0.0001
 Quadrupole moment (field-independent basis, Debye-Ang):
   XX=            -31.8256   YY=            -31.6308   ZZ=            -31.6308
   XY=             -0.0002   XZ=             -0.0002   YZ=             -0.0000
 Traceless Quadrupole moment (field-independent basis, Debye-Ang):
   XX=             -0.1298   YY=              0.0650   ZZ=              0.0649
   XY=             -0.0002   XZ=             -0.0002   YZ=             -0.0000
 Octapole moment (field-independent basis, Debye-Ang**2):
  XXX=              0.0001  YYY=              0.0000  ZZZ=             -0.0015  XYY=              0.0000
  XXY=             -0.0000  XXZ=             -0.0005  XZZ=              0.0000  YZZ=              0.0000
  YYZ=             -0.0000  XYZ=              0.0000
 Hexadecapole moment (field-independent basis, Debye-Ang**3):
 XXXX=           -483.4179 YYYY=            -84.2937 ZZZZ=            -84.2934 XXXY=             -0.0011
 XXXZ=             -0.0012 YYYX=              2.2214 YYYZ=              0.0002 ZZZX=             -0.0007
 ZZZY=              0.0003 XXYY=            -98.9438 XXZZ=            -98.9439 YYZZ=            -28.0978
 XXYZ=             -0.0000 YYXZ=             -0.0004 ZZXY=             -2.2225
 N-N= 8.120541534591D+01 E-N=-1.548935173562D+03  KE= 5.813208897493D+02
                          Isotropic Fermi Contact Couplings
        Atom                 a.u.       MegaHertz       Gauss      10(-4) cm-1
     1  Si(29)             0.00000      -0.00000      -0.00000      -0.00000
     2  Si(29)             0.00000      -0.00000      -0.00000      -0.00000
     3  H(1)               0.00000       0.00000       0.00000       0.00000
     4  H(1)               0.00000       0.00000       0.00000       0.00000
     5  H(1)               0.00000       0.00000       0.00000       0.00000
     6  H(1)               0.00000       0.00000       0.00000       0.00000
     7  H(1)               0.00000       0.00000       0.00000       0.00000
     8  H(1)              -0.00000      -0.00000      -0.00000      -0.00000
 --------------------------------------------------------
       Center         ----  Spin Dipole Couplings  ----
                      3XX-RR        3YY-RR        3ZZ-RR
 --------------------------------------------------------
     1   Atom        0.000000      0.000000      0.000000
     2   Atom        0.000000      0.000000      0.000000
     3   Atom        0.000000      0.000000      0.000000
     4   Atom        0.000000      0.000000      0.000000
     5   Atom        0.000000      0.000000      0.000000
     6   Atom        0.000000      0.000000      0.000000
     7   Atom        0.000000      0.000000      0.000000
     8   Atom        0.000000      0.000000      0.000000
 --------------------------------------------------------
                        XY            XZ            YZ
 --------------------------------------------------------
     1   Atom        0.000000      0.000000      0.000000
     2   Atom        0.000000      0.000000      0.000000
     3   Atom        0.000000      0.000000      0.000000
     4   Atom        0.000000      0.000000      0.000000
     5   Atom        0.000000      0.000000      0.000000
     6   Atom        0.000000      0.000000      0.000000
     7   Atom        0.000000      0.000000      0.000000
     8   Atom        0.000000      0.000000      0.000000
 --------------------------------------------------------


 ---------------------------------------------------------------------------------
              Anisotropic Spin Dipole Couplings in Principal Axis System
 ---------------------------------------------------------------------------------

       Atom             a.u.   MegaHertz   Gauss  10(-4) cm-1        Axes

              Baa     0.0000    -0.000    -0.000    -0.000  1.0000  0.0000  0.0000
     1 Si(29) Bbb     0.0000    -0.000    -0.000    -0.000 -0.0000  1.0000  0.0000
              Bcc     0.0000    -0.000    -0.000    -0.000  0.0000  0.0000  1.0000
 
              Baa     0.0000    -0.000    -0.000    -0.000  1.0000  0.0000  0.0000
     2 Si(29) Bbb     0.0000    -0.000    -0.000    -0.000 -0.0000  1.0000  0.0000
              Bcc     0.0000    -0.000    -0.000    -0.000  0.0000  0.0000  1.0000
 
              Baa     0.0000     0.000     0.000     0.000  1.0000  0.0000  0.0000
     3 H(1)   Bbb     0.0000     0.000     0.000     0.000 -0.0000  1.0000  0.0000
              Bcc     0.0000     0.000     0.000     0.000  0.0000  0.0000  1.0000
 
              Baa     0.0000     0.000     0.000     0.000  1.0000  0.0000  0.0000
     4 H(1)   Bbb     0.0000     0.000     0.000     0.000 -0.0000  1.0000  0.0000
              Bcc     0.0000     0.000     0.000     0.000  0.0000  0.0000  1.0000
 
              Baa     0.0000     0.000     0.000     0.000  1.0000  0.0000  0.0000
     5 H(1)   Bbb     0.0000     0.000     0.000     0.000 -0.0000  1.0000  0.0000
              Bcc     0.0000     0.000     0.000     0.000  0.0000  0.0000  1.0000
 
              Baa     0.0000     0.000     0.000     0.000  1.0000  0.0000  0.0000
     6 H(1)   Bbb     0.0000     0.000     0.000     0.000 -0.0000  1.0000  0.0000
              Bcc     0.0000     0.000     0.000     0.000  0.0000  0.0000  1.0000
 
              Baa     0.0000     0.000     0.000     0.000  1.0000  0.0000  0.0000
     7 H(1)   Bbb     0.0000     0.000     0.000     0.000 -0.0000  1.0000  0.0000
              Bcc     0.0000     0.000     0.000     0.000  0.0000  0.0000  1.0000
 
              Baa     0.0000     0.000     0.000     0.000  1.0000  0.0000  0.0000
     8 H(1)   Bbb     0.0000     0.000     0.000     0.000 -0.0000  1.0000  0.0000
              Bcc     0.0000     0.000     0.000     0.000  0.0000  0.0000  1.0000
 

 ---------------------------------------------------------------------------------

 No NMR shielding tensors so no spin-rotation constants.
 Leave Link  601 at Mon Apr 21 20:18:32 2025, MaxMem=   536870912 cpu:               3.4 elap:               0.6
 (Enter /home/szhao/Apps/g16/l701.exe)
 ... and contract with generalized density number  0.
 Compute integral first derivatives.
 Leave Link  701 at Mon Apr 21 20:18:33 2025, MaxMem=   536870912 cpu:               2.0 elap:               0.4
 (Enter /home/szhao/Apps/g16/l702.exe)
 L702 exits ... SP integral derivatives will be done elsewhere.
 Leave Link  702 at Mon Apr 21 20:18:33 2025, MaxMem=   536870912 cpu:               0.5 elap:               0.2
 (Enter /home/szhao/Apps/g16/l703.exe)
 Integral derivatives from FoFJK, PRISM(SPDF).
 Compute integral first derivatives, UseDBF=F ICtDFT=           0.
 Calling FoFJK, ICntrl=      2127 FMM=F ISym2X=0 I1Cent= 0 IOpClX= 1 NMat=1 NMatS=1 NMatT=0.
 FoFJK:  IHMeth= 1 ICntrl=    2127 DoSepK=F KAlg= 0 I1Cent=           0 FoldK=F
 IRaf=         0 NMat=       1 IRICut=       1 DoRegI=T DoRafI=F ISym2E= 0 IDoP0=0 IntGTp=1.
 FoFCou: FMM=F IPFlag=           0 FMFlag=      100000 FMFlg1=         800
         NFxFlg=           0 DoJE=F BraDBF=F KetDBF=F FulRan=T
         wScrn=  0.000000 ICntrl=      2127 IOpCl=  1 I1Cent=           0 NGrid=           0
         NMat0=    1 NMatS0=      1 NMatT0=    0 NMatD0=    1 NMtDS0=    0 NMtDT0=    0
 Symmetry not used in FoFCou.
 Leave Link  703 at Mon Apr 21 20:18:35 2025, MaxMem=   536870912 cpu:              11.4 elap:               1.5
 (Enter /home/szhao/Apps/g16/l716.exe)
 Dipole        = 2.95602501D-06-3.48585003D-07-4.49302824D-05
 -------------------------------------------------------------------
 Center     Atomic                   Forces (Hartrees/Bohr)
 Number     Number              X              Y              Z
 -------------------------------------------------------------------
      1       14          -0.000000000   -0.000000000   -0.000000000
      2       14          -0.000000000   -0.000000000   -0.000000000
      3        1          -0.002163024    0.000144880   -0.000001886
      4        1           0.002162681    0.000076152   -0.000125232
      5        1          -0.002164431   -0.000075391    0.000123208
      6        1          -0.002163549   -0.000074612   -0.000125777
      7        1           0.002163191   -0.000144901    0.000001499
      8        1           0.002165273    0.000073623    0.000123657
 -------------------------------------------------------------------
 Cartesian Forces:  Max     0.002165273 RMS     0.001084278
 Leave Link  716 at Mon Apr 21 20:18:35 2025, MaxMem=   536870912 cpu:               0.8 elap:               0.2
 (Enter /home/szhao/Apps/g16/l103.exe)

 GradGradGradGradGradGradGradGradGradGradGradGradGradGradGradGradGradGrad
 Berny optimization.
 FormGI is forming the generalized inverse of G from B-inverse, IUseBI=4.
 Internal  Forces:  Max     0.006491146 RMS     0.002326945
 Search for a local minimum.
 Step number   1 out of a maximum of   43
 All quantities printed in internal units (Hartrees-Bohrs-Radians)
 RMS Force = .18700D-02 SwitMx=.10000D-02 MixMth= 1
 Mixed Optimization -- RFO/linear search
 Second derivative matrix not updated -- first step.
 ITU=  0
     Eigenvalues ---    0.00230   0.05576   0.05576   0.05577   0.05577
     Eigenvalues ---    0.16000   0.16000   0.16000   0.16000   0.16000
     Eigenvalues ---    0.16000   0.17703   0.17703   0.17703   0.17703
     Eigenvalues ---    0.17703   0.177031000.000001000.000001000.00000
     Eigenvalues --- 1000.000001000.000001000.000001000.000001000.00000
     Eigenvalues --- 1000.000001000.000001000.000001000.000001000.00000
     Eigenvalues --- 1000.000001000.000001000.00000
 RFO step:  Lambda=-5.85143696D-04 EMin= 2.30000000D-03
 Linear search not attempted -- first point.
 Iteration  1 RMS(Cart)=  0.02016486 RMS(Int)=  0.00020359
 Iteration  2 RMS(Cart)=  0.00022008 RMS(Int)=  0.00008895
 Iteration  3 RMS(Cart)=  0.00000003 RMS(Int)=  0.00008895
 ITry= 1 IFail=0 DXMaxC= 4.63D-02 DCOld= 1.00D+10 DXMaxT= 3.00D-01 DXLimC= 3.00D+00 Rises=F
 Variable       Old X    -DE/DX   Delta X   Delta X   Delta X     New X
                                 (Linear)    (Quad)   (Total)
    X1       -2.68307   0.00649   0.00000   0.00000   0.00000  -2.68307
    Y1        0.00000   0.00001   0.00000   0.00000   0.00000   0.00000
    Z1        0.00000  -0.00000   0.00000   0.00000   0.00000   0.00000
    X2        2.68307  -0.00649   0.00000   0.00000   0.00000   2.68307
    Y2        0.00000  -0.00001   0.00000   0.00000   0.00000   0.00000
    Z2        0.00000  -0.00000   0.00000   0.00000   0.00000   0.00000
    R1        2.79961  -0.00088   0.00000  -0.00498  -0.00498   2.79463
    R2        2.79960  -0.00088   0.00000  -0.00497  -0.00497   2.79462
    R3        2.79960  -0.00088   0.00000  -0.00497  -0.00497   2.79463
    R4        2.79960  -0.00088   0.00000  -0.00497  -0.00497   2.79462
    R5        2.79960  -0.00088   0.00000  -0.00498  -0.00498   2.79463
    R6        2.79961  -0.00088   0.00000  -0.00498  -0.00498   2.79463
    A1        1.92359  -0.00269   0.00000  -0.01677  -0.01692   1.90667
    A2        1.92367  -0.00270   0.00000  -0.01681  -0.01696   1.90671
    A3        1.92374  -0.00270   0.00000  -0.01681  -0.01696   1.90678
    A4        1.89746   0.00277   0.00000   0.01722   0.01707   1.91453
    A5        1.89740   0.00277   0.00000   0.01729   0.01714   1.91454
    A6        1.89741   0.00277   0.00000   0.01725   0.01711   1.91451
    A7        1.92366  -0.00270   0.00000  -0.01681  -0.01695   1.90671
    A8        1.92373  -0.00270   0.00000  -0.01681  -0.01696   1.90677
    A9        1.92360  -0.00270   0.00000  -0.01677  -0.01692   1.90668
   A10        1.89746   0.00277   0.00000   0.01722   0.01707   1.91453
   A11        1.89741   0.00277   0.00000   0.01725   0.01711   1.91452
   A12        1.89740   0.00277   0.00000   0.01729   0.01714   1.91454
    D1        1.04728   0.00000   0.00000   0.00005   0.00005   1.04733
    D2       -3.14142  -0.00000   0.00000  -0.00002  -0.00002  -3.14144
    D3       -1.04705   0.00000   0.00000   0.00003   0.00003  -1.04702
    D4       -3.14151   0.00000   0.00000   0.00002   0.00002  -3.14149
    D5       -1.04702  -0.00000   0.00000  -0.00005  -0.00005  -1.04707
    D6        1.04734   0.00000   0.00000   0.00000   0.00000   1.04735
    D7       -1.04709   0.00000   0.00000  -0.00000  -0.00000  -1.04709
    D8        1.04740  -0.00000   0.00000  -0.00007  -0.00007   1.04733
    D9       -3.14142  -0.00000   0.00000  -0.00002  -0.00002  -3.14144
         Item               Value     Threshold  Converged?
 Maximum Force            0.002773     0.000450     NO 
 RMS     Force            0.001870     0.000300     NO 
 Maximum Displacement     0.046334     0.001800     NO 
 RMS     Displacement     0.020321     0.001200     NO 
 Predicted change in Energy=-2.936160D-04
 Lowest energy point so far.  Saving SCF results.
 GradGradGradGradGradGradGradGradGradGradGradGradGradGradGradGradGradGrad

 Leave Link  103 at Mon Apr 21 20:18:36 2025, MaxMem=   536870912 cpu:               1.0 elap:               0.3
 (Enter /home/szhao/Apps/g16/l202.exe)
                          Input orientation:                          
 ---------------------------------------------------------------------
 Center     Atomic      Atomic             Coordinates (Angstroms)
 Number     Number       Type             X           Y           Z
 ---------------------------------------------------------------------
      1         14           0       -1.419819    0.000000    0.000000
      2         14           0        1.419819    0.000000    0.000000
      3          1           0        1.907296   -1.396196   -0.000032
      4          1           0       -1.907244   -0.697977    1.209236
      5          1           0        1.907384    0.698142   -1.209083
      6          1           0        1.907252    0.698022    1.209209
      7          1           0       -1.907300    1.396195   -0.000110
      8          1           0       -1.907390   -0.698187   -1.209056
 ---------------------------------------------------------------------
                    Distance matrix (angstroms):
                    1          2          3          4          5
     1  Si   0.000000
     2  Si   2.839638   0.000000
     3  H    3.608193   1.478850   0.000000
     4  H    1.478853   3.608154   4.062087   0.000000
     5  H    3.608263   1.478852   2.418276   4.727452   0.000000
     6  H    3.608160   1.478854   2.418266   4.061919   2.418292
     7  H    1.478850   3.608196   4.727429   2.418280   4.062106
     8  H    1.478853   3.608268   4.062115   2.418292   4.062294
                    6          7          8
     6  H    0.000000
     7  H    4.062105   0.000000
     8  H    4.727461   2.418261   0.000000
 Symmetry turned off by external request.
 Stoichiometry    H6Si2
 Framework group  C1[X(H6Si2)]
 Deg. of freedom    18
 Full point group                 C1      NOp   1
 Rotational constants (GHZ):          42.8735740           3.5921931           3.5921891
 Leave Link  202 at Mon Apr 21 20:18:36 2025, MaxMem=   536870912 cpu:               0.2 elap:               0.1
 (Enter /home/szhao/Apps/g16/l301.exe)
 Standard basis: 6-311+G(d,p) (5D, 7F)
 Ernie: Thresh=  0.10000D-02 Tol=  0.10000D-05 Strict=F.
    96 basis functions,   148 primitive gaussians,    98 cartesian basis functions
    17 alpha electrons       17 beta electrons
       nuclear repulsion energy        81.3328014740 Hartrees.
 IExCor= 4336 DFT=T Ex+Corr=M062X ExCW=0 ScaHFX=  0.540000
 ScaDFX=  1.000000  1.000000  1.000000  1.000000 ScalE2=  1.000000  1.000000
 IRadAn=      7 IRanWt=     -1 IRanGd=            0 ICorTp=0 IEmpDi=  4
 NAtoms=    8 NActive=    8 NUniq=    8 SFac= 1.00D+00 NAtFMM=   60 NAOKFM=F Big=F
 Integral buffers will be    131072 words long.
 Raffenetti 2 integral format.
 Two-electron integral symmetry is turned off.
 Leave Link  301 at Mon Apr 21 20:18:37 2025, MaxMem=   536870912 cpu:               0.5 elap:               0.3
 (Enter /home/szhao/Apps/g16/l302.exe)
 NPDir=0 NMtPBC=     1 NCelOv=     1 NCel=       1 NClECP=     1 NCelD=      1
         NCelK=      1 NCelE2=     1 NClLst=     1 CellRange=     0.0.
 One-electron integrals computed using PRISM.
 NBasis=    96 RedAO= T EigKep=  2.25D-03  NBF=    96
 NBsUse=    96 1.00D-06 EigRej= -1.00D+00 NBFU=    96
 Precomputing XC quadrature grid using
 IXCGrd= 4 IRadAn=           7 IRanWt=          -1 IRanGd=           0 AccXCQ= 0.00D+00.
 Generated NRdTot=       0 NPtTot=           0 NUsed=           0 NTot=          32
 NSgBfM=    95    95    95    95    95 MxSgAt=     8 MxSgA2=     8.
 Leave Link  302 at Mon Apr 21 20:18:38 2025, MaxMem=   536870912 cpu:               3.1 elap:               0.5
 (Enter /home/szhao/Apps/g16/l303.exe)
 DipDrv:  MaxL=1.
 Leave Link  303 at Mon Apr 21 20:18:38 2025, MaxMem=   536870912 cpu:               0.9 elap:               0.2
 (Enter /home/szhao/Apps/g16/l401.exe)
 Initial guess from the checkpoint file:  "opt.chk"
 B after Tr=     0.000000   -0.000000   -0.000005
         Rot=    1.000000   -0.000000   -0.000001    0.000002 Ang=  -0.00 deg.
 Guess basis will be translated and rotated to current coordinates.
 JPrj=2 DoOrth=T DoCkMO=T.
 Initial guess <Sx>= 0.0000 <Sy>= 0.0000 <Sz>= 0.0000 <S**2>= 0.0000 S= 0.0000
 Generating alternative initial guess.
 ExpMin= 3.31D-02 ExpMax= 6.94D+04 ExpMxC= 2.33D+03 IAcc=3 IRadAn=         5 AccDes= 0.00D+00
 Harris functional with IExCor= 1009 and IRadAn=       5 diagonalized for initial guess.
 HarFok:  IExCor= 1009 AccDes= 0.00D+00 IRadAn=         5 IDoV= 1 UseB2=F ITyADJ=14
 ICtDFT=  3500011 ScaDFX=  1.000000  1.000000  1.000000  1.000000
 FoFCou: FMM=F IPFlag=           0 FMFlag=      100000 FMFlg1=           0
         NFxFlg=           0 DoJE=T BraDBF=F KetDBF=T FulRan=T
         wScrn=  0.000000 ICntrl=       500 IOpCl=  0 I1Cent=   200000004 NGrid=           0
         NMat0=    1 NMatS0=      1 NMatT0=    0 NMatD0=    1 NMtDS0=    0 NMtDT0=    0
 Symmetry not used in FoFCou.
 Harris En= -582.190336819063    
 Leave Link  401 at Mon Apr 21 20:18:39 2025, MaxMem=   536870912 cpu:               3.5 elap:               0.5
 (Enter /home/szhao/Apps/g16/l502.exe)
 Keep R1 and R2 ints in memory in canonical form, NReq=29092346.
 FoFCou: FMM=F IPFlag=           0 FMFlag=           0 FMFlg1=           0
         NFxFlg=           0 DoJE=F BraDBF=F KetDBF=F FulRan=T
         wScrn=  0.000000 ICntrl=       600 IOpCl=  0 I1Cent=           0 NGrid=           0
         NMat0=    1 NMatS0=   4656 NMatT0=    0 NMatD0=    1 NMtDS0=    0 NMtDT0=    0
 Symmetry not used in FoFCou.
 Two-electron integral symmetry not used.
 UHF open shell SCF:
 Using DIIS extrapolation, IDIIS=  1040.
 NGot=   536870912 LenX=   515167018 LenY=   515156973
 Requested convergence on RMS density matrix=1.00D-08 within 128 cycles.
 Requested convergence on MAX density matrix=1.00D-06.
 Requested convergence on             energy=1.00D-06.
 No special actions if energy rises.

 Cycle   1  Pass 1  IDiag  1:
 E= -582.497325343472    
 DIIS: error= 7.40D-04 at cycle   1 NSaved=   1.
 NSaved= 1 IEnMin= 1 EnMin= -582.497325343472     IErMin= 1 ErrMin= 7.40D-04
 ErrMax= 7.40D-04  0.00D+00 EMaxC= 1.00D-01 BMatC= 1.53D-04 BMatP= 1.53D-04
 IDIUse=3 WtCom= 9.93D-01 WtEn= 7.40D-03
 Coeff-Com:  0.100D+01
 Coeff-En:   0.100D+01
 Coeff:      0.100D+01
 Gap=     0.459 Goal=   None    Shift=    0.000
 Gap=     0.459 Goal=   None    Shift=    0.000
 RMSDP=9.60D-05 MaxDP=1.57D-03              OVMax= 4.53D-03

 Cycle   2  Pass 1  IDiag  1:
 E= -582.497387373737     Delta-E=       -0.000062030264 Rises=F Damp=F
 DIIS: error= 1.24D-04 at cycle   2 NSaved=   2.
 NSaved= 2 IEnMin= 2 EnMin= -582.497387373737     IErMin= 2 ErrMin= 1.24D-04
 ErrMax= 1.24D-04  0.00D+00 EMaxC= 1.00D-01 BMatC= 3.10D-06 BMatP= 1.53D-04
 IDIUse=3 WtCom= 9.99D-01 WtEn= 1.24D-03
 Coeff-Com: -0.694D-01 0.107D+01
 Coeff-En:   0.000D+00 0.100D+01
 Coeff:     -0.694D-01 0.107D+01
 Gap=     0.291 Goal=   None    Shift=    0.000
 Gap=     0.291 Goal=   None    Shift=    0.000
 RMSDP=2.30D-05 MaxDP=4.18D-04 DE=-6.20D-05 OVMax= 9.46D-04

 Cycle   3  Pass 1  IDiag  1:
 E= -582.497389358031     Delta-E=       -0.000001984295 Rises=F Damp=F
 DIIS: error= 4.42D-05 at cycle   3 NSaved=   3.
 NSaved= 3 IEnMin= 3 EnMin= -582.497389358031     IErMin= 3 ErrMin= 4.42D-05
 ErrMax= 4.42D-05  0.00D+00 EMaxC= 1.00D-01 BMatC= 3.70D-07 BMatP= 3.10D-06
 IDIUse=1 WtCom= 1.00D+00 WtEn= 0.00D+00
 Coeff-Com: -0.288D-01 0.228D+00 0.800D+00
 Coeff:     -0.288D-01 0.228D+00 0.800D+00
 Gap=     0.291 Goal=   None    Shift=    0.000
 Gap=     0.291 Goal=   None    Shift=    0.000
 RMSDP=7.04D-06 MaxDP=1.12D-04 DE=-1.98D-06 OVMax= 2.71D-04

 Cycle   4  Pass 1  IDiag  1:
 E= -582.497389490280     Delta-E=       -0.000000132249 Rises=F Damp=F
 DIIS: error= 6.02D-06 at cycle   4 NSaved=   4.
 NSaved= 4 IEnMin= 4 EnMin= -582.497389490280     IErMin= 4 ErrMin= 6.02D-06
 ErrMax= 6.02D-06  0.00D+00 EMaxC= 1.00D-01 BMatC= 2.45D-08 BMatP= 3.70D-07
 IDIUse=1 WtCom= 1.00D+00 WtEn= 0.00D+00
 Coeff-Com:  0.286D-02-0.681D-01 0.103D+00 0.962D+00
 Coeff:      0.286D-02-0.681D-01 0.103D+00 0.962D+00
 Gap=     0.291 Goal=   None    Shift=    0.000
 Gap=     0.291 Goal=   None    Shift=    0.000
 RMSDP=2.39D-06 MaxDP=5.35D-05 DE=-1.32D-07 OVMax= 8.31D-05

 Cycle   5  Pass 1  IDiag  1:
 E= -582.497389501028     Delta-E=       -0.000000010748 Rises=F Damp=F
 DIIS: error= 8.83D-07 at cycle   5 NSaved=   5.
 NSaved= 5 IEnMin= 5 EnMin= -582.497389501028     IErMin= 5 ErrMin= 8.83D-07
 ErrMax= 8.83D-07  0.00D+00 EMaxC= 1.00D-01 BMatC= 3.14D-10 BMatP= 2.45D-08
 IDIUse=1 WtCom= 1.00D+00 WtEn= 0.00D+00
 Coeff-Com:  0.507D-03-0.422D-02-0.100D-01-0.389D-01 0.105D+01
 Coeff:      0.507D-03-0.422D-02-0.100D-01-0.389D-01 0.105D+01
 Gap=     0.291 Goal=   None    Shift=    0.000
 Gap=     0.291 Goal=   None    Shift=    0.000
 RMSDP=3.70D-07 MaxDP=8.76D-06 DE=-1.07D-08 OVMax= 1.40D-05

 Cycle   6  Pass 1  IDiag  1:
 E= -582.497389501253     Delta-E=       -0.000000000226 Rises=F Damp=F
 DIIS: error= 3.55D-07 at cycle   6 NSaved=   6.
 NSaved= 6 IEnMin= 6 EnMin= -582.497389501253     IErMin= 6 ErrMin= 3.55D-07
 ErrMax= 3.55D-07  0.00D+00 EMaxC= 1.00D-01 BMatC= 1.93D-11 BMatP= 3.14D-10
 IDIUse=1 WtCom= 1.00D+00 WtEn= 0.00D+00
 Coeff-Com: -0.132D-03 0.309D-02-0.646D-02-0.446D-01 0.156D+00 0.892D+00
 Coeff:     -0.132D-03 0.309D-02-0.646D-02-0.446D-01 0.156D+00 0.892D+00
 Gap=     0.291 Goal=   None    Shift=    0.000
 Gap=     0.291 Goal=   None    Shift=    0.000
 RMSDP=7.35D-08 MaxDP=1.50D-06 DE=-2.26D-10 OVMax= 2.83D-06

 Cycle   7  Pass 1  IDiag  1:
 E= -582.497389501266     Delta-E=       -0.000000000013 Rises=F Damp=F
 DIIS: error= 3.54D-08 at cycle   7 NSaved=   7.
 NSaved= 7 IEnMin= 7 EnMin= -582.497389501266     IErMin= 7 ErrMin= 3.54D-08
 ErrMax= 3.54D-08  0.00D+00 EMaxC= 1.00D-01 BMatC= 2.66D-13 BMatP= 1.93D-11
 IDIUse=1 WtCom= 1.00D+00 WtEn= 0.00D+00
 Coeff-Com: -0.130D-04 0.297D-04 0.471D-03 0.253D-02-0.393D-01-0.908D-01
 Coeff-Com:  0.113D+01
 Coeff:     -0.130D-04 0.297D-04 0.471D-03 0.253D-02-0.393D-01-0.908D-01
 Coeff:      0.113D+01
 Gap=     0.291 Goal=   None    Shift=    0.000
 Gap=     0.291 Goal=   None    Shift=    0.000
 RMSDP=1.28D-08 MaxDP=2.58D-07 DE=-1.25D-11 OVMax= 6.04D-07

 Cycle   8  Pass 1  IDiag  1:
 E= -582.497389501267     Delta-E=       -0.000000000001 Rises=F Damp=F
 DIIS: error= 2.25D-09 at cycle   8 NSaved=   8.
 NSaved= 8 IEnMin= 8 EnMin= -582.497389501267     IErMin= 8 ErrMin= 2.25D-09
 ErrMax= 2.25D-09  0.00D+00 EMaxC= 1.00D-01 BMatC= 1.63D-15 BMatP= 2.66D-13
 IDIUse=1 WtCom= 1.00D+00 WtEn= 0.00D+00
 Coeff-Com:  0.108D-05-0.163D-04-0.753D-05 0.185D-03 0.869D-03-0.167D-02
 Coeff-Com: -0.580D-01 0.106D+01
 Coeff:      0.108D-05-0.163D-04-0.753D-05 0.185D-03 0.869D-03-0.167D-02
 Coeff:     -0.580D-01 0.106D+01
 Gap=     0.291 Goal=   None    Shift=    0.000
 Gap=     0.291 Goal=   None    Shift=    0.000
 RMSDP=5.67D-10 MaxDP=1.36D-08 DE=-1.14D-12 OVMax= 1.82D-08

 SCF Done:  E(UM062X) =  -582.497389501     A.U. after    8 cycles
            NFock=  8  Conv=0.57D-09     -V/T= 2.0020
 <Sx>= 0.0000 <Sy>= 0.0000 <Sz>= 0.0000 <S**2>=-0.0000 S=-0.0000
 <L.S>=  0.00000000000    
 KE= 5.813363256042D+02 PE=-1.549231116509D+03 EE= 3.040645999300D+02
 Annihilation of the first spin contaminant:
 S**2 before annihilation    -0.0000,   after    -0.0000
 Leave Link  502 at Mon Apr 21 20:18:49 2025, MaxMem=   536870912 cpu:              79.8 elap:              10.6
 (Enter /home/szhao/Apps/g16/l701.exe)
 ... and contract with generalized density number  0.
 Compute integral first derivatives.
 Leave Link  701 at Mon Apr 21 20:18:50 2025, MaxMem=   536870912 cpu:               1.3 elap:               0.2
 (Enter /home/szhao/Apps/g16/l702.exe)
 L702 exits ... SP integral derivatives will be done elsewhere.
 Leave Link  702 at Mon Apr 21 20:18:50 2025, MaxMem=   536870912 cpu:               0.3 elap:               0.1
 (Enter /home/szhao/Apps/g16/l703.exe)
 Integral derivatives from FoFJK, PRISM(SPDF).
 Compute integral first derivatives, UseDBF=F ICtDFT=           0.
 Calling FoFJK, ICntrl=      2127 FMM=F ISym2X=0 I1Cent= 0 IOpClX= 1 NMat=1 NMatS=1 NMatT=0.
 FoFJK:  IHMeth= 1 ICntrl=    2127 DoSepK=F KAlg= 0 I1Cent=           0 FoldK=F
 IRaf=         0 NMat=       1 IRICut=       1 DoRegI=T DoRafI=F ISym2E= 0 IDoP0=0 IntGTp=1.
 FoFCou: FMM=F IPFlag=           0 FMFlag=      100000 FMFlg1=         800
         NFxFlg=           0 DoJE=F BraDBF=F KetDBF=F FulRan=T
         wScrn=  0.000000 ICntrl=      2127 IOpCl=  1 I1Cent=           0 NGrid=           0
         NMat0=    1 NMatS0=      1 NMatT0=    0 NMatD0=    1 NMtDS0=    0 NMtDT0=    0
 Symmetry not used in FoFCou.
 Leave Link  703 at Mon Apr 21 20:18:52 2025, MaxMem=   536870912 cpu:              13.4 elap:               1.7
 (Enter /home/szhao/Apps/g16/l716.exe)
 Dipole        = 1.45153870D-06 1.73368056D-07-2.49745483D-05
 -------------------------------------------------------------------
 Center     Atomic                   Forces (Hartrees/Bohr)
 Number     Number              X              Y              Z
 -------------------------------------------------------------------
      1       14          -0.000000000   -0.000000000   -0.000000000
      2       14          -0.000000000   -0.000000000   -0.000000000
      3        1          -0.000639933   -0.000101116   -0.000000528
      4        1           0.000637089   -0.000049550    0.000088447
      5        1          -0.000638642    0.000049859   -0.000089059
      6        1          -0.000637565    0.000049960    0.000088078
      7        1           0.000640009    0.000101134    0.000000594
      8        1           0.000639135   -0.000050305   -0.000088632
 -------------------------------------------------------------------
 Cartesian Forces:  Max     0.000640009 RMS     0.000323371
 Leave Link  716 at Mon Apr 21 20:18:53 2025, MaxMem=   536870912 cpu:               1.1 elap:               0.5
 (Enter /home/szhao/Apps/g16/l103.exe)

 GradGradGradGradGradGradGradGradGradGradGradGradGradGradGradGradGradGrad
 Berny optimization.
 Using GEDIIS/GDIIS optimizer.
 FormGI is forming the generalized inverse of G from B-inverse, IUseBI=4.
 Internal  Forces:  Max     0.001916234 RMS     0.000717606
 Search for a local minimum.
 Step number   2 out of a maximum of   43
 All quantities printed in internal units (Hartrees-Bohrs-Radians)
 RMS Force = .59784D-03 SwitMx=.10000D-02 MixMth= 2
 Mixed Optimization -- En-DIIS/RFO-DIIS
 Update second derivatives using D2CorX and points    1    2
 DE= -3.86D-04 DEPred=-2.94D-04 R= 1.32D+00
 TightC=F SS=  1.41D+00  RLast= 6.02D-02 DXNew= 5.0454D-01 1.8068D-01
 Trust test= 1.32D+00 RLast= 6.02D-02 DXMaxT set to 3.00D-01
 ITU=  1  0
 Use linear search instead of GDIIS.
     Eigenvalues ---    0.00230   0.05756   0.05757   0.05757   0.05757
     Eigenvalues ---    0.10878   0.16000   0.16000   0.16000   0.16000
     Eigenvalues ---    0.16000   0.17703   0.17703   0.17703   0.17703
     Eigenvalues ---    0.17703   0.178271000.000001000.000001000.00000
     Eigenvalues --- 1000.000001000.000001000.000001000.000001000.00000
     Eigenvalues --- 1000.000001000.000001000.000001000.000001000.00000
     Eigenvalues --- 1000.000001000.000001000.00000
 RFO step:  Lambda=-2.08197139D-06 EMin= 2.29999999D-03
 Quartic linear search produced a step of  0.45717.
 Iteration  1 RMS(Cart)=  0.00966101 RMS(Int)=  0.00007706
 Iteration  2 RMS(Cart)=  0.00005479 RMS(Int)=  0.00006357
 Iteration  3 RMS(Cart)=  0.00000001 RMS(Int)=  0.00006357
 ITry= 1 IFail=0 DXMaxC= 2.19D-02 DCOld= 1.00D+10 DXMaxT= 3.00D-01 DXLimC= 3.00D+00 Rises=F
 Variable       Old X    -DE/DX   Delta X   Delta X   Delta X     New X
                                 (Linear)    (Quad)   (Total)
    X1       -2.68307   0.00192   0.00000   0.00000   0.00000  -2.68307
    Y1        0.00000   0.00000   0.00000   0.00000   0.00000   0.00000
    Z1        0.00000   0.00000   0.00000   0.00000   0.00000   0.00000
    X2        2.68307  -0.00192   0.00000   0.00000   0.00000   2.68307
    Y2        0.00000  -0.00000   0.00000   0.00000   0.00000   0.00000
    Z2        0.00000  -0.00000   0.00000   0.00000   0.00000   0.00000
    R1        2.79463  -0.00011  -0.00228   0.00135  -0.00092   2.79370
    R2        2.79462  -0.00012  -0.00227   0.00134  -0.00093   2.79369
    R3        2.79463  -0.00011  -0.00227   0.00135  -0.00093   2.79370
    R4        2.79462  -0.00012  -0.00227   0.00134  -0.00093   2.79369
    R5        2.79463  -0.00011  -0.00227   0.00135  -0.00092   2.79370
    R6        2.79463  -0.00011  -0.00228   0.00135  -0.00093   2.79370
    A1        1.90667  -0.00089  -0.00774  -0.00026  -0.00809   1.89858
    A2        1.90671  -0.00090  -0.00775  -0.00032  -0.00817   1.89854
    A3        1.90678  -0.00090  -0.00775  -0.00028  -0.00814   1.89864
    A4        1.91453   0.00089   0.00781   0.00028   0.00798   1.92251
    A5        1.91454   0.00089   0.00784   0.00029   0.00802   1.92256
    A6        1.91451   0.00089   0.00782   0.00028   0.00799   1.92251
    A7        1.90671  -0.00090  -0.00775  -0.00032  -0.00817   1.89854
    A8        1.90677  -0.00090  -0.00775  -0.00028  -0.00814   1.89864
    A9        1.90668  -0.00089  -0.00774  -0.00026  -0.00810   1.89858
   A10        1.91453   0.00089   0.00780   0.00028   0.00798   1.92251
   A11        1.91452   0.00089   0.00782   0.00028   0.00799   1.92251
   A12        1.91454   0.00089   0.00784   0.00029   0.00802   1.92256
    D1        1.04733   0.00000   0.00002   0.00001   0.00003   1.04736
    D2       -3.14144  -0.00000  -0.00001  -0.00001  -0.00002  -3.14145
    D3       -1.04702   0.00000   0.00002   0.00001   0.00003  -1.04699
    D4       -3.14149   0.00000   0.00001   0.00000   0.00001  -3.14148
    D5       -1.04707  -0.00000  -0.00002  -0.00002  -0.00004  -1.04711
    D6        1.04735   0.00000   0.00000   0.00001   0.00001   1.04736
    D7       -1.04709  -0.00000  -0.00000  -0.00002  -0.00002  -1.04711
    D8        1.04733  -0.00000  -0.00003  -0.00003  -0.00006   1.04727
    D9       -3.14144  -0.00000  -0.00001  -0.00001  -0.00002  -3.14145
         Item               Value     Threshold  Converged?
 Maximum Force            0.000900     0.000450     NO 
 RMS     Force            0.000598     0.000300     NO 
 Maximum Displacement     0.021895     0.001800     NO 
 RMS     Displacement     0.009701     0.001200     NO 
 Predicted change in Energy=-4.433735D-05
 Lowest energy point so far.  Saving SCF results.
 GradGradGradGradGradGradGradGradGradGradGradGradGradGradGradGradGradGrad

 Leave Link  103 at Mon Apr 21 20:18:53 2025, MaxMem=   536870912 cpu:               1.7 elap:               0.3
 (Enter /home/szhao/Apps/g16/l202.exe)
                          Input orientation:                          
 ---------------------------------------------------------------------
 Center     Atomic      Atomic             Coordinates (Angstroms)
 Number     Number       Type             X           Y           Z
 ---------------------------------------------------------------------
      1         14           0       -1.419819    0.000000    0.000000
      2         14           0        1.419819    0.000000    0.000000
      3          1           0        1.895711   -1.399665   -0.000046
      4          1           0       -1.895769   -0.699675    1.212224
      5          1           0        1.895850    0.699830   -1.212102
      6          1           0        1.895773    0.699726    1.212193
      7          1           0       -1.895713    1.399664   -0.000107
      8          1           0       -1.895852   -0.699882   -1.212071
 ---------------------------------------------------------------------
                    Distance matrix (angstroms):
                    1          2          3          4          5
     1  Si   0.000000
     2  Si   2.839638   0.000000
     3  H    3.598861   1.478356   0.000000
     4  H    1.478364   3.598911   4.041647   0.000000
     5  H    3.598974   1.478363   2.424243   4.712998   0.000000
     6  H    3.598913   1.478364   2.424245   4.041549   2.424295
     7  H    1.478356   3.598863   4.712870   2.424246   4.041615
     8  H    1.478363   3.598976   4.041615   2.424295   4.041807
                    6          7          8
     6  H    0.000000
     7  H    4.041652   0.000000
     8  H    4.713001   2.424242   0.000000
 Symmetry turned off by external request.
 Stoichiometry    H6Si2
 Framework group  C1[X(H6Si2)]
 Deg. of freedom    18
 Full point group                 C1      NOp   1
 Rotational constants (GHZ):          42.6622064           3.5982316           3.5982231
 Leave Link  202 at Mon Apr 21 20:18:54 2025, MaxMem=   536870912 cpu:               0.4 elap:               0.2
 (Enter /home/szhao/Apps/g16/l301.exe)
 Standard basis: 6-311+G(d,p) (5D, 7F)
 Ernie: Thresh=  0.10000D-02 Tol=  0.10000D-05 Strict=F.
    96 basis functions,   148 primitive gaussians,    98 cartesian basis functions
    17 alpha electrons       17 beta electrons
       nuclear repulsion energy        81.3763381134 Hartrees.
 IExCor= 4336 DFT=T Ex+Corr=M062X ExCW=0 ScaHFX=  0.540000
 ScaDFX=  1.000000  1.000000  1.000000  1.000000 ScalE2=  1.000000  1.000000
 IRadAn=      7 IRanWt=     -1 IRanGd=            0 ICorTp=0 IEmpDi=  4
 NAtoms=    8 NActive=    8 NUniq=    8 SFac= 1.00D+00 NAtFMM=   60 NAOKFM=F Big=F
 Integral buffers will be    131072 words long.
 Raffenetti 2 integral format.
 Two-electron integral symmetry is turned off.
 Leave Link  301 at Mon Apr 21 20:18:55 2025, MaxMem=   536870912 cpu:               0.7 elap:               0.3
 (Enter /home/szhao/Apps/g16/l302.exe)
 NPDir=0 NMtPBC=     1 NCelOv=     1 NCel=       1 NClECP=     1 NCelD=      1
         NCelK=      1 NCelE2=     1 NClLst=     1 CellRange=     0.0.
 One-electron integrals computed using PRISM.
 NBasis=    96 RedAO= T EigKep=  2.25D-03  NBF=    96
 NBsUse=    96 1.00D-06 EigRej= -1.00D+00 NBFU=    96
 Precomputing XC quadrature grid using
 IXCGrd= 4 IRadAn=           7 IRanWt=          -1 IRanGd=           0 AccXCQ= 0.00D+00.
 Generated NRdTot=       0 NPtTot=           0 NUsed=           0 NTot=          32
 NSgBfM=    95    95    95    95    95 MxSgAt=     8 MxSgA2=     8.
 Leave Link  302 at Mon Apr 21 20:18:56 2025, MaxMem=   536870912 cpu:               2.6 elap:               0.6
 (Enter /home/szhao/Apps/g16/l303.exe)
 DipDrv:  MaxL=1.
 Leave Link  303 at Mon Apr 21 20:18:56 2025, MaxMem=   536870912 cpu:               0.6 elap:               0.2
 (Enter /home/szhao/Apps/g16/l401.exe)
 Initial guess from the checkpoint file:  "opt.chk"
 B after Tr=     0.000000    0.000000   -0.000004
         Rot=    1.000000   -0.000000   -0.000000    0.000003 Ang=  -0.00 deg.
 Guess basis will be translated and rotated to current coordinates.
 JPrj=2 DoOrth=T DoCkMO=T.
 Initial guess <Sx>= 0.0000 <Sy>= 0.0000 <Sz>= 0.0000 <S**2>=-0.0000 S=-0.0000
 Generating alternative initial guess.
 ExpMin= 3.31D-02 ExpMax= 6.94D+04 ExpMxC= 2.33D+03 IAcc=3 IRadAn=         5 AccDes= 0.00D+00
 Harris functional with IExCor= 1009 and IRadAn=       5 diagonalized for initial guess.
 HarFok:  IExCor= 1009 AccDes= 0.00D+00 IRadAn=         5 IDoV= 1 UseB2=F ITyADJ=14
 ICtDFT=  3500011 ScaDFX=  1.000000  1.000000  1.000000  1.000000
 FoFCou: FMM=F IPFlag=           0 FMFlag=      100000 FMFlg1=           0
         NFxFlg=           0 DoJE=T BraDBF=F KetDBF=T FulRan=T
         wScrn=  0.000000 ICntrl=       500 IOpCl=  0 I1Cent=   200000004 NGrid=           0
         NMat0=    1 NMatS0=      1 NMatT0=    0 NMatD0=    1 NMtDS0=    0 NMtDT0=    0
 Symmetry not used in FoFCou.
 Harris En= -582.190024133651    
 Leave Link  401 at Mon Apr 21 20:18:57 2025, MaxMem=   536870912 cpu:               3.5 elap:               0.6
 (Enter /home/szhao/Apps/g16/l502.exe)
 Keep R1 and R2 ints in memory in canonical form, NReq=29092346.
 FoFCou: FMM=F IPFlag=           0 FMFlag=           0 FMFlg1=           0
         NFxFlg=           0 DoJE=F BraDBF=F KetDBF=F FulRan=T
         wScrn=  0.000000 ICntrl=       600 IOpCl=  0 I1Cent=           0 NGrid=           0
         NMat0=    1 NMatS0=   4656 NMatT0=    0 NMatD0=    1 NMtDS0=    0 NMtDT0=    0
 Symmetry not used in FoFCou.
 Two-electron integral symmetry not used.
 UHF open shell SCF:
 Using DIIS extrapolation, IDIIS=  1040.
 NGot=   536870912 LenX=   515167018 LenY=   515156973
 Requested convergence on RMS density matrix=1.00D-08 within 128 cycles.
 Requested convergence on MAX density matrix=1.00D-06.
 Requested convergence on             energy=1.00D-06.
 No special actions if energy rises.

 Cycle   1  Pass 1  IDiag  1:
 E= -582.497418674800    
 DIIS: error= 3.81D-04 at cycle   1 NSaved=   1.
 NSaved= 1 IEnMin= 1 EnMin= -582.497418674800     IErMin= 1 ErrMin= 3.81D-04
 ErrMax= 3.81D-04  0.00D+00 EMaxC= 1.00D-01 BMatC= 3.35D-05 BMatP= 3.35D-05
 IDIUse=3 WtCom= 9.96D-01 WtEn= 3.81D-03
 Coeff-Com:  0.100D+01
 Coeff-En:   0.100D+01
 Coeff:      0.100D+01
 Gap=     0.457 Goal=   None    Shift=    0.000
 Gap=     0.457 Goal=   None    Shift=    0.000
 RMSDP=4.64D-05 MaxDP=7.27D-04              OVMax= 2.25D-03

 Cycle   2  Pass 1  IDiag  1:
 E= -582.497432498797     Delta-E=       -0.000013823998 Rises=F Damp=F
 DIIS: error= 5.47D-05 at cycle   2 NSaved=   2.
 NSaved= 2 IEnMin= 2 EnMin= -582.497432498797     IErMin= 2 ErrMin= 5.47D-05
 ErrMax= 5.47D-05  0.00D+00 EMaxC= 1.00D-01 BMatC= 6.69D-07 BMatP= 3.35D-05
 IDIUse=1 WtCom= 1.00D+00 WtEn= 0.00D+00
 Coeff-Com: -0.786D-01 0.108D+01
 Coeff:     -0.786D-01 0.108D+01
 Gap=     0.290 Goal=   None    Shift=    0.000
 Gap=     0.290 Goal=   None    Shift=    0.000
 RMSDP=1.18D-05 MaxDP=2.32D-04 DE=-1.38D-05 OVMax= 4.73D-04

 Cycle   3  Pass 1  IDiag  1:
 E= -582.497432956620     Delta-E=       -0.000000457823 Rises=F Damp=F
 DIIS: error= 2.02D-05 at cycle   3 NSaved=   3.
 NSaved= 3 IEnMin= 3 EnMin= -582.497432956620     IErMin= 3 ErrMin= 2.02D-05
 ErrMax= 2.02D-05  0.00D+00 EMaxC= 1.00D-01 BMatC= 8.46D-08 BMatP= 6.69D-07
 IDIUse=1 WtCom= 1.00D+00 WtEn= 0.00D+00
 Coeff-Com: -0.304D-01 0.245D+00 0.785D+00
 Coeff:     -0.304D-01 0.245D+00 0.785D+00
 Gap=     0.290 Goal=   None    Shift=    0.000
 Gap=     0.290 Goal=   None    Shift=    0.000
 RMSDP=3.22D-06 MaxDP=5.34D-05 DE=-4.58D-07 OVMax= 1.24D-04

 Cycle   4  Pass 1  IDiag  1:
 E= -582.497432986304     Delta-E=       -0.000000029684 Rises=F Damp=F
 DIIS: error= 2.77D-06 at cycle   4 NSaved=   4.
 NSaved= 4 IEnMin= 4 EnMin= -582.497432986304     IErMin= 4 ErrMin= 2.77D-06
 ErrMax= 2.77D-06  0.00D+00 EMaxC= 1.00D-01 BMatC= 5.25D-09 BMatP= 8.46D-08
 IDIUse=1 WtCom= 1.00D+00 WtEn= 0.00D+00
 Coeff-Com:  0.385D-02-0.748D-01 0.881D-01 0.983D+00
 Coeff:      0.385D-02-0.748D-01 0.881D-01 0.983D+00
 Gap=     0.290 Goal=   None    Shift=    0.000
 Gap=     0.290 Goal=   None    Shift=    0.000
 RMSDP=1.24D-06 MaxDP=2.71D-05 DE=-2.97D-08 OVMax= 4.28D-05

 Cycle   5  Pass 1  IDiag  1:
 E= -582.497432988821     Delta-E=       -0.000000002517 Rises=F Damp=F
 DIIS: error= 4.26D-07 at cycle   5 NSaved=   5.
 NSaved= 5 IEnMin= 5 EnMin= -582.497432988821     IErMin= 5 ErrMin= 4.26D-07
 ErrMax= 4.26D-07  0.00D+00 EMaxC= 1.00D-01 BMatC= 6.78D-11 BMatP= 5.25D-09
 IDIUse=1 WtCom= 1.00D+00 WtEn= 0.00D+00
 Coeff-Com:  0.590D-03-0.607D-02-0.439D-02-0.201D-01 0.103D+01
 Coeff:      0.590D-03-0.607D-02-0.439D-02-0.201D-01 0.103D+01
 Gap=     0.290 Goal=   None    Shift=    0.000
 Gap=     0.290 Goal=   None    Shift=    0.000
 RMSDP=1.83D-07 MaxDP=4.26D-06 DE=-2.52D-09 OVMax= 6.64D-06

 Cycle   6  Pass 1  IDiag  1:
 E= -582.497432988875     Delta-E=       -0.000000000054 Rises=F Damp=F
 DIIS: error= 1.45D-07 at cycle   6 NSaved=   6.
 NSaved= 6 IEnMin= 6 EnMin= -582.497432988875     IErMin= 6 ErrMin= 1.45D-07
 ErrMax= 1.45D-07  0.00D+00 EMaxC= 1.00D-01 BMatC= 4.18D-12 BMatP= 6.78D-11
 IDIUse=1 WtCom= 1.00D+00 WtEn= 0.00D+00
 Coeff-Com: -0.192D-03 0.356D-02-0.624D-02-0.409D-01 0.854D-01 0.958D+00
 Coeff:     -0.192D-03 0.356D-02-0.624D-02-0.409D-01 0.854D-01 0.958D+00
 Gap=     0.290 Goal=   None    Shift=    0.000
 Gap=     0.290 Goal=   None    Shift=    0.000
 RMSDP=3.61D-08 MaxDP=7.51D-07 DE=-5.39D-11 OVMax= 1.44D-06

 Cycle   7  Pass 1  IDiag  1:
 E= -582.497432988879     Delta-E=       -0.000000000004 Rises=F Damp=F
 DIIS: error= 1.30D-08 at cycle   7 NSaved=   7.
 NSaved= 7 IEnMin= 7 EnMin= -582.497432988879     IErMin= 7 ErrMin= 1.30D-08
 ErrMax= 1.30D-08  0.00D+00 EMaxC= 1.00D-01 BMatC= 4.96D-14 BMatP= 4.18D-12
 IDIUse=1 WtCom= 1.00D+00 WtEn= 0.00D+00
 Coeff-Com: -0.298D-05-0.486D-04 0.262D-03 0.236D-02-0.295D-01-0.958D-01
 Coeff-Com:  0.112D+01
 Coeff:     -0.298D-05-0.486D-04 0.262D-03 0.236D-02-0.295D-01-0.958D-01
 Coeff:      0.112D+01
 Gap=     0.290 Goal=   None    Shift=    0.000
 Gap=     0.290 Goal=   None    Shift=    0.000
 RMSDP=5.17D-09 MaxDP=9.94D-08 DE=-3.64D-12 OVMax= 2.47D-07

 SCF Done:  E(UM062X) =  -582.497432989     A.U. after    7 cycles
            NFock=  7  Conv=0.52D-08     -V/T= 2.0020
 <Sx>= 0.0000 <Sy>= 0.0000 <Sz>= 0.0000 <S**2>=-0.0000 S=-0.0000
 <L.S>=  0.00000000000    
 KE= 5.813390554871D+02 PE=-1.549331585049D+03 EE= 3.041187584599D+02
 Annihilation of the first spin contaminant:
 S**2 before annihilation    -0.0000,   after     0.0000
 Leave Link  502 at Mon Apr 21 20:19:07 2025, MaxMem=   536870912 cpu:              70.9 elap:               9.4
 (Enter /home/szhao/Apps/g16/l701.exe)
 ... and contract with generalized density number  0.
 Compute integral first derivatives.
 Leave Link  701 at Mon Apr 21 20:19:07 2025, MaxMem=   536870912 cpu:               1.4 elap:               0.2
 (Enter /home/szhao/Apps/g16/l702.exe)
 L702 exits ... SP integral derivatives will be done elsewhere.
 Leave Link  702 at Mon Apr 21 20:19:07 2025, MaxMem=   536870912 cpu:               0.5 elap:               0.1
 (Enter /home/szhao/Apps/g16/l703.exe)
 Integral derivatives from FoFJK, PRISM(SPDF).
 Compute integral first derivatives, UseDBF=F ICtDFT=           0.
 Calling FoFJK, ICntrl=      2127 FMM=F ISym2X=0 I1Cent= 0 IOpClX= 1 NMat=1 NMatS=1 NMatT=0.
 FoFJK:  IHMeth= 1 ICntrl=    2127 DoSepK=F KAlg= 0 I1Cent=           0 FoldK=F
 IRaf=         0 NMat=       1 IRICut=       1 DoRegI=T DoRafI=F ISym2E= 0 IDoP0=0 IntGTp=1.
 FoFCou: FMM=F IPFlag=           0 FMFlag=      100000 FMFlg1=         800
         NFxFlg=           0 DoJE=F BraDBF=F KetDBF=F FulRan=T
         wScrn=  0.000000 ICntrl=      2127 IOpCl=  1 I1Cent=           0 NGrid=           0
         NMat0=    1 NMatS0=      1 NMatT0=    0 NMatD0=    1 NMtDS0=    0 NMtDT0=    0
 Symmetry not used in FoFCou.
 Leave Link  703 at Mon Apr 21 20:19:09 2025, MaxMem=   536870912 cpu:              14.1 elap:               1.8
 (Enter /home/szhao/Apps/g16/l716.exe)
 Dipole        = 3.22288945D-07 2.38818487D-07-1.31517530D-05
 -------------------------------------------------------------------
 Center     Atomic                   Forces (Hartrees/Bohr)
 Number     Number              X              Y              Z
 -------------------------------------------------------------------
      1       14          -0.000000000   -0.000000000   -0.000000000
      2       14          -0.000000000   -0.000000000   -0.000000000
      3        1          -0.000006584    0.000027005    0.000000041
      4        1           0.000005343    0.000013932   -0.000025244
      5        1          -0.000006259   -0.000013707    0.000024888
      6        1          -0.000005419   -0.000013854   -0.000025203
      7        1           0.000006613   -0.000026997    0.000000136
      8        1           0.000006322    0.000013621    0.000024847
 -------------------------------------------------------------------
 Cartesian Forces:  Max     0.000027005 RMS     0.000014363
 Leave Link  716 at Mon Apr 21 20:19:09 2025, MaxMem=   536870912 cpu:               0.4 elap:               0.1
 (Enter /home/szhao/Apps/g16/l103.exe)

 GradGradGradGradGradGradGradGradGradGradGradGradGradGradGradGradGradGrad
 Berny optimization.
 Using GEDIIS/GDIIS optimizer.
 FormGI is forming the generalized inverse of G from B-inverse, IUseBI=4.
 Internal  Forces:  Max     0.000029014 RMS     0.000013292
 Search for a local minimum.
 Step number   3 out of a maximum of   43
 All quantities printed in internal units (Hartrees-Bohrs-Radians)
 RMS Force = .13822D-04 SwitMx=.10000D-02 MixMth= 2
 Mixed Optimization -- En-DIIS/RFO-DIIS
 Swapping is turned off.
 Update second derivatives using D2CorX and points    1    2    3
 DE= -4.35D-05 DEPred=-4.43D-05 R= 9.81D-01
 TightC=F SS=  1.41D+00  RLast= 2.80D-02 DXNew= 5.0454D-01 8.4101D-02
 Trust test= 9.81D-01 RLast= 2.80D-02 DXMaxT set to 3.00D-01
 ITU=  1  1  0
     Eigenvalues ---    0.00230   0.05843   0.05843   0.05843   0.05843
     Eigenvalues ---    0.11114   0.16000   0.16000   0.16000   0.16000
     Eigenvalues ---    0.16000   0.17703   0.17703   0.17703   0.17703
     Eigenvalues ---    0.17703   0.178101000.000001000.000001000.00000
     Eigenvalues --- 1000.000001000.000001000.000001000.000001000.00000
     Eigenvalues --- 1000.000001000.000001000.000001000.000001000.00000
     Eigenvalues --- 1000.000001000.000001000.00000
 En-DIIS/RFO-DIIS/Sim-DIIS IScMMF=       -3 using points:     3    2
 RFO step:  Lambda=-2.29967788D-08.
 NNeg= 0 NGDIIS= 2 SimSw=  2.50D-03 Rises=F DC= -4.35D-05 SmlDif=  1.00D-05
 NRisDI= 0 DoIntr=F SqrtH=F CThrHd= 10.0 CDAdj=  3.0
 RMS Error=  0.7118256612D-04 NUsed= 2 OKEnD=T EnDIS=F
 InvSVX:  RCond= 8.84D-04 Info=           0 Equed=N FErr=  8.91D-16 BErr=  1.29D-17
 DidBck=F Rises=F RFO-DIIS coefs:    0.99689    0.00311
 Iteration  1 RMS(Cart)=  0.00008053 RMS(Int)=  0.00000007
 Iteration  2 RMS(Cart)=  0.00000000 RMS(Int)=  0.00000007
 ITry= 1 IFail=0 DXMaxC= 1.80D-04 DCOld= 1.00D+10 DXMaxT= 3.00D-01 DXLimC= 3.00D+00 Rises=F
 Variable       Old X    -DE/DX   Delta X   Delta X   Delta X     New X
                                 (Linear)    (Quad)   (Total)
    X1       -2.68307   0.00002   0.00000   0.00000   0.00000  -2.68307
    Y1        0.00000   0.00000   0.00000   0.00000   0.00000   0.00000
    Z1        0.00000  -0.00000   0.00000   0.00000   0.00000   0.00000
    X2        2.68307  -0.00002   0.00000   0.00000   0.00000   2.68307
    Y2        0.00000  -0.00000   0.00000   0.00000   0.00000   0.00000
    Z2        0.00000  -0.00000   0.00000   0.00000   0.00000   0.00000
    R1        2.79370  -0.00003   0.00000  -0.00016  -0.00016   2.79354
    R2        2.79369  -0.00003   0.00000  -0.00016  -0.00015   2.79353
    R3        2.79370  -0.00003   0.00000  -0.00016  -0.00016   2.79354
    R4        2.79369  -0.00003   0.00000  -0.00016  -0.00015   2.79353
    R5        2.79370  -0.00003   0.00000  -0.00016  -0.00016   2.79354
    R6        2.79370  -0.00003   0.00000  -0.00016  -0.00016   2.79354
    A1        1.89858   0.00001   0.00003   0.00002   0.00005   1.89863
    A2        1.89854   0.00000   0.00003  -0.00000   0.00002   1.89856
    A3        1.89864   0.00000   0.00003   0.00001   0.00003   1.89867
    A4        1.92251  -0.00000  -0.00002  -0.00001  -0.00003   1.92248
    A5        1.92256  -0.00001  -0.00002  -0.00002  -0.00004   1.92252
    A6        1.92251  -0.00000  -0.00002  -0.00000  -0.00003   1.92248
    A7        1.89854   0.00000   0.00003  -0.00000   0.00002   1.89856
    A8        1.89864   0.00000   0.00003   0.00001   0.00003   1.89867
    A9        1.89858   0.00001   0.00003   0.00002   0.00005   1.89863
   A10        1.92251  -0.00000  -0.00002  -0.00001  -0.00003   1.92248
   A11        1.92251  -0.00000  -0.00002  -0.00001  -0.00003   1.92248
   A12        1.92256  -0.00001  -0.00002  -0.00002  -0.00004   1.92252
    D1        1.04736  -0.00000  -0.00000  -0.00001  -0.00001   1.04735
    D2       -3.14145  -0.00000   0.00000  -0.00001  -0.00001  -3.14146
    D3       -1.04699  -0.00000  -0.00000  -0.00001  -0.00001  -1.04700
    D4       -3.14148   0.00000  -0.00000  -0.00000  -0.00000  -3.14149
    D5       -1.04711   0.00000   0.00000  -0.00001  -0.00001  -1.04711
    D6        1.04736  -0.00000  -0.00000  -0.00001  -0.00001   1.04735
    D7       -1.04711   0.00000   0.00000  -0.00000  -0.00000  -1.04711
    D8        1.04727   0.00000   0.00000  -0.00001  -0.00001   1.04726
    D9       -3.14145  -0.00000   0.00000  -0.00001  -0.00001  -3.14146
         Item               Value     Threshold  Converged?
 Maximum Force            0.000029     0.000450     YES
 RMS     Force            0.000014     0.000300     YES
 Maximum Displacement     0.000180     0.001800     YES
 RMS     Displacement     0.000081     0.001200     YES
 Predicted change in Energy=-1.461923D-08
 Optimization completed.
    -- Stationary point found.
                           ----------------------------
                           !   Optimized Parameters   !
                           ! (Angstroms and Degrees)  !
 --------------------------                            --------------------------
 ! Name  Definition              Value          Derivative Info.                !
 --------------------------------------------------------------------------------
 ! X1    R(1,-1)                -1.4198         -DE/DX =    0.0                 !
 ! Y1    R(1,-2)                 0.0            -DE/DX =    0.0                 !
 ! Z1    R(1,-3)                 0.0            -DE/DX =    0.0                 !
 ! X2    R(2,-1)                 1.4198         -DE/DX =    0.0                 !
 ! Y2    R(2,-2)                 0.0            -DE/DX =    0.0                 !
 ! Z2    R(2,-3)                 0.0            -DE/DX =    0.0                 !
 ! R1    R(1,4)                  1.4784         -DE/DX =    0.0                 !
 ! R2    R(1,7)                  1.4784         -DE/DX =    0.0                 !
 ! R3    R(1,8)                  1.4784         -DE/DX =    0.0                 !
 ! R4    R(2,3)                  1.4784         -DE/DX =    0.0                 !
 ! R5    R(2,5)                  1.4784         -DE/DX =    0.0                 !
 ! R6    R(2,6)                  1.4784         -DE/DX =    0.0                 !
 ! A1    A(2,1,4)              108.7805         -DE/DX =    0.0                 !
 ! A2    A(2,1,7)              108.7783         -DE/DX =    0.0                 !
 ! A3    A(2,1,8)              108.7839         -DE/DX =    0.0                 !
 ! A4    A(4,1,7)              110.1517         -DE/DX =    0.0                 !
 ! A5    A(4,1,8)              110.1546         -DE/DX =    0.0                 !
 ! A6    A(7,1,8)              110.1515         -DE/DX =    0.0                 !
 ! A7    A(1,2,3)              108.7783         -DE/DX =    0.0                 !
 ! A8    A(1,2,5)              108.7839         -DE/DX =    0.0                 !
 ! A9    A(1,2,6)              108.7807         -DE/DX =    0.0                 !
 ! A10   A(3,2,5)              110.1516         -DE/DX =    0.0                 !
 ! A11   A(3,2,6)              110.1517         -DE/DX =    0.0                 !
 ! A12   A(5,2,6)              110.1546         -DE/DX =    0.0                 !
 ! D1    D(4,1,2,3)             60.0091         -DE/DX =    0.0                 !
 ! D2    D(4,1,2,5)           -179.992          -DE/DX =    0.0                 !
 ! D3    D(4,1,2,6)            -59.988          -DE/DX =    0.0                 !
 ! D4    D(7,1,2,3)           -179.9937         -DE/DX =    0.0                 !
 ! D5    D(7,1,2,5)            -59.9948         -DE/DX =    0.0                 !
 ! D6    D(7,1,2,6)             60.0092         -DE/DX =    0.0                 !
 ! D7    D(8,1,2,3)            -59.9948         -DE/DX =    0.0                 !
 ! D8    D(8,1,2,5)             60.0041         -DE/DX =    0.0                 !
 ! D9    D(8,1,2,6)           -179.992          -DE/DX =    0.0                 !
 --------------------------------------------------------------------------------
 Lowest energy point so far.  Saving SCF results.
 Largest change from initial coordinates is atom    7       0.037 Angstoms.
 GradGradGradGradGradGradGradGradGradGradGradGradGradGradGradGradGradGrad

 Leave Link  103 at Mon Apr 21 20:19:10 2025, MaxMem=   536870912 cpu:               0.8 elap:               0.2
 (Enter /home/szhao/Apps/g16/l202.exe)
                          Input orientation:                          
 ---------------------------------------------------------------------
 Center     Atomic      Atomic             Coordinates (Angstroms)
 Number     Number       Type             X           Y           Z
 ---------------------------------------------------------------------
      1         14           0       -1.419819    0.000000    0.000000
      2         14           0        1.419819    0.000000    0.000000
      3          1           0        1.895711   -1.399665   -0.000046
      4          1           0       -1.895769   -0.699675    1.212224
      5          1           0        1.895850    0.699830   -1.212102
      6          1           0        1.895773    0.699726    1.212193
      7          1           0       -1.895713    1.399664   -0.000107
      8          1           0       -1.895852   -0.699882   -1.212071
 ---------------------------------------------------------------------
                    Distance matrix (angstroms):
                    1          2          3          4          5
     1  Si   0.000000
     2  Si   2.839638   0.000000
     3  H    3.598861   1.478356   0.000000
     4  H    1.478364   3.598911   4.041647   0.000000
     5  H    3.598974   1.478363   2.424243   4.712998   0.000000
     6  H    3.598913   1.478364   2.424245   4.041549   2.424295
     7  H    1.478356   3.598863   4.712870   2.424246   4.041615
     8  H    1.478363   3.598976   4.041615   2.424295   4.041807
                    6          7          8
     6  H    0.000000
     7  H    4.041652   0.000000
     8  H    4.713001   2.424242   0.000000
 Symmetry turned off by external request.
 Stoichiometry    H6Si2
 Framework group  C1[X(H6Si2)]
 Deg. of freedom    18
 Full point group                 C1      NOp   1
 Rotational constants (GHZ):          42.6622064           3.5982316           3.5982231
 Leave Link  202 at Mon Apr 21 20:19:10 2025, MaxMem=   536870912 cpu:               0.2 elap:               0.1
 (Enter /home/szhao/Apps/g16/l601.exe)
 Copying SCF densities to generalized density rwf, IOpCl= 1 IROHF=0.

 **********************************************************************

            Population analysis using the SCF density.

 **********************************************************************

 Alpha  occ. eigenvalues --  -67.00294 -67.00294  -5.55193  -5.55192  -3.86362
 Alpha  occ. eigenvalues --   -3.86354  -3.86277  -3.86277  -3.86277  -3.86276
 Alpha  occ. eigenvalues --   -0.62004  -0.58928  -0.41609  -0.41609  -0.40443
 Alpha  occ. eigenvalues --   -0.40442  -0.30077
 Alpha virt. eigenvalues --   -0.01079   0.02014   0.03042   0.03042   0.04554
 Alpha virt. eigenvalues --    0.05080   0.05619   0.05619   0.06233   0.06233
 Alpha virt. eigenvalues --    0.08600   0.09120   0.09121   0.15447   0.17675
 Alpha virt. eigenvalues --    0.28436   0.28610   0.28610   0.29316   0.30420
 Alpha virt. eigenvalues --    0.30420   0.39608   0.39609   0.39618   0.41901
 Alpha virt. eigenvalues --    0.41902   0.49641   0.55094   0.56325   0.57522
 Alpha virt. eigenvalues --    0.57522   0.64138   0.64139   0.67709   0.86190
 Alpha virt. eigenvalues --    0.91108   0.91109   0.91610   0.91611   1.19960
 Alpha virt. eigenvalues --    1.19961   1.24482   1.24483   1.24958   1.32523
 Alpha virt. eigenvalues --    1.32525   1.34787   1.41946   1.41946   1.46986
 Alpha virt. eigenvalues --    1.46986   1.57056   1.63442   1.63443   1.64305
 Alpha virt. eigenvalues --    1.64307   1.66995   1.87210   1.88388   2.11080
 Alpha virt. eigenvalues --    2.11080   2.11200   2.11200   2.58502   2.58503
 Alpha virt. eigenvalues --    2.63815   2.63816   2.68987   2.75943   5.65062
 Alpha virt. eigenvalues --    5.66925  11.52573  11.53970  11.59367  11.59367
 Alpha virt. eigenvalues --   11.60823  11.60823 141.24079 141.27296
  Beta  occ. eigenvalues --  -67.00294 -67.00294  -5.55193  -5.55192  -3.86362
  Beta  occ. eigenvalues --   -3.86354  -3.86277  -3.86277  -3.86277  -3.86276
  Beta  occ. eigenvalues --   -0.62004  -0.58928  -0.41609  -0.41609  -0.40443
  Beta  occ. eigenvalues --   -0.40442  -0.30077
  Beta virt. eigenvalues --   -0.01079   0.02014   0.03042   0.03042   0.04554
  Beta virt. eigenvalues --    0.05080   0.05619   0.05619   0.06233   0.06233
  Beta virt. eigenvalues --    0.08600   0.09120   0.09121   0.15447   0.17675
  Beta virt. eigenvalues --    0.28436   0.28610   0.28610   0.29316   0.30420
  Beta virt. eigenvalues --    0.30420   0.39608   0.39609   0.39618   0.41901
  Beta virt. eigenvalues --    0.41902   0.49641   0.55094   0.56325   0.57522
  Beta virt. eigenvalues --    0.57522   0.64138   0.64139   0.67709   0.86190
  Beta virt. eigenvalues --    0.91108   0.91109   0.91610   0.91611   1.19960
  Beta virt. eigenvalues --    1.19961   1.24482   1.24483   1.24958   1.32523
  Beta virt. eigenvalues --    1.32525   1.34787   1.41946   1.41946   1.46986
  Beta virt. eigenvalues --    1.46986   1.57056   1.63442   1.63443   1.64305
  Beta virt. eigenvalues --    1.64307   1.66995   1.87210   1.88388   2.11080
  Beta virt. eigenvalues --    2.11080   2.11200   2.11200   2.58502   2.58503
  Beta virt. eigenvalues --    2.63815   2.63816   2.68987   2.75943   5.65062
  Beta virt. eigenvalues --    5.66925  11.52573  11.53970  11.59367  11.59367
  Beta virt. eigenvalues --   11.60823  11.60823 141.24079 141.27296
          Condensed to atoms (all electrons):
               1          2          3          4          5          6
     1  Si  12.324553   0.366102  -0.019462   0.356778  -0.019457  -0.019459
     2  Si   0.366102  12.324552   0.356776  -0.019459   0.356778   0.356778
     3  H   -0.019462   0.356776   0.803949   0.000414  -0.021726  -0.021726
     4  H    0.356778  -0.019459   0.000414   0.803939   0.000494   0.000414
     5  H   -0.019457   0.356778  -0.021726   0.000494   0.803937  -0.021724
     6  H   -0.019459   0.356778  -0.021726   0.000414  -0.021724   0.803939
     7  H    0.356776  -0.019462   0.000494  -0.021726   0.000414   0.000414
     8  H    0.356778  -0.019457   0.000414  -0.021724   0.000414   0.000494
               7          8
     1  Si   0.356776   0.356778
     2  Si  -0.019462  -0.019457
     3  H    0.000494   0.000414
     4  H   -0.021726  -0.021724
     5  H    0.000414   0.000414
     6  H    0.000414   0.000494
     7  H    0.803949  -0.021726
     8  H   -0.021726   0.803936
          Atomic-Atomic Spin Densities.
               1          2          3          4          5          6
     1  Si  -0.000000  -0.000000   0.000000   0.000000  -0.000000   0.000000
     2  Si  -0.000000   0.000000  -0.000000   0.000000  -0.000000  -0.000000
     3  H    0.000000  -0.000000  -0.000000   0.000000   0.000000   0.000000
     4  H    0.000000   0.000000   0.000000   0.000000  -0.000000  -0.000000
     5  H   -0.000000  -0.000000   0.000000  -0.000000  -0.000000  -0.000000
     6  H    0.000000  -0.000000   0.000000  -0.000000  -0.000000   0.000000
     7  H    0.000000  -0.000000  -0.000000  -0.000000   0.000000  -0.000000
     8  H    0.000000  -0.000000  -0.000000  -0.000000   0.000000   0.000000
               7          8
     1  Si   0.000000   0.000000
     2  Si  -0.000000  -0.000000
     3  H   -0.000000  -0.000000
     4  H   -0.000000  -0.000000
     5  H    0.000000   0.000000
     6  H   -0.000000   0.000000
     7  H   -0.000000  -0.000000
     8  H   -0.000000  -0.000000
 Mulliken charges and spin densities:
               1          2
     1  Si   0.297392  -0.000000
     2  Si   0.297392   0.000000
     3  H   -0.099133  -0.000000
     4  H   -0.099130   0.000000
     5  H   -0.099129  -0.000000
     6  H   -0.099130  -0.000000
     7  H   -0.099133   0.000000
     8  H   -0.099129  -0.000000
 Sum of Mulliken charges =  -0.00000  -0.00000
 Mulliken charges and spin densities with hydrogens summed into heavy atoms:
               1          2
     1  Si  -0.000000  -0.000000
     2  Si   0.000000   0.000000
 Electronic spatial extent (au):  <R**2>=            390.8949
 Charge=             -0.0000 electrons
 Dipole moment (field-independent basis, Debye):
    X=              0.0000    Y=              0.0000    Z=             -0.0000  Tot=              0.0000
 Quadrupole moment (field-independent basis, Debye-Ang):
   XX=            -31.4609   YY=            -31.5787   ZZ=            -31.5785
   XY=              0.0004   XZ=              0.0000   YZ=              0.0000
 Traceless Quadrupole moment (field-independent basis, Debye-Ang):
   XX=              0.0785   YY=             -0.0393   ZZ=             -0.0392
   XY=              0.0004   XZ=              0.0000   YZ=              0.0000
 Octapole moment (field-independent basis, Debye-Ang**2):
  XXX=              0.0000  YYY=              0.0000  ZZZ=             -0.0007  XYY=              0.0000
  XXY=              0.0000  XXZ=             -0.0002  XZZ=              0.0000  YZZ=              0.0000
  YYZ=              0.0002  XYZ=              0.0000
 Hexadecapole moment (field-independent basis, Debye-Ang**3):
 XXXX=           -476.5853 YYYY=            -84.4423 ZZZZ=            -84.4434 XXXY=              0.0016
 XXXZ=             -0.0000 YYYX=              2.2053 YYYZ=              0.0000 ZZZX=              0.0001
 ZZZY=              0.0000 XXYY=            -97.9607 XXZZ=            -97.9604 YYZZ=            -28.1476
 XXYZ=              0.0000 YYXZ=             -0.0001 ZZXY=             -2.2034
 N-N= 8.137633811338D+01 E-N=-1.549331584698D+03  KE= 5.813390554871D+02
                          Isotropic Fermi Contact Couplings
        Atom                 a.u.       MegaHertz       Gauss      10(-4) cm-1
     1  Si(29)            -0.00000       0.00000       0.00000       0.00000
     2  Si(29)            -0.00000       0.00000       0.00000       0.00000
     3  H(1)               0.00000       0.00000       0.00000       0.00000
     4  H(1)              -0.00000      -0.00000      -0.00000      -0.00000
     5  H(1)               0.00000       0.00000       0.00000       0.00000
     6  H(1)               0.00000       0.00000       0.00000       0.00000
     7  H(1)              -0.00000      -0.00000      -0.00000      -0.00000
     8  H(1)              -0.00000      -0.00000      -0.00000      -0.00000
 --------------------------------------------------------
       Center         ----  Spin Dipole Couplings  ----
                      3XX-RR        3YY-RR        3ZZ-RR
 --------------------------------------------------------
     1   Atom        0.000000      0.000000      0.000000
     2   Atom        0.000000      0.000000      0.000000
     3   Atom        0.000000      0.000000      0.000000
     4   Atom        0.000000      0.000000      0.000000
     5   Atom        0.000000      0.000000      0.000000
     6   Atom        0.000000      0.000000      0.000000
     7   Atom        0.000000      0.000000      0.000000
     8   Atom        0.000000      0.000000      0.000000
 --------------------------------------------------------
                        XY            XZ            YZ
 --------------------------------------------------------
     1   Atom        0.000000      0.000000      0.000000
     2   Atom        0.000000      0.000000      0.000000
     3   Atom        0.000000      0.000000      0.000000
     4   Atom        0.000000      0.000000      0.000000
     5   Atom        0.000000      0.000000      0.000000
     6   Atom        0.000000      0.000000      0.000000
     7   Atom        0.000000      0.000000      0.000000
     8   Atom        0.000000      0.000000      0.000000
 --------------------------------------------------------


 ---------------------------------------------------------------------------------
              Anisotropic Spin Dipole Couplings in Principal Axis System
 ---------------------------------------------------------------------------------

       Atom             a.u.   MegaHertz   Gauss  10(-4) cm-1        Axes

              Baa     0.0000    -0.000    -0.000    -0.000  1.0000  0.0000  0.0000
     1 Si(29) Bbb     0.0000    -0.000    -0.000    -0.000 -0.0000  1.0000  0.0000
              Bcc     0.0000    -0.000    -0.000    -0.000  0.0000  0.0000  1.0000
 
              Baa     0.0000    -0.000    -0.000    -0.000  1.0000  0.0000  0.0000
     2 Si(29) Bbb     0.0000    -0.000    -0.000    -0.000 -0.0000  1.0000  0.0000
              Bcc     0.0000    -0.000    -0.000    -0.000  0.0000  0.0000  1.0000
 
              Baa     0.0000     0.000     0.000     0.000  1.0000  0.0000  0.0000
     3 H(1)   Bbb     0.0000     0.000     0.000     0.000 -0.0000  1.0000  0.0000
              Bcc     0.0000     0.000     0.000     0.000  0.0000  0.0000  1.0000
 
              Baa     0.0000     0.000     0.000     0.000  1.0000  0.0000  0.0000
     4 H(1)   Bbb     0.0000     0.000     0.000     0.000 -0.0000  1.0000  0.0000
              Bcc     0.0000     0.000     0.000     0.000  0.0000  0.0000  1.0000
 
              Baa     0.0000     0.000     0.000     0.000  1.0000  0.0000  0.0000
     5 H(1)   Bbb     0.0000     0.000     0.000     0.000 -0.0000  1.0000  0.0000
              Bcc     0.0000     0.000     0.000     0.000  0.0000  0.0000  1.0000
 
              Baa     0.0000     0.000     0.000     0.000  1.0000  0.0000  0.0000
     6 H(1)   Bbb     0.0000     0.000     0.000     0.000 -0.0000  1.0000  0.0000
              Bcc     0.0000     0.000     0.000     0.000  0.0000  0.0000  1.0000
 
              Baa     0.0000     0.000     0.000     0.000  1.0000  0.0000  0.0000
     7 H(1)   Bbb     0.0000     0.000     0.000     0.000 -0.0000  1.0000  0.0000
              Bcc     0.0000     0.000     0.000     0.000  0.0000  0.0000  1.0000
 
              Baa     0.0000     0.000     0.000     0.000  1.0000  0.0000  0.0000
     8 H(1)   Bbb     0.0000     0.000     0.000     0.000 -0.0000  1.0000  0.0000
              Bcc     0.0000     0.000     0.000     0.000  0.0000  0.0000  1.0000
 

 ---------------------------------------------------------------------------------

 No NMR shielding tensors so no spin-rotation constants.
 Leave Link  601 at Mon Apr 21 20:19:11 2025, MaxMem=   536870912 cpu:               3.8 elap:               0.7
 (Enter /home/szhao/Apps/g16/l9999.exe)
 1\1\GINC-NODE05\FOpt\UM062X\6-311+G(d,p)\H6Si2\SZHAO\21-Apr-2025\0\\#p
  opt UM062X/6-311+G** nosymm int=superfine\\Title Card Required\\0,1\S
 i,-1.41981901,0.,0.\Si,1.41981901,0.,0.\H,1.8957112054,-1.3996648917,-
 0.0000464256\H,-1.8957693768,-0.6996746864,1.2122239034\H,1.8958504266
 ,0.6998295235,-1.2121017853\H,1.895772941,0.6997256122,1.2121929475\H,
 -1.8957132789,1.399664186,-0.0001073751\H,-1.8958523627,-0.6998815357,
 -1.2120708328\\Version=ES64L-G16RevA.03\HF=-582.497433\S2=0.\S2-1=0.\S
 2A=0.\RMSD=5.168e-09\RMSF=1.436e-05\Dipole=0.0000003,0.0000002,-0.0000
 132\Quadrupole=0.0583359,-0.0292229,-0.029113,0.0003075,0.0000008,0.\P
 G=C01 [X(H6Si2)]\\@


 SEE YOU NOW,
 YOUR BAIT OF FALSEHOOD TAKES THIS CARP OF TRUTH.
 AND THUS DO WE OF WISDOM AND OF REACH...
 BY INDIRECTIONS FIND DIRECTIONS OUT.    -- HAMLET, II, 1
 Job cpu time:       0 days  0 hours  5 minutes 19.8 seconds.
 Elapsed time:       0 days  0 hours  0 minutes 45.1 seconds.
 File lengths (MBytes):  RWF=     22 Int=      0 D2E=      0 Chk=      3 Scr=      2
 Normal termination of Gaussian 16 at Mon Apr 21 20:19:12 2025.
