 Entering Gaussian System, Link 0=g16
 Initial command:
 /home/szhao/Apps/g16/l1.exe "/home/szhao/tmp/Gau-110140.inp" -scrdir="/home/szhao/tmp/"
 Default is to use a total of  16 processors:
                               16 via shared-memory
                                1 via Linda
 Entering Link 1 = /home/szhao/Apps/g16/l1.exe PID=    110141.
  
 Copyright (c) 1988,1990,1992,1993,1995,1998,2003,2009,2016,
            Gaussian, Inc.  All Rights Reserved.
  
 This is part of the Gaussian(R) 16 program.  It is based on
 the Gaussian(R) 09 system (copyright 2009, Gaussian, Inc.),
 the Gaussian(R) 03 system (copyright 2003, Gaussian, Inc.),
 the Gaussian(R) 98 system (copyright 1998, Gaussian, Inc.),
 the Gaussian(R) 94 system (copyright 1995, Gaussian, Inc.),
 the Gaussian 92(TM) system (copyright 1992, Gaussian, Inc.),
 the Gaussian 90(TM) system (copyright 1990, Gaussian, Inc.),
 the Gaussian 88(TM) system (copyright 1988, Gaussian, Inc.),
 the Gaussian 86(TM) system (copyright 1986, Carnegie Mellon
 University), and the Gaussian 82(TM) system (copyright 1983,
 Carnegie Mellon University). Gaussian is a federally registered
 trademark of Gaussian, Inc.
  
 This software contains proprietary and confidential information,
 including trade secrets, belonging to Gaussian, Inc.
  
 This software is provided under written license and may be
 used, copied, transmitted, or stored only in accord with that
 written license.
  
 The following legend is applicable only to US Government
 contracts under FAR:
  
                    RESTRICTED RIGHTS LEGEND
  
 Use, reproduction and disclosure by the US Government is
 subject to restrictions as set forth in subparagraphs (a)
 and (c) of the Commercial Computer Software - Restricted
 Rights clause in FAR 52.227-19.
  
 Gaussian, Inc.
 340 Quinnipiac St., Bldg. 40, Wallingford CT 06492
  
  
 ---------------------------------------------------------------
 Warning -- This program may not be used in any manner that
 competes with the business of Gaussian, Inc. or will provide
 assistance to any competitor of Gaussian, Inc.  The licensee
 of this program is prohibited from giving any competitor of
 Gaussian, Inc. access to this program.  By using this program,
 the user acknowledges that Gaussian, Inc. is engaged in the
 business of creating and licensing software in the field of
 computational chemistry and represents and warrants to the
 licensee that it is not a competitor of Gaussian, Inc. and that
 it will not use this program in any manner prohibited above.
 ---------------------------------------------------------------
  

 Cite this work as:
 Gaussian 16, Revision A.03,
 M. J. Frisch, G. W. Trucks, H. B. Schlegel, G. E. Scuseria, 
 M. A. Robb, J. R. Cheeseman, G. Scalmani, V. Barone, 
 G. A. Petersson, H. Nakatsuji, X. Li, M. Caricato, A. V. Marenich, 
 J. Bloino, B. G. Janesko, R. Gomperts, B. Mennucci, H. P. Hratchian, 
 J. V. Ortiz, A. F. Izmaylov, J. L. Sonnenberg, D. Williams-Young, 
 F. Ding, F. Lipparini, F. Egidi, J. Goings, B. Peng, A. Petrone, 
 T. Henderson, D. Ranasinghe, V. G. Zakrzewski, J. Gao, N. Rega, 
 G. Zheng, W. Liang, M. Hada, M. Ehara, K. Toyota, R. Fukuda, 
 J. Hasegawa, M. Ishida, T. Nakajima, Y. Honda, O. Kitao, H. Nakai, 
 T. Vreven, K. Throssell, J. A. Montgomery, Jr., J. E. Peralta, 
 F. Ogliaro, M. J. Bearpark, J. J. Heyd, E. N. Brothers, K. N. Kudin, 
 V. N. Staroverov, T. A. Keith, R. Kobayashi, J. Normand, 
 K. Raghavachari, A. P. Rendell, J. C. Burant, S. S. Iyengar, 
 J. Tomasi, M. Cossi, J. M. Millam, M. Klene, C. Adamo, R. Cammi, 
 J. W. Ochterski, R. L. Martin, K. Morokuma, O. Farkas, 
 J. B. Foresman, and D. J. Fox, Gaussian, Inc., Wallingford CT, 2016.
 
 ******************************************
 Gaussian 16:  ES64L-G16RevA.03 25-Dec-2016
                21-Apr-2025 
 ******************************************
 %chk=opt.chk
 %mem=32GB
 %nprocshared=16
 Will use up to   16 processors via shared memory.
 --------------------------------------------
 #p opt UM062X/6-311+G** nosymm int=superfine
 --------------------------------------------
 1/18=20,19=15,26=5,38=1/1,3;
 2/9=110,12=2,15=1,17=6,18=5,40=1/2;
 3/5=4,6=6,7=111,11=2,25=1,30=1,71=1,74=-55,75=-7,116=2/1,2,3;
 4//1;
 5/5=2,38=5/2;
 6/7=2,8=2,9=2,10=2,28=1/1;
 7/30=1/1,2,3,16;
 1/18=20,19=15,26=5/3(2);
 2/9=110,15=1/2;
 99//99;
 2/9=110,15=1/2;
 3/5=4,6=6,7=111,11=2,25=1,30=1,71=1,74=-55,75=-7,116=2/1,2,3;
 4/5=5,16=3,69=1/1;
 5/5=2,38=5/2;
 7/30=1/1,2,3,16;
 1/18=20,19=15,26=5/3(-5);
 2/9=110,15=1/2;
 6/7=2,8=2,9=2,10=2,19=2,28=1/1;
 99/9=1/99;
 Leave Link    1 at Mon Apr 21 18:12:35 2025, MaxMem=  4294967296 cpu:               2.6 elap:               0.2
 (Enter /home/szhao/Apps/g16/l101.exe)
 -------------------
 Title Card Required
 -------------------
 Symbolic Z-matrix:
 Charge =  0 Multiplicity = 1
 C                    -1   -0.68164   0.        0. 
 N                    -1    0.68164   0.        0. 
 H                    0    -1.3033   -0.90066   0. 
 H                    0     1.04287  -0.95582  -0.00013 
 H                    0    -1.20817   0.95472  -0.00011 
 
 ITRead=  2  2  0  0  0
 MicOpt= -2 -2 -1 -1 -1
 NAtoms=      5 NQM=        3 NQMF=       2 NMMI=      0 NMMIF=      0
                NMic=       0 NMicF=      0.
                    Isotopes and Nuclear Properties:
 (Nuclear quadrupole moments (NQMom) in fm**2, nuclear magnetic moments (NMagM)
  in nuclear magnetons)

  Atom         1           2           3           4           5
 IAtWgt=          12          14           1           1           1
 AtmWgt=  12.0000000  14.0030740   1.0078250   1.0078250   1.0078250
 NucSpn=           0           2           1           1           1
 AtZEff=  -0.0000000  -0.0000000  -0.0000000  -0.0000000  -0.0000000
 NQMom=    0.0000000   2.0440000   0.0000000   0.0000000   0.0000000
 NMagM=    0.0000000   0.4037610   2.7928460   2.7928460   2.7928460
 AtZNuc=   6.0000000   7.0000000   1.0000000   1.0000000   1.0000000
 Leave Link  101 at Mon Apr 21 18:12:37 2025, MaxMem=  4294967296 cpu:              15.4 elap:               1.0
 (Enter /home/szhao/Apps/g16/l103.exe)

 GradGradGradGradGradGradGradGradGradGradGradGradGradGradGradGradGradGrad
 Berny optimization.
 Initialization pass.
                           ----------------------------
                           !    Initial Parameters    !
                           ! (Angstroms and Degrees)  !
 --------------------------                            --------------------------
 ! Name  Definition              Value          Derivative Info.                !
 --------------------------------------------------------------------------------
 ! X1    R(1,-1)                -0.6816         Frozen                          !
 ! Y1    R(1,-2)                 0.0            Frozen                          !
 ! Z1    R(1,-3)                 0.0            Frozen                          !
 ! X2    R(2,-1)                 0.6816         Frozen                          !
 ! Y2    R(2,-2)                 0.0            Frozen                          !
 ! Z2    R(2,-3)                 0.0            Frozen                          !
 ! R1    R(1,3)                  1.0944         estimate D2E/DX2                !
 ! R2    R(1,5)                  1.0903         estimate D2E/DX2                !
 ! R3    R(2,4)                  1.0218         estimate D2E/DX2                !
 ! A1    A(2,1,3)              124.6144         estimate D2E/DX2                !
 ! A2    A(2,1,5)              118.877          estimate D2E/DX2                !
 ! A3    A(3,1,5)              116.5086         estimate D2E/DX2                !
 ! A4    A(1,2,4)              110.7031         estimate D2E/DX2                !
 ! D1    D(3,1,2,4)              0.0075         estimate D2E/DX2                !
 ! D2    D(5,1,2,4)           -179.9859         estimate D2E/DX2                !
 --------------------------------------------------------------------------------
 Trust Radius=3.00D-01 FncErr=1.00D-07 GrdErr=1.00D-07 EigMax=2.50D+02 EigMin=1.00D-04
 Number of steps in this run=     25 maximum allowed number of steps=    100.
 GradGradGradGradGradGradGradGradGradGradGradGradGradGradGradGradGradGrad

 Leave Link  103 at Mon Apr 21 18:12:37 2025, MaxMem=  4294967296 cpu:               0.5 elap:               0.1
 (Enter /home/szhao/Apps/g16/l202.exe)
                          Input orientation:                          
 ---------------------------------------------------------------------
 Center     Atomic      Atomic             Coordinates (Angstroms)
 Number     Number       Type             X           Y           Z
 ---------------------------------------------------------------------
      1          6           0       -0.681637    0.000000    0.000000
      2          7           0        0.681637    0.000000    0.000000
      3          1           0       -1.303297   -0.900661    0.000000
      4          1           0        1.042870   -0.955819   -0.000126
      5          1           0       -1.208169    0.954719   -0.000110
 ---------------------------------------------------------------------
                    Distance matrix (angstroms):
                    1          2          3          4          5
     1  C    0.000000
     2  N    1.363274   0.000000
     3  H    1.094373   2.179714   0.000000
     4  H    1.971678   1.021802   2.346815   0.000000
     5  H    1.090286   2.117276   1.857817   2.952513   0.000000
 Symmetry turned off by external request.
 Stoichiometry    CH3N
 Framework group  C1[X(CH3N)]
 Deg. of freedom     9
 Full point group                 C1      NOp   1
 Rotational constants (GHZ):         197.5858037          30.7575387          26.6145400
 Leave Link  202 at Mon Apr 21 18:12:37 2025, MaxMem=  4294967296 cpu:               0.9 elap:               0.1
 (Enter /home/szhao/Apps/g16/l301.exe)
 Standard basis: 6-311+G(d,p) (5D, 7F)
 Ernie: Thresh=  0.10000D-02 Tol=  0.10000D-05 Strict=F.
    62 basis functions,    96 primitive gaussians,    64 cartesian basis functions
     8 alpha electrons        8 beta electrons
       nuclear repulsion energy        31.4904312153 Hartrees.
 IExCor= 4336 DFT=T Ex+Corr=M062X ExCW=0 ScaHFX=  0.540000
 ScaDFX=  1.000000  1.000000  1.000000  1.000000 ScalE2=  1.000000  1.000000
 IRadAn=      7 IRanWt=     -1 IRanGd=            0 ICorTp=0 IEmpDi=  4
 NAtoms=    5 NActive=    5 NUniq=    5 SFac= 1.00D+00 NAtFMM=   60 NAOKFM=F Big=F
 Integral buffers will be    131072 words long.
 Raffenetti 2 integral format.
 Two-electron integral symmetry is turned off.
 Leave Link  301 at Mon Apr 21 18:12:37 2025, MaxMem=  4294967296 cpu:               2.1 elap:               0.2
 (Enter /home/szhao/Apps/g16/l302.exe)
 NPDir=0 NMtPBC=     1 NCelOv=     1 NCel=       1 NClECP=     1 NCelD=      1
         NCelK=      1 NCelE2=     1 NClLst=     1 CellRange=     0.0.
 One-electron integrals computed using PRISM.
 NBasis=    62 RedAO= T EigKep=  2.61D-03  NBF=    62
 NBsUse=    62 1.00D-06 EigRej= -1.00D+00 NBFU=    62
 Precomputing XC quadrature grid using
 IXCGrd= 4 IRadAn=           7 IRanWt=          -1 IRanGd=           0 AccXCQ= 0.00D+00.
 Generated NRdTot=       0 NPtTot=           0 NUsed=           0 NTot=          32
 NSgBfM=    64    64    64    64    64 MxSgAt=     5 MxSgA2=     5.
 Leave Link  302 at Mon Apr 21 18:12:38 2025, MaxMem=  4294967296 cpu:               5.4 elap:               0.4
 (Enter /home/szhao/Apps/g16/l303.exe)
 DipDrv:  MaxL=1.
 Leave Link  303 at Mon Apr 21 18:12:38 2025, MaxMem=  4294967296 cpu:               1.5 elap:               0.2
 (Enter /home/szhao/Apps/g16/l401.exe)
 ExpMin= 4.38D-02 ExpMax= 6.29D+03 ExpMxC= 9.49D+02 IAcc=3 IRadAn=         7 AccDes= 0.00D+00
 Harris functional with IExCor= 1009 and IRadAn=       7 diagonalized for initial guess.
 HarFok:  IExCor= 1009 AccDes= 0.00D+00 IRadAn=         7 IDoV= 1 UseB2=F ITyADJ=14
 ICtDFT=  3500011 ScaDFX=  1.000000  1.000000  1.000000  1.000000
 FoFCou: FMM=F IPFlag=           0 FMFlag=      100000 FMFlg1=           0
         NFxFlg=           0 DoJE=T BraDBF=F KetDBF=T FulRan=T
         wScrn=  0.000000 ICntrl=       500 IOpCl=  0 I1Cent=   200000004 NGrid=           0
         NMat0=    1 NMatS0=      1 NMatT0=    0 NMatD0=    1 NMtDS0=    0 NMtDT0=    0
 Symmetry not used in FoFCou.
 Harris En= -94.5530881946451    
 JPrj=0 DoOrth=F DoCkMO=F.
 Initial guess <Sx>= 0.0000 <Sy>= 0.0000 <Sz>= 0.0000 <S**2>=-0.0000 S=-0.0000
 Leave Link  401 at Mon Apr 21 18:12:40 2025, MaxMem=  4294967296 cpu:              11.2 elap:               1.0
 (Enter /home/szhao/Apps/g16/l502.exe)
 Keep R1 and R2 ints in memory in canonical form, NReq=18097897.
 FoFCou: FMM=F IPFlag=           0 FMFlag=           0 FMFlg1=           0
         NFxFlg=           0 DoJE=F BraDBF=F KetDBF=F FulRan=T
         wScrn=  0.000000 ICntrl=       600 IOpCl=  0 I1Cent=           0 NGrid=           0
         NMat0=    1 NMatS0=   1953 NMatT0=    0 NMatD0=    1 NMtDS0=    0 NMtDT0=    0
 Symmetry not used in FoFCou.
 Two-electron integral symmetry not used.
 UHF open shell SCF:
 Using DIIS extrapolation, IDIIS=  1040.
 NGot=  4294967296 LenX=  4291141281 LenY=  4291136744
 Requested convergence on RMS density matrix=1.00D-08 within 128 cycles.
 Requested convergence on MAX density matrix=1.00D-06.
 Requested convergence on             energy=1.00D-06.
 No special actions if energy rises.

 Cycle   1  Pass 1  IDiag  1:
 E= -94.5541161267910    
 DIIS: error= 2.76D-02 at cycle   1 NSaved=   1.
 NSaved= 1 IEnMin= 1 EnMin= -94.5541161267910     IErMin= 1 ErrMin= 2.76D-02
 ErrMax= 2.76D-02  0.00D+00 EMaxC= 1.00D-01 BMatC= 2.45D-01 BMatP= 2.45D-01
 IDIUse=3 WtCom= 7.24D-01 WtEn= 2.76D-01
 Coeff-Com:  0.100D+01
 Coeff-En:   0.100D+01
 Coeff:      0.100D+01
 Gap=     0.332 Goal=   None    Shift=    0.000
 Gap=     0.332 Goal=   None    Shift=    0.000
 GapD=    0.332 DampG=1.000 DampE=0.500 DampFc=0.5000 IDamp=-1.
 Damping current iteration by 5.00D-01
 RMSDP=5.48D-03 MaxDP=7.04D-02              OVMax= 1.41D-01

 Cycle   2  Pass 1  IDiag  1:
 E= -94.5749059784647     Delta-E=       -0.020789851674 Rises=F Damp=T
 DIIS: error= 1.20D-02 at cycle   2 NSaved=   2.
 NSaved= 2 IEnMin= 2 EnMin= -94.5749059784647     IErMin= 2 ErrMin= 1.20D-02
 ErrMax= 1.20D-02  0.00D+00 EMaxC= 1.00D-01 BMatC= 2.54D-02 BMatP= 2.45D-01
 IDIUse=3 WtCom= 8.80D-01 WtEn= 1.20D-01
 Coeff-Com: -0.467D-01 0.105D+01
 Coeff-En:   0.000D+00 0.100D+01
 Coeff:     -0.411D-01 0.104D+01
 Gap=     0.382 Goal=   None    Shift=    0.000
 Gap=     0.382 Goal=   None    Shift=    0.000
 RMSDP=1.08D-03 MaxDP=1.64D-02 DE=-2.08D-02 OVMax= 1.02D-01

 Cycle   3  Pass 1  IDiag  1:
 E= -94.5947853776980     Delta-E=       -0.019879399233 Rises=F Damp=F
 DIIS: error= 1.42D-02 at cycle   3 NSaved=   3.
 NSaved= 3 IEnMin= 3 EnMin= -94.5947853776980     IErMin= 2 ErrMin= 1.20D-02
 ErrMax= 1.42D-02  0.00D+00 EMaxC= 1.00D-01 BMatC= 1.82D-02 BMatP= 2.54D-02
 IDIUse=3 WtCom= 8.58D-01 WtEn= 1.42D-01
 Coeff-Com: -0.123D+00 0.518D+00 0.606D+00
 Coeff-En:   0.000D+00 0.000D+00 0.100D+01
 Coeff:     -0.106D+00 0.444D+00 0.661D+00
 Gap=     0.336 Goal=   None    Shift=    0.000
 Gap=     0.336 Goal=   None    Shift=    0.000
 RMSDP=8.73D-04 MaxDP=1.43D-02 DE=-1.99D-02 OVMax= 4.73D-02

 Cycle   4  Pass 1  IDiag  1:
 E= -94.5978396561237     Delta-E=       -0.003054278426 Rises=F Damp=F
 DIIS: error= 6.34D-03 at cycle   4 NSaved=   4.
 NSaved= 4 IEnMin= 4 EnMin= -94.5978396561237     IErMin= 4 ErrMin= 6.34D-03
 ErrMax= 6.34D-03  0.00D+00 EMaxC= 1.00D-01 BMatC= 4.71D-03 BMatP= 1.82D-02
 IDIUse=3 WtCom= 9.37D-01 WtEn= 6.34D-02
 Coeff-Com: -0.351D-01 0.806D-01 0.375D+00 0.579D+00
 Coeff-En:   0.000D+00 0.000D+00 0.229D+00 0.771D+00
 Coeff:     -0.329D-01 0.755D-01 0.366D+00 0.591D+00
 Gap=     0.342 Goal=   None    Shift=    0.000
 Gap=     0.342 Goal=   None    Shift=    0.000
 RMSDP=3.25D-04 MaxDP=6.09D-03 DE=-3.05D-03 OVMax= 1.46D-02

 Cycle   5  Pass 1  IDiag  1:
 E= -94.5988917167172     Delta-E=       -0.001052060593 Rises=F Damp=F
 DIIS: error= 1.49D-04 at cycle   5 NSaved=   5.
 NSaved= 5 IEnMin= 5 EnMin= -94.5988917167172     IErMin= 5 ErrMin= 1.49D-04
 ErrMax= 1.49D-04  0.00D+00 EMaxC= 1.00D-01 BMatC= 5.27D-06 BMatP= 4.71D-03
 IDIUse=3 WtCom= 9.99D-01 WtEn= 1.49D-03
 Coeff-Com: -0.203D-02 0.161D-02 0.438D-01 0.860D-01 0.871D+00
 Coeff-En:   0.000D+00 0.000D+00 0.000D+00 0.000D+00 0.100D+01
 Coeff:     -0.203D-02 0.161D-02 0.438D-01 0.859D-01 0.871D+00
 Gap=     0.342 Goal=   None    Shift=    0.000
 Gap=     0.342 Goal=   None    Shift=    0.000
 RMSDP=1.74D-05 MaxDP=1.76D-04 DE=-1.05D-03 OVMax= 8.24D-04

 Cycle   6  Pass 1  IDiag  1:
 E= -94.5988933909408     Delta-E=       -0.000001674224 Rises=F Damp=F
 DIIS: error= 5.67D-05 at cycle   6 NSaved=   6.
 NSaved= 6 IEnMin= 6 EnMin= -94.5988933909408     IErMin= 6 ErrMin= 5.67D-05
 ErrMax= 5.67D-05  0.00D+00 EMaxC= 1.00D-01 BMatC= 7.29D-07 BMatP= 5.27D-06
 IDIUse=1 WtCom= 1.00D+00 WtEn= 0.00D+00
 Coeff-Com:  0.193D-02-0.403D-02-0.175D-01-0.396D-01-0.125D+00 0.118D+01
 Coeff:      0.193D-02-0.403D-02-0.175D-01-0.396D-01-0.125D+00 0.118D+01
 Gap=     0.342 Goal=   None    Shift=    0.000
 Gap=     0.342 Goal=   None    Shift=    0.000
 RMSDP=1.17D-05 MaxDP=1.11D-04 DE=-1.67D-06 OVMax= 2.58D-04

 Cycle   7  Pass 1  IDiag  1:
 E= -94.5988936492246     Delta-E=       -0.000000258284 Rises=F Damp=F
 DIIS: error= 8.68D-06 at cycle   7 NSaved=   7.
 NSaved= 7 IEnMin= 7 EnMin= -94.5988936492246     IErMin= 7 ErrMin= 8.68D-06
 ErrMax= 8.68D-06  0.00D+00 EMaxC= 1.00D-01 BMatC= 1.77D-08 BMatP= 7.29D-07
 IDIUse=1 WtCom= 1.00D+00 WtEn= 0.00D+00
 Coeff-Com: -0.286D-03 0.627D-03 0.267D-02 0.402D-02-0.457D-02-0.191D+00
 Coeff-Com:  0.119D+01
 Coeff:     -0.286D-03 0.627D-03 0.267D-02 0.402D-02-0.457D-02-0.191D+00
 Coeff:      0.119D+01
 Gap=     0.342 Goal=   None    Shift=    0.000
 Gap=     0.342 Goal=   None    Shift=    0.000
 RMSDP=1.65D-06 MaxDP=1.91D-05 DE=-2.58D-07 OVMax= 3.57D-05

 Cycle   8  Pass 1  IDiag  1:
 E= -94.5988936553422     Delta-E=       -0.000000006118 Rises=F Damp=F
 DIIS: error= 1.59D-06 at cycle   8 NSaved=   8.
 NSaved= 8 IEnMin= 8 EnMin= -94.5988936553422     IErMin= 8 ErrMin= 1.59D-06
 ErrMax= 1.59D-06  0.00D+00 EMaxC= 1.00D-01 BMatC= 4.08D-10 BMatP= 1.77D-08
 IDIUse=1 WtCom= 1.00D+00 WtEn= 0.00D+00
 Coeff-Com: -0.522D-04 0.113D-03 0.545D-03 0.909D-03 0.343D-02-0.372D-01
 Coeff-Com:  0.714D-01 0.961D+00
 Coeff:     -0.522D-04 0.113D-03 0.545D-03 0.909D-03 0.343D-02-0.372D-01
 Coeff:      0.714D-01 0.961D+00
 Gap=     0.342 Goal=   None    Shift=    0.000
 Gap=     0.342 Goal=   None    Shift=    0.000
 RMSDP=1.69D-07 MaxDP=2.70D-06 DE=-6.12D-09 OVMax= 3.37D-06

 Cycle   9  Pass 1  IDiag  1:
 E= -94.5988936554440     Delta-E=       -0.000000000102 Rises=F Damp=F
 DIIS: error= 2.86D-07 at cycle   9 NSaved=   9.
 NSaved= 9 IEnMin= 9 EnMin= -94.5988936554440     IErMin= 9 ErrMin= 2.86D-07
 ErrMax= 2.86D-07  0.00D+00 EMaxC= 1.00D-01 BMatC= 2.22D-11 BMatP= 4.08D-10
 IDIUse=1 WtCom= 1.00D+00 WtEn= 0.00D+00
 Coeff-Com:  0.751D-05-0.161D-04-0.426D-04-0.836D-04 0.740D-03 0.239D-02
 Coeff-Com: -0.421D-01 0.114D+00 0.925D+00
 Coeff:      0.751D-05-0.161D-04-0.426D-04-0.836D-04 0.740D-03 0.239D-02
 Coeff:     -0.421D-01 0.114D+00 0.925D+00
 Gap=     0.342 Goal=   None    Shift=    0.000
 Gap=     0.342 Goal=   None    Shift=    0.000
 RMSDP=4.77D-08 MaxDP=7.75D-07 DE=-1.02D-10 OVMax= 9.21D-07

 Cycle  10  Pass 1  IDiag  1:
 E= -94.5988936554498     Delta-E=       -0.000000000006 Rises=F Damp=F
 DIIS: error= 3.44D-08 at cycle  10 NSaved=  10.
 NSaved=10 IEnMin=10 EnMin= -94.5988936554498     IErMin=10 ErrMin= 3.44D-08
 ErrMax= 3.44D-08  0.00D+00 EMaxC= 1.00D-01 BMatC= 2.29D-13 BMatP= 2.22D-11
 IDIUse=1 WtCom= 1.00D+00 WtEn= 0.00D+00
 Coeff-Com:  0.147D-05-0.324D-05-0.106D-04-0.168D-04-0.317D-04 0.948D-03
 Coeff-Com: -0.323D-02-0.258D-01-0.149D-01 0.104D+01
 Coeff:      0.147D-05-0.324D-05-0.106D-04-0.168D-04-0.317D-04 0.948D-03
 Coeff:     -0.323D-02-0.258D-01-0.149D-01 0.104D+01
 Gap=     0.342 Goal=   None    Shift=    0.000
 Gap=     0.342 Goal=   None    Shift=    0.000
 RMSDP=9.53D-09 MaxDP=2.08D-07 DE=-5.85D-12 OVMax= 1.87D-07

 SCF Done:  E(UM062X) =  -94.5988936554     A.U. after   10 cycles
            NFock= 10  Conv=0.95D-08     -V/T= 2.0067
 <Sx>= 0.0000 <Sy>= 0.0000 <Sz>= 0.0000 <S**2>=-0.0000 S=-0.0000
 <L.S>=  0.00000000000    
 KE= 9.396657280661D+01 PE=-2.831176168222D+02 EE= 6.306171914483D+01
 Annihilation of the first spin contaminant:
 S**2 before annihilation    -0.0000,   after     0.0000
 Leave Link  502 at Mon Apr 21 18:12:46 2025, MaxMem=  4294967296 cpu:              83.7 elap:               6.3
 (Enter /home/szhao/Apps/g16/l601.exe)
 Copying SCF densities to generalized density rwf, IOpCl= 1 IROHF=0.

 **********************************************************************

            Population analysis using the SCF density.

 **********************************************************************

 Alpha  occ. eigenvalues --  -14.76393 -10.60591  -0.98489  -0.72222  -0.56594
 Alpha  occ. eigenvalues --   -0.49923  -0.38038  -0.35157
 Alpha virt. eigenvalues --   -0.00930   0.01860   0.03626   0.05013   0.07503
 Alpha virt. eigenvalues --    0.12945   0.16262   0.16714   0.18223   0.20939
 Alpha virt. eigenvalues --    0.24837   0.25936   0.33127   0.47497   0.48415
 Alpha virt. eigenvalues --    0.56903   0.58388   0.64394   0.69824   0.80589
 Alpha virt. eigenvalues --    0.83886   0.87821   0.88616   1.07672   1.18096
 Alpha virt. eigenvalues --    1.22140   1.40069   1.44131   1.47502   1.49843
 Alpha virt. eigenvalues --    1.69280   1.73050   1.76892   1.91525   1.99703
 Alpha virt. eigenvalues --    2.17512   2.32946   2.38602   2.46454   2.47357
 Alpha virt. eigenvalues --    2.48902   2.58900   2.65780   2.73861   2.83831
 Alpha virt. eigenvalues --    2.90559   3.16405   3.54738   3.74198   3.92247
 Alpha virt. eigenvalues --    4.33819   4.85616  23.90274  35.59496
  Beta  occ. eigenvalues --  -14.76393 -10.60591  -0.98489  -0.72222  -0.56594
  Beta  occ. eigenvalues --   -0.49923  -0.38038  -0.35157
  Beta virt. eigenvalues --   -0.00930   0.01860   0.03626   0.05013   0.07503
  Beta virt. eigenvalues --    0.12945   0.16262   0.16714   0.18223   0.20939
  Beta virt. eigenvalues --    0.24837   0.25936   0.33127   0.47497   0.48415
  Beta virt. eigenvalues --    0.56903   0.58388   0.64394   0.69824   0.80589
  Beta virt. eigenvalues --    0.83886   0.87821   0.88616   1.07672   1.18096
  Beta virt. eigenvalues --    1.22140   1.40069   1.44131   1.47502   1.49843
  Beta virt. eigenvalues --    1.69280   1.73050   1.76892   1.91525   1.99703
  Beta virt. eigenvalues --    2.17512   2.32946   2.38602   2.46454   2.47357
  Beta virt. eigenvalues --    2.48902   2.58900   2.65780   2.73861   2.83831
  Beta virt. eigenvalues --    2.90559   3.16405   3.54738   3.74198   3.92247
  Beta virt. eigenvalues --    4.33819   4.85616  23.90274  35.59496
          Condensed to atoms (all electrons):
               1          2          3          4          5
     1  C    5.008945   0.441463   0.367996  -0.006727   0.411786
     2  N    0.441463   6.683613  -0.013627   0.251038  -0.074957
     3  H    0.367996  -0.013627   0.586001  -0.024072  -0.059427
     4  H   -0.006727   0.251038  -0.024072   0.562378   0.013247
     5  H    0.411786  -0.074957  -0.059427   0.013247   0.545625
          Atomic-Atomic Spin Densities.
               1          2          3          4          5
     1  C   -0.000000  -0.000000  -0.000000   0.000000  -0.000000
     2  N   -0.000000   0.000000   0.000000  -0.000000  -0.000000
     3  H   -0.000000   0.000000  -0.000000  -0.000000  -0.000000
     4  H    0.000000  -0.000000  -0.000000   0.000000   0.000000
     5  H   -0.000000  -0.000000  -0.000000   0.000000   0.000000
 Mulliken charges and spin densities:
               1          2
     1  C   -0.223462  -0.000000
     2  N   -0.287530   0.000000
     3  H    0.143129  -0.000000
     4  H    0.204136  -0.000000
     5  H    0.163726   0.000000
 Sum of Mulliken charges =  -0.00000   0.00000
 Mulliken charges and spin densities with hydrogens summed into heavy atoms:
               1          2
     1  C    0.083393  -0.000000
     2  N   -0.083393   0.000000
 Electronic spatial extent (au):  <R**2>=             74.6103
 Charge=             -0.0000 electrons
 Dipole moment (field-independent basis, Debye):
    X=             -1.7757    Y=             -1.5219    Z=             -0.0002  Tot=              2.3386
 Quadrupole moment (field-independent basis, Debye-Ang):
   XX=            -12.4684   YY=            -11.6541   ZZ=            -14.1626
   XY=             -2.1091   XZ=             -0.0001   YZ=              0.0001
 Traceless Quadrupole moment (field-independent basis, Debye-Ang):
   XX=              0.2933   YY=              1.1076   ZZ=             -1.4009
   XY=             -2.1091   XZ=             -0.0001   YZ=              0.0001
 Octapole moment (field-independent basis, Debye-Ang**2):
  XXX=             -0.0761  YYY=              0.1072  ZZZ=              0.0004  XYY=              0.0722
  XXY=             -1.8633  XXZ=             -0.0002  XZZ=              0.7407  YZZ=              0.2863
  YYZ=             -0.0002  XYZ=              0.0004
 Hexadecapole moment (field-independent basis, Debye-Ang**3):
 XXXX=            -62.0771 YYYY=            -21.7921 ZZZZ=            -15.6303 XXXY=             -1.6547
 XXXZ=             -0.0001 YYYX=             -0.9083 YYYZ=              0.0001 ZZZX=             -0.0001
 ZZZY=              0.0001 XXYY=            -11.7922 XXZZ=            -13.5231 YYZZ=             -6.8466
 XXYZ=              0.0000 YYXZ=             -0.0000 ZZXY=              0.1682
 N-N= 3.149043121530D+01 E-N=-2.831176173542D+02  KE= 9.396657280661D+01
                          Isotropic Fermi Contact Couplings
        Atom                 a.u.       MegaHertz       Gauss      10(-4) cm-1
     1  C(13)             -0.00000      -0.00000      -0.00000      -0.00000
     2  N(14)             -0.00000      -0.00000      -0.00000      -0.00000
     3  H(1)              -0.00000      -0.00000      -0.00000      -0.00000
     4  H(1)               0.00000       0.00000       0.00000       0.00000
     5  H(1)               0.00000       0.00000       0.00000       0.00000
 --------------------------------------------------------
       Center         ----  Spin Dipole Couplings  ----
                      3XX-RR        3YY-RR        3ZZ-RR
 --------------------------------------------------------
     1   Atom        0.000000      0.000000      0.000000
     2   Atom        0.000000      0.000000      0.000000
     3   Atom        0.000000      0.000000      0.000000
     4   Atom        0.000000      0.000000      0.000000
     5   Atom        0.000000      0.000000      0.000000
 --------------------------------------------------------
                        XY            XZ            YZ
 --------------------------------------------------------
     1   Atom        0.000000      0.000000      0.000000
     2   Atom        0.000000      0.000000      0.000000
     3   Atom        0.000000      0.000000      0.000000
     4   Atom        0.000000      0.000000      0.000000
     5   Atom        0.000000      0.000000      0.000000
 --------------------------------------------------------


 ---------------------------------------------------------------------------------
              Anisotropic Spin Dipole Couplings in Principal Axis System
 ---------------------------------------------------------------------------------

       Atom             a.u.   MegaHertz   Gauss  10(-4) cm-1        Axes

              Baa     0.0000     0.000     0.000     0.000  1.0000  0.0000  0.0000
     1 C(13)  Bbb     0.0000     0.000     0.000     0.000 -0.0000  1.0000  0.0000
              Bcc     0.0000     0.000     0.000     0.000  0.0000  0.0000  1.0000
 
              Baa     0.0000     0.000     0.000     0.000  1.0000  0.0000  0.0000
     2 N(14)  Bbb     0.0000     0.000     0.000     0.000 -0.0000  1.0000  0.0000
              Bcc     0.0000     0.000     0.000     0.000  0.0000  0.0000  1.0000
 
              Baa     0.0000     0.000     0.000     0.000  1.0000  0.0000  0.0000
     3 H(1)   Bbb     0.0000     0.000     0.000     0.000 -0.0000  1.0000  0.0000
              Bcc     0.0000     0.000     0.000     0.000  0.0000  0.0000  1.0000
 
              Baa     0.0000     0.000     0.000     0.000  1.0000  0.0000  0.0000
     4 H(1)   Bbb     0.0000     0.000     0.000     0.000 -0.0000  1.0000  0.0000
              Bcc     0.0000     0.000     0.000     0.000  0.0000  0.0000  1.0000
 
              Baa     0.0000     0.000     0.000     0.000  1.0000  0.0000  0.0000
     5 H(1)   Bbb     0.0000     0.000     0.000     0.000 -0.0000  1.0000  0.0000
              Bcc     0.0000     0.000     0.000     0.000  0.0000  0.0000  1.0000
 

 ---------------------------------------------------------------------------------

 No NMR shielding tensors so no spin-rotation constants.
 Leave Link  601 at Mon Apr 21 18:12:47 2025, MaxMem=  4294967296 cpu:               5.0 elap:               0.6
 (Enter /home/szhao/Apps/g16/l701.exe)
 ... and contract with generalized density number  0.
 Compute integral first derivatives.
 Leave Link  701 at Mon Apr 21 18:12:48 2025, MaxMem=  4294967296 cpu:               7.9 elap:               0.9
 (Enter /home/szhao/Apps/g16/l702.exe)
 L702 exits ... SP integral derivatives will be done elsewhere.
 Leave Link  702 at Mon Apr 21 18:12:48 2025, MaxMem=  4294967296 cpu:               0.9 elap:               0.2
 (Enter /home/szhao/Apps/g16/l703.exe)
 Integral derivatives from FoFJK, PRISM(SPDF).
 Compute integral first derivatives, UseDBF=F ICtDFT=           0.
 Calling FoFJK, ICntrl=      2127 FMM=F ISym2X=0 I1Cent= 0 IOpClX= 1 NMat=1 NMatS=1 NMatT=0.
 FoFJK:  IHMeth= 1 ICntrl=    2127 DoSepK=F KAlg= 0 I1Cent=           0 FoldK=F
 IRaf=         0 NMat=       1 IRICut=       1 DoRegI=T DoRafI=F ISym2E= 0 IDoP0=0 IntGTp=1.
 FoFCou: FMM=F IPFlag=           0 FMFlag=      100000 FMFlg1=         800
         NFxFlg=           0 DoJE=F BraDBF=F KetDBF=F FulRan=T
         wScrn=  0.000000 ICntrl=      2127 IOpCl=  1 I1Cent=           0 NGrid=           0
         NMat0=    1 NMatS0=      1 NMatT0=    0 NMatD0=    1 NMtDS0=    0 NMtDT0=    0
 Symmetry not used in FoFCou.
 Leave Link  703 at Mon Apr 21 18:12:50 2025, MaxMem=  4294967296 cpu:              17.8 elap:               1.5
 (Enter /home/szhao/Apps/g16/l716.exe)
 Dipole        =-6.98602618D-01-5.98754171D-01-8.58820944D-05
 -------------------------------------------------------------------
 Center     Atomic                   Forces (Hartrees/Bohr)
 Number     Number              X              Y              Z
 -------------------------------------------------------------------
      1        6          -0.000000000   -0.000000000   -0.000000000
      2        7          -0.000000000   -0.000000000   -0.000000000
      3        1           0.004522458    0.000209156   -0.000001206
      4        1          -0.005471702   -0.002297794    0.000010385
      5        1           0.005583307   -0.000660882    0.000009615
 -------------------------------------------------------------------
 Cartesian Forces:  Max     0.005583307 RMS     0.002412827
 Leave Link  716 at Mon Apr 21 18:12:50 2025, MaxMem=  4294967296 cpu:               1.1 elap:               0.2
 (Enter /home/szhao/Apps/g16/l103.exe)

 GradGradGradGradGradGradGradGradGradGradGradGradGradGradGradGradGradGrad
 Berny optimization.
 FormGI is forming the generalized inverse of G from B-inverse, IUseBI=4.
 Internal  Forces:  Max     0.011451728 RMS     0.005226778
 Search for a local minimum.
 Step number   1 out of a maximum of   25
 All quantities printed in internal units (Hartrees-Bohrs-Radians)
 RMS Force = .46996D-02 SwitMx=.10000D-02 MixMth= 1
 Mixed Optimization -- RFO/linear search
 Second derivative matrix not updated -- first step.
 The second derivative matrix:
                          X1        Y1        Z1        X2        Y2
           X1           0.50000
           Y1           0.00000   0.50000
           Z1           0.00000   0.00000   0.50000
           X2           0.00000   0.00000   0.00000   0.50000
           Y2           0.00000   0.00000   0.00000   0.00000   0.50000
           Z2           0.00000   0.00000   0.00000   0.00000   0.00000
           R1           0.00000   0.00000   0.00000   0.00000   0.00000
           R2           0.00000   0.00000   0.00000   0.00000   0.00000
           R3           0.00000   0.00000   0.00000   0.00000   0.00000
           A1           0.00000   0.00000   0.00000   0.00000   0.00000
           A2           0.00000   0.00000   0.00000   0.00000   0.00000
           A3           0.00000   0.00000   0.00000   0.00000   0.00000
           A4           0.00000   0.00000   0.00000   0.00000   0.00000
           D1           0.00000   0.00000   0.00000   0.00000   0.00000
           D2           0.00000   0.00000   0.00000   0.00000   0.00000
                          Z2        R1        R2        R3        A1
           Z2           0.50000
           R1           0.00000   0.34312
           R2           0.00000   0.00000   0.34780
           R3           0.00000   0.00000   0.00000   0.44052
           A1           0.00000   0.00000   0.00000   0.00000   0.16000
           A2           0.00000   0.00000   0.00000   0.00000   0.00000
           A3           0.00000   0.00000   0.00000   0.00000   0.00000
           A4           0.00000   0.00000   0.00000   0.00000   0.00000
           D1           0.00000   0.00000   0.00000   0.00000   0.00000
           D2           0.00000   0.00000   0.00000   0.00000   0.00000
                          A2        A3        A4        D1        D2
           A2           0.16000
           A3           0.00000   0.16000
           A4           0.00000   0.00000   0.16000
           D1           0.00000   0.00000   0.00000   0.02178
           D2           0.00000   0.00000   0.00000   0.00000   0.02178
 ITU=  0
     Eigenvalues ---    0.02178   0.02178   0.16000   0.16000   0.16000
     Eigenvalues ---    0.34312   0.34780   0.440521000.000001000.00000
     Eigenvalues --- 1000.000001000.000001000.000001000.000001000.00000
 RFO step:  Lambda=-1.17251739D-03 EMin= 2.17759258D-02
 Linear search not attempted -- first point.
 Iteration  1 RMS(Cart)=  0.03809250 RMS(Int)=  0.00126267
 Iteration  2 RMS(Cart)=  0.00127011 RMS(Int)=  0.00000021
 Iteration  3 RMS(Cart)=  0.00000040 RMS(Int)=  0.00000002
 ITry= 1 IFail=0 DXMaxC= 1.30D-01 DCOld= 1.00D+10 DXMaxT= 3.00D-01 DXLimC= 3.00D+00 Rises=F
 Variable       Old X    -DE/DX   Delta X   Delta X   Delta X     New X
                                 (Linear)    (Quad)   (Total)
    X1       -1.28811   0.01011   0.00000   0.00000   0.00000  -1.28811
    Y1        0.00000   0.00476   0.00000   0.00000   0.00000   0.00000
    Z1        0.00000   0.00001   0.00000   0.00000   0.00000   0.00000
    X2        1.28811  -0.00547   0.00000   0.00000   0.00000   1.28811
    Y2        0.00000  -0.00751   0.00000   0.00000   0.00000   0.00000
    Z2        0.00000   0.00001   0.00000   0.00000   0.00000   0.00000
    R1        2.06806  -0.00274   0.00000  -0.00796  -0.00796   2.06010
    R2        2.06034  -0.00328   0.00000  -0.00938  -0.00938   2.05096
    R3        1.93093   0.00022   0.00000   0.00049   0.00049   1.93141
    A1        2.17493  -0.00183   0.00000  -0.01135  -0.01135   2.16358
    A2        2.07479  -0.00379   0.00000  -0.02354  -0.02354   2.05126
    A3        2.03346   0.00562   0.00000   0.03488   0.03488   2.06834
    A4        1.93213  -0.01145   0.00000  -0.07105  -0.07105   1.86108
    D1        0.00013  -0.00000   0.00000  -0.00011  -0.00011   0.00002
    D2       -3.14135  -0.00002   0.00000  -0.00073  -0.00073   3.14111
         Item               Value     Threshold  Converged?
 Maximum Force            0.011452     0.000450     NO 
 RMS     Force            0.004700     0.000300     NO 
 Maximum Displacement     0.129813     0.001800     NO 
 RMS     Displacement     0.038177     0.001200     NO 
 Predicted change in Energy=-5.904211D-04
 Lowest energy point so far.  Saving SCF results.
 GradGradGradGradGradGradGradGradGradGradGradGradGradGradGradGradGradGrad

 Leave Link  103 at Mon Apr 21 18:12:52 2025, MaxMem=  4294967296 cpu:              13.8 elap:               1.8
 (Enter /home/szhao/Apps/g16/l202.exe)
                          Input orientation:                          
 ---------------------------------------------------------------------
 Center     Atomic      Atomic             Coordinates (Angstroms)
 Number     Number       Type             X           Y           Z
 ---------------------------------------------------------------------
      1          6           0       -0.681637    0.000000    0.000000
      2          7           0        0.681637    0.000000    0.000000
      3          1           0       -1.290681   -0.904164    0.000086
      4          1           0        0.974176   -0.979299    0.000075
      5          1           0       -1.183261    0.962441    0.000390
 ---------------------------------------------------------------------
                    Distance matrix (angstroms):
                    1          2          3          4          5
     1  C    0.000000
     2  N    1.363274   0.000000
     3  H    1.090160   2.169690   0.000000
     4  H    1.923731   1.022059   2.266103   0.000000
     5  H    1.085320   2.098604   1.869694   2.902566   0.000000
 Symmetry turned off by external request.
 Stoichiometry    CH3N
 Framework group  C1[X(CH3N)]
 Deg. of freedom     9
 Full point group                 C1      NOp   1
 Rotational constants (GHZ):         192.2213833          31.2104949          26.8507996
 Leave Link  202 at Mon Apr 21 18:12:52 2025, MaxMem=  4294967296 cpu:               1.6 elap:               0.2
 (Enter /home/szhao/Apps/g16/l301.exe)
 Standard basis: 6-311+G(d,p) (5D, 7F)
 Ernie: Thresh=  0.10000D-02 Tol=  0.10000D-05 Strict=F.
    62 basis functions,    96 primitive gaussians,    64 cartesian basis functions
     8 alpha electrons        8 beta electrons
       nuclear repulsion energy        31.5869147012 Hartrees.
 IExCor= 4336 DFT=T Ex+Corr=M062X ExCW=0 ScaHFX=  0.540000
 ScaDFX=  1.000000  1.000000  1.000000  1.000000 ScalE2=  1.000000  1.000000
 IRadAn=      7 IRanWt=     -1 IRanGd=            0 ICorTp=0 IEmpDi=  4
 NAtoms=    5 NActive=    5 NUniq=    5 SFac= 1.00D+00 NAtFMM=   60 NAOKFM=F Big=F
 Integral buffers will be    131072 words long.
 Raffenetti 2 integral format.
 Two-electron integral symmetry is turned off.
 Leave Link  301 at Mon Apr 21 18:12:52 2025, MaxMem=  4294967296 cpu:               1.2 elap:               0.1
 (Enter /home/szhao/Apps/g16/l302.exe)
 NPDir=0 NMtPBC=     1 NCelOv=     1 NCel=       1 NClECP=     1 NCelD=      1
         NCelK=      1 NCelE2=     1 NClLst=     1 CellRange=     0.0.
 One-electron integrals computed using PRISM.
 NBasis=    62 RedAO= T EigKep=  2.61D-03  NBF=    62
 NBsUse=    62 1.00D-06 EigRej= -1.00D+00 NBFU=    62
 Precomputing XC quadrature grid using
 IXCGrd= 4 IRadAn=           7 IRanWt=          -1 IRanGd=           0 AccXCQ= 0.00D+00.
 Generated NRdTot=       0 NPtTot=           0 NUsed=           0 NTot=          32
 NSgBfM=    64    64    64    64    64 MxSgAt=     5 MxSgA2=     5.
 Leave Link  302 at Mon Apr 21 18:12:53 2025, MaxMem=  4294967296 cpu:               8.0 elap:               0.6
 (Enter /home/szhao/Apps/g16/l303.exe)
 DipDrv:  MaxL=1.
 Leave Link  303 at Mon Apr 21 18:12:54 2025, MaxMem=  4294967296 cpu:               2.0 elap:               0.2
 (Enter /home/szhao/Apps/g16/l401.exe)
 Initial guess from the checkpoint file:  "opt.chk"
 B after Tr=    -0.002795   -0.003055    0.000098
         Rot=    0.999991   -0.000041   -0.000019    0.004179 Ang=  -0.48 deg.
 Guess basis will be translated and rotated to current coordinates.
 JPrj=2 DoOrth=T DoCkMO=T.
 Initial guess <Sx>= 0.0000 <Sy>= 0.0000 <Sz>= 0.0000 <S**2>= 0.0000 S= 0.0000
 Generating alternative initial guess.
 ExpMin= 4.38D-02 ExpMax= 6.29D+03 ExpMxC= 9.49D+02 IAcc=3 IRadAn=         5 AccDes= 0.00D+00
 Harris functional with IExCor= 1009 and IRadAn=       5 diagonalized for initial guess.
 HarFok:  IExCor= 1009 AccDes= 0.00D+00 IRadAn=         5 IDoV= 1 UseB2=F ITyADJ=14
 ICtDFT=  3500011 ScaDFX=  1.000000  1.000000  1.000000  1.000000
 FoFCou: FMM=F IPFlag=           0 FMFlag=      100000 FMFlg1=           0
         NFxFlg=           0 DoJE=T BraDBF=F KetDBF=T FulRan=T
         wScrn=  0.000000 ICntrl=       500 IOpCl=  0 I1Cent=   200000004 NGrid=           0
         NMat0=    1 NMatS0=      1 NMatT0=    0 NMatD0=    1 NMtDS0=    0 NMtDT0=    0
 Symmetry not used in FoFCou.
 Harris En= -94.5538204097330    
 Leave Link  401 at Mon Apr 21 18:12:55 2025, MaxMem=  4294967296 cpu:              16.2 elap:               1.6
 (Enter /home/szhao/Apps/g16/l502.exe)
 Keep R1 and R2 ints in memory in canonical form, NReq=18097897.
 FoFCou: FMM=F IPFlag=           0 FMFlag=           0 FMFlg1=           0
         NFxFlg=           0 DoJE=F BraDBF=F KetDBF=F FulRan=T
         wScrn=  0.000000 ICntrl=       600 IOpCl=  0 I1Cent=           0 NGrid=           0
         NMat0=    1 NMatS0=   1953 NMatT0=    0 NMatD0=    1 NMtDS0=    0 NMtDT0=    0
 Symmetry not used in FoFCou.
 Two-electron integral symmetry not used.
 UHF open shell SCF:
 Using DIIS extrapolation, IDIIS=  1040.
 NGot=  4294967296 LenX=  4291141281 LenY=  4291136744
 Requested convergence on RMS density matrix=1.00D-08 within 128 cycles.
 Requested convergence on MAX density matrix=1.00D-06.
 Requested convergence on             energy=1.00D-06.
 No special actions if energy rises.

 Cycle   1  Pass 1  IDiag  1:
 E= -94.5990755498662    
 DIIS: error= 1.84D-03 at cycle   1 NSaved=   1.
 NSaved= 1 IEnMin= 1 EnMin= -94.5990755498662     IErMin= 1 ErrMin= 1.84D-03
 ErrMax= 1.84D-03  0.00D+00 EMaxC= 1.00D-01 BMatC= 1.13D-03 BMatP= 1.13D-03
 IDIUse=3 WtCom= 9.82D-01 WtEn= 1.84D-02
 Coeff-Com:  0.100D+01
 Coeff-En:   0.100D+01
 Coeff:      0.100D+01
 Gap=     0.593 Goal=   None    Shift=    0.000
 Gap=     0.593 Goal=   None    Shift=    0.000
 GapD=    0.593 DampG=2.000 DampE=1.000 DampFc=2.0000 IDamp=-1.
 RMSDP=4.18D-04 MaxDP=7.58D-03              OVMax= 7.63D-03

 Cycle   2  Pass 1  IDiag  1:
 E= -94.5994243220168     Delta-E=       -0.000348772151 Rises=F Damp=F
 DIIS: error= 3.79D-04 at cycle   2 NSaved=   2.
 NSaved= 2 IEnMin= 2 EnMin= -94.5994243220168     IErMin= 2 ErrMin= 3.79D-04
 ErrMax= 3.79D-04  0.00D+00 EMaxC= 1.00D-01 BMatC= 3.17D-05 BMatP= 1.13D-03
 IDIUse=3 WtCom= 9.96D-01 WtEn= 3.79D-03
 Coeff-Com: -0.984D-01 0.110D+01
 Coeff-En:   0.000D+00 0.100D+01
 Coeff:     -0.980D-01 0.110D+01
 Gap=     0.349 Goal=   None    Shift=    0.000
 Gap=     0.349 Goal=   None    Shift=    0.000
 RMSDP=1.02D-04 MaxDP=1.45D-03 DE=-3.49D-04 OVMax= 1.92D-03

 Cycle   3  Pass 1  IDiag  1:
 E= -94.5994334396760     Delta-E=       -0.000009117659 Rises=F Damp=F
 DIIS: error= 3.90D-04 at cycle   3 NSaved=   3.
 NSaved= 3 IEnMin= 3 EnMin= -94.5994334396760     IErMin= 2 ErrMin= 3.79D-04
 ErrMax= 3.90D-04  0.00D+00 EMaxC= 1.00D-01 BMatC= 1.93D-05 BMatP= 3.17D-05
 IDIUse=3 WtCom= 9.96D-01 WtEn= 3.90D-03
 Coeff-Com: -0.655D-01 0.531D+00 0.534D+00
 Coeff-En:   0.000D+00 0.000D+00 0.100D+01
 Coeff:     -0.653D-01 0.529D+00 0.536D+00
 Gap=     0.349 Goal=   None    Shift=    0.000
 Gap=     0.349 Goal=   None    Shift=    0.000
 RMSDP=3.05D-05 MaxDP=5.02D-04 DE=-9.12D-06 OVMax= 1.32D-03

 Cycle   4  Pass 1  IDiag  1:
 E= -94.5994375581026     Delta-E=       -0.000004118427 Rises=F Damp=F
 DIIS: error= 1.51D-04 at cycle   4 NSaved=   4.
 NSaved= 4 IEnMin= 4 EnMin= -94.5994375581026     IErMin= 4 ErrMin= 1.51D-04
 ErrMax= 1.51D-04  0.00D+00 EMaxC= 1.00D-01 BMatC= 2.73D-06 BMatP= 1.93D-05
 IDIUse=3 WtCom= 9.98D-01 WtEn= 1.51D-03
 Coeff-Com: -0.203D-01 0.121D+00 0.285D+00 0.614D+00
 Coeff-En:   0.000D+00 0.000D+00 0.304D-01 0.970D+00
 Coeff:     -0.203D-01 0.121D+00 0.285D+00 0.615D+00
 Gap=     0.349 Goal=   None    Shift=    0.000
 Gap=     0.349 Goal=   None    Shift=    0.000
 RMSDP=9.97D-06 MaxDP=1.87D-04 DE=-4.12D-06 OVMax= 3.54D-04

 Cycle   5  Pass 1  IDiag  1:
 E= -94.5994381237094     Delta-E=       -0.000000565607 Rises=F Damp=F
 DIIS: error= 3.15D-05 at cycle   5 NSaved=   5.
 NSaved= 5 IEnMin= 5 EnMin= -94.5994381237094     IErMin= 5 ErrMin= 3.15D-05
 ErrMax= 3.15D-05  0.00D+00 EMaxC= 1.00D-01 BMatC= 2.06D-07 BMatP= 2.73D-06
 IDIUse=1 WtCom= 1.00D+00 WtEn= 0.00D+00
 Coeff-Com:  0.380D-02-0.517D-01 0.274D-01 0.252D+00 0.769D+00
 Coeff:      0.380D-02-0.517D-01 0.274D-01 0.252D+00 0.769D+00
 Gap=     0.349 Goal=   None    Shift=    0.000
 Gap=     0.349 Goal=   None    Shift=    0.000
 RMSDP=5.73D-06 MaxDP=8.00D-05 DE=-5.66D-07 OVMax= 9.68D-05

 Cycle   6  Pass 1  IDiag  1:
 E= -94.5994381800557     Delta-E=       -0.000000056346 Rises=F Damp=F
 DIIS: error= 2.75D-06 at cycle   6 NSaved=   6.
 NSaved= 6 IEnMin= 6 EnMin= -94.5994381800557     IErMin= 6 ErrMin= 2.75D-06
 ErrMax= 2.75D-06  0.00D+00 EMaxC= 1.00D-01 BMatC= 1.84D-09 BMatP= 2.06D-07
 IDIUse=1 WtCom= 1.00D+00 WtEn= 0.00D+00
 Coeff-Com:  0.710D-03-0.631D-02-0.448D-02-0.989D-02 0.460D-01 0.974D+00
 Coeff:      0.710D-03-0.631D-02-0.448D-02-0.989D-02 0.460D-01 0.974D+00
 Gap=     0.349 Goal=   None    Shift=    0.000
 Gap=     0.349 Goal=   None    Shift=    0.000
 RMSDP=8.39D-07 MaxDP=9.63D-06 DE=-5.63D-08 OVMax= 1.49D-05

 Cycle   7  Pass 1  IDiag  1:
 E= -94.5994381807383     Delta-E=       -0.000000000683 Rises=F Damp=F
 DIIS: error= 1.02D-06 at cycle   7 NSaved=   7.
 NSaved= 7 IEnMin= 7 EnMin= -94.5994381807383     IErMin= 7 ErrMin= 1.02D-06
 ErrMax= 1.02D-06  0.00D+00 EMaxC= 1.00D-01 BMatC= 2.19D-10 BMatP= 1.84D-09
 IDIUse=1 WtCom= 1.00D+00 WtEn= 0.00D+00
 Coeff-Com: -0.157D-03 0.225D-02-0.235D-03-0.168D-01-0.298D-01 0.339D-01
 Coeff-Com:  0.101D+01
 Coeff:     -0.157D-03 0.225D-02-0.235D-03-0.168D-01-0.298D-01 0.339D-01
 Coeff:      0.101D+01
 Gap=     0.349 Goal=   None    Shift=    0.000
 Gap=     0.349 Goal=   None    Shift=    0.000
 RMSDP=1.88D-07 MaxDP=2.50D-06 DE=-6.83D-10 OVMax= 4.29D-06

 Cycle   8  Pass 1  IDiag  1:
 E= -94.5994381808043     Delta-E=       -0.000000000066 Rises=F Damp=F
 DIIS: error= 2.27D-07 at cycle   8 NSaved=   8.
 NSaved= 8 IEnMin= 8 EnMin= -94.5994381808043     IErMin= 8 ErrMin= 2.27D-07
 ErrMax= 2.27D-07  0.00D+00 EMaxC= 1.00D-01 BMatC= 7.67D-12 BMatP= 2.19D-10
 IDIUse=1 WtCom= 1.00D+00 WtEn= 0.00D+00
 Coeff-Com: -0.321D-04 0.314D-03 0.379D-03-0.896D-03-0.194D-02-0.333D-01
 Coeff-Com:  0.998D-02 0.103D+01
 Coeff:     -0.321D-04 0.314D-03 0.379D-03-0.896D-03-0.194D-02-0.333D-01
 Coeff:      0.998D-02 0.103D+01
 Gap=     0.349 Goal=   None    Shift=    0.000
 Gap=     0.349 Goal=   None    Shift=    0.000
 RMSDP=3.41D-08 MaxDP=3.75D-07 DE=-6.60D-11 OVMax= 6.26D-07

 Cycle   9  Pass 1  IDiag  1:
 E= -94.5994381808066     Delta-E=       -0.000000000002 Rises=F Damp=F
 DIIS: error= 2.90D-08 at cycle   9 NSaved=   9.
 NSaved= 9 IEnMin= 9 EnMin= -94.5994381808066     IErMin= 9 ErrMin= 2.90D-08
 ErrMax= 2.90D-08  0.00D+00 EMaxC= 1.00D-01 BMatC= 2.03D-13 BMatP= 7.67D-12
 IDIUse=1 WtCom= 1.00D+00 WtEn= 0.00D+00
 Coeff-Com:  0.653D-05-0.965D-04 0.497D-04 0.623D-03 0.133D-02-0.166D-03
 Coeff-Com: -0.522D-01 0.304D-01 0.102D+01
 Coeff:      0.653D-05-0.965D-04 0.497D-04 0.623D-03 0.133D-02-0.166D-03
 Coeff:     -0.522D-01 0.304D-01 0.102D+01
 Gap=     0.349 Goal=   None    Shift=    0.000
 Gap=     0.349 Goal=   None    Shift=    0.000
 RMSDP=7.66D-09 MaxDP=9.77D-08 DE=-2.36D-12 OVMax= 1.10D-07

 SCF Done:  E(UM062X) =  -94.5994381808     A.U. after    9 cycles
            NFock=  9  Conv=0.77D-08     -V/T= 2.0064
 <Sx>= 0.0000 <Sy>= 0.0000 <Sz>= 0.0000 <S**2>= 0.0000 S= 0.0000
 <L.S>=  0.00000000000    
 KE= 9.399439859581D+01 PE=-2.833277589668D+02 EE= 6.314700748904D+01
 Annihilation of the first spin contaminant:
 S**2 before annihilation     0.0000,   after     0.0000
 Leave Link  502 at Mon Apr 21 18:13:02 2025, MaxMem=  4294967296 cpu:              85.4 elap:               6.4
 (Enter /home/szhao/Apps/g16/l701.exe)
 ... and contract with generalized density number  0.
 Compute integral first derivatives.
 Leave Link  701 at Mon Apr 21 18:13:03 2025, MaxMem=  4294967296 cpu:               5.3 elap:               0.5
 (Enter /home/szhao/Apps/g16/l702.exe)
 L702 exits ... SP integral derivatives will be done elsewhere.
 Leave Link  702 at Mon Apr 21 18:13:03 2025, MaxMem=  4294967296 cpu:               2.1 elap:               0.2
 (Enter /home/szhao/Apps/g16/l703.exe)
 Integral derivatives from FoFJK, PRISM(SPDF).
 Compute integral first derivatives, UseDBF=F ICtDFT=           0.
 Calling FoFJK, ICntrl=      2127 FMM=F ISym2X=0 I1Cent= 0 IOpClX= 1 NMat=1 NMatS=1 NMatT=0.
 FoFJK:  IHMeth= 1 ICntrl=    2127 DoSepK=F KAlg= 0 I1Cent=           0 FoldK=F
 IRaf=         0 NMat=       1 IRICut=       1 DoRegI=T DoRafI=F ISym2E= 0 IDoP0=0 IntGTp=1.
 FoFCou: FMM=F IPFlag=           0 FMFlag=      100000 FMFlg1=         800
         NFxFlg=           0 DoJE=F BraDBF=F KetDBF=F FulRan=T
         wScrn=  0.000000 ICntrl=      2127 IOpCl=  1 I1Cent=           0 NGrid=           0
         NMat0=    1 NMatS0=      1 NMatT0=    0 NMatD0=    1 NMtDS0=    0 NMtDT0=    0
 Symmetry not used in FoFCou.
 Leave Link  703 at Mon Apr 21 18:13:05 2025, MaxMem=  4294967296 cpu:              18.6 elap:               1.5
 (Enter /home/szhao/Apps/g16/l716.exe)
 Dipole        =-7.27006267D-01-5.94665769D-01 1.52870793D-04
 -------------------------------------------------------------------
 Center     Atomic                   Forces (Hartrees/Bohr)
 Number     Number              X              Y              Z
 -------------------------------------------------------------------
      1        6          -0.000000000   -0.000000000   -0.000000000
      2        7          -0.000000000   -0.000000000   -0.000000000
      3        1           0.001670047   -0.000161650   -0.000007917
      4        1           0.001582629   -0.000948982   -0.000014727
      5        1           0.000482841    0.000379364   -0.000022386
 -------------------------------------------------------------------
 Cartesian Forces:  Max     0.001670047 RMS     0.000663240
 Leave Link  716 at Mon Apr 21 18:13:05 2025, MaxMem=  4294967296 cpu:               1.2 elap:               0.2
 (Enter /home/szhao/Apps/g16/l103.exe)

 GradGradGradGradGradGradGradGradGradGradGradGradGradGradGradGradGradGrad
 Berny optimization.
 Using GEDIIS/GDIIS optimizer.
 FormGI is forming the generalized inverse of G from B-inverse, IUseBI=4.
 Internal  Forces:  Max     0.002404211 RMS     0.001226696
 Search for a local minimum.
 Step number   2 out of a maximum of   25
 All quantities printed in internal units (Hartrees-Bohrs-Radians)
 RMS Force = .12001D-02 SwitMx=.10000D-02 MixMth= 1
 Mixed Optimization -- RFO/linear search
 Update second derivatives using D2CorX and points    1    2
 DE= -5.45D-04 DEPred=-5.90D-04 R= 9.22D-01
 TightC=F SS=  1.41D+00  RLast= 8.43D-02 DXNew= 5.0454D-01 2.5279D-01
 Trust test= 9.22D-01 RLast= 8.43D-02 DXMaxT set to 3.00D-01
 The second derivative matrix:
                          X1        Y1        Z1        X2        Y2
           X1           0.54965
           Y1           0.03853   0.52989
           Z1           0.00030   0.00023   0.50000
           X2          -0.04404  -0.03417  -0.00026   0.53907
           Y2          -0.05113  -0.03967  -0.00031   0.04535   0.55265
           Z2           0.00010   0.00008   0.00000  -0.00009  -0.00011
           R1          -0.01213  -0.00941  -0.00007   0.01076   0.01249
           R2          -0.02115  -0.01641  -0.00013   0.01876   0.02178
           R3          -0.00716  -0.00556  -0.00004   0.00635   0.00738
           A1          -0.00134  -0.00104  -0.00001   0.00119   0.00138
           A2          -0.02486  -0.01929  -0.00015   0.02205   0.02559
           A3           0.02620   0.02033   0.00016  -0.02324  -0.02698
           A4          -0.08651  -0.06712  -0.00052   0.07674   0.08908
           D1           0.00006   0.00005   0.00000  -0.00006  -0.00007
           D2          -0.00036  -0.00028  -0.00000   0.00032   0.00037
                          Z2        R1        R2        R3        A1
           Z2           0.50000
           R1          -0.00002   0.33967
           R2          -0.00004  -0.00249   0.34766
           R3          -0.00001   0.00225   0.00365   0.44151
           A1          -0.00000  -0.00393  -0.00452   0.00053   0.15720
           A2          -0.00005  -0.00277   0.00003   0.00428  -0.00520
           A3           0.00005   0.00670   0.00449  -0.00481   0.00800
           A4          -0.00018  -0.00555   0.00498   0.01457  -0.01539
           D1           0.00000  -0.00002  -0.00003  -0.00001  -0.00001
           D2          -0.00000   0.00005   0.00011   0.00005  -0.00002
                          A2        A3        A4        D1        D2
           A2           0.16026
           A3           0.00494   0.14707
           A4           0.00654   0.00885   0.19971
           D1          -0.00004   0.00005  -0.00014   0.02178
           D2           0.00013  -0.00011   0.00047  -0.00000   0.02178
 ITU=  1  0
 Use linear search instead of GDIIS.
     Eigenvalues ---    0.02178   0.02178   0.13668   0.16000   0.20563
     Eigenvalues ---    0.33943   0.34864   0.442711000.000001000.00000
     Eigenvalues --- 1000.000001000.000001000.000001000.000001000.00000
 RFO step:  Lambda=-5.34243721D-05 EMin= 2.17758639D-02
 Quartic linear search produced a step of -0.07652.
 Iteration  1 RMS(Cart)=  0.00747025 RMS(Int)=  0.00003778
 Iteration  2 RMS(Cart)=  0.00003884 RMS(Int)=  0.00000031
 Iteration  3 RMS(Cart)=  0.00000000 RMS(Int)=  0.00000031
 ITry= 1 IFail=0 DXMaxC= 2.00D-02 DCOld= 1.00D+10 DXMaxT= 3.00D-01 DXLimC= 3.00D+00 Rises=F
 Variable       Old X    -DE/DX   Delta X   Delta X   Delta X     New X
                                 (Linear)    (Quad)   (Total)
    X1       -1.28811   0.00215   0.00000   0.00000   0.00000  -1.28811
    Y1        0.00000  -0.00141   0.00000   0.00000   0.00000   0.00000
    Z1        0.00000  -0.00004   0.00000   0.00000   0.00000   0.00000
    X2        1.28811   0.00158   0.00000   0.00000   0.00000   1.28811
    Y2        0.00000   0.00068   0.00000   0.00000   0.00000   0.00000
    Z2        0.00000  -0.00001   0.00000   0.00000   0.00000   0.00000
    R1        2.06010  -0.00080   0.00061  -0.00314  -0.00253   2.05758
    R2        2.05096   0.00011   0.00072  -0.00086  -0.00014   2.05082
    R3        1.93141   0.00136  -0.00004   0.00292   0.00288   1.93429
    A1        2.16358  -0.00161   0.00087  -0.01074  -0.00987   2.15371
    A2        2.05126   0.00019   0.00180  -0.00188  -0.00008   2.05118
    A3        2.06834   0.00143  -0.00267   0.01262   0.00995   2.07829
    A4        1.86108   0.00240   0.00544   0.00493   0.01037   1.87145
    D1        0.00002  -0.00001   0.00001  -0.00057  -0.00056  -0.00054
    D2        3.14111   0.00004   0.00006   0.00160   0.00165  -3.14042
         Item               Value     Threshold  Converged?
 Maximum Force            0.002404     0.000450     NO 
 RMS     Force            0.001200     0.000300     NO 
 Maximum Displacement     0.020008     0.001800     NO 
 RMS     Displacement     0.007474     0.001200     NO 
 Predicted change in Energy=-3.058523D-05
 Lowest energy point so far.  Saving SCF results.
 GradGradGradGradGradGradGradGradGradGradGradGradGradGradGradGradGradGrad

 Leave Link  103 at Mon Apr 21 18:13:07 2025, MaxMem=  4294967296 cpu:              17.4 elap:               2.1
 (Enter /home/szhao/Apps/g16/l202.exe)
                          Input orientation:                          
 ---------------------------------------------------------------------
 Center     Atomic      Atomic             Coordinates (Angstroms)
 Number     Number       Type             X           Y           Z
 ---------------------------------------------------------------------
      1          6           0       -0.681637    0.000000    0.000000
      2          7           0        0.681637    0.000000    0.000000
      3          1           0       -1.280991   -0.909016   -0.000668
      4          1           0        0.984763   -0.977668   -0.000193
      5          1           0       -1.183152    0.962412   -0.000939
 ---------------------------------------------------------------------
                    Distance matrix (angstroms):
                    1          2          3          4          5
     1  C    0.000000
     2  N    1.363274   0.000000
     3  H    1.088823   2.162919   0.000000
     4  H    1.932026   1.023582   2.266794   0.000000
     5  H    1.085245   2.098494   1.873984   2.909256   0.000000
 Symmetry turned off by external request.
 Stoichiometry    CH3N
 Framework group  C1[X(CH3N)]
 Deg. of freedom     9
 Full point group                 C1      NOp   1
 Rotational constants (GHZ):         191.9395207          31.2158060          26.8492248
 Leave Link  202 at Mon Apr 21 18:13:08 2025, MaxMem=  4294967296 cpu:               1.0 elap:               0.2
 (Enter /home/szhao/Apps/g16/l301.exe)
 Standard basis: 6-311+G(d,p) (5D, 7F)
 Ernie: Thresh=  0.10000D-02 Tol=  0.10000D-05 Strict=F.
    62 basis functions,    96 primitive gaussians,    64 cartesian basis functions
     8 alpha electrons        8 beta electrons
       nuclear repulsion energy        31.5825131932 Hartrees.
 IExCor= 4336 DFT=T Ex+Corr=M062X ExCW=0 ScaHFX=  0.540000
 ScaDFX=  1.000000  1.000000  1.000000  1.000000 ScalE2=  1.000000  1.000000
 IRadAn=      7 IRanWt=     -1 IRanGd=            0 ICorTp=0 IEmpDi=  4
 NAtoms=    5 NActive=    5 NUniq=    5 SFac= 1.00D+00 NAtFMM=   60 NAOKFM=F Big=F
 Integral buffers will be    131072 words long.
 Raffenetti 2 integral format.
 Two-electron integral symmetry is turned off.
 Leave Link  301 at Mon Apr 21 18:13:08 2025, MaxMem=  4294967296 cpu:               1.6 elap:               0.2
 (Enter /home/szhao/Apps/g16/l302.exe)
 NPDir=0 NMtPBC=     1 NCelOv=     1 NCel=       1 NClECP=     1 NCelD=      1
         NCelK=      1 NCelE2=     1 NClLst=     1 CellRange=     0.0.
 One-electron integrals computed using PRISM.
 NBasis=    62 RedAO= T EigKep=  2.61D-03  NBF=    62
 NBsUse=    62 1.00D-06 EigRej= -1.00D+00 NBFU=    62
 Precomputing XC quadrature grid using
 IXCGrd= 4 IRadAn=           7 IRanWt=          -1 IRanGd=           0 AccXCQ= 0.00D+00.
 Generated NRdTot=       0 NPtTot=           0 NUsed=           0 NTot=          32
 NSgBfM=    64    64    64    64    64 MxSgAt=     5 MxSgA2=     5.
 Leave Link  302 at Mon Apr 21 18:13:09 2025, MaxMem=  4294967296 cpu:               8.2 elap:               0.8
 (Enter /home/szhao/Apps/g16/l303.exe)
 DipDrv:  MaxL=1.
 Leave Link  303 at Mon Apr 21 18:13:09 2025, MaxMem=  4294967296 cpu:               2.3 elap:               0.3
 (Enter /home/szhao/Apps/g16/l401.exe)
 Initial guess from the checkpoint file:  "opt.chk"
 B after Tr=     0.002188   -0.000189   -0.000269
         Rot=    0.999999    0.000050    0.000103   -0.001010 Ang=   0.12 deg.
 Guess basis will be translated and rotated to current coordinates.
 JPrj=2 DoOrth=T DoCkMO=T.
 Initial guess <Sx>= 0.0000 <Sy>= 0.0000 <Sz>= 0.0000 <S**2>=-0.0000 S=-0.0000
 Generating alternative initial guess.
 ExpMin= 4.38D-02 ExpMax= 6.29D+03 ExpMxC= 9.49D+02 IAcc=3 IRadAn=         5 AccDes= 0.00D+00
 Harris functional with IExCor= 1009 and IRadAn=       5 diagonalized for initial guess.
 HarFok:  IExCor= 1009 AccDes= 0.00D+00 IRadAn=         5 IDoV= 1 UseB2=F ITyADJ=14
 ICtDFT=  3500011 ScaDFX=  1.000000  1.000000  1.000000  1.000000
 FoFCou: FMM=F IPFlag=           0 FMFlag=      100000 FMFlg1=           0
         NFxFlg=           0 DoJE=T BraDBF=F KetDBF=T FulRan=T
         wScrn=  0.000000 ICntrl=       500 IOpCl=  0 I1Cent=   200000004 NGrid=           0
         NMat0=    1 NMatS0=      1 NMatT0=    0 NMatD0=    1 NMtDS0=    0 NMtDT0=    0
 Symmetry not used in FoFCou.
 Harris En= -94.5539249530056    
 Leave Link  401 at Mon Apr 21 18:13:10 2025, MaxMem=  4294967296 cpu:               9.5 elap:               0.9
 (Enter /home/szhao/Apps/g16/l502.exe)
 Keep R1 and R2 ints in memory in canonical form, NReq=18097897.
 FoFCou: FMM=F IPFlag=           0 FMFlag=           0 FMFlg1=           0
         NFxFlg=           0 DoJE=F BraDBF=F KetDBF=F FulRan=T
         wScrn=  0.000000 ICntrl=       600 IOpCl=  0 I1Cent=           0 NGrid=           0
         NMat0=    1 NMatS0=   1953 NMatT0=    0 NMatD0=    1 NMtDS0=    0 NMtDT0=    0
 Symmetry not used in FoFCou.
 Two-electron integral symmetry not used.
 UHF open shell SCF:
 Using DIIS extrapolation, IDIIS=  1040.
 NGot=  4294967296 LenX=  4291141281 LenY=  4291136744
 Requested convergence on RMS density matrix=1.00D-08 within 128 cycles.
 Requested convergence on MAX density matrix=1.00D-06.
 Requested convergence on             energy=1.00D-06.
 No special actions if energy rises.

 Cycle   1  Pass 1  IDiag  1:
 E= -94.5994622802705    
 DIIS: error= 2.95D-04 at cycle   1 NSaved=   1.
 NSaved= 1 IEnMin= 1 EnMin= -94.5994622802705     IErMin= 1 ErrMin= 2.95D-04
 ErrMax= 2.95D-04  0.00D+00 EMaxC= 1.00D-01 BMatC= 3.40D-05 BMatP= 3.40D-05
 IDIUse=3 WtCom= 9.97D-01 WtEn= 2.95D-03
 Coeff-Com:  0.100D+01
 Coeff-En:   0.100D+01
 Coeff:      0.100D+01
 Gap=     0.593 Goal=   None    Shift=    0.000
 Gap=     0.593 Goal=   None    Shift=    0.000
 RMSDP=5.98D-05 MaxDP=7.43D-04              OVMax= 1.44D-03

 Cycle   2  Pass 1  IDiag  1:
 E= -94.5994714600951     Delta-E=       -0.000009179825 Rises=F Damp=F
 DIIS: error= 2.08D-04 at cycle   2 NSaved=   2.
 NSaved= 2 IEnMin= 2 EnMin= -94.5994714600951     IErMin= 2 ErrMin= 2.08D-04
 ErrMax= 2.08D-04  0.00D+00 EMaxC= 1.00D-01 BMatC= 5.27D-06 BMatP= 3.40D-05
 IDIUse=3 WtCom= 9.98D-01 WtEn= 2.08D-03
 Coeff-Com:  0.124D+00 0.876D+00
 Coeff-En:   0.000D+00 0.100D+01
 Coeff:      0.124D+00 0.876D+00
 Gap=     0.348 Goal=   None    Shift=    0.000
 Gap=     0.348 Goal=   None    Shift=    0.000
 RMSDP=3.05D-05 MaxDP=4.84D-04 DE=-9.18D-06 OVMax= 1.07D-03

 Cycle   3  Pass 1  IDiag  1:
 E= -94.5994709044997     Delta-E=        0.000000555595 Rises=F Damp=F
 DIIS: error= 2.91D-04 at cycle   3 NSaved=   3.
 NSaved= 3 IEnMin= 2 EnMin= -94.5994714600951     IErMin= 2 ErrMin= 2.08D-04
 ErrMax= 2.91D-04  0.00D+00 EMaxC= 1.00D-01 BMatC= 8.29D-06 BMatP= 5.27D-06
 IDIUse=3 WtCom= 3.70D-01 WtEn= 6.30D-01
 Coeff-Com: -0.665D-01 0.586D+00 0.480D+00
 Coeff-En:   0.000D+00 0.583D+00 0.417D+00
 Coeff:     -0.246D-01 0.584D+00 0.441D+00
 Gap=     0.348 Goal=   None    Shift=    0.000
 Gap=     0.348 Goal=   None    Shift=    0.000
 RMSDP=1.31D-05 MaxDP=2.00D-04 DE= 5.56D-07 OVMax= 6.36D-04

 Cycle   4  Pass 1  IDiag  1:
 E= -94.5994727200969     Delta-E=       -0.000001815597 Rises=F Damp=F
 DIIS: error= 6.73D-06 at cycle   4 NSaved=   4.
 NSaved= 4 IEnMin= 4 EnMin= -94.5994727200969     IErMin= 4 ErrMin= 6.73D-06
 ErrMax= 6.73D-06  0.00D+00 EMaxC= 1.00D-01 BMatC= 1.07D-08 BMatP= 5.27D-06
 IDIUse=1 WtCom= 1.00D+00 WtEn= 0.00D+00
 Coeff-Com: -0.869D-02-0.169D-01-0.352D-02 0.103D+01
 Coeff:     -0.869D-02-0.169D-01-0.352D-02 0.103D+01
 Gap=     0.348 Goal=   None    Shift=    0.000
 Gap=     0.348 Goal=   None    Shift=    0.000
 RMSDP=2.35D-06 MaxDP=2.58D-05 DE=-1.82D-06 OVMax= 4.56D-05

 Cycle   5  Pass 1  IDiag  1:
 E= -94.5994727253039     Delta-E=       -0.000000005207 Rises=F Damp=F
 DIIS: error= 2.62D-06 at cycle   5 NSaved=   5.
 NSaved= 5 IEnMin= 5 EnMin= -94.5994727253039     IErMin= 5 ErrMin= 2.62D-06
 ErrMax= 2.62D-06  0.00D+00 EMaxC= 1.00D-01 BMatC= 1.71D-09 BMatP= 1.07D-08
 IDIUse=1 WtCom= 1.00D+00 WtEn= 0.00D+00
 Coeff-Com:  0.602D-03-0.329D-01-0.214D-01 0.289D+00 0.764D+00
 Coeff:      0.602D-03-0.329D-01-0.214D-01 0.289D+00 0.764D+00
 Gap=     0.348 Goal=   None    Shift=    0.000
 Gap=     0.348 Goal=   None    Shift=    0.000
 RMSDP=5.19D-07 MaxDP=6.97D-06 DE=-5.21D-09 OVMax= 7.88D-06

 Cycle   6  Pass 1  IDiag  1:
 E= -94.5994727257578     Delta-E=       -0.000000000454 Rises=F Damp=F
 DIIS: error= 8.25D-07 at cycle   6 NSaved=   6.
 NSaved= 6 IEnMin= 6 EnMin= -94.5994727257578     IErMin= 6 ErrMin= 8.25D-07
 ErrMax= 8.25D-07  0.00D+00 EMaxC= 1.00D-01 BMatC= 1.45D-10 BMatP= 1.71D-09
 IDIUse=1 WtCom= 1.00D+00 WtEn= 0.00D+00
 Coeff-Com:  0.816D-03-0.722D-02-0.408D-02-0.147D-01 0.214D+00 0.811D+00
 Coeff:      0.816D-03-0.722D-02-0.408D-02-0.147D-01 0.214D+00 0.811D+00
 Gap=     0.348 Goal=   None    Shift=    0.000
 Gap=     0.348 Goal=   None    Shift=    0.000
 RMSDP=1.41D-07 MaxDP=1.73D-06 DE=-4.54D-10 OVMax= 2.22D-06

 Cycle   7  Pass 1  IDiag  1:
 E= -94.5994727257962     Delta-E=       -0.000000000038 Rises=F Damp=F
 DIIS: error= 1.09D-07 at cycle   7 NSaved=   7.
 NSaved= 7 IEnMin= 7 EnMin= -94.5994727257962     IErMin= 7 ErrMin= 1.09D-07
 ErrMax= 1.09D-07  0.00D+00 EMaxC= 1.00D-01 BMatC= 1.95D-12 BMatP= 1.45D-10
 IDIUse=1 WtCom= 1.00D+00 WtEn= 0.00D+00
 Coeff-Com:  0.365D-05 0.718D-03 0.821D-03-0.906D-02-0.858D-02 0.202D-01
 Coeff-Com:  0.996D+00
 Coeff:      0.365D-05 0.718D-03 0.821D-03-0.906D-02-0.858D-02 0.202D-01
 Coeff:      0.996D+00
 Gap=     0.348 Goal=   None    Shift=    0.000
 Gap=     0.348 Goal=   None    Shift=    0.000
 RMSDP=1.94D-08 MaxDP=2.44D-07 DE=-3.83D-11 OVMax= 3.03D-07

 Cycle   8  Pass 1  IDiag  1:
 E= -94.5994727257970     Delta-E=       -0.000000000001 Rises=F Damp=F
 DIIS: error= 3.47D-08 at cycle   8 NSaved=   8.
 NSaved= 8 IEnMin= 8 EnMin= -94.5994727257970     IErMin= 8 ErrMin= 3.47D-08
 ErrMax= 3.47D-08  0.00D+00 EMaxC= 1.00D-01 BMatC= 1.93D-13 BMatP= 1.95D-12
 IDIUse=1 WtCom= 1.00D+00 WtEn= 0.00D+00
 Coeff-Com: -0.372D-04 0.415D-03 0.389D-03-0.965D-03-0.103D-01-0.345D-01
 Coeff-Com:  0.912D-01 0.954D+00
 Coeff:     -0.372D-04 0.415D-03 0.389D-03-0.965D-03-0.103D-01-0.345D-01
 Coeff:      0.912D-01 0.954D+00
 Gap=     0.348 Goal=   None    Shift=    0.000
 Gap=     0.348 Goal=   None    Shift=    0.000
 RMSDP=4.91D-09 MaxDP=5.69D-08 DE=-8.24D-13 OVMax= 1.20D-07

 SCF Done:  E(UM062X) =  -94.5994727258     A.U. after    8 cycles
            NFock=  8  Conv=0.49D-08     -V/T= 2.0065
 <Sx>= 0.0000 <Sy>= 0.0000 <Sz>= 0.0000 <S**2>=-0.0000 S=-0.0000
 <L.S>=  0.00000000000    
 KE= 9.399240758475D+01 PE=-2.833199706061D+02 EE= 6.314557710228D+01
 Annihilation of the first spin contaminant:
 S**2 before annihilation    -0.0000,   after     0.0000
 Leave Link  502 at Mon Apr 21 18:13:17 2025, MaxMem=  4294967296 cpu:              77.0 elap:               6.1
 (Enter /home/szhao/Apps/g16/l701.exe)
 ... and contract with generalized density number  0.
 Compute integral first derivatives.
 Leave Link  701 at Mon Apr 21 18:13:17 2025, MaxMem=  4294967296 cpu:               4.8 elap:               0.5
 (Enter /home/szhao/Apps/g16/l702.exe)
 L702 exits ... SP integral derivatives will be done elsewhere.
 Leave Link  702 at Mon Apr 21 18:13:18 2025, MaxMem=  4294967296 cpu:               1.4 elap:               0.2
 (Enter /home/szhao/Apps/g16/l703.exe)
 Integral derivatives from FoFJK, PRISM(SPDF).
 Compute integral first derivatives, UseDBF=F ICtDFT=           0.
 Calling FoFJK, ICntrl=      2127 FMM=F ISym2X=0 I1Cent= 0 IOpClX= 1 NMat=1 NMatS=1 NMatT=0.
 FoFJK:  IHMeth= 1 ICntrl=    2127 DoSepK=F KAlg= 0 I1Cent=           0 FoldK=F
 IRaf=         0 NMat=       1 IRICut=       1 DoRegI=T DoRafI=F ISym2E= 0 IDoP0=0 IntGTp=1.
 FoFCou: FMM=F IPFlag=           0 FMFlag=      100000 FMFlg1=         800
         NFxFlg=           0 DoJE=F BraDBF=F KetDBF=F FulRan=T
         wScrn=  0.000000 ICntrl=      2127 IOpCl=  1 I1Cent=           0 NGrid=           0
         NMat0=    1 NMatS0=      1 NMatT0=    0 NMatD0=    1 NMtDS0=    0 NMtDT0=    0
 Symmetry not used in FoFCou.
 Leave Link  703 at Mon Apr 21 18:13:19 2025, MaxMem=  4294967296 cpu:              18.2 elap:               1.6
 (Enter /home/szhao/Apps/g16/l716.exe)
 Dipole        =-7.22491657D-01-5.95732280D-01-5.44116006D-04
 -------------------------------------------------------------------
 Center     Atomic                   Forces (Hartrees/Bohr)
 Number     Number              X              Y              Z
 -------------------------------------------------------------------
      1        6          -0.000000000   -0.000000000   -0.000000000
      2        7          -0.000000000   -0.000000000   -0.000000000
      3        1           0.000231036   -0.000177752    0.000037765
      4        1           0.000095488    0.000160918    0.000025144
      5        1           0.000279198    0.000101235    0.000061243
 -------------------------------------------------------------------
 Cartesian Forces:  Max     0.000279198 RMS     0.000119442
 Leave Link  716 at Mon Apr 21 18:13:20 2025, MaxMem=  4294967296 cpu:               1.1 elap:               0.2
 (Enter /home/szhao/Apps/g16/l103.exe)

 GradGradGradGradGradGradGradGradGradGradGradGradGradGradGradGradGradGrad
 Berny optimization.
 Using GEDIIS/GDIIS optimizer.
 FormGI is forming the generalized inverse of G from B-inverse, IUseBI=4.
 Internal  Forces:  Max     0.000510234 RMS     0.000221389
 Search for a local minimum.
 Step number   3 out of a maximum of   25
 All quantities printed in internal units (Hartrees-Bohrs-Radians)
 RMS Force = .19638D-03 SwitMx=.10000D-02 MixMth= 2
 Mixed Optimization -- En-DIIS/RFO-DIIS
 Update second derivatives using D2CorX and points    1    2    3
 DE= -3.45D-05 DEPred=-3.06D-05 R= 1.13D+00
 TightC=F SS=  1.41D+00  RLast= 1.79D-02 DXNew= 5.0454D-01 5.3799D-02
 Trust test= 1.13D+00 RLast= 1.79D-02 DXMaxT set to 3.00D-01
 The second derivative matrix:
                          X1        Y1        Z1        X2        Y2
           X1           0.62589
           Y1          -0.00045   0.54809
           Z1          -0.00631   0.00348   0.50056
           X2           0.00340  -0.05640  -0.00423   0.56622
           Y2          -0.04708  -0.04028  -0.00055   0.04616   0.55164
           Z2           0.00019   0.00003  -0.00001  -0.00003  -0.00010
           R1          -0.05302   0.00521   0.00302  -0.00732   0.01561
           R2          -0.02126  -0.01673  -0.00014   0.01913   0.02208
           R3           0.05714  -0.02921  -0.00495   0.03556   0.00303
           A1          -0.06716   0.02135   0.00488  -0.02656   0.00736
           A2          -0.01640  -0.02359  -0.00088   0.02729   0.02603
           A3           0.08355   0.00225  -0.00400  -0.00073  -0.03339
           A4          -0.01593  -0.09154  -0.00579   0.10698   0.08300
           D1          -0.00302   0.00150   0.00026  -0.00183  -0.00012
           D2           0.00569  -0.00303  -0.00050   0.00369   0.00040
                          Z2        R1        R2        R3        A1
           Z2           0.50000
           R1          -0.00008   0.34260
           R2          -0.00004  -0.00315   0.34768
           R3           0.00007  -0.00387   0.00469   0.45349
           A1          -0.00009  -0.00293  -0.00575  -0.00384   0.15215
           A2          -0.00004  -0.00670   0.00011   0.01060  -0.01146
           A3           0.00013   0.00963   0.00564  -0.00676   0.01931
           A4          -0.00009  -0.00626   0.00651   0.01895  -0.00945
           D1          -0.00000   0.00121  -0.00005  -0.00198   0.00189
           D2           0.00001  -0.00212   0.00015   0.00356  -0.00329
                          A2        A3        A4        D1        D2
           A2           0.16127
           A3           0.01019   0.13050
           A4           0.01350  -0.00406   0.19354
           D1          -0.00037  -0.00151  -0.00218   0.02189
           D2           0.00077   0.00252   0.00399  -0.00022   0.02220
 ITU=  1  1  0
 Use linear search instead of GDIIS.
     Eigenvalues ---    0.02177   0.02192   0.11380   0.16077   0.19971
     Eigenvalues ---    0.34195   0.34935   0.456061000.000001000.00000
     Eigenvalues --- 1000.000001000.000001000.000001000.000001000.00000
 RFO step:  Lambda=-2.34774800D-06 EMin= 2.17734766D-02
 Quartic linear search produced a step of  0.15356.
 Iteration  1 RMS(Cart)=  0.00348104 RMS(Int)=  0.00001081
 Iteration  2 RMS(Cart)=  0.00001007 RMS(Int)=  0.00000556
 Iteration  3 RMS(Cart)=  0.00000000 RMS(Int)=  0.00000556
 ITry= 1 IFail=0 DXMaxC= 9.61D-03 DCOld= 1.00D+10 DXMaxT= 3.00D-01 DXLimC= 3.00D+00 Rises=F
 Variable       Old X    -DE/DX   Delta X   Delta X   Delta X     New X
                                 (Linear)    (Quad)   (Total)
    X1       -1.28811   0.00051   0.00000   0.00000   0.00000  -1.28811
    Y1        0.00000  -0.00018   0.00000   0.00000   0.00000   0.00000
    Z1        0.00000   0.00013   0.00000   0.00000   0.00000   0.00000
    X2        1.28811   0.00010   0.00000   0.00000   0.00000   1.28811
    Y2        0.00000   0.00026   0.00000   0.00000   0.00000   0.00000
    Z2        0.00000  -0.00001   0.00000   0.00000   0.00000   0.00000
    R1        2.05758   0.00002  -0.00039   0.00027  -0.00012   2.05746
    R2        2.05082  -0.00004  -0.00002  -0.00021  -0.00023   2.05058
    R3        1.93429  -0.00013   0.00044  -0.00065  -0.00020   1.93409
    A1        2.15371  -0.00020  -0.00152  -0.00047  -0.00199   2.15172
    A2        2.05118  -0.00020  -0.00001  -0.00171  -0.00174   2.04944
    A3        2.07829   0.00040   0.00153   0.00219   0.00371   2.08200
    A4        1.87145   0.00027   0.00159   0.00008   0.00168   1.87312
    D1       -0.00054   0.00006  -0.00009   0.00352   0.00344   0.00290
    D2       -3.14042  -0.00011   0.00025  -0.00615  -0.00589   3.13687
         Item               Value     Threshold  Converged?
 Maximum Force            0.000401     0.000450     YES
 RMS     Force            0.000196     0.000300     YES
 Maximum Displacement     0.009609     0.001800     NO 
 RMS     Displacement     0.003486     0.001200     NO 
 Predicted change in Energy=-1.794015D-06
 Lowest energy point so far.  Saving SCF results.
 GradGradGradGradGradGradGradGradGradGradGradGradGradGradGradGradGradGrad

 Leave Link  103 at Mon Apr 21 18:13:21 2025, MaxMem=  4294967296 cpu:              13.6 elap:               1.3
 (Enter /home/szhao/Apps/g16/l202.exe)
                          Input orientation:                          
 ---------------------------------------------------------------------
 Center     Atomic      Atomic             Coordinates (Angstroms)
 Number     Number       Type             X           Y           Z
 ---------------------------------------------------------------------
      1          6           0       -0.681637    0.000000    0.000000
      2          7           0        0.681637    0.000000    0.000000
      3          1           0       -1.279143   -0.910153    0.003020
      4          1           0        0.986370   -0.977055    0.000407
      5          1           0       -1.181422    0.963165    0.004146
 ---------------------------------------------------------------------
                    Distance matrix (angstroms):
                    1          2          3          4          5
     1  C    0.000000
     2  N    1.363274   0.000000
     3  H    1.088761   2.161723   0.000000
     4  H    1.933102   1.023474   2.266502   0.000000
     5  H    1.085122   2.097306   1.875866   2.909260   0.000000
 Symmetry turned off by external request.
 Stoichiometry    CH3N
 Framework group  C1[X(CH3N)]
 Deg. of freedom     9
 Full point group                 C1      NOp   1
 Rotational constants (GHZ):         191.7721764          31.2265242          26.8539293
 Leave Link  202 at Mon Apr 21 18:13:21 2025, MaxMem=  4294967296 cpu:               0.7 elap:               0.1
 (Enter /home/szhao/Apps/g16/l301.exe)
 Standard basis: 6-311+G(d,p) (5D, 7F)
 Ernie: Thresh=  0.10000D-02 Tol=  0.10000D-05 Strict=F.
    62 basis functions,    96 primitive gaussians,    64 cartesian basis functions
     8 alpha electrons        8 beta electrons
       nuclear repulsion energy        31.5841713215 Hartrees.
 IExCor= 4336 DFT=T Ex+Corr=M062X ExCW=0 ScaHFX=  0.540000
 ScaDFX=  1.000000  1.000000  1.000000  1.000000 ScalE2=  1.000000  1.000000
 IRadAn=      7 IRanWt=     -1 IRanGd=            0 ICorTp=0 IEmpDi=  4
 NAtoms=    5 NActive=    5 NUniq=    5 SFac= 1.00D+00 NAtFMM=   60 NAOKFM=F Big=F
 Integral buffers will be    131072 words long.
 Raffenetti 2 integral format.
 Two-electron integral symmetry is turned off.
 Leave Link  301 at Mon Apr 21 18:13:21 2025, MaxMem=  4294967296 cpu:               1.6 elap:               0.2
 (Enter /home/szhao/Apps/g16/l302.exe)
 NPDir=0 NMtPBC=     1 NCelOv=     1 NCel=       1 NClECP=     1 NCelD=      1
         NCelK=      1 NCelE2=     1 NClLst=     1 CellRange=     0.0.
 One-electron integrals computed using PRISM.
 NBasis=    62 RedAO= T EigKep=  2.61D-03  NBF=    62
 NBsUse=    62 1.00D-06 EigRej= -1.00D+00 NBFU=    62
 Precomputing XC quadrature grid using
 IXCGrd= 4 IRadAn=           7 IRanWt=          -1 IRanGd=           0 AccXCQ= 0.00D+00.
 Generated NRdTot=       0 NPtTot=           0 NUsed=           0 NTot=          32
 NSgBfM=    64    64    64    64    64 MxSgAt=     5 MxSgA2=     5.
 Leave Link  302 at Mon Apr 21 18:13:22 2025, MaxMem=  4294967296 cpu:               4.1 elap:               0.4
 (Enter /home/szhao/Apps/g16/l303.exe)
 DipDrv:  MaxL=1.
 Leave Link  303 at Mon Apr 21 18:13:22 2025, MaxMem=  4294967296 cpu:               2.2 elap:               0.2
 (Enter /home/szhao/Apps/g16/l401.exe)
 Initial guess from the checkpoint file:  "opt.chk"
 B after Tr=     0.000591    0.000045    0.001041
         Rot=    1.000000   -0.000106   -0.000473   -0.000097 Ang=  -0.06 deg.
 Guess basis will be translated and rotated to current coordinates.
 JPrj=2 DoOrth=T DoCkMO=T.
 Initial guess <Sx>= 0.0000 <Sy>= 0.0000 <Sz>= 0.0000 <S**2>= 0.0000 S= 0.0000
 Leave Link  401 at Mon Apr 21 18:13:23 2025, MaxMem=  4294967296 cpu:               6.2 elap:               0.6
 (Enter /home/szhao/Apps/g16/l502.exe)
 Keep R1 and R2 ints in memory in canonical form, NReq=18097897.
 FoFCou: FMM=F IPFlag=           0 FMFlag=           0 FMFlg1=           0
         NFxFlg=           0 DoJE=F BraDBF=F KetDBF=F FulRan=T
         wScrn=  0.000000 ICntrl=       600 IOpCl=  0 I1Cent=           0 NGrid=           0
         NMat0=    1 NMatS0=   1953 NMatT0=    0 NMatD0=    1 NMtDS0=    0 NMtDT0=    0
 Symmetry not used in FoFCou.
 Two-electron integral symmetry not used.
 UHF open shell SCF:
 Using DIIS extrapolation, IDIIS=  1040.
 NGot=  4294967296 LenX=  4291141281 LenY=  4291136744
 Requested convergence on RMS density matrix=1.00D-08 within 128 cycles.
 Requested convergence on MAX density matrix=1.00D-06.
 Requested convergence on             energy=1.00D-06.
 No special actions if energy rises.

 Cycle   1  Pass 1  IDiag  1:
 E= -94.5994703353438    
 DIIS: error= 1.85D-04 at cycle   1 NSaved=   1.
 NSaved= 1 IEnMin= 1 EnMin= -94.5994703353438     IErMin= 1 ErrMin= 1.85D-04
 ErrMax= 1.85D-04  0.00D+00 EMaxC= 1.00D-01 BMatC= 6.33D-06 BMatP= 6.33D-06
 IDIUse=3 WtCom= 9.98D-01 WtEn= 1.85D-03
 Coeff-Com:  0.100D+01
 Coeff-En:   0.100D+01
 Coeff:      0.100D+01
 Gap=     0.593 Goal=   None    Shift=    0.000
 Gap=     0.593 Goal=   None    Shift=    0.000
 RMSDP=2.06D-05 MaxDP=2.05D-04              OVMax= 5.77D-04

 Cycle   2  Pass 1  IDiag  1:
 E= -94.5994724766710     Delta-E=       -0.000002141327 Rises=F Damp=F
 DIIS: error= 4.02D-05 at cycle   2 NSaved=   2.
 NSaved= 2 IEnMin= 2 EnMin= -94.5994724766710     IErMin= 2 ErrMin= 4.02D-05
 ErrMax= 4.02D-05  0.00D+00 EMaxC= 1.00D-01 BMatC= 2.97D-07 BMatP= 6.33D-06
 IDIUse=1 WtCom= 1.00D+00 WtEn= 0.00D+00
 Coeff-Com: -0.555D-01 0.106D+01
 Coeff:     -0.555D-01 0.106D+01
 Gap=     0.348 Goal=   None    Shift=    0.000
[...]
 FoFCou: FMM=F IPFlag=           0 FMFlag=      100000 FMFlg1=         800
         NFxFlg=           0 DoJE=F BraDBF=F KetDBF=F FulRan=T
         wScrn=  0.000000 ICntrl=      2127 IOpCl=  1 I1Cent=           0 NGrid=           0
         NMat0=    1 NMatS0=      1 NMatT0=    0 NMatD0=    1 NMtDS0=    0 NMtDT0=    0
 Symmetry not used in FoFCou.
 Leave Link  703 at Mon Apr 21 18:13:54 2025, MaxMem=  4294967296 cpu:              21.7 elap:               1.8
 (Enter /home/szhao/Apps/g16/l716.exe)
 Dipole        =-7.21617242D-01-5.95832853D-01-4.70214685D-05
 -------------------------------------------------------------------
 Center     Atomic                   Forces (Hartrees/Bohr)
 Number     Number              X              Y              Z
 -------------------------------------------------------------------
      1        6          -0.000000000   -0.000000000   -0.000000000
      2        7          -0.000000000   -0.000000000   -0.000000000
      3        1           0.000008024    0.000003368   -0.000002776
      4        1           0.000003409   -0.000004134    0.000006848
      5        1           0.000003982    0.000002029    0.000004317
 -------------------------------------------------------------------
 Cartesian Forces:  Max     0.000008024 RMS     0.000003630
 Leave Link  716 at Mon Apr 21 18:13:54 2025, MaxMem=  4294967296 cpu:               1.7 elap:               0.2
 (Enter /home/szhao/Apps/g16/l103.exe)

 GradGradGradGradGradGradGradGradGradGradGradGradGradGradGradGradGradGrad
 Berny optimization.
 Using GEDIIS/GDIIS optimizer.
 FormGI is forming the generalized inverse of G from B-inverse, IUseBI=4.
 Internal  Forces:  Max     0.000012006 RMS     0.000005634
 Search for a local minimum.
 Step number   6 out of a maximum of   25
 All quantities printed in internal units (Hartrees-Bohrs-Radians)
 RMS Force = .51448D-05 SwitMx=.10000D-02 MixMth= 2
 Mixed Optimization -- En-DIIS/RFO-DIIS
 Swapping is turned off.
 Update second derivatives using D2CorX and points    1    2    3    4    5
                                                      6
 DE= -1.76D-06 DEPred=-1.83D-06 R= 9.62D-01
 TightC=F SS=  1.41D+00  RLast= 5.67D-03 DXNew= 1.2613D-01 1.7015D-02
 Trust test= 9.62D-01 RLast= 5.67D-03 DXMaxT set to 7.50D-02
 The second derivative matrix:
                          X1        Y1        Z1        X2        Y2
           X1           0.67358
           Y1          -0.01088   0.54969
           Z1          -0.00480  -0.00051   0.61737
           X2          -0.00448  -0.05045  -0.00072   0.55638
           Y2          -0.02510  -0.04863   0.00488   0.04548   0.56872
           Z2           0.00584  -0.00198  -0.01650   0.00115   0.00147
           R1          -0.05648   0.00400   0.00563  -0.01225   0.03206
           R2          -0.02803  -0.01348   0.00063   0.01748   0.01797
           R3           0.05645  -0.02280  -0.00725   0.04328  -0.03560
           A1          -0.07520   0.02688   0.00292  -0.02713   0.00034
           A2          -0.02507  -0.01470  -0.00188   0.03060  -0.00512
           A3           0.10006  -0.01207  -0.00149  -0.00354   0.00479
           A4          -0.03177  -0.09125   0.00222   0.09475   0.10525
           D1          -0.00196   0.00082   0.06204  -0.00043  -0.00024
           D2          -0.00193   0.00102  -0.08955   0.00016  -0.00239
                          Z2        R1        R2        R3        A1
           Z2           0.50263
           R1          -0.00009   0.34260
           R2          -0.00060  -0.00297   0.34767
           R3          -0.00066  -0.00217   0.00392   0.44508
           A1          -0.00260  -0.00344  -0.00530  -0.00276   0.15315
           A2          -0.00189  -0.00493  -0.00042   0.00303  -0.01023
           A3           0.00450   0.00847   0.00574  -0.00039   0.01719
           A4           0.00240  -0.00603   0.00629   0.02036  -0.00986
           D1          -0.00910  -0.00021   0.00026   0.00079   0.00101
           D2           0.01233  -0.00009   0.00016   0.00009   0.00086
                          A2        A3        A4        D1        D2
           A2           0.15483
           A3           0.01540   0.12731
           A4           0.01501  -0.00519   0.19169
           D1           0.00101  -0.00202  -0.00120   0.04849
           D2           0.00055  -0.00135  -0.00073  -0.03735   0.07513
 ITU=  1 -1 -1  1  1  0
     Eigenvalues ---    0.02204   0.10147   0.11001   0.15557   0.19855
     Eigenvalues ---    0.34195   0.34927   0.447101000.000001000.00000
     Eigenvalues --- 1000.000001000.000001000.000001000.000001000.00000
 En-DIIS/RFO-DIIS/Sim-DIIS IScMMF=       -3 using points:     6    5    4    3
 RFO step:  Lambda=-2.19184721D-09.
 NNeg= 0 NGDIIS= 4 SimSw=  2.50D-03 Rises=F DC= -1.76D-06 SmlDif=  1.00D-05
 NRisDI= 0 DoIntr=F SqrtH=F CThrHd= 10.0 CDAdj=  3.0
 RMS Error=  0.9809951198D-04 NUsed= 4 OKEnD=F EnDIS=F
 InvSVX:  RCond= 2.18D-06 Info=           0 Equed=N FErr=  1.39D-14 BErr=  3.07D-17
 DidBck=F Rises=F RFO-DIIS coefs:    0.61445    0.14126    0.12475    0.11954
 Iteration  1 RMS(Cart)=  0.00006898 RMS(Int)=  0.00000071
 Iteration  2 RMS(Cart)=  0.00000000 RMS(Int)=  0.00000071
 ITry= 1 IFail=0 DXMaxC= 1.48D-04 DCOld= 1.00D+10 DXMaxT= 7.50D-02 DXLimC= 3.00D+00 Rises=F
 Variable       Old X    -DE/DX   Delta X   Delta X   Delta X     New X
                                 (Linear)    (Quad)   (Total)
    X1       -1.28811   0.00001   0.00000   0.00000   0.00000  -1.28811
    Y1        0.00000   0.00000   0.00000   0.00000   0.00000   0.00000
    Z1        0.00000   0.00000   0.00000   0.00000   0.00000   0.00000
    X2        1.28811   0.00000   0.00000   0.00000   0.00000   1.28811
    Y2        0.00000  -0.00000   0.00000   0.00000   0.00000   0.00000
    Z2        0.00000   0.00001   0.00000   0.00000   0.00000   0.00000
    R1        2.05753  -0.00001  -0.00004   0.00002  -0.00002   2.05751
    R2        2.05059  -0.00000  -0.00000   0.00000  -0.00000   2.05059
    R3        1.93393   0.00000   0.00007  -0.00006   0.00001   1.93394
    A1        2.15202  -0.00000  -0.00013   0.00009  -0.00003   2.15199
    A2        2.04925  -0.00000   0.00008  -0.00010  -0.00002   2.04923
    A3        2.08191   0.00001   0.00005   0.00001   0.00006   2.08197
    A4        1.87302   0.00000   0.00004  -0.00002   0.00002   1.87304
    D1        0.00012  -0.00000  -0.00008  -0.00008  -0.00016  -0.00004
    D2       -3.14146  -0.00001  -0.00011  -0.00005  -0.00016   3.14156
         Item               Value     Threshold  Converged?
 Maximum Force            0.000008     0.000450     YES
 RMS     Force            0.000005     0.000300     YES
 Maximum Displacement     0.000148     0.001800     YES
 RMS     Displacement     0.000069     0.001200     YES
 Predicted change in Energy=-1.781655D-09
 Optimization completed.
    -- Stationary point found.
                           ----------------------------
                           !   Optimized Parameters   !
                           ! (Angstroms and Degrees)  !
 --------------------------                            --------------------------
 ! Name  Definition              Value          Derivative Info.                !
 --------------------------------------------------------------------------------
 ! X1    R(1,-1)                -0.6816         -DE/DX =    0.0                 !
 ! Y1    R(1,-2)                 0.0            -DE/DX =    0.0                 !
 ! Z1    R(1,-3)                 0.0            -DE/DX =    0.0                 !
 ! X2    R(2,-1)                 0.6816         -DE/DX =    0.0                 !
 ! Y2    R(2,-2)                 0.0            -DE/DX =    0.0                 !
 ! Z2    R(2,-3)                 0.0            -DE/DX =    0.0                 !
 ! R1    R(1,3)                  1.0888         -DE/DX =    0.0                 !
 ! R2    R(1,5)                  1.0851         -DE/DX =    0.0                 !
 ! R3    R(2,4)                  1.0234         -DE/DX =    0.0                 !
 ! A1    A(2,1,3)              123.3018         -DE/DX =    0.0                 !
 ! A2    A(2,1,5)              117.4132         -DE/DX =    0.0                 !
 ! A3    A(3,1,5)              119.2849         -DE/DX =    0.0                 !
 ! A4    A(1,2,4)              107.3163         -DE/DX =    0.0                 !
 ! D1    D(3,1,2,4)              0.0071         -DE/DX =    0.0                 !
 ! D2    D(5,1,2,4)            180.0075         -DE/DX =    0.0                 !
 --------------------------------------------------------------------------------
 Lowest energy point so far.  Saving SCF results.
 Largest change from initial coordinates is atom    4       0.028 Angstoms.
 GradGradGradGradGradGradGradGradGradGradGradGradGradGradGradGradGradGrad

 Leave Link  103 at Mon Apr 21 18:13:55 2025, MaxMem=  4294967296 cpu:               2.6 elap:               0.3
 (Enter /home/szhao/Apps/g16/l202.exe)
                          Input orientation:                          
 ---------------------------------------------------------------------
 Center     Atomic      Atomic             Coordinates (Angstroms)
 Number     Number       Type             X           Y           Z
 ---------------------------------------------------------------------
      1          6           0       -0.681637    0.000000    0.000000
      2          7           0        0.681637    0.000000    0.000000
      3          1           0       -1.279442   -0.910008    0.000020
      4          1           0        0.986246   -0.977009   -0.000099
      5          1           0       -1.181234    0.963276   -0.000029
 ---------------------------------------------------------------------
                    Distance matrix (angstroms):
                    1          2          3          4          5
     1  C    0.000000
     2  N    1.363274   0.000000
     3  H    1.088801   2.161932   0.000000
     4  H    1.932972   1.023393   2.266679   0.000000
     5  H    1.085126   2.097187   1.875857   2.909068   0.000000
 Symmetry turned off by external request.
 Stoichiometry    CH3N
 Framework group  C1[X(CH3N)]
 Deg. of freedom     9
 Full point group                 C1      NOp   1
 Rotational constants (GHZ):         191.7793357          31.2265062          26.8539988
 Leave Link  202 at Mon Apr 21 18:13:55 2025, MaxMem=  4294967296 cpu:               0.4 elap:               0.1
 (Enter /home/szhao/Apps/g16/l601.exe)
 Copying SCF densities to generalized density rwf, IOpCl= 1 IROHF=0.

 **********************************************************************

            Population analysis using the SCF density.

 **********************************************************************

 Alpha  occ. eigenvalues --  -14.76421 -10.60410  -0.98747  -0.72027  -0.56827
 Alpha  occ. eigenvalues --   -0.49565  -0.38079  -0.35642
 Alpha virt. eigenvalues --   -0.00887   0.01806   0.03682   0.04981   0.07490
 Alpha virt. eigenvalues --    0.13013   0.16183   0.16455   0.18257   0.21269
 Alpha virt. eigenvalues --    0.24813   0.25860   0.33057   0.47536   0.48862
 Alpha virt. eigenvalues --    0.56887   0.57608   0.64718   0.69966   0.80765
 Alpha virt. eigenvalues --    0.84101   0.87864   0.87932   1.07224   1.18563
 Alpha virt. eigenvalues --    1.23293   1.38871   1.43554   1.45528   1.49731
 Alpha virt. eigenvalues --    1.70468   1.75819   1.75976   1.93384   1.99043
 Alpha virt. eigenvalues --    2.14094   2.34615   2.39661   2.46274   2.46852
 Alpha virt. eigenvalues --    2.48966   2.60477   2.67116   2.73530   2.84006
 Alpha virt. eigenvalues --    2.91258   3.14552   3.55158   3.74902   3.92166
 Alpha virt. eigenvalues --    4.36568   4.83496  23.91174  35.59361
  Beta  occ. eigenvalues --  -14.76421 -10.60410  -0.98747  -0.72027  -0.56827
  Beta  occ. eigenvalues --   -0.49565  -0.38079  -0.35642
  Beta virt. eigenvalues --   -0.00887   0.01806   0.03682   0.04981   0.07490
  Beta virt. eigenvalues --    0.13013   0.16183   0.16455   0.18257   0.21269
  Beta virt. eigenvalues --    0.24813   0.25860   0.33057   0.47536   0.48862
  Beta virt. eigenvalues --    0.56887   0.57608   0.64718   0.69966   0.80765
  Beta virt. eigenvalues --    0.84101   0.87864   0.87932   1.07224   1.18563
  Beta virt. eigenvalues --    1.23293   1.38871   1.43554   1.45528   1.49731
  Beta virt. eigenvalues --    1.70468   1.75819   1.75976   1.93384   1.99043
  Beta virt. eigenvalues --    2.14094   2.34615   2.39661   2.46274   2.46852
  Beta virt. eigenvalues --    2.48966   2.60477   2.67116   2.73530   2.84006
  Beta virt. eigenvalues --    2.91258   3.14552   3.55158   3.74902   3.92166
  Beta virt. eigenvalues --    4.36568   4.83496  23.91174  35.59361
          Condensed to atoms (all electrons):
               1          2          3          4          5
     1  C    5.027891   0.423280   0.367453  -0.004903   0.414847
     2  N    0.423280   6.699365  -0.010436   0.246181  -0.079907
     3  H    0.367453  -0.010436   0.581378  -0.027070  -0.055999
     4  H   -0.004903   0.246181  -0.027070   0.573467   0.014433
     5  H    0.414847  -0.079907  -0.055999   0.014433   0.542145
          Atomic-Atomic Spin Densities.
               1          2          3          4          5
     1  C   -0.000000   0.000000  -0.000000  -0.000000   0.000000
     2  N    0.000000   0.000000   0.000000  -0.000000  -0.000000
     3  H   -0.000000   0.000000   0.000000  -0.000000  -0.000000
     4  H   -0.000000  -0.000000  -0.000000  -0.000000   0.000000
     5  H    0.000000  -0.000000  -0.000000   0.000000   0.000000
 Mulliken charges and spin densities:
               1          2
     1  C   -0.228567  -0.000000
     2  N   -0.278483   0.000000
     3  H    0.144674   0.000000
     4  H    0.197893  -0.000000
     5  H    0.164482   0.000000
 Sum of Mulliken charges =   0.00000  -0.00000
 Mulliken charges and spin densities with hydrogens summed into heavy atoms:
               1          2
     1  C    0.080590  -0.000000
     2  N   -0.080590   0.000000
 Electronic spatial extent (au):  <R**2>=             74.1000
 Charge=             -0.0000 electrons
 Dipole moment (field-independent basis, Debye):
    X=             -1.8342    Y=             -1.5145    Z=             -0.0001  Tot=              2.3786
 Quadrupole moment (field-independent basis, Debye-Ang):
   XX=            -12.7623   YY=            -11.4792   ZZ=            -14.1573
   XY=             -1.9688   XZ=             -0.0001   YZ=              0.0001
 Traceless Quadrupole moment (field-independent basis, Debye-Ang):
   XX=              0.0373   YY=              1.3204   ZZ=             -1.3577
   XY=             -1.9688   XZ=             -0.0001   YZ=              0.0001
 Octapole moment (field-independent basis, Debye-Ang**2):
  XXX=             -0.2523  YYY=              0.0967  ZZZ=              0.0002  XYY=              0.0012
  XXY=             -1.6798  XXZ=             -0.0001  XZZ=              0.7239  YZZ=              0.3061
  YYZ=             -0.0001  XYZ=              0.0003
 Hexadecapole moment (field-independent basis, Debye-Ang**3):
 XXXX=            -62.0346 YYYY=            -21.5729 ZZZZ=            -15.6207 XXXY=             -1.2463
 XXXZ=             -0.0000 YYYX=             -0.8404 YYYZ=              0.0000 ZZZX=              0.0001
 ZZZY=             -0.0000 XXYY=            -11.7917 XXZZ=            -13.3737 YYZZ=             -6.8515
 XXYZ=              0.0000 YYXZ=             -0.0001 ZZXY=              0.1757
 N-N= 3.158438287689D+01 E-N=-2.833245101501D+02  KE= 9.399281948300D+01
                          Isotropic Fermi Contact Couplings
        Atom                 a.u.       MegaHertz       Gauss      10(-4) cm-1
     1  C(13)             -0.00000      -0.00000      -0.00000      -0.00000
     2  N(14)             -0.00000      -0.00000      -0.00000      -0.00000
     3  H(1)               0.00000       0.00000       0.00000       0.00000
     4  H(1)              -0.00000      -0.00000      -0.00000      -0.00000
     5  H(1)              -0.00000      -0.00000      -0.00000      -0.00000
 --------------------------------------------------------
       Center         ----  Spin Dipole Couplings  ----
                      3XX-RR        3YY-RR        3ZZ-RR
 --------------------------------------------------------
     1   Atom        0.000000      0.000000      0.000000
     2   Atom        0.000000      0.000000      0.000000
     3   Atom        0.000000      0.000000      0.000000
     4   Atom        0.000000      0.000000      0.000000
     5   Atom        0.000000      0.000000      0.000000
 --------------------------------------------------------
                        XY            XZ            YZ
 --------------------------------------------------------
     1   Atom        0.000000      0.000000      0.000000
     2   Atom        0.000000      0.000000      0.000000
     3   Atom        0.000000      0.000000      0.000000
     4   Atom        0.000000      0.000000      0.000000
     5   Atom        0.000000      0.000000      0.000000
 --------------------------------------------------------


 ---------------------------------------------------------------------------------
              Anisotropic Spin Dipole Couplings in Principal Axis System
 ---------------------------------------------------------------------------------

       Atom             a.u.   MegaHertz   Gauss  10(-4) cm-1        Axes

              Baa     0.0000     0.000     0.000     0.000  1.0000  0.0000  0.0000
     1 C(13)  Bbb     0.0000     0.000     0.000     0.000 -0.0000  1.0000  0.0000
              Bcc     0.0000     0.000     0.000     0.000  0.0000  0.0000  1.0000
 
              Baa     0.0000     0.000     0.000     0.000  1.0000  0.0000  0.0000
     2 N(14)  Bbb     0.0000     0.000     0.000     0.000 -0.0000  1.0000  0.0000
              Bcc     0.0000     0.000     0.000     0.000  0.0000  0.0000  1.0000
 
              Baa     0.0000     0.000     0.000     0.000  1.0000  0.0000  0.0000
     3 H(1)   Bbb     0.0000     0.000     0.000     0.000 -0.0000  1.0000  0.0000
              Bcc     0.0000     0.000     0.000     0.000  0.0000  0.0000  1.0000
 
              Baa     0.0000     0.000     0.000     0.000  1.0000  0.0000  0.0000
     4 H(1)   Bbb     0.0000     0.000     0.000     0.000 -0.0000  1.0000  0.0000
              Bcc     0.0000     0.000     0.000     0.000  0.0000  0.0000  1.0000
 
              Baa     0.0000     0.000     0.000     0.000  1.0000  0.0000  0.0000
     5 H(1)   Bbb     0.0000     0.000     0.000     0.000 -0.0000  1.0000  0.0000
              Bcc     0.0000     0.000     0.000     0.000  0.0000  0.0000  1.0000
 

 ---------------------------------------------------------------------------------

 No NMR shielding tensors so no spin-rotation constants.
 Leave Link  601 at Mon Apr 21 18:13:56 2025, MaxMem=  4294967296 cpu:               7.5 elap:               0.7
 (Enter /home/szhao/Apps/g16/l9999.exe)
 1\1\GINC-NODE03\FOpt\UM062X\6-311+G(d,p)\C1H3N1\SZHAO\21-Apr-2025\0\\#
 p opt UM062X/6-311+G** nosymm int=superfine\\Title Card Required\\0,1\
 C,-0.68163709,0.,0.\N,0.68163709,0.,0.\H,-1.279442436,-0.9100084661,0.
 0000202724\H,0.9862460303,-0.9770087112,-0.0000985629\H,-1.1812344703,
 0.9632764235,-0.000029457\\Version=ES64L-G16RevA.03\HF=-94.5994742\S2=
 0.\S2-1=0.\S2A=0.\RMSD=7.541e-09\RMSF=3.630e-06\Dipole=-0.7216172,-0.5
 958329,-0.000047\Quadrupole=0.0277234,0.9816858,-1.0094092,-1.4637656,
 -0.0000955,0.0000787\PG=C01 [X(C1H3N1)]\\@


 We make a living by what we get,
 we make a life by what we give.
                   -- Sir Winston Churchill
 Job cpu time:       0 days  0 hours 13 minutes 43.6 seconds.
 Elapsed time:       0 days  0 hours  1 minutes 11.3 seconds.
 File lengths (MBytes):  RWF=     17 Int=      0 D2E=      0 Chk=      2 Scr=      2
 Normal termination of Gaussian 16 at Mon Apr 21 18:13:56 2025.
