Title Card Required                                                     
FOpt      UM062X                                                      6-311+G(d,p)        
Number of atoms                            I                6
Info1-9                                    I   N=           9
          15          15           0           0           0         110
           2          18        -502
Full Title                                 C   N=           2
Title Card Required     
Route                                      C   N=           4
#p opt UM062X/6-311+G** nosymm int=superfine    
Charge                                     I                0
Multiplicity                               I                1
Number of electrons                        I               16
Number of alpha electrons                  I                8
Number of beta electrons                   I                8
Number of basis functions                  I               68
Number of independent functions            I               68
Number of point charges in /Mol/           I                0
Number of translation vectors              I                0
Atomic numbers                             I   N=           6
           6           6           1           1           1           1
Nuclear charges                            R   N=           6
  6.00000000E+00  6.00000000E+00  1.00000000E+00  1.00000000E+00  1.00000000E+00
  1.00000000E+00
Current cartesian coordinates              R   N=          18
 -1.39043765E+00  0.00000000E+00  0.00000000E+00  1.39043765E+00  0.00000000E+00
  0.00000000E+00 -2.41622464E+00 -1.76804740E+00  3.65007851E-09 -2.41637095E+00
  1.76796233E+00  2.59765658E-09  2.41622464E+00  1.76804740E+00 -2.25026357E-09
  2.41637095E+00 -1.76796233E+00 -3.30124239E-09
Number of symbols in /Mol/                 I                0
Force Field                                I                0
Atom Types                                 C   N=           6
                                                            
            
Int Atom Types                             I   N=           6
           0           0           0           0           0           0
MM charges                                 R   N=           6
  0.00000000E+00  0.00000000E+00  0.00000000E+00  0.00000000E+00  0.00000000E+00
  0.00000000E+00
Integer atomic weights                     I   N=           6
          12          12           1           1           1           1
Real atomic weights                        R   N=           6
  1.20000000E+01  1.20000000E+01  1.00782504E+00  1.00782504E+00  1.00782504E+00
  1.00782504E+00
Atom fragment info                         I   N=           6
           0           0           0           0           0           0
Atom residue num                           I   N=           6
           0           0           0           0           0           0
Nuclear spins                              I   N=           6
           0           0           1           1           1           1
Nuclear ZEff                               R   N=           6
 -3.60000000E+00 -3.60000000E+00 -1.00000000E+00 -1.00000000E+00 -1.00000000E+00
 -1.00000000E+00
Nuclear ZNuc                               R   N=           6
  6.00000000E+00  6.00000000E+00  1.00000000E+00  1.00000000E+00  1.00000000E+00
  1.00000000E+00
Nuclear QMom                               R   N=           6
  0.00000000E+00  0.00000000E+00  0.00000000E+00  0.00000000E+00  0.00000000E+00
  0.00000000E+00
Nuclear GFac                               R   N=           6
  0.00000000E+00  0.00000000E+00  2.79284600E+00  2.79284600E+00  2.79284600E+00
  2.79284600E+00
MicOpt                                     I   N=           6
          -2          -2          -1          -1          -1          -1
Number of residues                         I                0
Number of secondary structures             I                0
Redundant internal dimensions              I   N=           4
          20          10           6           4
Redundant internal coordinate indices      I   N=          80
           1          -1           0           0           1          -2
           0           0           1          -3           0           0
           2          -1           0           0           2          -2
           0           0           2          -3           0           0
           1           3           0           0           1           4
           0           0           2           5           0           0
           2           6           0           0           2           1
           3           0           2           1           4           0
           3           1           4           0           1           2
           5           0           1           2           6           0
           5           2           6           0           3           1
           2           5           3           1           2           6
           4           1           2           5           4           1
           2           6
Redundant internal coordinates             R   N=          20
 -1.39043765E+00  0.00000000E+00  0.00000000E+00  1.39043765E+00  0.00000000E+00
  0.00000000E+00  2.04407205E+00  2.04407190E+00  2.04407205E+00  2.04407190E+00
  2.09651533E+00  2.09659812E+00  2.09007186E+00  2.09651533E+00  2.09659812E+00
  2.09007186E+00  3.14159265E+00  0.00000000E+00 -0.00000000E+00  3.14159265E+00
ZRed-IntVec                                I   N=          20
          -1          -1          -1          -1          -1          -1
           0           0           0           0           0           0
           0           0           0           0           0           0
           0           0
ZRed-FPVec                                 R   N=          20
  0.00000000E+00  0.00000000E+00  0.00000000E+00  0.00000000E+00  0.00000000E+00
  0.00000000E+00  0.00000000E+00  0.00000000E+00  0.00000000E+00  0.00000000E+00
  0.00000000E+00  0.00000000E+00  0.00000000E+00  0.00000000E+00  0.00000000E+00
  0.00000000E+00  0.00000000E+00  0.00000000E+00  0.00000000E+00  0.00000000E+00
ZRed-Constraint1                           R   N=          20
 -1.39043765E+00  0.00000000E+00  0.00000000E+00  1.39043765E+00  0.00000000E+00
  0.00000000E+00  2.11164067E+00  2.11456643E+00  2.11164067E+00  2.11456643E+00
  2.17218097E+00  2.16735371E+00  1.94365062E+00  2.17218097E+00  2.16735371E+00
  1.94365062E+00  3.14159265E+00  0.00000000E+00  0.00000000E+00  3.14159265E+00
ZRed-Constraint2                           R   N=          20
 -1.39043765E+00  0.00000000E+00  0.00000000E+00  1.39043765E+00  0.00000000E+00
  0.00000000E+00  0.00000000E+00  0.00000000E+00  0.00000000E+00  0.00000000E+00
  0.00000000E+00  0.00000000E+00  0.00000000E+00  0.00000000E+00  0.00000000E+00
  0.00000000E+00  0.00000000E+00  0.00000000E+00  0.00000000E+00  0.00000000E+00
Number of contracted shells                I               28
Number of primitive shells                 I               50
Pure/Cartesian d shells                    I                0
Pure/Cartesian f shells                    I                0
Highest angular momentum                   I                2
Largest degree of contraction              I                6
Shell types                                I   N=          28
           0          -1          -1          -1          -1          -2
           0          -1          -1          -1          -1          -2
           0           0           0           1           0           0
           0           1           0           0           0           1
           0           0           0           1
Number of primitives per shell             I   N=          28
           6           3           1           1           1           1
           6           3           1           1           1           1
           3           1           1           1           3           1
           1           1           3           1           1           1
           3           1           1           1
Shell to atom map                          I   N=          28
           1           1           1           1           1           1
           2           2           2           2           2           2
           3           3           3           3           4           4
           4           4           5           5           5           5
           6           6           6           6
Primitive exponents                        R   N=          50
  4.56324000E+03  6.82024000E+02  1.54973000E+02  4.44553000E+01  1.30290000E+01
  1.82773000E+00  2.09642000E+01  4.80331000E+00  1.45933000E+00  4.83456000E-01
  1.45585000E-01  4.38000000E-02  6.26000000E-01  4.56324000E+03  6.82024000E+02
  1.54973000E+02  4.44553000E+01  1.30290000E+01  1.82773000E+00  2.09642000E+01
  4.80331000E+00  1.45933000E+00  4.83456000E-01  1.45585000E-01  4.38000000E-02
  6.26000000E-01  3.38650000E+01  5.09479000E+00  1.15879000E+00  3.25840000E-01
  1.02741000E-01  7.50000000E-01  3.38650000E+01  5.09479000E+00  1.15879000E+00
  3.25840000E-01  1.02741000E-01  7.50000000E-01  3.38650000E+01  5.09479000E+00
  1.15879000E+00  3.25840000E-01  1.02741000E-01  7.50000000E-01  3.38650000E+01
  5.09479000E+00  1.15879000E+00  3.25840000E-01  1.02741000E-01  7.50000000E-01
Contraction coefficients                   R   N=          50
  1.96665025E-03  1.52306019E-02  7.61269097E-02  2.60801033E-01  6.16462078E-01
  2.21006028E-01  1.14660081E-01  9.19999648E-01 -3.03068213E-03  1.00000000E+00
  1.00000000E+00  1.00000000E+00  1.00000000E+00  1.96665025E-03  1.52306019E-02
  7.61269097E-02  2.60801033E-01  6.16462078E-01  2.21006028E-01  1.14660081E-01
  9.19999648E-01 -3.03068213E-03  1.00000000E+00  1.00000000E+00  1.00000000E+00
  1.00000000E+00  2.54938145E-02  1.90373109E-01  8.52161486E-01  1.00000000E+00
  1.00000000E+00  1.00000000E+00  2.54938145E-02  1.90373109E-01  8.52161486E-01
  1.00000000E+00  1.00000000E+00  1.00000000E+00  2.54938145E-02  1.90373109E-01
  8.52161486E-01  1.00000000E+00  1.00000000E+00  1.00000000E+00  2.54938145E-02
  1.90373109E-01  8.52161486E-01  1.00000000E+00  1.00000000E+00  1.00000000E+00
P(S=P) Contraction coefficients            R   N=          50
  0.00000000E+00  0.00000000E+00  0.00000000E+00  0.00000000E+00  0.00000000E+00
  0.00000000E+00  4.02486927E-02  2.37593957E-01  8.15853851E-01  1.00000000E+00
  1.00000000E+00  1.00000000E+00  0.00000000E+00  0.00000000E+00  0.00000000E+00
  0.00000000E+00  0.00000000E+00  0.00000000E+00  0.00000000E+00  4.02486927E-02
  2.37593957E-01  8.15853851E-01  1.00000000E+00  1.00000000E+00  1.00000000E+00
  0.00000000E+00  0.00000000E+00  0.00000000E+00  0.00000000E+00  0.00000000E+00
  0.00000000E+00  0.00000000E+00  0.00000000E+00  0.00000000E+00  0.00000000E+00
  0.00000000E+00  0.00000000E+00  0.00000000E+00  0.00000000E+00  0.00000000E+00
  0.00000000E+00  0.00000000E+00  0.00000000E+00  0.00000000E+00  0.00000000E+00
  0.00000000E+00  0.00000000E+00  0.00000000E+00  0.00000000E+00  0.00000000E+00
Coordinates of each shell                  R   N=          84
 -1.39043765E+00  0.00000000E+00  0.00000000E+00 -1.39043765E+00  0.00000000E+00
  0.00000000E+00 -1.39043765E+00  0.00000000E+00  0.00000000E+00 -1.39043765E+00
  0.00000000E+00  0.00000000E+00 -1.39043765E+00  0.00000000E+00  0.00000000E+00
 -1.39043765E+00  0.00000000E+00  0.00000000E+00  1.39043765E+00  0.00000000E+00
  0.00000000E+00  1.39043765E+00  0.00000000E+00  0.00000000E+00  1.39043765E+00
  0.00000000E+00  0.00000000E+00  1.39043765E+00  0.00000000E+00  0.00000000E+00
  1.39043765E+00  0.00000000E+00  0.00000000E+00  1.39043765E+00  0.00000000E+00
  0.00000000E+00 -2.41622464E+00 -1.76804740E+00  3.65007851E-09 -2.41622464E+00
 -1.76804740E+00  3.65007851E-09 -2.41622464E+00 -1.76804740E+00  3.65007851E-09
 -2.41622464E+00 -1.76804740E+00  3.65007851E-09 -2.41637095E+00  1.76796233E+00
  2.59765658E-09 -2.41637095E+00  1.76796233E+00  2.59765658E-09 -2.41637095E+00
  1.76796233E+00  2.59765658E-09 -2.41637095E+00  1.76796233E+00  2.59765658E-09
  2.41622464E+00  1.76804740E+00 -2.25026357E-09  2.41622464E+00  1.76804740E+00
 -2.25026357E-09  2.41622464E+00  1.76804740E+00 -2.25026357E-09  2.41622464E+00
  1.76804740E+00 -2.25026357E-09  2.41637095E+00 -1.76796233E+00 -3.30124239E-09
  2.41637095E+00 -1.76796233E+00 -3.30124239E-09  2.41637095E+00 -1.76796233E+00
 -3.30124239E-09  2.41637095E+00 -1.76796233E+00 -3.30124239E-09
Num ILSW                                   I              100
ILSW                                       I   N=         100
           1           0           0           1           2           0
           0           0           0           0        4336          -1
           7           0           0           0           2           0
           0           0           0           0           1           0
           1           1           0           0           0           0
           0           0      100000           0          -1           0
           0           0           0           0           0           0
           0           0           0           1           0           0
           0 -2000000000           1           0           0           0
           0           0           4          52           0           0
           0           0          55           0           0           0
           0           0           0           6           0           1
           0           0           0           0           0           0
           0           0           0           0           0           0
           0           0           0           0           0           0
           0           0           0           0           0           0
           0           0           0           0
Num RLSW                                   I               52
RLSW                                       R   N=          52
  1.00000000E+00  1.00000000E+00  1.00000000E+00  1.00000000E+00  5.40000000E-01
  0.00000000E+00  0.00000000E+00  1.00000000E+00  0.00000000E+00  0.00000000E+00
  0.00000000E+00  0.00000000E+00  1.00000000E+00  0.00000000E+00  0.00000000E+00
  0.00000000E+00  0.00000000E+00  1.00000000E+00  0.00000000E+00  0.00000000E+00
  0.00000000E+00  0.00000000E+00  1.00000000E+00  0.00000000E+00  0.00000000E+00
  0.00000000E+00  0.00000000E+00  1.00000000E+00  0.00000000E+00  0.00000000E+00
  0.00000000E+00  0.00000000E+00  1.00000000E+00  0.00000000E+00  0.00000000E+00
  0.00000000E+00  0.00000000E+00  0.00000000E+00  1.00000000E+00  1.00000000E+00
  0.00000000E+00  1.00000000E+00  0.00000000E+00  0.00000000E+00  0.00000000E+00
  0.00000000E+00  0.00000000E+00  0.00000000E+00  0.00000000E+00  0.00000000E+00
  0.00000000E+00  0.00000000E+00
MxBond                                     I                3
NBond                                      I   N=           6
           3           3           1           1           1           1
IBond                                      I   N=          18
           2           3           4           1           5           6
           1           0           0           1           0           0
           2           0           0           2           0           0
RBond                                      R   N=          18
  1.00000000E+00  1.00000000E+00  1.00000000E+00  1.00000000E+00  1.00000000E+00
  1.00000000E+00  1.00000000E+00  0.00000000E+00  0.00000000E+00  1.00000000E+00
  0.00000000E+00  0.00000000E+00  1.00000000E+00  0.00000000E+00  0.00000000E+00
  1.00000000E+00  0.00000000E+00  0.00000000E+00
Virial Ratio                               R      2.008683041019600E+00
SCF Energy                                 R     -7.854468616232046E+01
Total Energy                               R     -7.854468616232046E+01
S**2                                       R     -3.552713678800501E-14
S**2 after annihilation                    R      2.575717417130311E-13
RMS Force                                  R      7.055921250542767E-06
RMS Density                                R      6.584549764612838E-09
Job Status                                 I                1
Nuclear derivative order                   I                1
External E-field                           R   N=          35
  0.00000000E+00  0.00000000E+00  0.00000000E+00  0.00000000E+00  0.00000000E+00
  0.00000000E+00  0.00000000E+00  0.00000000E+00  0.00000000E+00  0.00000000E+00
  0.00000000E+00  0.00000000E+00  0.00000000E+00  0.00000000E+00  0.00000000E+00
  0.00000000E+00  0.00000000E+00  0.00000000E+00  0.00000000E+00  0.00000000E+00
  0.00000000E+00  0.00000000E+00  0.00000000E+00  0.00000000E+00  0.00000000E+00
  0.00000000E+00  0.00000000E+00  0.00000000E+00  0.00000000E+00  0.00000000E+00
  0.00000000E+00  0.00000000E+00  0.00000000E+00  0.00000000E+00  0.00000000E+00
IOpCl                                      I                1
IROHF                                      I                0
Alpha Orbital Energies                     R   N=          68
 -1.05603431E+01 -1.05597821E+01 -8.31708893E-01 -6.76279811E-01 -5.35963525E-01
 -4.63923545E-01 -4.41408671E-01 -3.12546544E-01  3.80337318E-03  3.39057802E-02
  3.92273708E-02  5.25948421E-02  7.96720380E-02  8.08565209E-02  9.71554667E-02
  1.25373992E-01  1.59535708E-01  1.70876264E-01  2.04566293E-01  2.21759346E-01
  3.04091338E-01  3.14363221E-01  4.27359947E-01  4.45752065E-01  5.24967405E-01
  5.68253204E-01  5.91462707E-01  6.31516148E-01  6.73393381E-01  7.09760760E-01
  7.37949992E-01  7.42069732E-01  7.89871776E-01  8.65800370E-01  1.06244267E+00
  1.11570317E+00  1.14987363E+00  1.44525904E+00  1.44673189E+00  1.45596802E+00
  1.57300627E+00  1.58802583E+00  1.61390665E+00  1.62939558E+00  1.77300312E+00
  1.86564481E+00  1.96735248E+00  2.02506533E+00  2.04077986E+00  2.13177989E+00
  2.14468713E+00  2.19229244E+00  2.43334939E+00  2.44720258E+00  2.54824641E+00
  2.58093487E+00  2.65512104E+00  2.67519366E+00  2.77102440E+00  2.80969132E+00
  2.91198555E+00  3.03284136E+00  3.21900371E+00  3.72271809E+00  3.83948231E+00
  4.17804184E+00  2.38834216E+01  2.39673298E+01
Beta Orbital Energies                      R   N=          68
 -1.05603431E+01 -1.05597821E+01 -8.31708893E-01 -6.76279811E-01 -5.35963525E-01
 -4.63923545E-01 -4.41408671E-01 -3.12546544E-01  3.80337318E-03  3.39057802E-02
  3.92273708E-02  5.25948421E-02  7.96720380E-02  8.08565209E-02  9.71554667E-02
  1.25373992E-01  1.59535708E-01  1.70876264E-01  2.04566293E-01  2.21759346E-01
  3.04091338E-01  3.14363221E-01  4.27359947E-01  4.45752065E-01  5.24967405E-01
  5.68253204E-01  5.91462707E-01  6.31516148E-01  6.73393381E-01  7.09760760E-01
  7.37949992E-01  7.42069732E-01  7.89871776E-01  8.65800370E-01  1.06244267E+00
  1.11570317E+00  1.14987363E+00  1.44525904E+00  1.44673189E+00  1.45596802E+00
  1.57300627E+00  1.58802583E+00  1.61390665E+00  1.62939558E+00  1.77300312E+00
  1.86564481E+00  1.96735248E+00  2.02506533E+00  2.04077986E+00  2.13177989E+00
  2.14468713E+00  2.19229244E+00  2.43334939E+00  2.44720258E+00  2.54824641E+00
  2.58093487E+00  2.65512104E+00  2.67519366E+00  2.77102440E+00  2.80969132E+00
  2.91198555E+00  3.03284136E+00  3.21900371E+00  3.72271809E+00  3.83948231E+00
  4.17804184E+00  2.38834216E+01  2.39673298E+01
Alpha MO coefficients                      R   N=        4624
  3.98898561E-01  3.27995722E-01  3.21972854E-04  2.43039913E-08 -4.71319174E-14
  8.71261831E-03 -1.62095011E-03 -7.13882591E-08  5.17501931E-12 -2.16861735E-03
 -1.79813010E-04  1.01115291E-07  5.21167062E-13 -6.21751917E-04  6.64687809E-04
 -3.81477517E-08 -2.62883116E-12 -7.41583208E-04 -2.26953836E-12 -8.26898802E-13
 -9.06566298E-04 -1.26016113E-07  3.98898628E-01  3.27995778E-01 -3.21972774E-04
 -2.43039953E-08 -1.92391436E-13  8.71261970E-03  1.62095002E-03  7.13882799E-08
 -4.44552276E-12 -2.16861796E-03  1.79813188E-04 -1.01115298E-07 -5.92044740E-13
 -6.21751419E-04 -6.64688031E-04  3.81477387E-08  2.53010745E-12 -7.41583395E-04
 -1.98513588E-12  8.25700892E-13 -9.06566234E-04 -1.26016115E-07  1.48840075E-04
 -2.45602750E-03  1.59497561E-03 -7.51796523E-04 -1.30166986E-03  2.55065888E-12
  1.48845126E-04 -2.45618716E-03  1.59501170E-03 -7.51921831E-04  1.30164366E-03
  1.87365289E-12  1.48840119E-04 -2.45602778E-03  1.59497581E-03  7.51796597E-04
  1.30167002E-03 -1.63634121E-12  1.48845171E-04 -2.45618743E-03  1.59501190E-03
  7.51921905E-04 -1.30164382E-03 -2.31240539E-12  3.98953510E-01  3.28029434E-01
 -4.74600010E-04  9.56073149E-09  3.55789197E-13  8.25521341E-03  5.24060674E-04
 -3.69753825E-08  3.55882711E-12 -3.58102979E-03 -1.05760980E-03 -5.73824366E-09
 -4.04726055E-13  2.95721873E-03  1.32063590E-03  1.61223926E-08 -7.71744184E-13
 -1.11659374E-03 -1.53780698E-12 -4.44824235E-13  3.74181809E-04 -4.26347277E-08
 -3.98953443E-01 -3.28029379E-01 -4.74600065E-04  9.56072351E-09  5.74379225E-13
 -8.25521195E-03  5.24060947E-04 -3.69753538E-08  3.01833429E-12  3.58102942E-03
 -1.05760977E-03 -5.73832443E-09 -2.74235245E-13 -2.95721884E-03  1.32063579E-03
  1.61223348E-08 -6.28126066E-13  1.11659362E-03  1.34036472E-12 -4.43881946E-13
 -3.74181962E-04  4.26347092E-08  2.65156066E-04 -1.62103049E-03  1.18759987E-03
 -4.40290674E-04 -9.50945677E-04  1.96761145E-12  2.65136720E-04 -1.62102820E-03
  1.18759362E-03 -4.40332872E-04  9.50933964E-04  1.42482715E-12 -2.65156041E-04
  1.62103008E-03 -1.18759960E-03 -4.40290548E-04 -9.50945458E-04  1.24959984E-12
 -2.65136695E-04  1.62102778E-03 -1.18759336E-03 -4.40332746E-04  9.50933745E-04
  1.79176514E-12 -8.26390941E-02 -1.32687969E-01  3.08850974E-02 -7.89296789E-07
  5.41693528E-11  3.48060395E-01  4.67193208E-02 -5.21734520E-07  7.33784166E-11
  2.06511584E-01  1.19270471E-02  7.78249493E-07  2.21924605E-11  1.28386294E-03
 -6.81759045E-03  5.07978242E-07  1.47778205E-11 -1.02286146E-02 -8.00955278E-12
 -3.07191543E-12  5.76554254E-03 -5.55564399E-07 -8.26390942E-02 -1.32687969E-01
 -3.08850974E-02  7.89296794E-07 -4.66434777E-11  3.48060395E-01 -4.67193208E-02
  5.21734513E-07 -6.41338946E-11  2.06511584E-01 -1.19270471E-02 -7.78249491E-07
 -1.82513420E-11  1.28386294E-03  6.81759045E-03 -5.07978230E-07 -1.41132068E-11
 -1.02286146E-02 -7.00137703E-12  3.06086421E-12  5.76554254E-03 -5.55564403E-07
  5.86532260E-02  6.54359211E-02  6.65584316E-04  5.88045033E-03  8.56176187E-03
 -1.46126538E-11  5.86520244E-02  6.54341869E-02  6.64353593E-04  5.88076343E-03
 -8.56079737E-03 -9.93781291E-12  5.86532260E-02  6.54359212E-02  6.65584317E-04
 -5.88045034E-03 -8.56176187E-03  8.74429814E-12  5.86520245E-02  6.54341869E-02
  6.64353594E-04 -5.88076343E-03  8.56079737E-03  1.33845538E-11 -6.83805083E-02
 -1.10770862E-01 -6.88441029E-02 -7.30381716E-07  1.47134943E-10  2.95318279E-01
 -1.00726699E-01 -1.00386685E-06  2.07976411E-10  2.23013067E-01 -4.74617982E-02
 -3.50343473E-07  9.03558289E-11 -5.56978230E-02 -1.92388367E-02  5.89328893E-08
  4.16266229E-12 -5.51649504E-03 -1.59533881E-11 -5.65941282E-12 -9.34477652E-03
 -7.59521739E-07  6.83805083E-02  1.10770862E-01 -6.88441030E-02 -7.30381718E-07
  1.34652535E-10 -2.95318279E-01 -1.00726699E-01 -1.00386687E-06  1.92986004E-10
 -2.23013067E-01 -4.74617982E-02 -3.50343266E-07  8.01083834E-11  5.56978230E-02
 -1.92388367E-02  5.89331003E-08  4.73124637E-12  5.51649504E-03  1.20926048E-11
 -5.63857228E-12  9.34477652E-03  7.59521739E-07  8.97645757E-02  1.10623930E-01
  1.58969707E-02  3.92687368E-03  1.26707402E-02 -1.99078396E-11  8.97675583E-02
  1.10627911E-01  1.58971567E-02  3.92817218E-03 -1.26707490E-02 -1.24039390E-11
 -8.97645757E-02 -1.10623930E-01 -1.58969707E-02  3.92687368E-03  1.26707402E-02
 -1.02772430E-11 -8.97675583E-02 -1.10627911E-01 -1.58971567E-02  3.92817218E-03
 -1.26707490E-02 -1.77254222E-11  1.35426113E-07  2.32921283E-07 -2.28958544E-06
  1.47276726E-01 -2.75663845E-11 -6.67918176E-07 -2.03952474E-06  2.10210880E-01
 -3.62629005E-11 -1.24189315E-06 -1.32183751E-06  1.25063088E-01 -2.32537989E-11
 -7.75993055E-06 -2.32496516E-06  5.48138091E-03 -2.73848521E-12  1.33066590E-07
  4.87453233E-12  4.72765073E-11  1.52432893E-06 -3.73651794E-04 -1.35426112E-07
 -2.32921282E-07 -2.28958542E-06  1.47276726E-01  2.74770190E-11  6.67918173E-07
 -2.03952472E-06  2.10210881E-01  3.61680380E-11  1.24189313E-06 -1.32183750E-06
  1.25063088E-01  2.31902559E-11  7.75993055E-06 -2.32496516E-06  5.48138092E-03
  2.73667904E-12 -1.33066588E-07  4.88508325E-12 -4.20226650E-11 -1.52432893E-06
  3.73651805E-04 -9.99300676E-02 -1.35811399E-01 -3.44725912E-02 -8.63493030E-03
 -9.05918180E-03  3.44897274E-11  9.99271491E-02  1.35808693E-01  3.44723689E-02
  8.63609296E-03 -9.05857628E-03 -2.69353637E-11  9.99300676E-02  1.35811399E-01
  3.44725912E-02 -8.63493030E-03 -9.05918180E-03  2.36508092E-11 -9.99271491E-02
 -1.35808694E-01 -3.44723689E-02  8.63609297E-03 -9.05857629E-03 -3.12620861E-11
 -8.59115239E-03 -1.42036670E-02  1.87290323E-01 -3.96453460E-05 -1.58322975E-10
  4.54147151E-02  2.72717020E-01 -5.50033818E-05 -2.10318524E-10  7.58329961E-03
  1.63013894E-01 -3.98408535E-05 -1.66720631E-10 -4.86206541E-03  3.70216726E-03
 -6.12034046E-06 -2.12344100E-11 -8.95975116E-04  4.16028334E-11  4.38930226E-12
  1.57810075E-02  8.29230244E-06 -8.59115240E-03 -1.42036670E-02 -1.87290323E-01
  3.96453460E-05  1.29011508E-10  4.54147151E-02 -2.72717020E-01  5.50033818E-05
  1.65848793E-10  7.58329966E-03 -1.63013894E-01  3.98408535E-05  1.39182903E-10
 -4.86206542E-03 -3.70216726E-03  6.12034046E-06  1.97137152E-11 -8.95975116E-04
  4.11943767E-11 -4.40778065E-12  1.57810075E-02  8.29230244E-06 -7.27134916E-02
 -1.05366084E-01 -4.17483853E-02  4.07930364E-03 -1.05022914E-02  1.54504891E-11
 -7.27849493E-02 -1.05468918E-01 -4.17842894E-02  4.07296462E-03  1.05073953E-02
  8.82466289E-12 -7.27134916E-02 -1.05366084E-01 -4.17483853E-02 -4.07930365E-03
  1.05022914E-02 -8.41639919E-12 -7.27849493E-02 -1.05468918E-01 -4.17842894E-02
 -4.07296462E-03 -1.05073953E-02 -1.50175445E-11 -3.49210009E-06 -5.77928626E-06
  5.39830805E-05  1.44537013E-01 -8.40278706E-11  1.80238840E-05  7.90370257E-05
  2.05382048E-01 -1.28196975E-10  8.25787327E-06  4.92020673E-05  1.52080831E-01
 -8.72440859E-11 -1.20680091E-06  1.06253506E-06  1.84186196E-02 -3.81914915E-12
 -1.58615469E-07 -1.87223376E-12  6.91429947E-11  6.34014357E-06 -2.89884887E-02
 -3.49210009E-06 -5.77928627E-06 -5.39830805E-05 -1.44537013E-01 -8.38913286E-11
  1.80238840E-05 -7.90370257E-05 -2.05382048E-01 -1.27990981E-10  8.25787313E-06
 -4.92020672E-05 -1.52080831E-01 -8.71241207E-11 -1.20679758E-06 -1.06253601E-06
 -1.84186196E-02 -3.77370032E-12 -1.58615461E-07  1.89414693E-12  6.28354604E-11
  6.34014356E-06 -2.89884887E-02 -1.16082041E-01 -1.68092703E-01 -7.04238421E-02
 -7.73773840E-03 -6.21390024E-03  2.36100222E-11  1.16037483E-01  1.68027519E-01
  7.03949413E-02  7.74116519E-03 -6.20653538E-03 -2.54058217E-11 -1.16082041E-01
 -1.68092703E-01 -7.04238421E-02  7.73773839E-03  6.21390023E-03 -2.27088141E-11
  1.16037483E-01  1.68027519E-01  7.03949413E-02 -7.74116518E-03  6.20653538E-03
  2.09721744E-11  9.21966546E-11  1.54402957E-10  1.04908366E-10  8.33547099E-11
  1.73449147E-01 -4.53467268E-10  1.84498024E-10  1.27687151E-10  2.78117075E-01
 -4.82194956E-10  2.09622461E-10  9.36841871E-11  2.61101394E-01  8.79312132E-10
  2.84159818E-10  6.26394503E-12  3.49571261E-02  1.76343511E-11  1.92234035E-02
 -1.12482039E-07  4.42872675E-12 -1.53280601E-11 -8.71331618E-11 -1.46024620E-10
  6.71278240E-11 -8.32729867E-11  1.73449147E-01  4.30658722E-10  1.27178080E-10
 -1.27420657E-10  2.78117075E-01  4.32668464E-10  1.61397169E-10 -9.35030008E-11
  2.61101394E-01 -8.84112045E-10  2.72251540E-10 -6.33131393E-12  3.49571261E-02
 -1.66014357E-11 -1.92234035E-02  1.12482038E-07 -3.05525420E-12 -1.52788265E-11
  2.52490593E-11  6.22874876E-12 -7.85313133E-11  1.76091902E-11  1.88399063E-11
  1.30075148E-02  1.02276842E-10  1.43500876E-10  5.62519714E-11  1.96397552E-11
 -1.31052265E-11  1.30076237E-02 -1.01393116E-10 -1.44693308E-10 -5.97305392E-11
  1.62580368E-11  1.23092266E-11  1.30075148E-02 -2.44134651E-11 -7.01161013E-12
  7.46838576E-11  1.41754034E-11 -1.79477545E-11  1.30076237E-02  5.07817534E-11
  8.43904506E-11  2.12452994E-10  4.05805924E-11  1.63998652E-01 -1.94131380E-10
  3.65733099E-10  6.28118813E-11  2.58668766E-01 -1.01429832E-09  3.33729007E-10
  1.14245331E-10  4.00033776E-01  9.38676817E-09  3.74432445E-09  1.18591570E-10
  6.66452610E-01  8.08860576E-12 -2.57961663E-02 -1.38831730E-07 -2.06602463E-11
  1.23904505E-11  4.45597536E-11  7.43880735E-11 -2.03737442E-10  4.05147658E-11
 -1.63998652E-01 -2.02098545E-10 -3.22689495E-10  6.28034670E-11 -2.58668766E-01
 -5.62119419E-10 -5.59211286E-10  1.14162369E-10 -4.00033776E-01 -1.10811333E-08
  2.31706198E-09  1.16084471E-10 -6.66452610E-01 -1.01894983E-11 -2.57961663E-02
 -1.38831730E-07 -2.09739208E-11 -1.23638205E-11  1.70623869E-10  3.65673449E-10
  2.00552482E-10  2.72512266E-11  2.23722297E-11  2.00281872E-02  1.21333024E-10
  2.80809537E-10 -1.13228217E-11  3.33856496E-11 -1.27786301E-11  2.00290826E-02
  1.10855168E-10  1.42246157E-10  5.84208634E-10 -1.92088483E-11 -3.77823286E-12
 -2.00281872E-02  1.60100796E-10  2.27640976E-10  7.94424823E-10 -1.31073989E-11
  1.33959495E-11 -2.00290826E-02  1.85740091E-02  3.16308504E-02  3.87306554E-02
  3.47465762E-07  4.34320317E-11 -8.73898373E-02  5.90770244E-02 -2.06949638E-06
 -7.00051278E-12 -3.18597740E-01  1.37266249E-01  3.13810653E-05  1.89736615E-10
  1.19566705E+00 -6.25400662E-01  1.06914427E-04  2.40273805E-09  1.32539344E-02
  2.08881241E-11  9.09806003E-12  7.35142608E-03  1.38792137E-06  1.85740091E-02
  3.16308504E-02 -3.87306554E-02 -3.47465839E-07 -4.79612413E-11 -8.73898375E-02
 -5.90770244E-02  2.06949626E-06 -1.00219204E-11 -3.18597740E-01 -1.37266249E-01