Title Card Required                                                     
FOpt      UM062X                                                      6-311+G(d,p)        
Number of atoms                            I                4
Info1-9                                    I   N=           9
          13          13           0           0           0         110
           2          18        -502
Full Title                                 C   N=           2
Title Card Required     
Route                                      C   N=           5
#p opt UM062X/6-311+G** nosymm int=superfine SCF=NoVarAcc   
Charge                                     I                1
Multiplicity                               I                2
Number of electrons                        I               13
Number of alpha electrons                  I                7
Number of beta electrons                   I                6
Number of basis functions                  I               56
Number of independent functions            I               56
Number of point charges in /Mol/           I                0
Number of translation vectors              I                0
Atomic numbers                             I   N=           4
           6           6           1           1
Nuclear charges                            R   N=           4
  6.00000000E+00  6.00000000E+00  1.00000000E+00  1.00000000E+00
Current cartesian coordinates              R   N=          12
 -4.50162998E+00  0.00000000E+00  0.00000000E+00  4.50162998E+00  0.00000000E+00
  0.00000000E+00 -6.61343775E+00 -9.74997362E-12  1.13938162E-12  6.61343614E+00
 -4.89149552E-12  9.10128646E-13
Number of symbols in /Mol/                 I                0
Force Field                                I                0
Atom Types                                 C   N=           4
                                                
Int Atom Types                             I   N=           4
           0           0           0           0
MM charges                                 R   N=           4
  0.00000000E+00  0.00000000E+00  0.00000000E+00  0.00000000E+00
Integer atomic weights                     I   N=           4
          12          12           1           1
Real atomic weights                        R   N=           4
  1.20000000E+01  1.20000000E+01  1.00782504E+00  1.00782504E+00
Atom fragment info                         I   N=           4
           0           0           0           0
Atom residue num                           I   N=           4
           0           0           0           0
Nuclear spins                              I   N=           4
           0           0           1           1
Nuclear ZEff                               R   N=           4
 -3.60000000E+00 -3.60000000E+00 -1.00000000E+00 -1.00000000E+00
Nuclear ZNuc                               R   N=           4
  6.00000000E+00  6.00000000E+00  1.00000000E+00  1.00000000E+00
Nuclear QMom                               R   N=           4
  0.00000000E+00  0.00000000E+00  0.00000000E+00  0.00000000E+00
Nuclear GFac                               R   N=           4
  0.00000000E+00  0.00000000E+00  2.79284600E+00  2.79284600E+00
MicOpt                                     I   N=           4
          -2          -2          -1          -1
Number of residues                         I                0
Number of secondary structures             I                0
Redundant internal dimensions              I   N=           4
          12           8           4           0
Redundant internal coordinate indices      I   N=          48
           1          -1           0           0           1          -2
           0           0           1          -3           0           0
           2          -1           0           0           2          -2
           0           0           2          -3           0           0
           1           3           0           0           2           4
           0           0           2           1           3          -4
           1           2           4          -4           2           1
           3          -8           1           2           4          -8
Redundant internal coordinates             R   N=          12
 -4.50162998E+00  0.00000000E+00  0.00000000E+00  4.50162998E+00  0.00000000E+00
  0.00000000E+00  2.11180777E+00  2.11180616E+00  3.14159265E+00  3.14159265E+00
  3.14159265E+00  3.14159265E+00
ZRed-IntVec                                I   N=          12
          -1          -1          -1          -1          -1          -1
           0           0           0           0           0           0
ZRed-FPVec                                 R   N=          12
  0.00000000E+00  0.00000000E+00  0.00000000E+00  0.00000000E+00  0.00000000E+00
  0.00000000E+00  0.00000000E+00  0.00000000E+00  0.00000000E+00  0.00000000E+00
  0.00000000E+00  0.00000000E+00
ZRed-Constraint1                           R   N=          12
 -4.50162998E+00  0.00000000E+00  0.00000000E+00  4.50162998E+00  0.00000000E+00
  0.00000000E+00  2.08057524E+00  2.08053366E+00  3.14159265E+00  3.14159265E+00
  3.14159265E+00  3.14159265E+00
ZRed-Constraint2                           R   N=          12
 -4.50162998E+00  0.00000000E+00  0.00000000E+00  4.50162998E+00  0.00000000E+00
  0.00000000E+00  0.00000000E+00  0.00000000E+00  0.00000000E+00  0.00000000E+00
  0.00000000E+00  0.00000000E+00
Number of contracted shells                I               20
Number of primitive shells                 I               38
Pure/Cartesian d shells                    I                0
Pure/Cartesian f shells                    I                0
Highest angular momentum                   I                2
Largest degree of contraction              I                6
Shell types                                I   N=          20
           0          -1          -1          -1          -1          -2
           0          -1          -1          -1          -1          -2
           0           0           0           1           0           0
           0           1
Number of primitives per shell             I   N=          20
           6           3           1           1           1           1
           6           3           1           1           1           1
           3           1           1           1           3           1
           1           1
Shell to atom map                          I   N=          20
           1           1           1           1           1           1
           2           2           2           2           2           2
           3           3           3           3           4           4
           4           4
Primitive exponents                        R   N=          38
  4.56324000E+03  6.82024000E+02  1.54973000E+02  4.44553000E+01  1.30290000E+01
  1.82773000E+00  2.09642000E+01  4.80331000E+00  1.45933000E+00  4.83456000E-01
  1.45585000E-01  4.38000000E-02  6.26000000E-01  4.56324000E+03  6.82024000E+02
  1.54973000E+02  4.44553000E+01  1.30290000E+01  1.82773000E+00  2.09642000E+01
  4.80331000E+00  1.45933000E+00  4.83456000E-01  1.45585000E-01  4.38000000E-02
  6.26000000E-01  3.38650000E+01  5.09479000E+00  1.15879000E+00  3.25840000E-01
  1.02741000E-01  7.50000000E-01  3.38650000E+01  5.09479000E+00  1.15879000E+00
  3.25840000E-01  1.02741000E-01  7.50000000E-01
Contraction coefficients                   R   N=          38
  1.96665025E-03  1.52306019E-02  7.61269097E-02  2.60801033E-01  6.16462078E-01
  2.21006028E-01  1.14660081E-01  9.19999648E-01 -3.03068213E-03  1.00000000E+00
  1.00000000E+00  1.00000000E+00  1.00000000E+00  1.96665025E-03  1.52306019E-02
  7.61269097E-02  2.60801033E-01  6.16462078E-01  2.21006028E-01  1.14660081E-01
  9.19999648E-01 -3.03068213E-03  1.00000000E+00  1.00000000E+00  1.00000000E+00
  1.00000000E+00  2.54938145E-02  1.90373109E-01  8.52161486E-01  1.00000000E+00
  1.00000000E+00  1.00000000E+00  2.54938145E-02  1.90373109E-01  8.52161486E-01
  1.00000000E+00  1.00000000E+00  1.00000000E+00
P(S=P) Contraction coefficients            R   N=          38
  0.00000000E+00  0.00000000E+00  0.00000000E+00  0.00000000E+00  0.00000000E+00
  0.00000000E+00  4.02486927E-02  2.37593957E-01  8.15853851E-01  1.00000000E+00
  1.00000000E+00  1.00000000E+00  0.00000000E+00  0.00000000E+00  0.00000000E+00
  0.00000000E+00  0.00000000E+00  0.00000000E+00  0.00000000E+00  4.02486927E-02
  2.37593957E-01  8.15853851E-01  1.00000000E+00  1.00000000E+00  1.00000000E+00
  0.00000000E+00  0.00000000E+00  0.00000000E+00  0.00000000E+00  0.00000000E+00
  0.00000000E+00  0.00000000E+00  0.00000000E+00  0.00000000E+00  0.00000000E+00
  0.00000000E+00  0.00000000E+00  0.00000000E+00
Coordinates of each shell                  R   N=          60
 -4.50162998E+00  0.00000000E+00  0.00000000E+00 -4.50162998E+00  0.00000000E+00
  0.00000000E+00 -4.50162998E+00  0.00000000E+00  0.00000000E+00 -4.50162998E+00
  0.00000000E+00  0.00000000E+00 -4.50162998E+00  0.00000000E+00  0.00000000E+00
 -4.50162998E+00  0.00000000E+00  0.00000000E+00  4.50162998E+00  0.00000000E+00
  0.00000000E+00  4.50162998E+00  0.00000000E+00  0.00000000E+00  4.50162998E+00
  0.00000000E+00  0.00000000E+00  4.50162998E+00  0.00000000E+00  0.00000000E+00
  4.50162998E+00  0.00000000E+00  0.00000000E+00  4.50162998E+00  0.00000000E+00
  0.00000000E+00 -6.61343775E+00 -9.74997362E-12  1.13938162E-12 -6.61343775E+00
 -9.74997362E-12  1.13938162E-12 -6.61343775E+00 -9.74997362E-12  1.13938162E-12
 -6.61343775E+00 -9.74997362E-12  1.13938162E-12  6.61343614E+00 -4.89149552E-12
  9.10128646E-13  6.61343614E+00 -4.89149552E-12  9.10128646E-13  6.61343614E+00
 -4.89149552E-12  9.10128646E-13  6.61343614E+00 -4.89149552E-12  9.10128646E-13
Num ILSW                                   I              100
ILSW                                       I   N=         100
           1           0           0           0           2           0
           0           0           0           0        4336          -1
           7           0           0           0           2           0
           0           0           0           0           1           0
           1           1           0           0           0           0
           0           0      100000           0          -1           0
           0           0           0           0           0           0
           0           0           0           1           0           0
           0 -2000000000           1           0           0           0
           0           0           4          52           0           0
           0           0          55           0           0           0
           0           0           0           4           0           1
           0           0           0           0           0           0
           0           0           0           0           0           0
           0           0           0           0           0           0
           0           0           0           0           0           0
           0           0           0           0
Num RLSW                                   I               52
RLSW                                       R   N=          52
  1.00000000E+00  1.00000000E+00  1.00000000E+00  1.00000000E+00  5.40000000E-01
  0.00000000E+00  0.00000000E+00  1.00000000E+00  0.00000000E+00  0.00000000E+00
  0.00000000E+00  0.00000000E+00  1.00000000E+00  0.00000000E+00  0.00000000E+00
  0.00000000E+00  0.00000000E+00  1.00000000E+00  0.00000000E+00  0.00000000E+00
  0.00000000E+00  0.00000000E+00  1.00000000E+00  0.00000000E+00  0.00000000E+00
  0.00000000E+00  0.00000000E+00  1.00000000E+00  0.00000000E+00  0.00000000E+00
  0.00000000E+00  0.00000000E+00  1.00000000E+00  0.00000000E+00  0.00000000E+00
  0.00000000E+00  0.00000000E+00  0.00000000E+00  1.00000000E+00  1.00000000E+00
  0.00000000E+00  1.00000000E+00  0.00000000E+00  0.00000000E+00  0.00000000E+00
  0.00000000E+00  0.00000000E+00  0.00000000E+00  0.00000000E+00  0.00000000E+00
  0.00000000E+00  0.00000000E+00
MxBond                                     I                2
NBond                                      I   N=           4
           2           2           1           1
IBond                                      I   N=           8
           2           3           1           4           1           0
           2           0
RBond                                      R   N=           8
  1.00000000E-01  1.00000000E+00  1.00000000E-01  1.00000000E+00  1.00000000E+00
  0.00000000E+00  1.00000000E+00  0.00000000E+00
Virial Ratio                               R      2.002835121084616E+00
SCF Energy                                 R     -7.658360454261755E+01
Total Energy                               R     -7.658360454261755E+01
S**2                                       R      7.513339748978396E-01
S**2 after annihilation                    R      7.500012829818277E-01
RMS Force                                  R      1.231043426751650E-04
RMS Density                                R      6.357724368387168E-09
Job Status                                 I                1
Nuclear derivative order                   I                1
External E-field                           R   N=          35
  0.00000000E+00  0.00000000E+00  0.00000000E+00  0.00000000E+00  0.00000000E+00
  0.00000000E+00  0.00000000E+00  0.00000000E+00  0.00000000E+00  0.00000000E+00
  0.00000000E+00  0.00000000E+00  0.00000000E+00  0.00000000E+00  0.00000000E+00
  0.00000000E+00  0.00000000E+00  0.00000000E+00  0.00000000E+00  0.00000000E+00
  0.00000000E+00  0.00000000E+00  0.00000000E+00  0.00000000E+00  0.00000000E+00
  0.00000000E+00  0.00000000E+00  0.00000000E+00  0.00000000E+00  0.00000000E+00
  0.00000000E+00  0.00000000E+00  0.00000000E+00  0.00000000E+00  0.00000000E+00
IOpCl                                      I                1
IROHF                                      I                0
Alpha Orbital Energies                     R   N=          56
 -1.09363697E+01 -1.09363676E+01 -9.73474356E-01 -9.73064182E-01 -6.26797412E-01
 -6.24197242E-01 -4.64945186E-01 -4.06112233E-01 -3.23972315E-01 -3.23124604E-01
 -1.16518075E-01 -1.09316094E-01 -7.13616672E-02 -6.89709526E-02 -6.67568002E-02
 -4.53703942E-02 -4.25326729E-02 -1.50454605E-02  9.80115768E-04  4.85758581E-02
  2.77698588E-01  2.99177690E-01  3.73650861E-01  3.82014495E-01  3.82344222E-01
  3.91417830E-01  4.02683848E-01  4.16293845E-01  5.00596260E-01  5.87109631E-01
  9.01852357E-01  9.03224514E-01  9.04130389E-01  9.05019565E-01  1.08557149E+00
  1.08586294E+00  1.09605775E+00  1.09634694E+00  1.36514077E+00  1.36523301E+00
  1.63579117E+00  1.63668810E+00  1.63863189E+00  1.63961093E+00  2.16257436E+00
  2.18345061E+00  2.28752611E+00  2.29581376E+00  2.44548783E+00  2.45239074E+00
  2.45965723E+00  2.46671992E+00  2.95265753E+00  2.95457743E+00  2.32520968E+01
  2.32766031E+01
Beta Orbital Energies                      R   N=          56
 -1.09322182E+01 -1.09322157E+01 -9.49610156E-01 -9.49578388E-01 -6.13034137E-01
 -6.10318312E-01 -3.05187756E-01 -3.04082102E-01 -2.88963976E-01 -2.87647634E-01
 -1.20221043E-01 -1.08880108E-01 -6.75613612E-02 -6.35078301E-02 -5.44778770E-02
 -3.72227115E-02 -2.76632928E-02 -1.68452789E-02  1.77136649E-02  6.63169896E-02
  2.68544304E-01  2.93049664E-01  3.76412012E-01  3.79560517E-01  3.89686028E-01
  3.91092041E-01  4.40138779E-01  4.44624002E-01  5.16451859E-01  6.11671531E-01
  9.74381001E-01  9.75909292E-01  9.83470358E-01  9.84951794E-01  1.11844812E+00
  1.11844878E+00  1.11855110E+00  1.11855118E+00  1.36912986E+00  1.36958958E+00
  1.65349139E+00  1.65434831E+00  1.66018656E+00  1.66107260E+00  2.32747154E+00
  2.32787537E+00  2.33890635E+00  2.35022236E+00  2.47132529E+00  2.47859307E+00
  2.49480319E+00  2.50209578E+00  3.05247437E+00  3.05599888E+00  2.32653569E+01
  2.32898791E+01
Alpha MO coefficients                      R   N=        3136
  4.09218156E-01  3.37130534E-01 -1.45271138E-03  2.44449219E-15 -2.28625988E-15
  6.81569879E-03 -8.38850676E-04 -1.80633072E-14  7.29839698E-15 -2.87814827E-03
 -1.88782178E-04  8.44083719E-15 -3.21489936E-15  1.81271816E-04  5.27491422E-04
 -4.28870789E-16  8.82608222E-16 -3.65967771E-04  7.15926382E-15 -9.42843027E-06
  6.14049332E-04 -1.59431775E-14  3.88156319E-01  3.19780198E-01  1.37820474E-03
  1.75098751E-15 -8.50575535E-16  6.45319995E-03  7.96355958E-04 -9.57900496E-15
  4.20935696E-15 -2.67663169E-03  1.90794197E-04  4.89131324E-15 -1.62197934E-15
  1.39700775E-04 -4.51080861E-04 -7.99196254E-16  2.84893617E-16 -3.48420615E-04
 -4.15877239E-15 -8.86662597E-06  5.84838445E-04  7.74023725E-15  2.90007866E-04
 -2.03785301E-03  1.70563186E-03 -1.34956904E-03 -2.14642784E-14  2.81645828E-15
  2.74625954E-04 -1.93778652E-03  1.57524240E-03  1.28417861E-03 -1.04122103E-14
  1.78842419E-15 -3.88157879E-01 -3.19756319E-01  1.37298185E-03 -3.74360415E-15
  1.90637414E-15 -6.68678565E-03  7.82957620E-04  1.88334969E-14 -5.84317575E-15
  3.74120499E-03 -4.31022800E-05 -1.03551806E-14  1.93955554E-15 -7.82623220E-04
 -1.43350246E-03 -3.42927759E-16 -1.15405791E-16  3.22760602E-04 -6.84771176E-15
  1.03929748E-05 -5.37178767E-04  1.56412406E-14  4.09219636E-01  3.37107882E-01
  1.44775740E-03  1.94575547E-15 -1.28437258E-15  7.03727568E-03  8.26157690E-04
 -9.78532585E-15  4.95665789E-15 -3.88792792E-03 -3.30766137E-05  4.97464736E-15
 -2.33585756E-15  7.91098717E-04 -1.45935128E-03  6.46318187E-16  4.49552826E-16
 -3.41632326E-04 -4.78276324E-15 -1.08762160E-05  5.68849508E-04  8.32127285E-15
 -2.83690538E-04  1.84190788E-03 -2.42498264E-03  1.20313791E-03  1.98206220E-14
 -2.52239178E-15  2.98603407E-04 -1.94693051E-03  2.51164960E-03  1.27271161E-03
 -1.05754604E-14  2.19629915E-15 -7.99171645E-02 -1.30477552E-01 -5.58680472E-02
 -8.03100588E-13  2.69551291E-13  3.84888344E-01 -8.59207962E-02 -1.30223123E-12
  4.59968487E-13  2.42631350E-01 -2.99813960E-02 -3.19606314E-13  1.50939073E-13
 -4.05886142E-03 -1.70737411E-03 -2.76399312E-14 -5.32851597E-15 -3.86587363E-03
  1.74196243E-13  3.05004778E-04  7.33869170E-03 -2.49473201E-13 -7.99552560E-02
 -1.30539688E-01  5.58948929E-02 -3.96901355E-13  1.85727443E-13  3.85070764E-01
  8.59621065E-02 -6.17744020E-13  3.15204341E-13  2.42752104E-01  2.99964296E-02
 -1.49755448E-13  1.01494993E-13 -4.06409740E-03  1.71412217E-03 -2.19615499E-14
  6.60242226E-17 -3.86786171E-03 -1.16614907E-13  3.05112441E-04  7.34236013E-03
  2.55247318E-13  9.80639874E-02  1.22403902E-01 -2.58306125E-03  1.70238592E-02
  7.14550482E-15 -3.04416538E-14  9.81109054E-02  1.22462485E-01 -2.58905528E-03
 -1.70317585E-02 -3.34787470E-14 -1.63260616E-14 -7.99018605E-02 -1.30345059E-01
 -5.61004243E-02 -8.00635883E-13  2.73797487E-13  3.82765316E-01 -8.64343978E-02
 -1.29415962E-12  4.65189559E-13  2.53590383E-01 -3.15097539E-02 -3.39289380E-13
  1.63685505E-13 -1.10064374E-02 -1.41619676E-02 -3.11975544E-14 -1.06114129E-14
 -4.14919022E-03  1.73673425E-13  2.21885623E-04  7.65432573E-03 -2.47419681E-13
  7.98637099E-02  1.30282768E-01 -5.60738555E-02  3.96232053E-13 -1.87431103E-13
 -3.82581523E-01 -8.63934885E-02  6.10148391E-13 -3.14004015E-13 -2.53474429E-01
 -3.14954567E-02  1.71279627E-13 -1.12803996E-13  1.10044938E-02 -1.41611509E-02
  8.36388672E-15  1.01535202E-14  4.14735544E-03  1.15907794E-13 -2.21741893E-04
 -7.65084294E-03 -2.53200467E-13  9.81194528E-02  1.22663997E-01 -1.25474375E-02
  1.65452956E-02  3.49566386E-15 -3.01054867E-14 -9.80727815E-02 -1.22605663E-01
  1.25462193E-02  1.65371795E-02  3.49460773E-14  1.65633856E-14 -4.18321814E-02
 -6.97016380E-02  1.66535575E-01 -4.07702433E-12  1.80241825E-12  2.15505634E-01
  2.45591050E-01 -6.78512728E-12  2.94779575E-12  2.56056893E-01  1.48281984E-01
 -4.85509913E-12  1.98687613E-12  1.83701323E-02 -1.40777018E-03  3.05367701E-14
 -2.64488252E-15  1.47597480E-02  5.35529079E-14  4.54930814E-05 -2.54688588E-02
  6.24560229E-14 -4.18325727E-02 -6.97022918E-02 -1.66537033E-01 -1.95031962E-12
  1.29746588E-12  2.15507648E-01 -2.45593165E-01 -3.26905607E-12  2.11024991E-12
  2.56059425E-01 -1.48283152E-01 -2.31072246E-12  1.45036320E-12  1.83702945E-02
  1.40779910E-03 -1.09215492E-14  7.64899532E-16  1.47598800E-02 -2.85382003E-14
  4.54932423E-05 -2.54690872E-02  5.79739974E-14 -9.53804501E-02 -1.67558182E-01
 -7.10631294E-02 -7.94611361E-03 -8.66334108E-14  1.06682156E-13 -9.53812474E-02
 -1.67559575E-01 -7.10637691E-02  7.94617190E-03 -5.30823770E-14  7.58911457E-14
 -4.24991183E-02 -7.08577976E-02  1.67215394E-01 -4.12716862E-12  1.85001949E-12
  2.19535700E-01  2.47798940E-01 -6.86809748E-12  3.02322536E-12  2.61054080E-01
  1.44024082E-01 -4.93442223E-12  2.05574556E-12  1.64976527E-02 -1.74483291E-03
  5.23192077E-14 -1.54895806E-14  1.47444212E-02  5.17616368E-14 -4.23437910E-05
 -2.56273333E-02  6.88998887E-14  4.24987819E-02  7.08572387E-02  1.67213974E-01
  1.97694948E-12 -1.31586429E-12 -2.19533962E-01  2.47796801E-01  3.31070587E-12
 -2.13687673E-12 -2.61052147E-01  1.44022725E-01  2.36270009E-12 -1.48206253E-12
 -1.64975193E-02 -1.74482271E-03 -3.87490634E-14  2.25551470E-14 -1.47442988E-02
  2.79370604E-14  4.23435995E-05  2.56271208E-02 -5.56436431E-14 -9.55191319E-02
 -1.70629944E-01 -7.35895727E-02 -7.97791967E-03 -9.01970694E-14  1.09663380E-13
  9.55182823E-02  1.70628425E-01  7.35889589E-02 -7.97784040E-03  5.53418790E-14
 -7.67990102E-14  8.95390624E-15  2.02037858E-14 -1.63717197E-13  7.71311422E-02
  1.93258101E-01 -5.03948167E-16 -8.98072774E-14  1.21417358E-01  3.04220551E-01
 -8.59528794E-13  3.64966513E-13  1.09902715E-01  2.75368128E-01 -3.46964233E-13
  1.97795578E-13  8.88662991E-03  2.22655609E-02  3.27504376E-13 -1.61531769E-02
 -3.40595852E-13  5.58753910E-14 -6.44679157E-03  8.53379210E-14  1.47381308E-13
  3.24005345E-13  7.71313166E-02  1.93258056E-01 -4.04852369E-13  3.23880612E-13
  1.21417637E-01  3.04220489E-01 -9.14203821E-13  1.15262226E-13  1.09902968E-01
  2.75368074E-01 -2.36180283E-13  9.71369785E-14  8.88664939E-03  2.22655560E-02
  1.89244912E-13  1.61531882E-02 -1.57594630E-13  3.79223410E-14  6.44681226E-03
 -3.88018860E-16  6.15916623E-13  9.89529335E-13  1.42600621E-13  5.83283765E-03
  1.46145309E-02  1.51051333E-13  6.66552966E-13  4.42739013E-13 -1.51601049E-13
  5.83285554E-03  1.46145392E-02  1.44400825E-14  2.89062670E-14 -1.72187738E-13
  7.72066006E-02  1.93448190E-01 -1.98256324E-14 -9.54796152E-14  1.21654285E-01
  3.04815888E-01 -9.68214313E-13  3.53127011E-13  1.09771631E-01  2.75041035E-01
 -3.09058195E-13  3.02359622E-13  9.63081694E-03  2.41311249E-02  3.26630973E-13
 -1.79322352E-02 -3.39221893E-13  5.80722123E-14 -7.15680167E-03 -9.44637436E-14
 -1.60978861E-13 -3.43915564E-13 -7.72067533E-02 -1.93448086E-01  4.17819234E-13
 -3.35110704E-13 -1.21654529E-01 -3.04815733E-01  1.17642302E-12 -1.29680072E-13
 -1.09771853E-01 -2.75040899E-01  1.24316571E-13  1.72369535E-13 -9.63083454E-03
 -2.41311117E-02 -1.87397622E-13 -1.79322404E-02  1.57412453E-13 -4.13112111E-14
 -7.15682168E-03  6.20555114E-15  6.16913458E-13  1.09731324E-12  1.43350108E-13
  6.12953315E-03  1.53580075E-02 -1.67914897E-13 -6.84372315E-13 -6.82989787E-13
  1.59125868E-13 -6.12954986E-03 -1.53580108E-02 -9.80611280E-13 -1.58096774E-12
  2.27788145E-12  1.81180785E-01 -7.23114004E-02  4.33056080E-12  4.04245208E-12
  2.92578361E-01 -1.16771425E-01  4.10460899E-12  5.01234185E-12  2.80155054E-01
 -1.11812537E-01  3.33668998E-13  1.90496409E-12  5.23222971E-02 -2.08820342E-02
  7.28924801E-13  6.28369257E-03  3.02784137E-13 -6.03199401E-13 -1.57439690E-02
 -4.83439343E-13 -7.63460925E-13 -1.10220625E-12  1.81174990E-01 -7.23092709E-02
  2.01592435E-12 -2.25296197E-12  2.92568992E-01 -1.16767982E-01  1.92205378E-12
 -2.71500783E-12  2.80146153E-01 -1.11809266E-01  4.87021083E-14 -5.00537145E-13
  5.23205748E-02 -2.08814012E-02  4.29855878E-13 -6.28350995E-03  1.78965364E-13
 -4.37181667E-13  1.57434710E-02 -1.94883616E-12 -1.25386290E-12  1.32472956E-12
  7.23505538E-13  1.57096860E-02 -6.26988038E-03 -1.00017731E-12 -1.46210051E-13
  4.13164224E-13 -6.56948905E-13  1.57091927E-02 -6.26969945E-03  1.00952072E-12
  1.63459688E-12 -2.31942616E-12 -1.82022537E-01  7.26468651E-02 -4.58489235E-12
 -4.15021205E-12 -2.94401011E-01  1.17498129E-01 -3.83034521E-12 -4.92307081E-12
 -2.80303832E-01  1.11871083E-01 -7.00570195E-13 -2.73504507E-12 -5.45016995E-02
  2.17522424E-02 -7.39876819E-13 -6.38146077E-03 -3.02469495E-13  6.24071584E-13
  1.59890586E-02 -5.41751375E-13 -8.70418588E-13 -1.19536257E-12  1.82028159E-01
 -7.26492890E-02  2.50690784E-12 -2.47172791E-12  2.94410093E-01 -1.17502044E-01
  1.51904205E-12 -2.54570462E-12  2.80312548E-01 -1.11874840E-01  6.88819087E-13
 -1.92559452E-12  5.45033355E-02 -2.17529469E-02  4.49664989E-13 -6.38167578E-03
  1.76845688E-13 -4.78149987E-13  1.59895582E-02  1.97367936E-12  1.42942492E-12
 -1.74780313E-12 -7.41270705E-13 -1.58617990E-02  6.33055199E-03 -1.05221806E-12
 -4.84892242E-13  1.09324965E-12 -6.85804147E-13  1.58622981E-02 -6.33076680E-03
  2.93559899E-02  4.92729807E-02  2.79699178E-02  1.49379981E-13 -3.83882386E-14
 -1.46118494E-01  7.70471800E-02  3.15666009E-13 -7.80577383E-14 -5.63297554E-01
  7.81961628E-02  4.22889609E-13 -8.25356284E-14  9.68755628E-01 -1.71737633E-01
 -2.86784891E-12  8.82389247E-13  5.07605295E-03  1.53700283E-14  1.39651020E-03
 -5.85056855E-03 -2.07422080E-13  2.93558565E-02  4.92727580E-02 -2.79694643E-02
  1.32845995E-13 -4.69872166E-14 -1.46117800E-01 -7.70465136E-02  2.26766776E-13
 -8.63351219E-14 -5.63295362E-01 -7.81947744E-02  3.70975333E-13 -1.19679104E-13
  9.68752416E-01  1.71734592E-01 -1.73150562E-12  7.13639665E-13  5.07604076E-03
 -1.64714663E-14  1.39650709E-03 -5.85056373E-03  4.05296430E-14  7.01040776E-03
  1.41587217E-01 -5.00280357E-02 -1.47223280E-03  1.08045365E-13  1.15111450E-13
  7.01031044E-03  1.41586405E-01 -5.00282249E-02  1.47213139E-03  6.87517877E-14
  9.01114446E-14 -2.29330228E-02 -3.93682854E-02 -5.77727130E-02 -2.06115592E-13
  5.94955403E-14  1.32940945E-01 -1.04103015E-01 -4.52386197E-13  1.36093550E-13
  3.45707282E-01 -1.67615994E-01 -4.76348760E-13  1.58328216E-13 -7.53432736E-01
  6.69995634E-01  1.47560108E-12 -1.46398456E-13 -6.79508659E-03 -4.44814152E-14
 -1.07381417E-03  9.50775160E-03  2.51035693E-13  2.29331599E-02  3.93685204E-02
 -5.77726821E-02  9.18317127E-14 -4.58291921E-14 -1.32941703E-01 -1.04103241E-01
  1.93289485E-13 -1.00861461E-13 -3.45709636E-01 -1.67615716E-01  2.10385418E-13
 -1.26628224E-13  7.53438595E-01  6.69996787E-01 -6.37952419E-13  1.78557272E-13
  6.79513221E-03 -3.42885053E-14  1.07382376E-03 -9.50781841E-03  5.15355197E-14
  3.84442665E-03 -1.41608356E-01  2.06937663E-01  9.10687288E-03 -1.49842641E-13
 -1.18593393E-13 -3.84452271E-03  1.41608895E-01 -2.06939304E-01  9.10683507E-03
  8.62408235E-14  9.58926455E-14 -4.30657025E-14 -1.15567345E-13  3.56101683E-12
 -7.97315065E-02  3.18076434E-02  1.18267341E-12  3.97505323E-12 -9.14949285E-02
  3.65031560E-02 -4.47310813E-12  1.24731985E-11 -2.75054496E-01  1.09725313E-01
 -9.24790500E-13 -2.78384337E-11  7.16801073E-01 -2.85943688E-01  1.58513976E-13
 -3.25635296E-03 -1.00012503E-13 -4.96287300E-13  8.16254865E-03 -1.00965008E-13
 -1.99765342E-13 -3.31568484E-12 -7.97314630E-02  3.18076389E-02  1.16013478E-12
 -3.78707821E-12 -9.14948769E-02  3.65031611E-02 -2.67386319E-12 -1.10943380E-11
 -2.75054367E-01  1.09725297E-01  2.34037513E-12  2.68536153E-11  7.16800665E-01
 -2.85943592E-01  2.32005553E-13  3.25635624E-03 -5.89716018E-14 -5.05349288E-13
 -8.16255438E-03 -1.55767093E-13  1.15847811E-12  8.51993798E-12 -6.85680189E-13
  1.13070703E-03 -4.50791681E-04 -4.12818094E-13  1.06050004E-12  4.07744290E-12
  6.38054590E-13  1.13069517E-03 -4.50785965E-04  5.18789001E-14  8.51230182E-14
 -4.05734471E-13 -2.90434767E-02 -7.28089249E-02 -2.56917930E-13 -5.38494421E-13
 -2.82157067E-02 -7.07410458E-02 -7.30175564E-13 -1.17121922E-12 -1.05402380E-01
 -2.64223802E-01 -7.25905080E-13  4.41883305E-12  2.87286924E-01  7.20163531E-01
 -1.32589060E-13  7.45648228E-03  9.09842604E-14  7.06260988E-14  2.97436161E-03
  3.93647185E-14  6.64629851E-14  4.77068704E-13 -2.90434491E-02 -7.28088927E-02
 -2.49210077E-13  6.11851372E-13 -2.82156678E-02 -7.07410207E-02 -2.20634931E-13
  1.55365903E-12 -1.05402300E-01 -2.64223704E-01 -2.43862186E-13 -4.58752156E-12
  2.87286711E-01  7.20163202E-01 -1.03326790E-13 -7.45648913E-03  4.26710592E-14
  8.57715304E-14 -2.97436318E-03  1.58095259E-13 -3.59326084E-13  1.49827978E-12
  5.06194502E-14  1.04433765E-03  2.61726258E-03  1.13061996E-13 -3.29321465E-13
  3.95527175E-13 -4.58404565E-14  1.04433382E-03  2.61725039E-03  6.96199154E-03
  1.19121719E-02 -7.98094260E-02 -3.13008633E-12  1.79105550E-12 -4.26792991E-02
 -9.49367013E-02 -3.66952149E-12  2.00480771E-12 -3.16187931E-02 -2.66278448E-01
 -1.14154391E-11  6.51019874E-12 -2.35363025E-02  7.15585554E-01  2.52192234E-11
 -1.52263420E-11 -8.69269033E-03 -2.54489282E-13  1.71363152E-04  1.54172035E-02
  4.58733286E-13  6.96199363E-03  1.19121746E-02  7.98093231E-02 -3.40454125E-12
  1.87611306E-12 -4.26792806E-02  9.49365714E-02 -3.93301908E-12  2.08841630E-12
 -3.16189811E-02  2.66277997E-01 -1.21165488E-11  6.75490057E-12 -2.35371362E-02
 -7.15585569E-01  2.95918670E-11 -1.66588352E-11 -8.69270277E-03  2.36908344E-13
  1.71362370E-04  1.54172224E-02 -4.18634006E-13  1.82455203E-02 -2.64075493E-02
  4.39313804E-03  1.00548779E-02 -1.44660683E-13 -5.36302421E-14  1.82456076E-02
 -2.64074143E-02  4.39394618E-03 -1.00548640E-02 -3.46141420E-14 -6.05445922E-14
  1.25545674E-13  1.81375062E-13  5.64630961E-13 -8.18055073E-02  3.26515827E-02
 -2.31786032E-14  2.31212525E-13 -9.17541582E-02  3.66223532E-02 -3.72246544E-12
  3.66933179E-12 -2.99949366E-01  1.19720205E-01 -1.10290177E-11 -7.85750538E-13
  8.72856320E-01 -3.48389958E-01 -2.52853314E-13 -1.67402462E-03 -1.10601974E-13