Title Card Required                                                     
FOpt      UM062X                                                      6-311+G(d,p)        
Number of atoms                            I                6
Info1-9                                    I   N=           9
          15          15           0           0           0         110
           2          18        -502
Full Title                                 C   N=           2
Title Card Required     
Route                                      C   N=           5
#p opt UM062X/6-311+G** nosymm int=superfine SCF=NoVarAcc   
Charge                                     I                0
Multiplicity                               I                1
Number of electrons                        I               16
Number of alpha electrons                  I                8
Number of beta electrons                   I                8
Number of basis functions                  I               68
Number of independent functions            I               68
Number of point charges in /Mol/           I                0
Number of translation vectors              I                0
Atomic numbers                             I   N=           6
           6           6           1           1           1           1
Nuclear charges                            R   N=           6
  6.00000000E+00  6.00000000E+00  1.00000000E+00  1.00000000E+00  1.00000000E+00
  1.00000000E+00
Current cartesian coordinates              R   N=          18
 -9.51589542E+00  0.00000000E+00  0.00000000E+00  9.51589542E+00  0.00000000E+00
  0.00000000E+00 -1.08361746E+01 -1.62708373E+00 -2.16151899E-10 -1.08361199E+01
  1.62711527E+00  2.65049261E-10  1.08361746E+01  1.62708373E+00 -6.61303823E-10
  1.08361199E+01 -1.62711527E+00 -1.80158442E-10
Number of symbols in /Mol/                 I                0
Force Field                                I                0
Atom Types                                 C   N=           6
                                                            
            
Int Atom Types                             I   N=           6
           0           0           0           0           0           0
MM charges                                 R   N=           6
  0.00000000E+00  0.00000000E+00  0.00000000E+00  0.00000000E+00  0.00000000E+00
  0.00000000E+00
Integer atomic weights                     I   N=           6
          12          12           1           1           1           1
Real atomic weights                        R   N=           6
  1.20000000E+01  1.20000000E+01  1.00782504E+00  1.00782504E+00  1.00782504E+00
  1.00782504E+00
Atom fragment info                         I   N=           6
           0           0           0           0           0           0
Atom residue num                           I   N=           6
           0           0           0           0           0           0
Nuclear spins                              I   N=           6
           0           0           1           1           1           1
Nuclear ZEff                               R   N=           6
 -3.60000000E+00 -3.60000000E+00 -1.00000000E+00 -1.00000000E+00 -1.00000000E+00
 -1.00000000E+00
Nuclear ZNuc                               R   N=           6
  6.00000000E+00  6.00000000E+00  1.00000000E+00  1.00000000E+00  1.00000000E+00
  1.00000000E+00
Nuclear QMom                               R   N=           6
  0.00000000E+00  0.00000000E+00  0.00000000E+00  0.00000000E+00  0.00000000E+00
  0.00000000E+00
Nuclear GFac                               R   N=           6
  0.00000000E+00  0.00000000E+00  2.79284600E+00  2.79284600E+00  2.79284600E+00
  2.79284600E+00
MicOpt                                     I   N=           6
          -2          -2          -1          -1          -1          -1
Number of residues                         I                0
Number of secondary structures             I                0
Redundant internal dimensions              I   N=           4
          20          10           6           4
Redundant internal coordinate indices      I   N=          80
           1          -1           0           0           1          -2
           0           0           1          -3           0           0
           2          -1           0           0           2          -2
           0           0           2          -3           0           0
           1           3           0           0           1           4
           0           0           2           5           0           0
           2           6           0           0           2           1
           3           0           2           1           4           0
           3           1           4           0           1           2
           5           0           1           2           6           0
           5           2           6           0           3           1
           2           5           3           1           2           6
           4           1           2           5           4           1
           2           6
Redundant internal coordinates             R   N=          20
 -9.51589542E+00  0.00000000E+00  0.00000000E+00  9.51589542E+00  0.00000000E+00
  0.00000000E+00  2.09536122E+00  2.09535122E+00  2.09536122E+00  2.09535122E+00
  2.25247345E+00  2.25244369E+00  1.77826817E+00  2.25247345E+00  2.25244369E+00
  1.77826817E+00  3.14159265E+00 -0.00000000E+00 -0.00000000E+00  3.14159265E+00
ZRed-IntVec                                I   N=          20
          -1          -1          -1          -1          -1          -1
           0           0           0           0           0           0
           0           0           0           0           0           0
           0           0
ZRed-FPVec                                 R   N=          20
  0.00000000E+00  0.00000000E+00  0.00000000E+00  0.00000000E+00  0.00000000E+00
  0.00000000E+00  0.00000000E+00  0.00000000E+00  0.00000000E+00  0.00000000E+00
  0.00000000E+00  0.00000000E+00  0.00000000E+00  0.00000000E+00  0.00000000E+00
  0.00000000E+00  0.00000000E+00  0.00000000E+00  0.00000000E+00  0.00000000E+00
ZRed-Constraint1                           R   N=          20
 -9.51589542E+00  0.00000000E+00  0.00000000E+00  9.51589542E+00  0.00000000E+00
  0.00000000E+00  2.03694512E+00  2.03669844E+00  2.03694512E+00  2.03669844E+00
  2.00316847E+00  2.00313852E+00  2.27687832E+00  2.00316847E+00  2.00313852E+00
  2.27687832E+00  3.14159265E+00  0.00000000E+00  0.00000000E+00  3.14159265E+00
ZRed-Constraint2                           R   N=          20
 -9.51589542E+00  0.00000000E+00  0.00000000E+00  9.51589542E+00  0.00000000E+00
  0.00000000E+00  0.00000000E+00  0.00000000E+00  0.00000000E+00  0.00000000E+00
  0.00000000E+00  0.00000000E+00  0.00000000E+00  0.00000000E+00  0.00000000E+00
  0.00000000E+00  0.00000000E+00  0.00000000E+00  0.00000000E+00  0.00000000E+00
Number of contracted shells                I               28
Number of primitive shells                 I               50
Pure/Cartesian d shells                    I                0
Pure/Cartesian f shells                    I                0
Highest angular momentum                   I                2
Largest degree of contraction              I                6
Shell types                                I   N=          28
           0          -1          -1          -1          -1          -2
           0          -1          -1          -1          -1          -2
           0           0           0           1           0           0
           0           1           0           0           0           1
           0           0           0           1
Number of primitives per shell             I   N=          28
           6           3           1           1           1           1
           6           3           1           1           1           1
           3           1           1           1           3           1
           1           1           3           1           1           1
           3           1           1           1
Shell to atom map                          I   N=          28
           1           1           1           1           1           1
           2           2           2           2           2           2
           3           3           3           3           4           4
           4           4           5           5           5           5
           6           6           6           6
Primitive exponents                        R   N=          50
  4.56324000E+03  6.82024000E+02  1.54973000E+02  4.44553000E+01  1.30290000E+01
  1.82773000E+00  2.09642000E+01  4.80331000E+00  1.45933000E+00  4.83456000E-01
  1.45585000E-01  4.38000000E-02  6.26000000E-01  4.56324000E+03  6.82024000E+02
  1.54973000E+02  4.44553000E+01  1.30290000E+01  1.82773000E+00  2.09642000E+01
  4.80331000E+00  1.45933000E+00  4.83456000E-01  1.45585000E-01  4.38000000E-02
  6.26000000E-01  3.38650000E+01  5.09479000E+00  1.15879000E+00  3.25840000E-01
  1.02741000E-01  7.50000000E-01  3.38650000E+01  5.09479000E+00  1.15879000E+00
  3.25840000E-01  1.02741000E-01  7.50000000E-01  3.38650000E+01  5.09479000E+00
  1.15879000E+00  3.25840000E-01  1.02741000E-01  7.50000000E-01  3.38650000E+01
  5.09479000E+00  1.15879000E+00  3.25840000E-01  1.02741000E-01  7.50000000E-01
Contraction coefficients                   R   N=          50
  1.96665025E-03  1.52306019E-02  7.61269097E-02  2.60801033E-01  6.16462078E-01
  2.21006028E-01  1.14660081E-01  9.19999648E-01 -3.03068213E-03  1.00000000E+00
  1.00000000E+00  1.00000000E+00  1.00000000E+00  1.96665025E-03  1.52306019E-02
  7.61269097E-02  2.60801033E-01  6.16462078E-01  2.21006028E-01  1.14660081E-01
  9.19999648E-01 -3.03068213E-03  1.00000000E+00  1.00000000E+00  1.00000000E+00
  1.00000000E+00  2.54938145E-02  1.90373109E-01  8.52161486E-01  1.00000000E+00
  1.00000000E+00  1.00000000E+00  2.54938145E-02  1.90373109E-01  8.52161486E-01
  1.00000000E+00  1.00000000E+00  1.00000000E+00  2.54938145E-02  1.90373109E-01
  8.52161486E-01  1.00000000E+00  1.00000000E+00  1.00000000E+00  2.54938145E-02
  1.90373109E-01  8.52161486E-01  1.00000000E+00  1.00000000E+00  1.00000000E+00
P(S=P) Contraction coefficients            R   N=          50
  0.00000000E+00  0.00000000E+00  0.00000000E+00  0.00000000E+00  0.00000000E+00
  0.00000000E+00  4.02486927E-02  2.37593957E-01  8.15853851E-01  1.00000000E+00
  1.00000000E+00  1.00000000E+00  0.00000000E+00  0.00000000E+00  0.00000000E+00
  0.00000000E+00  0.00000000E+00  0.00000000E+00  0.00000000E+00  4.02486927E-02
  2.37593957E-01  8.15853851E-01  1.00000000E+00  1.00000000E+00  1.00000000E+00
  0.00000000E+00  0.00000000E+00  0.00000000E+00  0.00000000E+00  0.00000000E+00
  0.00000000E+00  0.00000000E+00  0.00000000E+00  0.00000000E+00  0.00000000E+00
  0.00000000E+00  0.00000000E+00  0.00000000E+00  0.00000000E+00  0.00000000E+00
  0.00000000E+00  0.00000000E+00  0.00000000E+00  0.00000000E+00  0.00000000E+00
  0.00000000E+00  0.00000000E+00  0.00000000E+00  0.00000000E+00  0.00000000E+00
Coordinates of each shell                  R   N=          84
 -9.51589542E+00  0.00000000E+00  0.00000000E+00 -9.51589542E+00  0.00000000E+00
  0.00000000E+00 -9.51589542E+00  0.00000000E+00  0.00000000E+00 -9.51589542E+00
  0.00000000E+00  0.00000000E+00 -9.51589542E+00  0.00000000E+00  0.00000000E+00
 -9.51589542E+00  0.00000000E+00  0.00000000E+00  9.51589542E+00  0.00000000E+00
  0.00000000E+00  9.51589542E+00  0.00000000E+00  0.00000000E+00  9.51589542E+00
  0.00000000E+00  0.00000000E+00  9.51589542E+00  0.00000000E+00  0.00000000E+00
  9.51589542E+00  0.00000000E+00  0.00000000E+00  9.51589542E+00  0.00000000E+00
  0.00000000E+00 -1.08361746E+01 -1.62708373E+00 -2.16151899E-10 -1.08361746E+01
 -1.62708373E+00 -2.16151899E-10 -1.08361746E+01 -1.62708373E+00 -2.16151899E-10
 -1.08361746E+01 -1.62708373E+00 -2.16151899E-10 -1.08361199E+01  1.62711527E+00
  2.65049261E-10 -1.08361199E+01  1.62711527E+00  2.65049261E-10 -1.08361199E+01
  1.62711527E+00  2.65049261E-10 -1.08361199E+01  1.62711527E+00  2.65049261E-10
  1.08361746E+01  1.62708373E+00 -6.61303823E-10  1.08361746E+01  1.62708373E+00
 -6.61303823E-10  1.08361746E+01  1.62708373E+00 -6.61303823E-10  1.08361746E+01
  1.62708373E+00 -6.61303823E-10  1.08361199E+01 -1.62711527E+00 -1.80158442E-10
  1.08361199E+01 -1.62711527E+00 -1.80158442E-10  1.08361199E+01 -1.62711527E+00
 -1.80158442E-10  1.08361199E+01 -1.62711527E+00 -1.80158442E-10
Num ILSW                                   I              100
ILSW                                       I   N=         100
           1           0           0           0           2           0
           0           0           0           0        4336          -1
           7           0           0           0           2           0
           0           0           0           0           1           0
           1           1           0           0           0           0
           0           0      100000           0          -1           0
           0           0           0           0           0           0
           0           0           0           1           0           0
           0 -2000000000           1           0           0           0
           0           0           4          52           0           0
           0           0          55           0           0           0
           0           0           0           6           0           1
           0           0           0           0           0           0
           0           0           0           0           0           0
           0           0           0           0           0           0
           0           0           0           0           0           0
           0           0           0           0
Num RLSW                                   I               52
RLSW                                       R   N=          52
  1.00000000E+00  1.00000000E+00  1.00000000E+00  1.00000000E+00  5.40000000E-01
  0.00000000E+00  0.00000000E+00  1.00000000E+00  0.00000000E+00  0.00000000E+00
  0.00000000E+00  0.00000000E+00  1.00000000E+00  0.00000000E+00  0.00000000E+00
  0.00000000E+00  0.00000000E+00  1.00000000E+00  0.00000000E+00  0.00000000E+00
  0.00000000E+00  0.00000000E+00  1.00000000E+00  0.00000000E+00  0.00000000E+00
  0.00000000E+00  0.00000000E+00  1.00000000E+00  0.00000000E+00  0.00000000E+00
  0.00000000E+00  0.00000000E+00  1.00000000E+00  0.00000000E+00  0.00000000E+00
  0.00000000E+00  0.00000000E+00  0.00000000E+00  1.00000000E+00  1.00000000E+00
  0.00000000E+00  1.00000000E+00  0.00000000E+00  0.00000000E+00  0.00000000E+00
  0.00000000E+00  0.00000000E+00  0.00000000E+00  0.00000000E+00  0.00000000E+00
  0.00000000E+00  0.00000000E+00
MxBond                                     I                3
NBond                                      I   N=           6
           3           3           1           1           1           1
IBond                                      I   N=          18
           2           3           4           1           5           6
           1           0           0           1           0           0
           2           0           0           2           0           0
RBond                                      R   N=          18
  1.00000000E-01  1.00000000E+00  1.00000000E+00  1.00000000E-01  1.00000000E+00
  1.00000000E+00  1.00000000E+00  0.00000000E+00  0.00000000E+00  1.00000000E+00
  0.00000000E+00  0.00000000E+00  1.00000000E+00  0.00000000E+00  0.00000000E+00
  1.00000000E+00  0.00000000E+00  0.00000000E+00
Virial Ratio                               R      2.003511682895712E+00
SCF Energy                                 R     -7.823749909297138E+01
Total Energy                               R     -7.823749909297138E+01
S**2                                       R     -2.131628207280301E-14
S**2 after annihilation                    R      2.131628207280278E-14
RMS Force                                  R      1.526860855454491E-04
RMS Density                                R      1.725526482167276E-09
Job Status                                 I                1
Nuclear derivative order                   I                1
External E-field                           R   N=          35
  0.00000000E+00  0.00000000E+00  0.00000000E+00  0.00000000E+00  0.00000000E+00
  0.00000000E+00  0.00000000E+00  0.00000000E+00  0.00000000E+00  0.00000000E+00
  0.00000000E+00  0.00000000E+00  0.00000000E+00  0.00000000E+00  0.00000000E+00
  0.00000000E+00  0.00000000E+00  0.00000000E+00  0.00000000E+00  0.00000000E+00
  0.00000000E+00  0.00000000E+00  0.00000000E+00  0.00000000E+00  0.00000000E+00
  0.00000000E+00  0.00000000E+00  0.00000000E+00  0.00000000E+00  0.00000000E+00
  0.00000000E+00  0.00000000E+00  0.00000000E+00  0.00000000E+00  0.00000000E+00
IOpCl                                      I                1
IROHF                                      I                0
Alpha Orbital Energies                     R   N=          68
 -1.06069370E+01 -1.06069369E+01 -7.56224447E-01 -7.56224409E-01 -4.75004470E-01
 -4.75004469E-01 -3.13102139E-01 -3.13099007E-01 -8.13724663E-02 -8.13641166E-02
  2.45400604E-02  2.45402089E-02  6.70123528E-02  6.74321815E-02  8.64244043E-02
  8.67597601E-02  9.11404249E-02  9.63564361E-02  1.77213833E-01  1.77383157E-01
  1.95931755E-01  1.95958899E-01  4.42160952E-01  4.42701748E-01  4.85485368E-01
  4.86673038E-01  5.88705650E-01  5.88947806E-01  6.24368870E-01  6.24379851E-01
  6.35655732E-01  6.37251236E-01  7.30329336E-01  7.31933771E-01  1.09265779E+00
  1.09270265E+00  1.10502721E+00  1.10502721E+00  1.19352221E+00  1.19352471E+00
  1.55436490E+00  1.55453889E+00  1.56835226E+00  1.56843431E+00  1.63010724E+00
  1.63026671E+00  1.86701900E+00  1.86701900E+00  1.87984564E+00  1.87986350E+00
  2.13606427E+00  2.13620393E+00  2.36693323E+00  2.36699896E+00  2.45379846E+00
  2.45408323E+00  2.50247461E+00  2.50251681E+00  2.55780714E+00  2.55819485E+00
  2.75169085E+00  2.75182484E+00  3.06774016E+00  3.06929225E+00  3.59247128E+00
  3.59247132E+00  2.37705558E+01  2.37708544E+01
Beta Orbital Energies                      R   N=          68
 -1.06069370E+01 -1.06069369E+01 -7.56224447E-01 -7.56224409E-01 -4.75004470E-01
 -4.75004469E-01 -3.13102139E-01 -3.13099007E-01 -8.13724663E-02 -8.13641166E-02
  2.45400604E-02  2.45402089E-02  6.70123528E-02  6.74321815E-02  8.64244043E-02
  8.67597601E-02  9.11404249E-02  9.63564361E-02  1.77213833E-01  1.77383157E-01
  1.95931755E-01  1.95958899E-01  4.42160952E-01  4.42701748E-01  4.85485368E-01
  4.86673038E-01  5.88705650E-01  5.88947806E-01  6.24368870E-01  6.24379851E-01
  6.35655732E-01  6.37251236E-01  7.30329336E-01  7.31933771E-01  1.09265779E+00
  1.09270265E+00  1.10502721E+00  1.10502721E+00  1.19352221E+00  1.19352471E+00
  1.55436490E+00  1.55453889E+00  1.56835226E+00  1.56843431E+00  1.63010724E+00
  1.63026671E+00  1.86701900E+00  1.86701900E+00  1.87984564E+00  1.87986350E+00
  2.13606427E+00  2.13620393E+00  2.36693323E+00  2.36699896E+00  2.45379846E+00
  2.45408323E+00  2.50247461E+00  2.50251681E+00  2.55780714E+00  2.55819485E+00
  2.75169085E+00  2.75182484E+00  3.06774016E+00  3.06929225E+00  3.59247128E+00
  3.59247132E+00  2.37705558E+01  2.37708544E+01
Alpha MO coefficients                      R   N=        4624
  3.98868461E-01  3.28257758E-01 -1.50894884E-03  1.95194521E-08  6.83940434E-14
  7.74671604E-03 -1.18261672E-03  6.35332492E-08  4.10132941E-15 -2.71398641E-03
 -4.03957699E-05 -1.34471396E-09  8.12880113E-15 -4.98177643E-04  5.95698661E-04
 -1.52531666E-08 -1.33785143E-14 -7.01345409E-04 -2.45238444E-14  2.59500718E-13
 -2.53005699E-04 -1.66848070E-08 -3.98868312E-01 -3.28257636E-01 -1.50894828E-03
  1.95194456E-08  4.66036055E-13 -7.74671314E-03 -1.18261627E-03  6.35332190E-08
  3.71931710E-13  2.71398540E-03 -4.03957576E-05 -1.34471965E-09  1.79291976E-14
  4.98177458E-04  5.95698442E-04 -1.52531659E-08 -1.90664853E-13  7.01345147E-04
  3.40302416E-13  2.59642085E-13  2.53005605E-04  1.66847964E-08  2.44473552E-04
 -1.93678405E-03  1.64035747E-03 -7.83989583E-04 -1.01225504E-03 -1.22319048E-13
  2.44463398E-04 -1.93686132E-03  1.64040336E-03 -7.83988960E-04  1.01231163E-03
  1.51794030E-13 -2.44473461E-04  1.93678333E-03 -1.64035686E-03 -7.83989289E-04
 -1.01225466E-03  3.78675370E-13 -2.44463307E-04  1.93686059E-03 -1.64040275E-03
 -7.83988667E-04  1.01231126E-03  1.05234720E-13  3.98868294E-01  3.28257985E-01
 -1.50799353E-03  1.94999122E-08  6.94560344E-14  7.74406051E-03 -1.18593568E-03
  6.36450363E-08  2.94673342E-15 -2.70643508E-03 -3.28644936E-05 -1.39218816E-09
  9.88974730E-15 -4.97073309E-04  5.84321996E-04 -1.54101054E-08 -1.53589547E-14
 -7.01258611E-04 -2.48975725E-14  2.59759206E-13 -2.53208741E-04 -1.67366263E-08
  3.98868443E-01  3.28258108E-01  1.50799410E-03 -1.94999182E-08 -4.65957046E-13
  7.74406340E-03  1.18593612E-03 -6.36450553E-08 -3.73334488E-13 -2.70643609E-03
  3.28645087E-05  1.39219588E-09 -1.73797894E-14 -4.97073496E-04 -5.84322219E-04
  1.54101152E-08  1.89784812E-13 -7.01258873E-04 -3.39998523E-13 -2.60128565E-13
 -2.53208836E-04 -1.67366286E-08  2.43707106E-04 -1.93377897E-03  1.63414912E-03
 -7.84491216E-04 -1.01237537E-03 -1.22579819E-13  2.43697014E-04 -1.93385669E-03
  1.63419581E-03 -7.84490642E-04  1.01243201E-03  1.51369227E-13  2.43707197E-04
 -1.93377970E-03  1.63414973E-03  7.84491509E-04  1.01237574E-03 -3.78741023E-13
  2.43697106E-04 -1.93385741E-03  1.63419642E-03  7.84490935E-04 -1.01243239E-03
 -1.05387413E-13 -7.40916394E-02 -1.19243586E-01 -4.81294963E-02  1.28117856E-06
  1.14912061E-12  3.25405516E-01 -7.18037356E-02  1.72123519E-06  1.82897763E-12
  2.22344151E-01 -3.19751040E-02  6.91847945E-07  7.27487040E-13  4.29248830E-03
 -2.17573856E-03  2.70549130E-08  5.28587013E-14 -5.16342378E-03  4.98301653E-14
  1.24171406E-12 -7.48567493E-05 -1.20069687E-07  7.40916384E-02  1.19243585E-01
 -4.81294957E-02  1.28117851E-06  1.53480548E-11 -3.25405512E-01 -7.18037347E-02
  1.72123511E-06  2.25801955E-11 -2.22344148E-01 -3.19751035E-02  6.91847922E-07
  1.03928763E-11 -4.29248825E-03 -2.17573854E-03  2.70549142E-08  3.00988774E-13
  5.16342372E-03  2.80864113E-12  1.24239008E-12  7.48567484E-05  1.20069688E-07
  8.08183816E-02  9.78520475E-02  5.90548937E-03  6.69672831E-03  1.18039628E-02
  1.61829243E-12  8.08194708E-02  9.78531003E-02  5.90557463E-03  6.69645644E-03
 -1.18042361E-02 -1.79065973E-12 -8.08183806E-02 -9.78520463E-02 -5.90548929E-03
  6.69672822E-03  1.18039627E-02 -3.84921099E-12 -8.08194698E-02 -9.78530991E-02
 -5.90557455E-03  6.69645635E-03 -1.18042360E-02 -4.31419341E-13 -7.40916815E-02
 -1.19243918E-01 -4.81303368E-02  1.28119515E-06  1.14849387E-12  3.25409748E-01
 -7.17997298E-02  1.72111744E-06  1.82956009E-12  2.22328035E-01 -3.19887638E-02
  6.91952197E-07  7.27313206E-13  4.28649292E-03 -2.14718986E-03  2.73492545E-08
  5.35605567E-14 -5.16370208E-03  4.99463473E-14  1.24148003E-12 -7.46888433E-05
 -1.20012139E-07 -7.40916824E-02 -1.19243920E-01  4.81303374E-02 -1.28119512E-06
 -1.53475435E-11  3.25409752E-01  7.17997308E-02 -1.72111741E-06 -2.25819865E-11
  2.22328038E-01  3.19887642E-02 -6.91952190E-07 -1.03897317E-11  4.28649298E-03
  2.14718989E-03 -2.73492504E-08 -3.00971778E-13 -5.16370214E-03 -2.80870022E-12
 -1.24165008E-12 -7.46888443E-05 -1.20012146E-07  8.08192544E-02  9.78461443E-02
  5.92166222E-03  6.69732801E-03  1.18039998E-02  1.61819598E-12  8.08203435E-02
  9.78471977E-02  5.92174594E-03  6.69705619E-03 -1.18042731E-02 -1.79099098E-12
  8.08192554E-02  9.78461456E-02  5.92166229E-03 -6.69732810E-03 -1.18040000E-02
  3.84896202E-12  8.08203445E-02  9.78471990E-02  5.92174602E-03 -6.69705628E-03
  1.18042733E-02  4.31894164E-13  2.11171570E-07  3.53162856E-07  1.97211795E-06
  1.46297349E-01  2.16206781E-11 -9.96510273E-07  3.11740859E-06  2.18146590E-01
  3.21402625E-11 -1.89502256E-06  1.91960970E-06  1.18580692E-01  1.79495615E-11
 -2.48651877E-07  1.23866065E-08 -1.19515662E-03 -7.77523367E-13 -2.72241100E-08
 -4.77061887E-12  8.20359855E-13 -9.81354726E-07 -3.23958177E-02  2.11171955E-07
  3.53163495E-07 -1.97212144E-06 -1.46297616E-01  2.16168342E-11 -9.96512077E-07
 -3.11741411E-06 -2.18146988E-01  3.21493739E-11 -1.89502604E-06 -1.91961312E-06
 -1.18580908E-01  1.79130781E-11 -2.48652363E-07 -1.23866455E-08  1.19515880E-03
 -7.19280099E-13 -2.72241601E-08  4.77003527E-12  1.02105569E-11 -9.81356471E-07
 -3.23958768E-02 -1.03852907E-01 -1.59831922E-01 -8.09021597E-02 -8.20827034E-03
 -3.20720644E-03 -3.22964130E-13  1.03852661E-01  1.59831347E-01  8.09021561E-02
  8.20816057E-03 -3.20736940E-03 -6.96307794E-13 -1.03853097E-01 -1.59832214E-01
 -8.09023073E-02  8.20828532E-03  3.20721230E-03 -3.12743018E-12  1.03852851E-01
  1.59831638E-01  8.09023037E-02 -8.20817555E-03  3.20737526E-03  2.10509054E-12
  2.11173861E-07  3.53172885E-07  1.97213394E-06  1.46297625E-01  2.16206641E-11
 -9.96619377E-07  3.11733370E-06  2.18146772E-01  3.21406196E-11 -1.89460653E-06
  1.91989150E-06  1.18580483E-01  1.79490061E-11 -2.48337514E-07  1.16596065E-08
 -1.19175927E-03 -7.77454065E-13 -2.72151206E-08 -4.77030736E-12  8.20190700E-13
 -9.81351204E-07 -3.23956395E-02 -2.11173474E-07 -3.53172236E-07  1.97213024E-06
  1.46297358E-01 -2.16168695E-11  9.96617543E-07  3.11732785E-06  2.18146374E-01
 -3.21491342E-11  1.89460310E-06  1.91988792E-06  1.18580267E-01 -1.79138888E-11
  2.48337093E-07  1.16595985E-08 -1.19175709E-03  7.20646061E-13  2.72150709E-08
 -4.76963930E-12 -1.02109445E-11  9.81349366E-07  3.23955804E-02 -1.03852962E-01
 -1.59833464E-01 -8.08988391E-02 -8.20838051E-03 -3.20727955E-03 -3.23164667E-13
  1.03852716E-01  1.59832889E-01  8.08988345E-02  8.20827071E-03 -3.20744251E-03
 -6.95949897E-13  1.03852773E-01  1.59833172E-01  8.08986915E-02 -8.20836553E-03
 -3.20727369E-03  3.12703323E-12 -1.03852526E-01 -1.59832597E-01 -8.08986869E-02
  8.20825574E-03 -3.20743666E-03 -2.10539032E-12 -3.90558483E-02 -6.48698433E-02
  1.62012741E-01 -2.43330383E-06 -4.14412123E-12  1.88801047E-01  2.33567650E-01
 -3.35908915E-06 -5.86508686E-12  2.95731558E-01  2.12757051E-01 -3.00394527E-06
 -5.50914743E-12  4.21436150E-02  3.71204600E-02 -5.16714042E-07 -1.12588817E-12
  1.76453259E-02  1.46737212E-12 -2.04719379E-12 -1.66355287E-02  4.97176872E-07
 -3.90558483E-02 -6.48698433E-02 -1.62012741E-01  2.43330372E-06  5.08682914E-11
  1.88801047E-01 -2.33567650E-01  3.35908899E-06  7.32540097E-11  2.95731558E-01
 -2.12757051E-01  3.00394511E-06  6.67381224E-11  4.21436151E-02 -3.71204600E-02
  5.16714019E-07  1.19209608E-11  1.76453259E-02  1.47848844E-11  2.04255245E-12
 -1.66355287E-02  4.97176845E-07 -4.88272340E-02 -9.03790850E-02 -6.08982932E-02
  7.28654258E-03 -9.89666243E-03 -1.67940003E-12 -4.88270709E-02 -9.03787244E-02
 -6.08978861E-02  7.28685962E-03  9.89647399E-03  1.19798797E-12 -4.88272340E-02
 -9.03790850E-02 -6.08982933E-02 -7.28654259E-03  9.89666244E-03  7.97158154E-13
 -4.88270709E-02 -9.03787244E-02 -6.08978861E-02 -7.28685963E-03 -9.89647400E-03
  3.71162129E-12 -3.90573227E-02 -6.48727050E-02  1.62016819E-01 -2.43336017E-06
 -4.14391670E-12  1.88813538E-01  2.33574715E-01 -3.35915720E-06 -5.86464694E-12
  2.95713520E-01  2.12754561E-01 -3.00419733E-06 -5.51183349E-12  4.20590524E-02
  3.71812087E-02 -5.16773736E-07 -1.12603254E-12  1.76444119E-02  1.46737274E-12
 -2.04728464E-12 -1.66362668E-02  4.97249141E-07  3.90573227E-02  6.48727050E-02
  1.62016819E-01 -2.43336005E-06 -5.08701325E-11 -1.88813538E-01  2.33574715E-01
 -3.35915703E-06 -7.32526951E-11 -2.95713520E-01  2.12754560E-01 -3.00419717E-06
 -6.67473427E-11 -4.20590523E-02  3.71812087E-02 -5.16773697E-07 -1.19304672E-11
 -1.76444119E-02 -1.47847893E-11 -2.04179634E-12  1.66362668E-02 -4.97249115E-07
 -4.88259573E-02 -9.04019307E-02 -6.08273260E-02  7.28711351E-03 -9.89770864E-03
 -1.67931272E-12 -4.88257942E-02 -9.04015694E-02 -6.08269202E-02  7.28743062E-03
  9.89752018E-03  1.19779020E-12  4.88259573E-02  9.04019307E-02  6.08273259E-02
  7.28711351E-03 -9.89770864E-03 -7.96848154E-13  4.88257942E-02  9.04015693E-02
  6.08269202E-02  7.28743062E-03  9.89752017E-03 -3.71200256E-12 -1.49518014E-13
 -2.35105005E-13  3.58974835E-12 -2.38398414E-11  1.62074550E-01  1.09301383E-12
  6.11972470E-12 -3.82594600E-11  2.56287786E-01 -3.24405259E-12  9.60560295E-12
 -4.38441818E-11  3.02293740E-01 -4.22906235E-12  5.29393684E-12 -3.25101869E-11
  1.80771756E-01  1.41510225E-12 -1.72862482E-02  3.00525950E-07 -3.64684203E-13
  2.59883650E-12 -5.50702198E-14 -2.62282296E-14  5.11604907E-11  2.37729144E-11
  1.62074550E-01 -2.65457418E-13  8.11007191E-11  3.87075577E-11  2.56287786E-01
  1.94877328E-12  9.61159304E-11  4.38914477E-11  3.02293740E-01  2.82219933E-12
  5.75499147E-11  3.26583616E-11  1.80771756E-01 -9.68026110E-12  1.72862482E-02
 -3.00525936E-07  5.42278023E-12  2.86951494E-12 -5.00401782E-13  1.44915168E-12
 -8.97742063E-13  5.54786050E-13 -2.14433471E-12  1.63246611E-02 -9.10545840E-14
 -8.45452718E-14  8.04553985E-12  5.80321062E-13 -2.92812151E-12  1.63247275E-02
 -4.20252257E-13  6.91555324E-14 -6.28880334E-12  5.44643647E-12  2.76125086E-12
  1.63246611E-02 -1.19064117E-14 -7.01644720E-13  2.62469715E-12  4.94771597E-12
  2.73452953E-12  1.63247275E-02 -1.38617270E-13 -2.20060493E-13  3.53543803E-12
 -2.38419352E-11  1.62098412E-01  1.09864430E-12  6.13560305E-12 -3.82551759E-11
  2.56295179E-01 -3.64820149E-12  9.23633678E-12 -4.38525776E-11  3.02430377E-01
 -4.09716272E-12  6.09230777E-12 -3.26048559E-11  1.80575307E-01  1.40840120E-12
 -1.72890808E-02  3.00580783E-07 -3.57276286E-13  2.59379412E-12  5.60491117E-14
  2.69207905E-14 -5.11601175E-11 -2.37754037E-11 -1.62098412E-01  2.72768311E-13
 -8.10997902E-11 -3.87028055E-11 -2.56295179E-01 -2.02755362E-12 -9.61206030E-11