Title Card Required                                                     
FOpt      UM062X                                                      6-311+G(d,p)        
Number of atoms                            I                6
Info1-9                                    I   N=           9
          15          15           0           0           0         110
           2          18        -502
Full Title                                 C   N=           2
Title Card Required     
Route                                      C   N=           6
#p opt UM062X/6-311+G** nosymm int=superfine SCF=NoVarAcc SC
F=tight     
Charge                                     I                1
Multiplicity                               I                2
Number of electrons                        I               15
Number of alpha electrons                  I                8
Number of beta electrons                   I                7
Number of basis functions                  I               68
Number of independent functions            I               68
Number of point charges in /Mol/           I                0
Number of translation vectors              I                0
Atomic numbers                             I   N=           6
           6           6           1           1           1           1
Nuclear charges                            R   N=           6
  6.00000000E+00  6.00000000E+00  1.00000000E+00  1.00000000E+00  1.00000000E+00
  1.00000000E+00
Current cartesian coordinates              R   N=          18
 -1.34284449E+01  0.00000000E+00  0.00000000E+00  1.34284449E+01  0.00000000E+00
  0.00000000E+00 -1.44923559E+01 -1.77907432E+00  2.37154359E-09 -1.44922318E+01
  1.77914720E+00  2.46529140E-09  1.44923559E+01  1.77907432E+00 -7.35630900E-10
  1.44922318E+01 -1.77914720E+00 -6.41937554E-10
Number of symbols in /Mol/                 I                0
Force Field                                I                0
Atom Types                                 C   N=           6
                                                            
            
Int Atom Types                             I   N=           6
           0           0           0           0           0           0
MM charges                                 R   N=           6
  0.00000000E+00  0.00000000E+00  0.00000000E+00  0.00000000E+00  0.00000000E+00
  0.00000000E+00
Integer atomic weights                     I   N=           6
          12          12           1           1           1           1
Real atomic weights                        R   N=           6
  1.20000000E+01  1.20000000E+01  1.00782504E+00  1.00782504E+00  1.00782504E+00
  1.00782504E+00
Atom fragment info                         I   N=           6
           0           0           0           0           0           0
Atom residue num                           I   N=           6
           0           0           0           0           0           0
Nuclear spins                              I   N=           6
           0           0           1           1           1           1
Nuclear ZEff                               R   N=           6
 -3.60000000E+00 -3.60000000E+00 -1.00000000E+00 -1.00000000E+00 -1.00000000E+00
 -1.00000000E+00
Nuclear ZNuc                               R   N=           6
  6.00000000E+00  6.00000000E+00  1.00000000E+00  1.00000000E+00  1.00000000E+00
  1.00000000E+00
Nuclear QMom                               R   N=           6
  0.00000000E+00  0.00000000E+00  0.00000000E+00  0.00000000E+00  0.00000000E+00
  0.00000000E+00
Nuclear GFac                               R   N=           6
  0.00000000E+00  0.00000000E+00  2.79284600E+00  2.79284600E+00  2.79284600E+00
  2.79284600E+00
MicOpt                                     I   N=           6
          -2          -2          -1          -1          -1          -1
Number of residues                         I                0
Number of secondary structures             I                0
Redundant internal dimensions              I   N=           4
          20          10           6           4
Redundant internal coordinate indices      I   N=          80
           1          -1           0           0           1          -2
           0           0           1          -3           0           0
           2          -1           0           0           2          -2
           0           0           2          -3           0           0
           1           3           0           0           1           4
           0           0           2           5           0           0
           2           6           0           0           2           1
           3           0           2           1           4           0
           3           1           4           0           1           2
           5           0           1           2           6           0
           5           2           6           0           3           1
           2           5           3           1           2           6
           4           1           2           5           4           1
           2           6
Redundant internal coordinates             R   N=          20
 -1.34284449E+01  0.00000000E+00  0.00000000E+00  1.34284449E+01  0.00000000E+00
  0.00000000E+00  2.07292356E+00  2.07292241E+00  2.07292356E+00  2.07292242E+00
  2.10975412E+00  2.10968469E+00  2.06374651E+00  2.10975412E+00  2.10968469E+00
  2.06374650E+00  3.14159265E+00  0.00000000E+00 -0.00000000E+00  3.14159265E+00
ZRed-IntVec                                I   N=          20
          -1          -1          -1          -1          -1          -1
           0           0           0           0           0           0
           0           0           0           0           0           0
           0           0
ZRed-FPVec                                 R   N=          20
  0.00000000E+00  0.00000000E+00  0.00000000E+00  0.00000000E+00  0.00000000E+00
  0.00000000E+00  0.00000000E+00  0.00000000E+00  0.00000000E+00  0.00000000E+00
  0.00000000E+00  0.00000000E+00  0.00000000E+00  0.00000000E+00  0.00000000E+00
  0.00000000E+00  0.00000000E+00  0.00000000E+00  0.00000000E+00  0.00000000E+00
ZRed-Constraint1                           R   N=          20
 -1.34284449E+01  0.00000000E+00  0.00000000E+00  1.34284449E+01  0.00000000E+00
  0.00000000E+00  2.05067934E+00  2.05048469E+00  2.05067934E+00  2.05048469E+00
  1.98162443E+00  1.98155420E+00  2.32000667E+00  1.98162443E+00  1.98155420E+00
  2.32000667E+00  3.14159265E+00  0.00000000E+00  0.00000000E+00  3.14159265E+00
ZRed-Constraint2                           R   N=          20
 -1.34284449E+01  0.00000000E+00  0.00000000E+00  1.34284449E+01  0.00000000E+00
  0.00000000E+00  0.00000000E+00  0.00000000E+00  0.00000000E+00  0.00000000E+00
  0.00000000E+00  0.00000000E+00  0.00000000E+00  0.00000000E+00  0.00000000E+00
  0.00000000E+00  0.00000000E+00  0.00000000E+00  0.00000000E+00  0.00000000E+00
Number of contracted shells                I               28
Number of primitive shells                 I               50
Pure/Cartesian d shells                    I                0
Pure/Cartesian f shells                    I                0
Highest angular momentum                   I                2
Largest degree of contraction              I                6
Shell types                                I   N=          28
           0          -1          -1          -1          -1          -2
           0          -1          -1          -1          -1          -2
           0           0           0           1           0           0
           0           1           0           0           0           1
           0           0           0           1
Number of primitives per shell             I   N=          28
           6           3           1           1           1           1
           6           3           1           1           1           1
           3           1           1           1           3           1
           1           1           3           1           1           1
           3           1           1           1
Shell to atom map                          I   N=          28
           1           1           1           1           1           1
           2           2           2           2           2           2
           3           3           3           3           4           4
           4           4           5           5           5           5
           6           6           6           6
Primitive exponents                        R   N=          50
  4.56324000E+03  6.82024000E+02  1.54973000E+02  4.44553000E+01  1.30290000E+01
  1.82773000E+00  2.09642000E+01  4.80331000E+00  1.45933000E+00  4.83456000E-01
  1.45585000E-01  4.38000000E-02  6.26000000E-01  4.56324000E+03  6.82024000E+02
  1.54973000E+02  4.44553000E+01  1.30290000E+01  1.82773000E+00  2.09642000E+01
  4.80331000E+00  1.45933000E+00  4.83456000E-01  1.45585000E-01  4.38000000E-02
  6.26000000E-01  3.38650000E+01  5.09479000E+00  1.15879000E+00  3.25840000E-01
  1.02741000E-01  7.50000000E-01  3.38650000E+01  5.09479000E+00  1.15879000E+00
  3.25840000E-01  1.02741000E-01  7.50000000E-01  3.38650000E+01  5.09479000E+00
  1.15879000E+00  3.25840000E-01  1.02741000E-01  7.50000000E-01  3.38650000E+01
  5.09479000E+00  1.15879000E+00  3.25840000E-01  1.02741000E-01  7.50000000E-01
Contraction coefficients                   R   N=          50
  1.96665025E-03  1.52306019E-02  7.61269097E-02  2.60801033E-01  6.16462078E-01
  2.21006028E-01  1.14660081E-01  9.19999648E-01 -3.03068213E-03  1.00000000E+00
  1.00000000E+00  1.00000000E+00  1.00000000E+00  1.96665025E-03  1.52306019E-02
  7.61269097E-02  2.60801033E-01  6.16462078E-01  2.21006028E-01  1.14660081E-01
  9.19999648E-01 -3.03068213E-03  1.00000000E+00  1.00000000E+00  1.00000000E+00
  1.00000000E+00  2.54938145E-02  1.90373109E-01  8.52161486E-01  1.00000000E+00
  1.00000000E+00  1.00000000E+00  2.54938145E-02  1.90373109E-01  8.52161486E-01
  1.00000000E+00  1.00000000E+00  1.00000000E+00  2.54938145E-02  1.90373109E-01
  8.52161486E-01  1.00000000E+00  1.00000000E+00  1.00000000E+00  2.54938145E-02
  1.90373109E-01  8.52161486E-01  1.00000000E+00  1.00000000E+00  1.00000000E+00
P(S=P) Contraction coefficients            R   N=          50
  0.00000000E+00  0.00000000E+00  0.00000000E+00  0.00000000E+00  0.00000000E+00
  0.00000000E+00  4.02486927E-02  2.37593957E-01  8.15853851E-01  1.00000000E+00
  1.00000000E+00  1.00000000E+00  0.00000000E+00  0.00000000E+00  0.00000000E+00
  0.00000000E+00  0.00000000E+00  0.00000000E+00  0.00000000E+00  4.02486927E-02
  2.37593957E-01  8.15853851E-01  1.00000000E+00  1.00000000E+00  1.00000000E+00
  0.00000000E+00  0.00000000E+00  0.00000000E+00  0.00000000E+00  0.00000000E+00
  0.00000000E+00  0.00000000E+00  0.00000000E+00  0.00000000E+00  0.00000000E+00
  0.00000000E+00  0.00000000E+00  0.00000000E+00  0.00000000E+00  0.00000000E+00
  0.00000000E+00  0.00000000E+00  0.00000000E+00  0.00000000E+00  0.00000000E+00
  0.00000000E+00  0.00000000E+00  0.00000000E+00  0.00000000E+00  0.00000000E+00
Coordinates of each shell                  R   N=          84
 -1.34284449E+01  0.00000000E+00  0.00000000E+00 -1.34284449E+01  0.00000000E+00
  0.00000000E+00 -1.34284449E+01  0.00000000E+00  0.00000000E+00 -1.34284449E+01
  0.00000000E+00  0.00000000E+00 -1.34284449E+01  0.00000000E+00  0.00000000E+00
 -1.34284449E+01  0.00000000E+00  0.00000000E+00  1.34284449E+01  0.00000000E+00
  0.00000000E+00  1.34284449E+01  0.00000000E+00  0.00000000E+00  1.34284449E+01
  0.00000000E+00  0.00000000E+00  1.34284449E+01  0.00000000E+00  0.00000000E+00
  1.34284449E+01  0.00000000E+00  0.00000000E+00  1.34284449E+01  0.00000000E+00
  0.00000000E+00 -1.44923559E+01 -1.77907432E+00  2.37154359E-09 -1.44923559E+01
 -1.77907432E+00  2.37154359E-09 -1.44923559E+01 -1.77907432E+00  2.37154359E-09
 -1.44923559E+01 -1.77907432E+00  2.37154359E-09 -1.44922318E+01  1.77914720E+00
  2.46529140E-09 -1.44922318E+01  1.77914720E+00  2.46529140E-09 -1.44922318E+01
  1.77914720E+00  2.46529140E-09 -1.44922318E+01  1.77914720E+00  2.46529140E-09
  1.44923559E+01  1.77907432E+00 -7.35630900E-10  1.44923559E+01  1.77907432E+00
 -7.35630900E-10  1.44923559E+01  1.77907432E+00 -7.35630900E-10  1.44923559E+01
  1.77907432E+00 -7.35630900E-10  1.44922318E+01 -1.77914720E+00 -6.41937554E-10
  1.44922318E+01 -1.77914720E+00 -6.41937554E-10  1.44922318E+01 -1.77914720E+00
 -6.41937554E-10  1.44922318E+01 -1.77914720E+00 -6.41937554E-10
Num ILSW                                   I              100
ILSW                                       I   N=         100
           1           0           0           1           2           0
           0           0           0           0        4336          -1
           7           0           0           0           2           0
           0           0           0           0           1           0
           1           1           0           0           0           0
           0           0      100000           0          -1           0
           0           0           0           0           0           0
           0           0           0           1           0           0
           0 -2000000000           1           0           0           0
           0           0           4          52           0           0
           0           0          55           0           0           0
           0           0           0           6           0           1
           0           0           0           0           0           0
           0           0           0           0           0           0
           0           0           0           0           0           0
           0           0           0           0           0           0
           0           0           0           0
Num RLSW                                   I               52
RLSW                                       R   N=          52
  1.00000000E+00  1.00000000E+00  1.00000000E+00  1.00000000E+00  5.40000000E-01
  0.00000000E+00  0.00000000E+00  1.00000000E+00  0.00000000E+00  0.00000000E+00
  0.00000000E+00  0.00000000E+00  1.00000000E+00  0.00000000E+00  0.00000000E+00
  0.00000000E+00  0.00000000E+00  1.00000000E+00  0.00000000E+00  0.00000000E+00
  0.00000000E+00  0.00000000E+00  1.00000000E+00  0.00000000E+00  0.00000000E+00
  0.00000000E+00  0.00000000E+00  1.00000000E+00  0.00000000E+00  0.00000000E+00
  0.00000000E+00  0.00000000E+00  1.00000000E+00  0.00000000E+00  0.00000000E+00
  0.00000000E+00  0.00000000E+00  0.00000000E+00  1.00000000E+00  1.00000000E+00
  0.00000000E+00  1.00000000E+00  0.00000000E+00  0.00000000E+00  0.00000000E+00
  0.00000000E+00  0.00000000E+00  0.00000000E+00  0.00000000E+00  0.00000000E+00
  0.00000000E+00  0.00000000E+00
MxBond                                     I                3
NBond                                      I   N=           6
           3           3           1           1           1           1
IBond                                      I   N=          18
           2           3           4           1           5           6
           1           0           0           1           0           0
           2           0           0           2           0           0
RBond                                      R   N=          18
  1.00000000E-01  1.00000000E+00  1.00000000E+00  1.00000000E-01  1.00000000E+00
  1.00000000E+00  1.00000000E+00  0.00000000E+00  0.00000000E+00  1.00000000E+00
  0.00000000E+00  0.00000000E+00  1.00000000E+00  0.00000000E+00  0.00000000E+00
  1.00000000E+00  0.00000000E+00  0.00000000E+00
Virial Ratio                               R      2.003449035853083E+00
SCF Energy                                 R     -7.789591890175082E+01
Total Energy                               R     -7.789591890175082E+01
S**2                                       R      7.585889323772896E-01
S**2 after annihilation                    R      7.500093430657839E-01
RMS Force                                  R      1.162191198208312E-05
RMS Density                                R      4.788519483781803E-09
Job Status                                 I                1
Nuclear derivative order                   I                1
External E-field                           R   N=          35
  0.00000000E+00  0.00000000E+00  0.00000000E+00  0.00000000E+00  0.00000000E+00
  0.00000000E+00  0.00000000E+00  0.00000000E+00  0.00000000E+00  0.00000000E+00
  0.00000000E+00  0.00000000E+00  0.00000000E+00  0.00000000E+00  0.00000000E+00
  0.00000000E+00  0.00000000E+00  0.00000000E+00  0.00000000E+00  0.00000000E+00
  0.00000000E+00  0.00000000E+00  0.00000000E+00  0.00000000E+00  0.00000000E+00
  0.00000000E+00  0.00000000E+00  0.00000000E+00  0.00000000E+00  0.00000000E+00
  0.00000000E+00  0.00000000E+00  0.00000000E+00  0.00000000E+00  0.00000000E+00
IOpCl                                      I                1
IROHF                                      I                0
Alpha Orbital Energies                     R   N=          68
 -1.08466078E+01 -1.08466078E+01 -9.62747735E-01 -9.62747734E-01 -7.09097481E-01
 -7.09097480E-01 -5.36513014E-01 -5.36513013E-01 -2.79452571E-01 -2.79452569E-01
 -8.80739364E-02 -8.80739018E-02 -4.47141398E-02 -4.47138983E-02 -2.68259794E-02
 -2.68257387E-02 -2.49807409E-02 -2.49733321E-02  3.58927980E-02  3.58928228E-02
  4.28679618E-02  4.28681762E-02  3.06716749E-01  3.06717130E-01  3.09128121E-01
  3.09129875E-01  4.21037009E-01  4.21037166E-01  4.34051386E-01  4.34053991E-01
  4.61662132E-01  4.61662185E-01  5.44919667E-01  5.44920891E-01  8.83822247E-01
  8.83822248E-01  9.78811554E-01  9.78811617E-01  1.02515920E+00  1.02515920E+00
  1.26526339E+00  1.26526343E+00  1.34021254E+00  1.34021281E+00  1.51300005E+00
  1.51300015E+00  1.61239941E+00  1.61239941E+00  1.75165940E+00  1.75165940E+00
  1.86668374E+00  1.86668374E+00  2.21369405E+00  2.21369423E+00  2.29210053E+00
  2.29210054E+00  2.31005364E+00  2.31005365E+00  2.44545170E+00  2.44545237E+00
  2.53363798E+00  2.53363804E+00  2.73456430E+00  2.73456579E+00  3.49375503E+00
  3.49375503E+00  2.35444670E+01  2.35444671E+01
Beta Orbital Energies                      R   N=          68
 -1.08393383E+01 -1.08393381E+01 -9.41469092E-01 -9.41435891E-01 -6.99090275E-01
 -6.99090192E-01 -3.90633051E-01 -3.69698154E-01 -2.63562413E-01 -2.63556315E-01
 -9.10919655E-02 -9.10719152E-02 -4.97939594E-02 -4.97929403E-02 -3.17081157E-02
 -3.17073345E-02 -2.79317686E-02 -2.79183089E-02  3.64614004E-02  3.64616407E-02
  4.76360488E-02  4.76580587E-02  3.04255393E-01  3.04264039E-01  3.06081696E-01
  3.06084519E-01  4.21571353E-01  4.21572005E-01  4.53009523E-01  4.53013911E-01
  4.73516424E-01  4.73516506E-01  5.56373043E-01  5.56378736E-01  8.96130370E-01
  8.96130371E-01  1.00215765E+00  1.00219008E+00  1.04387856E+00  1.04389050E+00
  1.27493264E+00  1.27493269E+00  1.35174145E+00  1.35174204E+00  1.52571571E+00
  1.52571691E+00  1.61740920E+00  1.61740944E+00  1.75934918E+00  1.75934921E+00
  1.87680486E+00  1.87680511E+00  2.22502937E+00  2.22502972E+00  2.30691004E+00
  2.30691039E+00  2.33838130E+00  2.33838136E+00  2.45801456E+00  2.45801524E+00
  2.54774170E+00  2.54774206E+00  2.76882568E+00  2.76882764E+00  3.52016219E+00
  3.52016220E+00  2.35495885E+01  2.35495887E+01
Alpha MO coefficients                      R   N=        4624
  5.64057023E-01  4.64030870E-01 -8.66310036E-04  3.03858017E-08  1.74063659E-12
  1.12226287E-02 -1.92148279E-03  7.43982031E-08  4.42837298E-12 -3.61861834E-03
  1.61427052E-04 -5.39106767E-09 -2.92388635E-13 -7.94515788E-04  6.08096517E-04
 -2.24345995E-08 -1.35764640E-12 -1.11898092E-03 -2.06142401E-12  8.81297211E-14
 -9.06686496E-04  5.90912332E-08 -1.01303976E-02 -8.33393956E-03 -1.55592247E-05
  5.45749277E-10  6.84427227E-15 -2.01557959E-04 -3.45082400E-05  1.33605586E-09
  2.56747410E-14  6.49924180E-05  2.89610419E-06 -9.67437703E-11 -3.76662289E-15
  1.42703265E-05  1.09257044E-05 -4.02769142E-10 -6.55659283E-15  2.00968090E-05
  1.14623272E-14  1.75662857E-15  1.62839316E-05 -1.06131600E-09  3.13902923E-04
 -2.97620051E-03  2.37099933E-03 -1.03273698E-03 -1.63017626E-03  2.20913499E-12
  3.13901045E-04 -2.97621384E-03  2.37100699E-03 -1.03262750E-03  1.63025408E-03
  2.28566201E-12 -5.63796813E-06  5.34534018E-05 -4.25853073E-05 -1.85476636E-05
 -2.92777339E-05  1.22339284E-14 -5.63793434E-06  5.34536408E-05 -4.25854441E-05
 -1.85456973E-05  2.92791316E-05  1.08964813E-14  1.01303976E-02  8.33393978E-03
 -1.55584271E-05  5.45704076E-10  3.17113613E-14  2.01556215E-04 -3.45109687E-05
  1.33630200E-09  7.90711866E-14 -6.49874974E-05  2.90231940E-06 -9.69020130E-11
 -4.62370110E-15 -1.42684923E-05  1.09169762E-05 -4.03074869E-10 -2.50781158E-14
 -2.00967213E-05 -3.72834139E-14  1.40548448E-15 -1.62840331E-05  1.06123135E-09
  5.64057023E-01  4.64030870E-01  8.66310027E-04 -3.03858063E-08 -3.88965710E-13
  1.12226287E-02  1.92148282E-03 -7.43980733E-08 -1.36841558E-12 -3.61861826E-03
 -1.61427163E-04  5.39108918E-09  1.39353507E-13 -7.94515745E-04 -6.08096360E-04
  2.24345998E-08  3.78787314E-13 -1.11898091E-03 -6.26918382E-13 -8.77458146E-14
 -9.06686484E-04  5.90912967E-08  5.63735063E-06 -5.34510169E-05  4.25804272E-05
 -1.85480049E-05 -2.92778122E-05  4.02503479E-14  5.63731696E-06 -5.34512567E-05
  4.25805655E-05 -1.85460387E-05  2.92792100E-05  4.06717278E-14  3.13902915E-04
 -2.97620044E-03  2.37099923E-03  1.03273698E-03  1.63017624E-03 -6.76764516E-13
  3.13901037E-04 -2.97621377E-03  2.37100689E-03  1.03262750E-03 -1.63025407E-03
 -5.99747612E-13 -1.11854027E-01 -1.81362478E-01 -4.98363094E-02  1.84344966E-06
  1.52999865E-10  5.11940277E-01 -7.19496962E-02  2.63313238E-06  2.33310557E-10
  3.26920015E-01 -3.08616146E-02  1.12386762E-06  9.14976326E-11  2.80296519E-03
 -3.99701868E-03  1.40149082E-07  6.95810388E-12 -7.56063139E-03 -3.10409383E-12
  1.70407394E-13 -4.64850514E-03  3.03517738E-07  1.80661956E-03  2.92929095E-03
 -8.04934864E-04  2.97745789E-08  6.19895620E-13 -8.26864415E-03 -1.16210339E-03
  4.25293993E-08  9.12024679E-13 -5.28028172E-03 -4.98457542E-04  1.81520345E-08
  3.80862640E-13 -4.52758429E-05 -6.45700886E-05  2.26327230E-09  2.60104248E-14
  1.22116036E-04  4.66210782E-14  3.22916470E-15  7.50807161E-05 -4.90223191E-09
  1.09977250E-01  1.31637356E-01 -6.62545795E-03  7.80681393E-03  1.87966244E-02
 -2.01091192E-11  1.09977451E-01  1.31637547E-01 -6.62545683E-03  7.80552223E-03
 -1.87971820E-02 -2.09288596E-11 -1.77630626E-03 -2.12615416E-03  1.07018489E-04
  1.26092174E-04  3.03595205E-04 -9.64437951E-14 -1.77630950E-03 -2.12615725E-03
  1.07018469E-04  1.26071311E-04 -3.03604210E-04 -8.18524618E-14 -1.80661959E-03
 -2.92929120E-03 -8.04935685E-04  2.97746549E-08  2.47098010E-12  8.26864733E-03
 -1.16209956E-03  4.25290804E-08  3.76802827E-12  5.28026962E-03 -4.98470305E-04
  1.81524355E-08  1.47897052E-12  4.52688036E-05 -6.45462613E-05  2.26398858E-09
  1.11582859E-13 -1.22116290E-04 -4.99572565E-14  2.73840312E-15 -7.50807136E-05
  4.90235739E-09 -1.11854027E-01 -1.81362478E-01  4.98363094E-02 -1.84344802E-06
 -3.83802570E-11  5.11940277E-01  7.19496962E-02 -2.63313052E-06 -5.64338020E-11
  3.26920015E-01  3.08616149E-02 -1.12386712E-06 -2.36163908E-11  2.80296508E-03
  3.99701831E-03 -1.40149113E-07 -1.67814213E-12 -7.56063138E-03 -2.88785623E-12
 -1.84512883E-13 -4.64850507E-03  3.03518001E-07  1.77630705E-03  2.12614912E-03
 -1.07004770E-04  1.26092629E-04  3.03595264E-04 -3.25124474E-13  1.77631029E-03
  2.12615221E-03 -1.07004754E-04  1.26071766E-04 -3.03604269E-04 -3.37912831E-13
  1.09977250E-01  1.31637356E-01 -6.62545765E-03 -7.80681397E-03 -1.87966244E-02
  5.95284852E-12  1.09977450E-01  1.31637547E-01 -6.62545653E-03 -7.80552227E-03
  1.87971819E-02  5.07323508E-12  5.19029592E-08  8.76243390E-08  7.70836185E-06
  2.23325085E-01  5.78765986E-12 -2.66278811E-07  1.14792540E-05  3.31817968E-01
  8.36703283E-12 -3.74059263E-07  5.66140638E-06  1.62531070E-01  3.79456440E-12
 -2.69673897E-08 -1.39010250E-07 -4.29446250E-03 -6.65389604E-14 -4.18905494E-09
 -8.05386810E-13  9.10003617E-11 -2.47508127E-06 -3.55736481E-02  3.93240882E-13
  6.62356614E-13 -5.84340365E-11 -1.69306730E-06  6.31054069E-17 -1.99826578E-12
 -8.70434557E-11 -2.51558644E-06  1.40253470E-16 -2.92143883E-12 -4.28527206E-11
 -1.23217954E-06  6.88692679E-16 -3.10318766E-13  8.91961286E-13  3.26652717E-08
 -2.21548579E-16 -3.46132232E-14 -2.06886492E-16  6.02727407E-16 -1.87656762E-11
 -2.69698320E-07 -1.49103980E-01 -2.14399765E-01 -5.60881868E-02 -1.16255482E-02
 -1.07041709E-02  2.78829062E-11  1.49103945E-01  2.14399680E-01  5.60882613E-02
  1.16248018E-02 -1.07049588E-02 -2.83036225E-11 -1.13038914E-06 -1.62536072E-06
 -4.25335023E-07  8.81329481E-08  8.11463648E-08 -2.29140579E-16  1.13038888E-06
  1.62535999E-06  4.25335856E-07 -8.81272936E-08  8.11523372E-08 -3.40776344E-16
  3.93411815E-13  6.65703537E-13  5.84443387E-11  1.69306944E-06 -5.35627987E-18
 -2.03804979E-12  8.70124660E-11  2.51555915E-06  3.76398124E-16 -2.75103262E-12
  4.29906141E-11  1.23217609E-06 -8.84174778E-16 -1.00614955E-13 -1.21514204E-12
 -3.24489394E-08  1.25902644E-15 -2.85496135E-14  2.48338746E-16  9.22346604E-16
 -1.87623587E-11 -2.69682365E-07 -5.19022609E-08 -8.76231596E-08  7.70836283E-06
  2.23325084E-01 -5.79214674E-12  2.66275275E-07  1.14792551E-05  3.31817968E-01
 -8.35465148E-12  3.74054282E-07  5.66140657E-06  1.62531070E-01 -3.77814541E-12
  2.69670990E-08 -1.39010334E-07 -4.29446250E-03  6.16552794E-14  4.18897796E-09
 -7.95587802E-13 -2.41363177E-11  2.47508132E-06  3.55736481E-02 -1.13038003E-06
 -1.62544705E-06 -4.25094607E-07 -8.81378713E-08 -8.11541948E-08  9.45886024E-17
  1.13037975E-06  1.62544649E-06  4.25094909E-07  8.81322093E-08 -8.11601696E-08
 -4.89455242E-16  1.49103980E-01  2.14399765E-01  5.60881872E-02 -1.16255482E-02
 -1.07041709E-02  7.95038486E-12 -1.49103945E-01 -2.14399680E-01 -5.60882617E-02
  1.16248018E-02 -1.07049588E-02 -7.63688927E-12 -4.36830169E-02 -7.36592170E-02
  2.58062922E-01 -8.94719134E-06 -2.70527092E-10  2.35211138E-01  3.88403071E-01
 -1.34421768E-05 -3.82469149E-10  2.78326363E-01  3.14855792E-01 -1.08427037E-05
 -3.11006657E-10  9.47258354E-03  1.41879193E-02 -4.72173380E-07 -2.88143053E-11
  1.79386198E-02  9.85813593E-11 -6.87669897E-13 -8.35828975E-03  5.84024922E-07
 -1.19087971E-02 -2.00808630E-02 -7.03527170E-02  2.43916968E-06  2.96950949E-11
  6.41229027E-02 -1.05885854E-01  3.66458628E-06  4.35619054E-11  7.58768951E-02
 -8.58354875E-02  2.95592099E-06  3.51787336E-11  2.58240520E-03 -3.86791592E-03
  1.28722252E-07  2.46239041E-12  4.89039898E-03  7.04345073E-12  1.88997721E-13
 -2.27862397E-03  1.59216082E-07 -6.44282457E-02 -1.04078589E-01 -3.84241835E-02
  1.14449244E-02 -1.22597519E-02 -7.19389060E-12 -6.44282096E-02 -1.04078527E-01
 -3.84242157E-02  1.14457843E-02  1.22589592E-02 -6.53593079E-12 -1.75643292E-02
 -2.83737482E-02 -1.04751354E-02 -3.12009829E-03  3.34223460E-03  9.55092243E-13
 -1.75643193E-02 -2.83737314E-02 -1.04751442E-02 -3.12033270E-03 -3.34201848E-03
  1.15106666E-12 -1.19087973E-02 -2.00808629E-02  7.03527200E-02 -2.43916968E-06
 -7.37504188E-11  6.41228977E-02  1.05885846E-01 -3.66458525E-06 -1.04269042E-10
  7.58769206E-02  8.58355228E-02 -2.95592194E-06 -8.47857370E-11  2.58239662E-03
  3.86785742E-03 -1.28724284E-07 -7.85551848E-12  4.89039917E-03  2.68750059E-11
 -1.87277611E-13 -2.27862437E-03  1.59215854E-07  4.36830171E-02  7.36592172E-02
  2.58062922E-01 -8.94719192E-06 -1.08926487E-10 -2.35211138E-01  3.88403069E-01
 -1.34421777E-05 -1.59792685E-10 -2.78326371E-01  3.14855802E-01 -1.08427051E-05
 -1.29037965E-10 -9.47258128E-03  1.41879035E-02 -4.72173981E-07 -9.03508629E-12
 -1.79386199E-02 -2.58350183E-11 -6.93495424E-13  8.35828992E-03 -5.84024841E-07
 -1.75643303E-02 -2.83737425E-02 -1.04751498E-02  3.12009713E-03 -3.34223501E-03
 -1.96121091E-12 -1.75643204E-02 -2.83737257E-02 -1.04751586E-02  3.12033154E-03
  3.34201889E-03 -1.78173016E-12  6.44282462E-02  1.04078588E-01  3.84241877E-02
  1.14449240E-02 -1.22597520E-02 -3.50269851E-12  6.44282100E-02  1.04078526E-01
  3.84242199E-02  1.14457839E-02  1.22589593E-02 -4.22120908E-12  4.36707194E-11
  6.76607902E-11  3.03937016E-10 -5.78000183E-12  2.27474206E-01 -1.72273500E-10
  5.10750853E-10 -1.08132382E-11  3.65228744E-01 -3.39129526E-10  5.51932508E-10
 -1.57825674E-11  3.91153278E-01 -9.54896702E-11  1.03058006E-10 -4.41152831E-12
  8.97114475E-02  8.44333088E-11 -1.23108142E-02  4.38964050E-07 -1.73906755E-11
  1.35327091E-12 -4.34802589E-12 -6.95061967E-12  6.08883057E-11  3.23647647E-12
  1.27787924E-01  1.76901694E-11  1.00060814E-10  6.09624396E-12  2.05174136E-01
  3.67634854E-11  1.08331473E-10  8.86497771E-12  2.19737719E-01  1.24869253E-11
  2.32033165E-11  2.44040591E-12  5.03971176E-02 -1.06382510E-11  6.91583194E-03
 -2.46596283E-07  3.62352307E-12  7.76527952E-13  4.56929378E-11  7.86076968E-11
  4.81860434E-11  3.40497633E-11  1.36715055E-11  2.03685385E-02  4.61429767E-11
  8.37316440E-11  5.91101523E-11  3.50481400E-11 -1.61760716E-11  2.03685522E-02
 -5.23405323E-12 -1.02920747E-11 -1.18390189E-11  6.47020515E-12  2.25018914E-12
  1.14424108E-02 -4.99423199E-12 -7.29606130E-12 -5.82374668E-12  5.89495896E-12
 -8.19062535E-13  1.14424185E-02 -2.45331486E-11 -3.80097665E-11 -1.70742470E-10
  3.24665770E-12 -1.27787929E-01  9.67797087E-11 -2.86924343E-10  6.07513713E-12
 -2.05174133E-01  1.90509088E-10 -3.10057376E-10  8.86323252E-12 -2.19737755E-01
  5.36466251E-11 -5.78964745E-11  2.47681934E-12 -5.03970597E-02 -4.74321365E-11
  6.91583229E-03 -2.46596343E-07  9.76972039E-12 -7.60472036E-13 -7.73984346E-12
 -1.23729075E-11  1.08386181E-10  5.76100371E-12  2.27474209E-01  3.14900579E-11
  1.78117994E-10  1.08537562E-11  3.65228742E-01  6.54486613E-11  1.92839949E-10