Title Card Required                                                     
FOpt      UM062X                                                      6-311+G(d,p)        
Number of atoms                            I                4
Info1-9                                    I   N=           9
          13          13           0           0           0         110
           2          18        -502
Full Title                                 C   N=           2
Title Card Required     
Route                                      C   N=           4
#p opt UM062X/6-311+G** nosymm int=superfine    
Charge                                     I                0
Multiplicity                               I                1
Number of electrons                        I               26
Number of alpha electrons                  I               13
Number of beta electrons                   I               13
Number of basis functions                  I               64
Number of independent functions            I               64
Number of point charges in /Mol/           I                0
Number of translation vectors              I                0
Atomic numbers                             I   N=           4
           8          16           1           1
Nuclear charges                            R   N=           4
  8.00000000E+00  1.60000000E+01  1.00000000E+00  1.00000000E+00
Current cartesian coordinates              R   N=          12
 -2.28847156E+00  0.00000000E+00  0.00000000E+00  2.28847156E+00  0.00000000E+00
  0.00000000E+00 -2.39391030E+00  1.47171326E+00 -1.08310692E+00  2.13410996E+00
 -2.21559471E+00 -1.23370158E+00
Number of symbols in /Mol/                 I                0
Force Field                                I                0
Atom Types                                 C   N=           4
                                                
Int Atom Types                             I   N=           4
           0           0           0           0
MM charges                                 R   N=           4
  0.00000000E+00  0.00000000E+00  0.00000000E+00  0.00000000E+00
Integer atomic weights                     I   N=           4
          16          32           1           1
Real atomic weights                        R   N=           4
  1.59949146E+01  3.19720718E+01  1.00782504E+00  1.00782504E+00
Atom fragment info                         I   N=           4
           0           0           0           0
Atom residue num                           I   N=           4
           0           0           0           0
Nuclear spins                              I   N=           4
           0           0           1           1
Nuclear ZEff                               R   N=           4
 -5.60000000E+00 -1.36000000E+01 -1.00000000E+00 -1.00000000E+00
Nuclear ZNuc                               R   N=           4
  8.00000000E+00  1.60000000E+01  1.00000000E+00  1.00000000E+00
Nuclear QMom                               R   N=           4
  0.00000000E+00  0.00000000E+00  0.00000000E+00  0.00000000E+00
Nuclear GFac                               R   N=           4
  0.00000000E+00  0.00000000E+00  2.79284600E+00  2.79284600E+00
MicOpt                                     I   N=           4
          -2          -2          -1          -1
Number of residues                         I                0
Number of secondary structures             I                0
Redundant internal dimensions              I   N=           4
          11           8           2           1
Redundant internal coordinate indices      I   N=          44
           1          -1           0           0           1          -2
           0           0           1          -3           0           0
           2          -1           0           0           2          -2
           0           0           2          -3           0           0
           1           3           0           0           2           4
           0           0           2           1           3           0
           1           2           4           0           3           1
           2           4
Redundant internal coordinates             R   N=          11
 -2.28847156E+00  0.00000000E+00  0.00000000E+00  2.28847156E+00  0.00000000E+00
  0.00000000E+00  1.83034911E+00  2.54061154E+00  1.62843404E+00  1.51000122E+00
 -1.99907547E+00
ZRed-IntVec                                I   N=          11
          -1          -1          -1          -1          -1          -1
           0           0           0           0           0
ZRed-FPVec                                 R   N=          11
  0.00000000E+00  0.00000000E+00  0.00000000E+00  0.00000000E+00  0.00000000E+00
  0.00000000E+00  0.00000000E+00  0.00000000E+00  0.00000000E+00  0.00000000E+00
  0.00000000E+00
ZRed-Constraint1                           R   N=          11
 -2.28847156E+00  0.00000000E+00  0.00000000E+00  2.28847156E+00  0.00000000E+00
  0.00000000E+00  1.82910095E+00  2.54436228E+00  1.64303567E+00  1.56387569E+00
 -6.29024251E-01
ZRed-Constraint2                           R   N=          11
 -2.28847156E+00  0.00000000E+00  0.00000000E+00  2.28847156E+00  0.00000000E+00
  0.00000000E+00  0.00000000E+00  0.00000000E+00  0.00000000E+00  0.00000000E+00
  0.00000000E+00
Number of contracted shells                I               27
Number of primitive shells                 I               49
Pure/Cartesian d shells                    I                0
Pure/Cartesian f shells                    I                0
Highest angular momentum                   I                2
Largest degree of contraction              I                6
Shell types                                I   N=          27
           0          -1          -1          -1          -1          -2
           0           0           0           0           0           0
          -1           1           1           1           1           1
          -2           0           0           0           1           0
           0           0           1
Number of primitives per shell             I   N=          27
           6           3           1           1           1           1
           6           3           1           1           1           1
           1           4           2           1           1           1
           1           3           1           1           1           3
           1           1           1
Shell to atom map                          I   N=          27
           1           1           1           1           1           1
           2           2           2           2           2           2
           2           2           2           2           2           2
           2           3           3           3           3           4
           4           4           4
Primitive exponents                        R   N=          49
  8.58850000E+03  1.29723000E+03  2.99296000E+02  8.73771000E+01  2.56789000E+01
  3.74004000E+00  4.21175000E+01  9.62837000E+00  2.85332000E+00  9.05661000E-01
  2.55611000E-01  8.45000000E-02  1.29200000E+00  9.34134000E+04  1.39617000E+04
  3.16991000E+03  9.02456000E+02  2.97158000E+02  1.08702000E+02  1.08702000E+02
  4.31553000E+01  1.81079000E+01  5.56009000E+00  2.13183000E+00  4.20403000E-01
  1.36045000E-01  4.05000000E-02  4.95040000E+02  1.17221000E+02  3.77749000E+01
  1.40584000E+01  5.56574000E+00  2.26297000E+00  8.07994000E-01  2.77460000E-01
  7.71410000E-02  6.50000000E-01  3.38650000E+01  5.09479000E+00  1.15879000E+00
  3.25840000E-01  1.02741000E-01  7.50000000E-01  3.38650000E+01  5.09479000E+00
  1.15879000E+00  3.25840000E-01  1.02741000E-01  7.50000000E-01
Contraction coefficients                   R   N=          49
  1.89515008E-03  1.43859006E-02  7.07320031E-02  2.40001011E-01  5.94797026E-01
  2.80802012E-01  1.13889012E-01  9.20811101E-01 -3.27447036E-03  1.00000000E+00
  1.00000000E+00  1.00000000E+00  1.00000000E+00  7.42999957E-04  5.79299966E-03
  2.99539983E-02  1.19027993E-01  3.68431979E-01  5.77298966E-01  1.43186060E-01
  6.24465262E-01  2.83366119E-01  1.00000000E+00  1.00000000E+00  1.00000000E+00
  1.00000000E+00  1.00000000E+00  8.30900251E-03  6.40240194E-02  2.77614084E-01
  7.45076225E-01  6.13711672E-01  4.43817763E-01  1.00000000E+00  1.00000000E+00
  1.00000000E+00  1.00000000E+00  2.54938145E-02  1.90373109E-01  8.52161486E-01
  1.00000000E+00  1.00000000E+00  1.00000000E+00  2.54938145E-02  1.90373109E-01
  8.52161486E-01  1.00000000E+00  1.00000000E+00  1.00000000E+00
P(S=P) Contraction coefficients            R   N=          49
  0.00000000E+00  0.00000000E+00  0.00000000E+00  0.00000000E+00  0.00000000E+00
  0.00000000E+00  3.65113974E-02  2.37152983E-01  8.19701941E-01  1.00000000E+00
  1.00000000E+00  1.00000000E+00  0.00000000E+00  0.00000000E+00  0.00000000E+00
  0.00000000E+00  0.00000000E+00  0.00000000E+00  0.00000000E+00  0.00000000E+00
  0.00000000E+00  0.00000000E+00  0.00000000E+00  0.00000000E+00  0.00000000E+00
  0.00000000E+00  1.00000000E+00  0.00000000E+00  0.00000000E+00  0.00000000E+00
  0.00000000E+00  0.00000000E+00  0.00000000E+00  0.00000000E+00  0.00000000E+00
  0.00000000E+00  0.00000000E+00  0.00000000E+00  0.00000000E+00  0.00000000E+00
  0.00000000E+00  0.00000000E+00  0.00000000E+00  0.00000000E+00  0.00000000E+00
  0.00000000E+00  0.00000000E+00  0.00000000E+00  0.00000000E+00
Coordinates of each shell                  R   N=          81
 -2.28847156E+00  0.00000000E+00  0.00000000E+00 -2.28847156E+00  0.00000000E+00
  0.00000000E+00 -2.28847156E+00  0.00000000E+00  0.00000000E+00 -2.28847156E+00
  0.00000000E+00  0.00000000E+00 -2.28847156E+00  0.00000000E+00  0.00000000E+00
 -2.28847156E+00  0.00000000E+00  0.00000000E+00  2.28847156E+00  0.00000000E+00
  0.00000000E+00  2.28847156E+00  0.00000000E+00  0.00000000E+00  2.28847156E+00
  0.00000000E+00  0.00000000E+00  2.28847156E+00  0.00000000E+00  0.00000000E+00
  2.28847156E+00  0.00000000E+00  0.00000000E+00  2.28847156E+00  0.00000000E+00
  0.00000000E+00  2.28847156E+00  0.00000000E+00  0.00000000E+00  2.28847156E+00
  0.00000000E+00  0.00000000E+00  2.28847156E+00  0.00000000E+00  0.00000000E+00
  2.28847156E+00  0.00000000E+00  0.00000000E+00  2.28847156E+00  0.00000000E+00
  0.00000000E+00  2.28847156E+00  0.00000000E+00  0.00000000E+00  2.28847156E+00
  0.00000000E+00  0.00000000E+00 -2.39391030E+00  1.47171326E+00 -1.08310692E+00
 -2.39391030E+00  1.47171326E+00 -1.08310692E+00 -2.39391030E+00  1.47171326E+00
 -1.08310692E+00 -2.39391030E+00  1.47171326E+00 -1.08310692E+00  2.13410996E+00
 -2.21559471E+00 -1.23370158E+00  2.13410996E+00 -2.21559471E+00 -1.23370158E+00
  2.13410996E+00 -2.21559471E+00 -1.23370158E+00  2.13410996E+00 -2.21559471E+00
 -1.23370158E+00
Num ILSW                                   I              100
ILSW                                       I   N=         100
           1           0           0           1           2           0
           0           0           0           0        4336          -1
           7           0           0           0           2           0
           0           0           0           0           1           0
           1           1           0           0           0           0
           0           0      100000           0          -1           0
           0           0           0           0           0           0
           0           0           0           1           0           0
           0 -2000000000           1           0           0           0
           0           0           4          52           0           0
           0           0          55           0           0           0
           0           0           0           4           0           1
           0           0           0           0           0           0
           0           0           0           0           0           0
           0           0           0           0           0           0
           0           0           0           0           0           0
           0           0           0           0
Num RLSW                                   I               52
RLSW                                       R   N=          52
  1.00000000E+00  1.00000000E+00  1.00000000E+00  1.00000000E+00  5.40000000E-01
  0.00000000E+00  0.00000000E+00  1.00000000E+00  0.00000000E+00  0.00000000E+00
  0.00000000E+00  0.00000000E+00  1.00000000E+00  0.00000000E+00  0.00000000E+00
  0.00000000E+00  0.00000000E+00  1.00000000E+00  0.00000000E+00  0.00000000E+00
  0.00000000E+00  0.00000000E+00  1.00000000E+00  0.00000000E+00  0.00000000E+00
  0.00000000E+00  0.00000000E+00  1.00000000E+00  0.00000000E+00  0.00000000E+00
  0.00000000E+00  0.00000000E+00  1.00000000E+00  0.00000000E+00  0.00000000E+00
  0.00000000E+00  0.00000000E+00  0.00000000E+00  1.00000000E+00  1.00000000E+00
  0.00000000E+00  1.00000000E+00  0.00000000E+00  0.00000000E+00  0.00000000E+00
  0.00000000E+00  0.00000000E+00  0.00000000E+00  0.00000000E+00  0.00000000E+00
  0.00000000E+00  0.00000000E+00
MxBond                                     I                2
NBond                                      I   N=           4
           2           2           1           1
IBond                                      I   N=           8
           2           3           1           4           1           0
           2           0
RBond                                      R   N=           8
  1.00000000E-01  1.00000000E+00  1.00000000E-01  1.00000000E+00  1.00000000E+00
  0.00000000E+00  1.00000000E+00  0.00000000E+00
Virial Ratio                               R      2.002075365155441E+00
SCF Energy                                 R     -4.744746921641952E+02
Total Energy                               R     -4.744746921641952E+02
S**2                                       R      5.151434834260726E-14
S**2 after annihilation                    R     -1.019628825815756E-12
RMS Force                                  R      4.852941644781079E-06
RMS Density                                R      2.224460393879726E-09
Job Status                                 I                1
Nuclear derivative order                   I                1
External E-field                           R   N=          35
  0.00000000E+00  0.00000000E+00  0.00000000E+00  0.00000000E+00  0.00000000E+00
  0.00000000E+00  0.00000000E+00  0.00000000E+00  0.00000000E+00  0.00000000E+00
  0.00000000E+00  0.00000000E+00  0.00000000E+00  0.00000000E+00  0.00000000E+00
  0.00000000E+00  0.00000000E+00  0.00000000E+00  0.00000000E+00  0.00000000E+00
  0.00000000E+00  0.00000000E+00  0.00000000E+00  0.00000000E+00  0.00000000E+00
  0.00000000E+00  0.00000000E+00  0.00000000E+00  0.00000000E+00  0.00000000E+00
  0.00000000E+00  0.00000000E+00  0.00000000E+00  0.00000000E+00  0.00000000E+00
IOpCl                                      I                1
IROHF                                      I                0
Alpha Orbital Energies                     R   N=          64
 -8.99723824E+01 -1.96736554E+01 -8.33265847E+00 -6.25483918E+00 -6.25116360E+00
 -6.24571301E+00 -1.09127305E+00 -8.30291194E-01 -5.30245609E-01 -4.91776316E-01
 -4.03617147E-01 -3.97010474E-01 -3.47085623E-01 -1.46720803E-01  1.55605050E-02
  4.10959197E-02  4.80534489E-02  5.72235120E-02  7.55827115E-02  1.52094084E-01
  1.95123743E-01  2.00014890E-01  2.16091372E-01  2.70175349E-01  3.14613017E-01
  3.39958886E-01  3.52510686E-01  4.04242284E-01  5.48421567E-01  6.14821671E-01
  7.18247963E-01  7.27344965E-01  7.94071516E-01  8.02171543E-01  9.75987206E-01
  1.04781876E+00  1.09102901E+00  1.14806338E+00  1.36893367E+00  1.39802291E+00
  1.40594982E+00  1.47265452E+00  1.50409861E+00  1.65195803E+00  1.66820312E+00
  1.78863732E+00  2.07163586E+00  2.10138256E+00  2.49031024E+00  2.56216203E+00
  2.89299007E+00  2.92683372E+00  3.17512894E+00  3.18868308E+00  3.85520367E+00
  5.05455753E+00  5.07931944E+00  5.53116072E+00  7.85131595E+00  1.74135768E+01
  1.74582409E+01  1.74630323E+01  4.98881157E+01  1.89115416E+02
Beta Orbital Energies                      R   N=          64
 -8.99723824E+01 -1.96736554E+01 -8.33265847E+00 -6.25483918E+00 -6.25116360E+00
 -6.24571301E+00 -1.09127305E+00 -8.30291194E-01 -5.30245609E-01 -4.91776316E-01
 -4.03617147E-01 -3.97010474E-01 -3.47085623E-01 -1.46720803E-01  1.55605050E-02
  4.10959197E-02  4.80534489E-02  5.72235120E-02  7.55827115E-02  1.52094084E-01
  1.95123743E-01  2.00014890E-01  2.16091372E-01  2.70175349E-01  3.14613017E-01
  3.39958886E-01  3.52510686E-01  4.04242284E-01  5.48421567E-01  6.14821671E-01
  7.18247963E-01  7.27344965E-01  7.94071516E-01  8.02171543E-01  9.75987206E-01
  1.04781876E+00  1.09102901E+00  1.14806338E+00  1.36893367E+00  1.39802291E+00
  1.40594982E+00  1.47265452E+00  1.50409861E+00  1.65195803E+00  1.66820312E+00
  1.78863732E+00  2.07163586E+00  2.10138256E+00  2.49031024E+00  2.56216203E+00
  2.89299007E+00  2.92683372E+00  3.17512894E+00  3.18868308E+00  3.85520367E+00
  5.05455753E+00  5.07931944E+00  5.53116072E+00  7.85131595E+00  1.74135768E+01
  1.74582409E+01  1.74630323E+01  4.98881157E+01  1.89115416E+02
Alpha MO coefficients                      R   N=        4096
 -3.63288031E-07  1.26041477E-06 -5.09003707E-06  8.90582950E-07 -8.45356664E-07
 -9.87895988E-06  9.41040766E-06 -4.96166832E-06  4.02434536E-06 -4.75897291E-06
  1.27569184E-05  3.37457419E-07 -1.41949192E-06  2.09688111E-04  1.23130470E-04
  3.51320403E-05 -2.87607715E-05 -6.07449694E-06  6.52830760E-07 -3.24237241E-07
  1.00854452E-05 -5.58291020E-07  4.10787619E-01  6.54410765E-01  1.53529064E-02
 -4.35792217E-03  1.65055357E-03 -9.99882171E-04  8.30122149E-05 -6.35191506E-05
 -2.09435188E-05 -1.25891068E-05 -5.29574681E-05 -6.37866463E-05 -3.91807882E-05
  1.36747846E-05  2.18432914E-05  1.31974470E-05 -3.28413583E-06  3.37083945E-06
  1.14811116E-06 -2.59263647E-05 -1.44609929E-04 -8.01040770E-05  1.90302897E-04
  1.64039720E-04  9.49848774E-05 -9.56420543E-06  2.90221524E-06  6.11003366E-05
 -5.97812954E-05  6.22127527E-06 -6.08471681E-06  9.49837203E-06 -9.53476096E-05
  4.07770997E-06 -8.82268657E-06  3.83755686E-06  2.00921910E-05 -1.84416957E-04
  2.63173117E-04 -1.25328338E-05 -1.47436281E-04 -8.17134470E-05  5.52860034E-01
  4.69679493E-01  5.57807255E-04  9.98835395E-04 -7.50261683E-04  8.09760949E-03
 -1.68982500E-04 -1.12277470E-04  8.29604408E-05 -3.30019331E-03 -1.21205675E-04
  1.90615389E-04 -1.30274269E-04  2.97020829E-03  5.02056684E-04  2.23200487E-04
 -1.75060875E-04  1.29435052E-05  8.43210690E-06 -1.10995489E-04 -9.14966698E-05
 -1.23208095E-05  6.23240183E-08  5.89077304E-07 -3.68833399E-06  8.85091461E-06
 -7.27820175E-05  4.86063191E-07 -7.86741630E-04  4.40552446E-04  4.93740935E-05
 -1.12436550E-05  7.95994674E-06 -1.69490117E-07  4.37193030E-08 -1.44015345E-05
 -5.59723791E-07 -1.79347307E-06  7.38147943E-05  9.50855310E-06  1.02723675E-05
 -8.64734285E-05 -6.03644571E-05 -4.17853655E-05  1.44622496E-04  1.24831873E-05
  3.89183411E-05 -2.96514368E-05  7.86406990E-06  2.25380254E-05  1.75445936E-05
  1.54031842E-05  8.32007173E-05 -9.49938998E-05 -8.81987834E-04 -1.55528815E-05
  3.51759284E-04 -2.60831515E-04  3.84968356E-05 -1.77701450E-04  1.63741216E-04
  5.82210044E-05 -3.87503366E-05 -1.80169666E-05 -4.97512216E-06 -4.86120424E-06
 -6.09699109E-05  1.52705343E-05 -1.18319437E-05 -4.32459488E-05  3.24598651E-04
 -9.03134338E-05  7.18168595E-05 -2.30297033E-04 -3.01314069E-05 -1.40417771E-04
  8.67569855E-05  2.77900549E-03  1.69952535E-03  5.52410276E-04 -4.46972298E-04
 -7.40677439E-05  1.20957520E-05  3.71737322E-05  1.49342509E-04 -1.43063721E-05
 -1.19761324E-01 -3.20484645E-01  5.16059920E-01  5.98860800E-01  4.33362013E-02
 -1.60812062E-02  1.71422666E-03 -8.80556865E-04 -2.28633045E-04 -1.47853781E-04
 -1.37007906E-03 -1.56351787E-03 -9.78359194E-04 -3.15893999E-03 -3.52893116E-03
 -2.20705085E-03 -3.64780691E-04 -3.36509339E-04 -2.30262473E-04 -3.10341482E-04
 -1.53304965E-03 -8.59802065E-04  2.45169217E-03  2.03528396E-03  1.19858374E-03
 -4.72600433E-04 -1.50755670E-05  9.03098846E-04 -3.14894752E-04 -1.96885635E-05
 -1.11285791E-04  4.71195183E-04 -1.52206792E-03  1.29208672E-04 -1.84194058E-04
  1.06215551E-04  9.53674384E-05 -1.67976136E-03  3.34638252E-03 -1.27730304E-04
 -1.38389260E-03 -7.65679381E-04 -1.36549664E-06 -2.19992287E-05 -5.73058417E-05
  1.20933486E-05 -8.31213321E-06  2.99646374E-04  2.50981978E-04 -6.41713227E-05
  4.60422469E-05 -8.61174823E-04 -8.57619436E-04 -4.11502425E-04  3.38802558E-04
  1.21181076E-03  9.63573206E-04  2.38582362E-04 -2.27088844E-04  6.42658769E-05
  1.70168880E-05  9.82623541E-05 -4.67419225E-05 -2.29496388E-05 -3.48605011E-04
 -9.55593612E-04  1.78795118E-03  1.39123599E-03  5.00454375E-05  9.25294122E-05
 -4.79640468E-04 -2.41567904E-03  4.69524329E-04  2.52524811E-04  3.68187588E-01
 -7.73155722E-02 -4.44121857E-02  6.89047903E-01 -1.44621914E-01 -8.30937600E-02
  5.35644486E-02 -1.11902129E-02 -6.40933550E-03 -7.72622128E-03  1.37475562E-03
  7.58572604E-04  4.98179585E-03 -9.29122502E-04 -4.90728183E-04  6.58797185E-05
 -2.24205105E-04  1.77928463E-04 -3.10603425E-04 -3.47086550E-04 -4.46631898E-05
  1.01483187E-03 -8.22517470E-04  1.92114953E-04 -1.70811780E-04  1.35431060E-04
  1.29101066E-04 -2.25490050E-04 -9.31693461E-05  1.16691988E-04 -2.00473388E-04
 -1.07398597E-04 -1.98751926E-07 -4.59358609E-06 -2.03552071E-05  8.47168873E-06
 -7.26815957E-07  6.18797290E-05  7.62509914E-05 -2.84207951E-05  1.45303720E-05
 -1.34935122E-04 -2.20146377E-04 -9.39036404E-05  3.24748985E-05 -5.62062588E-05
  1.52572735E-04 -1.13539413E-04  7.25655685E-05  1.19556209E-05  4.35040978E-06
  2.17106237E-05 -1.68526299E-05 -2.41272814E-06 -8.26844325E-04 -2.23898223E-03
  3.97440195E-03  3.97795459E-03 -7.17882665E-04 -2.46383125E-04 -5.98145349E-04
 -4.29524018E-04 -1.67202724E-03 -9.16327789E-04  8.92453395E-02  3.23421994E-01
  1.77385139E-01  1.66778089E-01  6.04130542E-01  3.31341833E-01  1.26826886E-02
  4.57979654E-02  2.51233908E-02 -1.76924386E-03 -5.94224172E-03 -3.26263598E-03
  1.06606756E-03  3.75308823E-03  2.05779435E-03  1.24016093E-04 -2.06958291E-04
 -5.23945617E-04  3.74361184E-04 -3.64747923E-04 -1.30137841E-07  1.27409668E-04
  2.65755789E-04  3.83488229E-05 -6.42540995E-05  1.41972794E-05 -5.39749607E-04
 -1.61241431E-04  1.17315574E-03  7.83868168E-06  5.47253573E-04  2.98375823E-04
 -4.15918242E-07 -2.11624636E-06 -8.85958623E-07 -2.68393656E-06  3.94001072E-06
  2.50516304E-05  3.44282631E-06  6.68846338E-06 -5.34033967E-06 -1.23314269E-04
 -2.11574625E-05 -7.57610038E-05  3.21559246E-05  1.76562991E-04 -2.28812069E-05
  1.07237433E-04 -8.30682720E-05 -1.61600137E-06  5.26619731E-06  1.56379063E-05
  8.22272480E-06 -6.68948149E-06 -4.35418864E-05 -1.18118357E-04  2.10597306E-04
  2.08148742E-04 -5.65329305E-05  4.59048072E-05  2.56801033E-05 -3.55881976E-05
  1.02623328E-03 -1.85390588E-03  1.72453377E-03 -1.83245802E-01  3.33237487E-01
  3.20140996E-03 -3.41713527E-01  6.21420086E-01  2.51543014E-04 -2.50029505E-02
  4.54743743E-02 -5.89592238E-05  3.36187396E-03 -6.13303826E-03  2.08840733E-05
 -1.96976645E-03  3.54023306E-03 -3.27461118E-04 -2.41428849E-04 -1.93792921E-04
 -1.72102367E-04  1.32176630E-04 -2.25730333E-05  2.52951918E-04 -3.16526104E-04
  4.62476539E-05 -1.20289832E-05 -1.83477385E-06 -1.86985904E-06 -2.23604286E-05
 -1.24722504E-05  1.56028739E-06 -5.20004820E-05  8.15652188E-05 -1.17490510E-01
 -1.93356710E-01  2.62533601E-03  3.69738639E-02 -2.77496105E-02  5.63189062E-01
  2.20333753E-03  6.02125139E-02 -4.51625217E-02  4.32735930E-01  1.79394254E-02
  2.56599962E-02 -2.02581144E-02 -3.61102502E-02 -1.32954040E-02 -7.16064575E-03
  5.15838434E-03 -2.82596224E-03  2.05224252E-04 -1.09968962E-02 -2.03157664E-03
 -2.08108958E-04  2.43889509E-03  6.90657227E-03 -1.42774497E-02 -2.65746729E-02
  4.50436176E-02  3.42561536E-02  1.03839395E-02 -6.79527111E-03 -8.68423877E-06
  1.86210100E-04  3.90984959E-03  2.49923715E-04  3.65687525E-04  7.56646791E-03
  5.21353215E-04  7.26598086E-04 -8.90903134E-03 -6.58101366E-04 -8.56096045E-04
 -2.22553955E-02 -3.65626281E-04 -1.48413575E-03 -4.45791707E-03 -1.00799598E-03
 -1.68971251E-03 -3.46834247E-03  6.09669520E-04  8.99493142E-04  4.80207540E-03
 -1.82756109E-04  1.09032783E-01  8.01576707E-02  2.23877877E-02  8.20073586E-04
 -1.85271662E-02  1.37290906E-02  4.59854790E-03  4.93500886E-03 -2.90224599E-03
 -7.33367693E-04  1.09947188E-03  5.78399570E-04  1.13529459E-02  1.89054172E-02
  1.95069107E-02 -9.02691168E-03  5.39513471E-03 -5.88632103E-02  2.89770406E-02
 -1.31623217E-02  7.99717794E-03 -3.54060307E-02  2.49512896E-02 -3.62456697E-03
  7.53627856E-04 -2.18570375E-02 -1.02867410E-02 -3.97116922E-03  3.28990984E-03
 -1.00480867E-03 -8.35528403E-04  1.07059306E-03  2.46292751E-03  7.49735448E-04
  3.31295682E-02  9.41697446E-02 -1.97901381E-01 -3.64701154E-01  6.58951626E-01
  4.13077432E-01 -6.23006881E-03  4.36483218E-03 -2.15310664E-03  7.83493067E-04
  1.83499109E-05  1.45721804E-02  8.57942147E-03  9.68730377E-05  2.90786716E-02
  1.70923783E-02 -2.30715045E-04 -4.04547463E-02 -2.34859949E-02  4.72175698E-03
 -5.44078699E-02 -3.33585531E-02 -1.05928564E-02 -6.06905283E-03 -7.78707536E-03
 -1.00976064E-02  4.70182058E-04  2.06342216E-02 -8.28292513E-03 -4.02607919E-04
 -1.59798685E-02 -2.36463930E-02  1.12433086E-02  1.08716250E-03  4.36021779E-03
 -3.22843414E-03  1.01043559E-01  1.30489387E-01  3.46169247E-03  2.84734915E-03
  1.99038018E-02  1.10040589E-02  3.77270706E-02  6.30498375E-02 -2.05338841E-02
  2.01221686E-01 -1.45486286E-01 -1.89817789E-01 -2.84840056E-02  2.87905284E-01
 -2.08165882E-01 -2.86123500E-01 -3.36464254E-02  1.96517982E-01 -1.40359257E-01
 -5.56139055E-02  4.24236650E-03  2.25893332E-02 -1.46326961E-02  1.91015181E-03
 -5.71075155E-04 -1.47458447E-02 -1.21543310E-02  9.40392565E-04  2.04974238E-03
  5.85362713E-03 -1.25559201E-02 -2.29224611E-02  4.45357843E-02  3.03880708E-02
  6.13360653E-03 -3.84818863E-03 -4.52695171E-03  2.05937714E-03 -8.40285071E-03
 -6.35816699E-03  3.83619368E-03 -1.61821908E-02 -1.21416126E-02  7.34332157E-03
  2.13321037E-02  1.62901224E-02 -1.01010932E-02  5.06542038E-02  3.71140131E-02
 -2.21894235E-02  1.46705351E-02  1.34601095E-02 -1.24308213E-02  3.64231897E-03
  3.37297270E-03 -7.80832653E-04 -4.29985465E-03 -7.49012207E-03  1.64664434E-01
  2.58721649E-01  7.71956537E-02  4.43344856E-03 -2.45389468E-02  1.80058987E-02
 -2.49814284E-03 -1.85824959E-03 -9.65196164E-03  2.62716572E-03  6.69102109E-04
 -7.18561047E-04  1.18448319E-03  2.10226934E-03  3.27238509E-02  1.06334390E-02
  3.84777086E-02 -9.34532668E-03  4.77370737E-02  1.53633271E-02  5.55364029E-02
  9.36966798E-03  4.89165371E-02  2.51759716E-02  4.47757324E-02 -6.60042008E-03
  7.61641895E-03 -4.23700874E-03  1.01146878E-02 -2.52992793E-03  1.03096272E-04
  1.08470205E-03  1.37071419E-03  3.03389710E-03  1.14556996E-02  3.27322491E-02
 -7.03929579E-02 -1.28398087E-01  2.34605869E-01  2.87985508E-01  1.85745585E-02
  8.39127511E-04 -2.08289235E-02 -9.68788628E-03 -1.99653978E-03 -7.10295245E-02
 -3.94536403E-02 -3.93220712E-03 -1.38302947E-01 -7.68199776E-02  7.28424815E-03
  2.01339529E-01  1.11942832E-01  6.68746350E-03  3.51067031E-01  1.94795138E-01
  5.15670737E-03  9.70204874E-02  4.95373812E-02  1.98899833E-03 -3.68038849E-03
 -3.61822493E-02  3.83645484E-02 -6.21566157E-03 -1.29093013E-02 -2.76975777E-02
  1.15510027E-02  4.02379707E-03  6.12769851E-03  6.16689924E-04 -1.56117866E-01
 -2.81031603E-01 -1.30632930E-01 -4.27457764E-03 -2.29733748E-02 -1.22144564E-02
 -1.05834567E-02 -1.81161039E-02 -1.70309967E-01  8.77535450E-02  1.56577805E-01
  6.44011150E-02 -2.51046357E-01  1.27576453E-01  2.28448353E-01  3.46334945E-02
 -2.56617220E-01  1.04636524E-01  2.18206005E-01  1.32511898E-03 -4.29206010E-02
  3.42272591E-02  4.61172436E-02 -4.16517850E-03  7.46300865E-03  4.31276864E-03
 -7.94258925E-03 -6.69653700E-03  2.60332929E-03  7.43094738E-03 -1.59262477E-02
 -3.00835912E-02  6.52227506E-02  2.29610260E-02  9.52732464E-03 -2.96331288E-02
  4.67631177E-03 -1.23202587E-02 -4.84096819E-02  8.94258317E-03 -1.08686168E-02
 -9.33710762E-02  1.74888495E-02 -2.07596295E-02  1.27612982E-01 -2.64378433E-02
  2.95959556E-02  2.89896315E-01 -4.37940658E-02  6.54144986E-02  1.22844055E-01
 -2.18247721E-02  4.73476042E-02  6.82899128E-03 -1.10609294E-02  2.37538855E-03
 -1.95594113E-02 -9.58690434E-03 -1.62928740E-03  1.94037732E-02 -1.47265195E-02
 -1.91569628E-02  6.74328756E-03  2.04924272E-02  1.22793686E-02  2.70699564E-02
  1.78932804E-02  1.09992765E-02  1.66194745E-03  3.88272365E-03  7.73580631E-03
  1.32420617E-02  1.22515489E-01  1.59057565E-01  1.79963764E-01 -4.67608174E-02
  1.80937960E-01  2.32107069E-01  2.62259700E-01 -2.64835646E-02  1.86026897E-01
  2.20656576E-01  2.37061400E-01 -1.94786800E-02  2.61669136E-02  3.95952141E-02
  5.83788058E-02 -1.16916222E-02 -2.34769944E-03  1.46832800E-03 -2.75880837E-03
  6.61638911E-03 -3.87049073E-03 -1.10625613E-02  2.38367158E-02  4.40967063E-02
 -8.68623777E-02 -7.95098221E-02 -1.98533542E-02  2.52999765E-02  3.77415374E-03
  2.01249137E-03  3.87260278E-02  1.52842397E-02  9.96827392E-04  7.46315371E-02
  2.96628131E-02  2.07366413E-03 -1.02131286E-01 -4.45624967E-02 -4.09695026E-03
 -2.32779269E-01 -7.99951310E-02  3.04844383E-04 -1.00553231E-01 -1.92463213E-02
  3.64455748E-03 -8.22965531E-03 -1.91232232E-03  5.87680130E-03  4.79928113E-03
  3.24042638E-04  5.13390473E-03 -6.76251113E-03  2.38318192E-02  1.34273411E-02
  1.94537640E-02  2.02072990E-02  2.60559746E-02  4.77427795E-02  3.46928579E-02
 -3.13338555E-03  3.24677390E-03  3.38148060E-03  3.63594131E-03  6.14766915E-03
  1.82974194E-02 -3.73824267E-03 -5.44713911E-02 -1.98081469E-02  2.67759678E-02
 -5.26974585E-03 -7.95786341E-02 -2.50665785E-02  3.08095153E-02 -1.14920271E-02
 -6.91491882E-02 -1.41489399E-02  3.46848093E-03 -7.40389701E-03 -1.91593962E-02