 Entering Gaussian System, Link 0=g16
 Initial command:
 /home/szhao/Apps/g16/l1.exe "/home/szhao/tmp/Gau-114291.inp" -scrdir="/home/szhao/tmp/"
 Default is to use a total of  16 processors:
                               16 via shared-memory
                                1 via Linda
 Entering Link 1 = /home/szhao/Apps/g16/l1.exe PID=    114293.
  
 Copyright (c) 1988,1990,1992,1993,1995,1998,2003,2009,2016,
            Gaussian, Inc.  All Rights Reserved.
  
 This is part of the Gaussian(R) 16 program.  It is based on
 the Gaussian(R) 09 system (copyright 2009, Gaussian, Inc.),
 the Gaussian(R) 03 system (copyright 2003, Gaussian, Inc.),
 the Gaussian(R) 98 system (copyright 1998, Gaussian, Inc.),
 the Gaussian(R) 94 system (copyright 1995, Gaussian, Inc.),
 the Gaussian 92(TM) system (copyright 1992, Gaussian, Inc.),
 the Gaussian 90(TM) system (copyright 1990, Gaussian, Inc.),
 the Gaussian 88(TM) system (copyright 1988, Gaussian, Inc.),
 the Gaussian 86(TM) system (copyright 1986, Carnegie Mellon
 University), and the Gaussian 82(TM) system (copyright 1983,
 Carnegie Mellon University). Gaussian is a federally registered
 trademark of Gaussian, Inc.
  
 This software contains proprietary and confidential information,
 including trade secrets, belonging to Gaussian, Inc.
  
 This software is provided under written license and may be
 used, copied, transmitted, or stored only in accord with that
 written license.
  
 The following legend is applicable only to US Government
 contracts under FAR:
  
                    RESTRICTED RIGHTS LEGEND
  
 Use, reproduction and disclosure by the US Government is
 subject to restrictions as set forth in subparagraphs (a)
 and (c) of the Commercial Computer Software - Restricted
 Rights clause in FAR 52.227-19.
  
 Gaussian, Inc.
 340 Quinnipiac St., Bldg. 40, Wallingford CT 06492
  
  
 ---------------------------------------------------------------
 Warning -- This program may not be used in any manner that
 competes with the business of Gaussian, Inc. or will provide
 assistance to any competitor of Gaussian, Inc.  The licensee
 of this program is prohibited from giving any competitor of
 Gaussian, Inc. access to this program.  By using this program,
 the user acknowledges that Gaussian, Inc. is engaged in the
 business of creating and licensing software in the field of
 computational chemistry and represents and warrants to the
 licensee that it is not a competitor of Gaussian, Inc. and that
 it will not use this program in any manner prohibited above.
 ---------------------------------------------------------------
  

 Cite this work as:
 Gaussian 16, Revision A.03,
 M. J. Frisch, G. W. Trucks, H. B. Schlegel, G. E. Scuseria, 
 M. A. Robb, J. R. Cheeseman, G. Scalmani, V. Barone, 
 G. A. Petersson, H. Nakatsuji, X. Li, M. Caricato, A. V. Marenich, 
 J. Bloino, B. G. Janesko, R. Gomperts, B. Mennucci, H. P. Hratchian, 
 J. V. Ortiz, A. F. Izmaylov, J. L. Sonnenberg, D. Williams-Young, 
 F. Ding, F. Lipparini, F. Egidi, J. Goings, B. Peng, A. Petrone, 
 T. Henderson, D. Ranasinghe, V. G. Zakrzewski, J. Gao, N. Rega, 
 G. Zheng, W. Liang, M. Hada, M. Ehara, K. Toyota, R. Fukuda, 
 J. Hasegawa, M. Ishida, T. Nakajima, Y. Honda, O. Kitao, H. Nakai, 
 T. Vreven, K. Throssell, J. A. Montgomery, Jr., J. E. Peralta, 
 F. Ogliaro, M. J. Bearpark, J. J. Heyd, E. N. Brothers, K. N. Kudin, 
 V. N. Staroverov, T. A. Keith, R. Kobayashi, J. Normand, 
 K. Raghavachari, A. P. Rendell, J. C. Burant, S. S. Iyengar, 
 J. Tomasi, M. Cossi, J. M. Millam, M. Klene, C. Adamo, R. Cammi, 
 J. W. Ochterski, R. L. Martin, K. Morokuma, O. Farkas, 
 J. B. Foresman, and D. J. Fox, Gaussian, Inc., Wallingford CT, 2016.
 
 ******************************************
 Gaussian 16:  ES64L-G16RevA.03 25-Dec-2016
                19-Nov-2024 
 ******************************************
 %chk=opt.chk
 %mem=4GB
 %nprocshared=8
 Will use up to    8 processors via shared memory.
 --------------------------------------------
 #p opt UM062X/6-311+G** nosymm int=superfine
 --------------------------------------------
 1/18=20,19=15,26=5,38=1/1,3;
 2/9=110,12=2,15=1,17=6,18=5,40=1/2;
 3/5=4,6=6,7=111,11=2,25=1,30=1,71=1,74=-55,75=-7,116=2/1,2,3;
 4//1;
 5/5=2,38=5/2;
 6/7=2,8=2,9=2,10=2,28=1/1;
 7/30=1/1,2,3,16;
 1/18=20,19=15,26=5/3(2);
 2/9=110,15=1/2;
 99//99;
 2/9=110,15=1/2;
 3/5=4,6=6,7=111,11=2,25=1,30=1,71=1,74=-55,75=-7,116=2/1,2,3;
 4/5=5,16=3,69=1/1;
 5/5=2,38=5/2;
 7/30=1/1,2,3,16;
 1/18=20,19=15,26=5/3(-5);
 2/9=110,15=1/2;
 6/7=2,8=2,9=2,10=2,19=2,28=1/1;
 99/9=1/99;
 Leave Link    1 at Tue Nov 19 10:45:51 2024, MaxMem=   536870912 cpu:               0.3 elap:               0.0
 (Enter /home/szhao/Apps/g16/l101.exe)
 -------------------
 Title Card Required
 -------------------
 Symbolic Z-matrix:
 Charge =  1 Multiplicity = 2
 C                    -1   -0.50896   0.        0. 
 C                    -1    0.50896   0.        0. 
 H                    0    -0.90916  -0.9323    0. 
 H                    0    -0.90679   0.93666   0. 
 H                    0     0.90916   0.9323    0. 
 H                    0     0.90679  -0.93666   0. 
 
 ITRead=  2  2  0  0  0  0
 MicOpt= -2 -2 -1 -1 -1 -1
 NAtoms=      6 NQM=        4 NQMF=       2 NMMI=      0 NMMIF=      0
                NMic=       0 NMicF=      0.
                    Isotopes and Nuclear Properties:
 (Nuclear quadrupole moments (NQMom) in fm**2, nuclear magnetic moments (NMagM)
  in nuclear magnetons)

  Atom         1           2           3           4           5           6
 IAtWgt=          12          12           1           1           1           1
 AtmWgt=  12.0000000  12.0000000   1.0078250   1.0078250   1.0078250   1.0078250
 NucSpn=           0           0           1           1           1           1
 AtZEff=  -0.0000000  -0.0000000  -0.0000000  -0.0000000  -0.0000000  -0.0000000
 NQMom=    0.0000000   0.0000000   0.0000000   0.0000000   0.0000000   0.0000000
 NMagM=    0.0000000   0.0000000   2.7928460   2.7928460   2.7928460   2.7928460
 AtZNuc=   6.0000000   6.0000000   1.0000000   1.0000000   1.0000000   1.0000000
 Leave Link  101 at Tue Nov 19 10:45:51 2024, MaxMem=   536870912 cpu:               2.5 elap:               0.3
 (Enter /home/szhao/Apps/g16/l103.exe)

 GradGradGradGradGradGradGradGradGradGradGradGradGradGradGradGradGradGrad
 Berny optimization.
 Initialization pass.
                           ----------------------------
                           !    Initial Parameters    !
                           ! (Angstroms and Degrees)  !
 --------------------------                            --------------------------
 ! Name  Definition              Value          Derivative Info.                !
 --------------------------------------------------------------------------------
 ! X1    R(1,-1)                -0.509          Frozen                          !
 ! Y1    R(1,-2)                 0.0            Frozen                          !
 ! Z1    R(1,-3)                 0.0            Frozen                          !
 ! X2    R(2,-1)                 0.509          Frozen                          !
 ! Y2    R(2,-2)                 0.0            Frozen                          !
 ! Z2    R(2,-3)                 0.0            Frozen                          !
 ! R1    R(1,3)                  1.0146         estimate D2E/DX2                !
 ! R2    R(1,4)                  1.0176         estimate D2E/DX2                !
 ! R3    R(2,5)                  1.0146         estimate D2E/DX2                !
 ! R4    R(2,6)                  1.0176         estimate D2E/DX2                !
 ! A1    A(2,1,3)              113.2318         estimate D2E/DX2                !
 ! A2    A(2,1,4)              113.0125         estimate D2E/DX2                !
 ! A3    A(3,1,4)              133.7558         estimate D2E/DX2                !
 ! A4    A(1,2,5)              113.2318         estimate D2E/DX2                !
 ! A5    A(1,2,6)              113.0125         estimate D2E/DX2                !
 ! A6    A(5,2,6)              133.7558         estimate D2E/DX2                !
 ! D1    D(3,1,2,5)            180.0            estimate D2E/DX2                !
 ! D2    D(3,1,2,6)              0.0            estimate D2E/DX2                !
 ! D3    D(4,1,2,5)              0.0            estimate D2E/DX2                !
 ! D4    D(4,1,2,6)            180.0            estimate D2E/DX2                !
 --------------------------------------------------------------------------------
 Trust Radius=3.00D-01 FncErr=1.00D-07 GrdErr=1.00D-07 EigMax=2.50D+02 EigMin=1.00D-04
 Number of steps in this run=     30 maximum allowed number of steps=    100.
 GradGradGradGradGradGradGradGradGradGradGradGradGradGradGradGradGradGrad

 Leave Link  103 at Tue Nov 19 10:45:51 2024, MaxMem=   536870912 cpu:               0.1 elap:               0.0
 (Enter /home/szhao/Apps/g16/l202.exe)
                          Input orientation:                          
 ---------------------------------------------------------------------
 Center     Atomic      Atomic             Coordinates (Angstroms)
 Number     Number       Type             X           Y           Z
 ---------------------------------------------------------------------
      1          6           0       -0.508962    0.000000    0.000000
      2          6           0        0.508962    0.000000    0.000000
      3          1           0       -0.909157   -0.932297    0.000000
      4          1           0       -0.906791    0.936658    0.000000
      5          1           0        0.909157    0.932297    0.000000
      6          1           0        0.906791   -0.936658    0.000000
 ---------------------------------------------------------------------
                    Distance matrix (angstroms):
                    1          2          3          4          5
     1  C    0.000000
     2  C    1.017924   0.000000
     3  H    1.014561   1.697127   0.000000
     4  H    1.017642   1.697553   1.868956   0.000000
     5  H    1.697127   1.014561   2.604415   1.815953   0.000000
     6  H    1.697553   1.017642   1.815953   2.607373   1.868956
                    6
     6  H    0.000000
 Symmetry turned off by external request.
 Stoichiometry    C2H4(1+,2)
 Framework group  C2H[SGH(C2H4)]
 Deg. of freedom     5
 Full point group                 C2H     NOp   4
 Rotational constants (GHZ):         143.5596058          52.9719588          38.6942094
 Leave Link  202 at Tue Nov 19 10:45:51 2024, MaxMem=   536870912 cpu:               0.0 elap:               0.0
 (Enter /home/szhao/Apps/g16/l301.exe)
 Standard basis: 6-311+G(d,p) (5D, 7F)
 Ernie: Thresh=  0.10000D-02 Tol=  0.10000D-05 Strict=F.
    68 basis functions,   104 primitive gaussians,    70 cartesian basis functions
     8 alpha electrons        7 beta electrons
       nuclear repulsion energy        40.2516275565 Hartrees.
 IExCor= 4336 DFT=T Ex+Corr=M062X ExCW=0 ScaHFX=  0.540000
 ScaDFX=  1.000000  1.000000  1.000000  1.000000 ScalE2=  1.000000  1.000000
 IRadAn=      7 IRanWt=     -1 IRanGd=            0 ICorTp=0 IEmpDi=  4
 NAtoms=    6 NActive=    6 NUniq=    6 SFac= 1.00D+00 NAtFMM=   60 NAOKFM=F Big=F
 Integral buffers will be    131072 words long.
 Raffenetti 2 integral format.
 Two-electron integral symmetry is turned off.
 Leave Link  301 at Tue Nov 19 10:45:51 2024, MaxMem=   536870912 cpu:               0.3 elap:               0.0
 (Enter /home/szhao/Apps/g16/l302.exe)
 NPDir=0 NMtPBC=     1 NCelOv=     1 NCel=       1 NClECP=     1 NCelD=      1
         NCelK=      1 NCelE2=     1 NClLst=     1 CellRange=     0.0.
 One-electron integrals computed using PRISM.
 NBasis=    68 RedAO= T EigKep=  2.77D-05  NBF=    68
 NBsUse=    68 1.00D-06 EigRej= -1.00D+00 NBFU=    68
 Precomputing XC quadrature grid using
 IXCGrd= 4 IRadAn=           7 IRanWt=          -1 IRanGd=           0 AccXCQ= 0.00D+00.
 Generated NRdTot=       0 NPtTot=           0 NUsed=           0 NTot=          32
 NSgBfM=    70    70    70    70    70 MxSgAt=     6 MxSgA2=     6.
 Leave Link  302 at Tue Nov 19 10:45:52 2024, MaxMem=   536870912 cpu:               1.1 elap:               0.1
 (Enter /home/szhao/Apps/g16/l303.exe)
 DipDrv:  MaxL=1.
 Leave Link  303 at Tue Nov 19 10:45:52 2024, MaxMem=   536870912 cpu:               0.3 elap:               0.0
 (Enter /home/szhao/Apps/g16/l401.exe)
 ExpMin= 4.38D-02 ExpMax= 4.56D+03 ExpMxC= 6.82D+02 IAcc=3 IRadAn=         7 AccDes= 0.00D+00
 Harris functional with IExCor= 1009 and IRadAn=       7 diagonalized for initial guess.
 HarFok:  IExCor= 1009 AccDes= 0.00D+00 IRadAn=         7 IDoV= 1 UseB2=F ITyADJ=14
 ICtDFT=  3500011 ScaDFX=  1.000000  1.000000  1.000000  1.000000
 FoFCou: FMM=F IPFlag=           0 FMFlag=      100000 FMFlg1=           0
         NFxFlg=           0 DoJE=T BraDBF=F KetDBF=T FulRan=T
         wScrn=  0.000000 ICntrl=       500 IOpCl=  0 I1Cent=   200000004 NGrid=           0
         NMat0=    1 NMatS0=      1 NMatT0=    0 NMatD0=    1 NMtDS0=    0 NMtDT0=    0
 Symmetry not used in FoFCou.
 Harris En= -78.0157349539132    
 JPrj=0 DoOrth=F DoCkMO=F.
 Initial guess <Sx>= 0.0000 <Sy>= 0.0000 <Sz>= 0.5000 <S**2>= 0.7500 S= 0.5000
 Leave Link  401 at Tue Nov 19 10:45:52 2024, MaxMem=   536870912 cpu:               2.6 elap:               0.3
 (Enter /home/szhao/Apps/g16/l502.exe)
 Keep R1 and R2 ints in memory in canonical form, NReq=12681614.
 FoFCou: FMM=F IPFlag=           0 FMFlag=           0 FMFlg1=           0
         NFxFlg=           0 DoJE=F BraDBF=F KetDBF=F FulRan=T
         wScrn=  0.000000 ICntrl=       600 IOpCl=  0 I1Cent=           0 NGrid=           0
         NMat0=    1 NMatS0=   2346 NMatT0=    0 NMatD0=    1 NMtDS0=    0 NMtDT0=    0
 Symmetry not used in FoFCou.
 Two-electron integral symmetry not used.
 UHF open shell SCF:
 Using DIIS extrapolation, IDIIS=  1040.
 NGot=   536870912 LenX=   531353794 LenY=   531348453
 Requested convergence on RMS density matrix=1.00D-08 within 128 cycles.
 Requested convergence on MAX density matrix=1.00D-06.
 Requested convergence on             energy=1.00D-06.
 No special actions if energy rises.

 Cycle   1  Pass 1  IDiag  1:
 E= -77.7254773685228    
 DIIS: error= 6.76D-02 at cycle   1 NSaved=   1.
 NSaved= 1 IEnMin= 1 EnMin= -77.7254773685228     IErMin= 1 ErrMin= 6.76D-02
 ErrMax= 6.76D-02  0.00D+00 EMaxC= 1.00D-01 BMatC= 7.12D-01 BMatP= 7.12D-01
 IDIUse=3 WtCom= 3.24D-01 WtEn= 6.76D-01
 Coeff-Com:  0.100D+01
 Coeff-En:   0.100D+01
 Coeff:      0.100D+01
 Gap=     0.616 Goal=   None    Shift=    0.000
 Gap=     0.146 Goal=   None    Shift=    0.000
 GapD=    0.146 DampG=1.000 DampE=0.500 DampFc=0.5000 IDamp=-1.
 Damping current iteration by 5.00D-01
 RMSDP=5.52D-03 MaxDP=1.22D-01              OVMax= 1.64D-01

 Cycle   2  Pass 1  IDiag  1:
 E= -77.8012352478122     Delta-E=       -0.075757879289 Rises=F Damp=T
 DIIS: error= 1.57D-02 at cycle   2 NSaved=   2.
 NSaved= 2 IEnMin= 2 EnMin= -77.8012352478122     IErMin= 2 ErrMin= 1.57D-02
 ErrMax= 1.57D-02  0.00D+00 EMaxC= 1.00D-01 BMatC= 4.16D-02 BMatP= 7.12D-01
 IDIUse=3 WtCom= 8.43D-01 WtEn= 1.57D-01
 Coeff-Com: -0.260D+00 0.126D+01
 Coeff-En:   0.000D+00 0.100D+01
 Coeff:     -0.219D+00 0.122D+01
 Gap=     0.582 Goal=   None    Shift=    0.000
 Gap=     0.216 Goal=   None    Shift=    0.000
 RMSDP=1.03D-03 MaxDP=1.81D-02 DE=-7.58D-02 OVMax= 7.00D-02

 Cycle   3  Pass 1  IDiag  1:
 E= -77.8640604405738     Delta-E=       -0.062825192762 Rises=F Damp=F
 DIIS: error= 2.27D-03 at cycle   3 NSaved=   3.
 NSaved= 3 IEnMin= 3 EnMin= -77.8640604405738     IErMin= 3 ErrMin= 2.27D-03
 ErrMax= 2.27D-03  0.00D+00 EMaxC= 1.00D-01 BMatC= 2.78D-04 BMatP= 4.16D-02
 IDIUse=3 WtCom= 9.77D-01 WtEn= 2.27D-02
 Coeff-Com: -0.118D-01 0.476D-02 0.101D+01
 Coeff-En:   0.000D+00 0.000D+00 0.100D+01
 Coeff:     -0.116D-01 0.465D-02 0.101D+01
 Gap=     0.565 Goal=   None    Shift=    0.000
 Gap=     0.216 Goal=   None    Shift=    0.000
 RMSDP=1.93D-04 MaxDP=3.77D-03 DE=-6.28D-02 OVMax= 4.97D-03

 Cycle   4  Pass 1  IDiag  1:
 E= -77.8641705794316     Delta-E=       -0.000110138858 Rises=F Damp=F
 DIIS: error= 3.95D-04 at cycle   4 NSaved=   4.
 NSaved= 4 IEnMin= 4 EnMin= -77.8641705794316     IErMin= 4 ErrMin= 3.95D-04
 ErrMax= 3.95D-04  0.00D+00 EMaxC= 1.00D-01 BMatC= 1.91D-05 BMatP= 2.78D-04
 IDIUse=3 WtCom= 9.96D-01 WtEn= 3.95D-03
 Coeff-Com:  0.849D-02-0.199D-01-0.336D+00 0.135D+01
 Coeff-En:   0.000D+00 0.000D+00 0.000D+00 0.100D+01
 Coeff:      0.845D-02-0.198D-01-0.335D+00 0.135D+01
 Gap=     0.565 Goal=   None    Shift=    0.000
 Gap=     0.217 Goal=   None    Shift=    0.000
 RMSDP=6.85D-05 MaxDP=1.25D-03 DE=-1.10D-04 OVMax= 1.72D-03

 Cycle   5  Pass 1  IDiag  1:
 E= -77.8641818967501     Delta-E=       -0.000011317318 Rises=F Damp=F
 DIIS: error= 6.61D-05 at cycle   5 NSaved=   5.
 NSaved= 5 IEnMin= 5 EnMin= -77.8641818967501     IErMin= 5 ErrMin= 6.61D-05
 ErrMax= 6.61D-05  0.00D+00 EMaxC= 1.00D-01 BMatC= 4.06D-07 BMatP= 1.91D-05
 IDIUse=1 WtCom= 1.00D+00 WtEn= 0.00D+00
 Coeff-Com: -0.137D-02 0.296D-02 0.400D-01-0.262D+00 0.122D+01
 Coeff:     -0.137D-02 0.296D-02 0.400D-01-0.262D+00 0.122D+01
 Gap=     0.565 Goal=   None    Shift=    0.000
 Gap=     0.217 Goal=   None    Shift=    0.000
 RMSDP=9.48D-06 MaxDP=1.13D-04 DE=-1.13D-05 OVMax= 3.32D-04

 Cycle   6  Pass 1  IDiag  1:
 E= -77.8641821743247     Delta-E=       -0.000000277575 Rises=F Damp=F
 DIIS: error= 9.56D-06 at cycle   6 NSaved=   6.
 NSaved= 6 IEnMin= 6 EnMin= -77.8641821743247     IErMin= 6 ErrMin= 9.56D-06
 ErrMax= 9.56D-06  0.00D+00 EMaxC= 1.00D-01 BMatC= 8.99D-09 BMatP= 4.06D-07
 IDIUse=1 WtCom= 1.00D+00 WtEn= 0.00D+00
 Coeff-Com: -0.191D-04 0.209D-03 0.362D-02-0.860D-02-0.129D+00 0.113D+01
 Coeff:     -0.191D-04 0.209D-03 0.362D-02-0.860D-02-0.129D+00 0.113D+01
 Gap=     0.565 Goal=   None    Shift=    0.000
 Gap=     0.217 Goal=   None    Shift=    0.000
 RMSDP=1.67D-06 MaxDP=2.25D-05 DE=-2.78D-07 OVMax= 4.76D-05

 Cycle   7  Pass 1  IDiag  1:
 E= -77.8641821793902     Delta-E=       -0.000000005066 Rises=F Damp=F
 DIIS: error= 8.45D-07 at cycle   7 NSaved=   7.
 NSaved= 7 IEnMin= 7 EnMin= -77.8641821793902     IErMin= 7 ErrMin= 8.45D-07
 ErrMax= 8.45D-07  0.00D+00 EMaxC= 1.00D-01 BMatC= 1.02D-10 BMatP= 8.99D-09
 IDIUse=1 WtCom= 1.00D+00 WtEn= 0.00D+00
 Coeff-Com:  0.198D-04-0.401D-04-0.636D-03 0.402D-02-0.209D-01 0.238D-01
 Coeff-Com:  0.994D+00
 Coeff:      0.198D-04-0.401D-04-0.636D-03 0.402D-02-0.209D-01 0.238D-01
 Coeff:      0.994D+00
 Gap=     0.565 Goal=   None    Shift=    0.000
 Gap=     0.217 Goal=   None    Shift=    0.000
 RMSDP=1.76D-07 MaxDP=4.55D-06 DE=-5.07D-09 OVMax= 8.48D-06

 Cycle   8  Pass 1  IDiag  1:
 E= -77.8641821794485     Delta-E=       -0.000000000058 Rises=F Damp=F
 DIIS: error= 5.28D-07 at cycle   8 NSaved=   8.
 NSaved= 8 IEnMin= 8 EnMin= -77.8641821794485     IErMin= 8 ErrMin= 5.28D-07
 ErrMax= 5.28D-07  0.00D+00 EMaxC= 1.00D-01 BMatC= 9.39D-12 BMatP= 1.02D-10
 IDIUse=1 WtCom= 1.00D+00 WtEn= 0.00D+00
 Coeff-Com: -0.378D-05 0.150D-05-0.138D-04-0.173D-03 0.536D-02-0.383D-01
 Coeff-Com: -0.837D-02 0.104D+01
 Coeff:     -0.378D-05 0.150D-05-0.138D-04-0.173D-03 0.536D-02-0.383D-01
 Coeff:     -0.837D-02 0.104D+01
 Gap=     0.565 Goal=   None    Shift=    0.000
 Gap=     0.217 Goal=   None    Shift=    0.000
 RMSDP=4.72D-08 MaxDP=8.52D-07 DE=-5.83D-11 OVMax= 4.34D-06

 Cycle   9  Pass 1  IDiag  1:
 E= -77.8641821794597     Delta-E=       -0.000000000011 Rises=F Damp=F
 DIIS: error= 3.38D-07 at cycle   9 NSaved=   9.
 NSaved= 9 IEnMin= 9 EnMin= -77.8641821794597     IErMin= 9 ErrMin= 3.38D-07
 ErrMax= 3.38D-07  0.00D+00 EMaxC= 1.00D-01 BMatC= 2.16D-12 BMatP= 9.39D-12
 IDIUse=1 WtCom= 1.00D+00 WtEn= 0.00D+00
 Coeff-Com:  0.228D-05-0.227D-06 0.269D-04-0.405D-04-0.238D-02 0.221D-01
 Coeff-Com:  0.111D-02-0.973D+00 0.195D+01
 Coeff:      0.228D-05-0.227D-06 0.269D-04-0.405D-04-0.238D-02 0.221D-01
 Coeff:      0.111D-02-0.973D+00 0.195D+01
 Gap=     0.565 Goal=   None    Shift=    0.000
 Gap=     0.217 Goal=   None    Shift=    0.000
 RMSDP=3.71D-08 MaxDP=3.41D-07 DE=-1.12D-11 OVMax= 5.22D-06

 Cycle  10  Pass 1  IDiag  1:
 E= -77.8641821794658     Delta-E=       -0.000000000006 Rises=F Damp=F
 DIIS: error= 1.11D-07 at cycle  10 NSaved=  10.
 NSaved=10 IEnMin=10 EnMin= -77.8641821794658     IErMin=10 ErrMin= 1.11D-07
 ErrMax= 1.11D-07  0.00D+00 EMaxC= 1.00D-01 BMatC= 2.81D-13 BMatP= 2.16D-12
 IDIUse=1 WtCom= 1.00D+00 WtEn= 0.00D+00
 Coeff-Com:  0.261D-06-0.121D-05-0.193D-04 0.107D-03-0.348D-03-0.116D-02
 Coeff-Com:  0.212D-01 0.783D-01-0.712D+00 0.161D+01
 Coeff:      0.261D-06-0.121D-05-0.193D-04 0.107D-03-0.348D-03-0.116D-02
 Coeff:      0.212D-01 0.783D-01-0.712D+00 0.161D+01
 Gap=     0.565 Goal=   None    Shift=    0.000
 Gap=     0.217 Goal=   None    Shift=    0.000
 RMSDP=1.88D-08 MaxDP=1.76D-07 DE=-6.14D-12 OVMax= 2.61D-06

 Cycle  11  Pass 1  IDiag  1:
 E= -77.8641821794666     Delta-E=       -0.000000000001 Rises=F Damp=F
 DIIS: error= 3.36D-09 at cycle  11 NSaved=  11.
 NSaved=11 IEnMin=11 EnMin= -77.8641821794666     IErMin=11 ErrMin= 3.36D-09
 ErrMax= 3.36D-09  0.00D+00 EMaxC= 1.00D-01 BMatC= 1.01D-15 BMatP= 2.81D-13
 IDIUse=1 WtCom= 1.00D+00 WtEn= 0.00D+00
 Coeff-Com: -0.486D-07-0.248D-07-0.781D-06 0.344D-05 0.319D-04-0.507D-03
 Coeff-Com:  0.110D-02 0.237D-01-0.541D-01 0.720D-01 0.958D+00
 Coeff:     -0.486D-07-0.248D-07-0.781D-06 0.344D-05 0.319D-04-0.507D-03
 Coeff:      0.110D-02 0.237D-01-0.541D-01 0.720D-01 0.958D+00
 Gap=     0.565 Goal=   None    Shift=    0.000
 Gap=     0.217 Goal=   None    Shift=    0.000
 RMSDP=5.86D-10 MaxDP=7.95D-09 DE=-7.39D-13 OVMax= 5.22D-08

 SCF Done:  E(UM062X) =  -77.8641821795     A.U. after   11 cycles
            NFock= 11  Conv=0.59D-09     -V/T= 1.9751
 <Sx>= 0.0000 <Sy>= 0.0000 <Sz>= 0.5000 <S**2>= 0.7547 S= 0.5024
 <L.S>=  0.00000000000    
 KE= 7.985592328271D+01 PE=-2.577081800092D+02 EE= 5.973644699046D+01
 Annihilation of the first spin contaminant:
 S**2 before annihilation     0.7547,   after     0.7500
 Leave Link  502 at Tue Nov 19 10:45:59 2024, MaxMem=   536870912 cpu:              55.3 elap:               7.0
 (Enter /home/szhao/Apps/g16/l601.exe)
 Copying SCF densities to generalized density rwf, IOpCl= 1 IROHF=0.

 **********************************************************************

            Population analysis using the SCF density.

 **********************************************************************

 Alpha  occ. eigenvalues --  -10.81434 -10.80279  -1.30926  -1.01084  -0.97105
 Alpha  occ. eigenvalues --   -0.82528  -0.74466  -0.73472
 Alpha virt. eigenvalues --   -0.17015  -0.15748  -0.15206  -0.11728  -0.10948
 Alpha virt. eigenvalues --   -0.10574  -0.06768  -0.06225  -0.02360   0.00096
 Alpha virt. eigenvalues --    0.00592   0.04197   0.13874   0.16416   0.17902
 Alpha virt. eigenvalues --    0.25393   0.26953   0.27961   0.37540   0.40318
 Alpha virt. eigenvalues --    0.44022   0.45751   0.52471   0.54741   0.64038
 Alpha virt. eigenvalues --    0.66452   0.90886   0.91546   1.00125   1.04328
 Alpha virt. eigenvalues --    1.08102   1.22749   1.43799   1.46353   1.47073
 Alpha virt. eigenvalues --    1.52460   1.53064   1.57111   1.65331   1.70362
 Alpha virt. eigenvalues --    1.98634   2.06986   2.12511   2.18312   2.18367
 Alpha virt. eigenvalues --    2.22408   2.49271   2.49942   2.52415   2.56094
 Alpha virt. eigenvalues --    2.60192   2.70736   2.73045   3.03070   3.38054
 Alpha virt. eigenvalues --    3.75494   3.76350   4.00693  23.55043  25.39170
  Beta  occ. eigenvalues --  -10.81382 -10.80209  -1.28880  -0.94715  -0.91399
  Beta  occ. eigenvalues --   -0.79879  -0.72995
  Beta virt. eigenvalues --   -0.51285  -0.16643  -0.15845  -0.14991  -0.11473
  Beta virt. eigenvalues --   -0.10812  -0.10126  -0.05976  -0.05709  -0.01910
  Beta virt. eigenvalues --    0.00380   0.01504   0.04913   0.13624   0.16753
  Beta virt. eigenvalues --    0.17939   0.25683   0.27883   0.28236   0.37987
  Beta virt. eigenvalues --    0.39847   0.44122   0.45742   0.52352   0.54950
  Beta virt. eigenvalues --    0.64446   0.66843   0.91715   0.91975   1.00812
  Beta virt. eigenvalues --    1.04568   1.08255   1.23261   1.43582   1.46217
  Beta virt. eigenvalues --    1.46884   1.53936   1.54451   1.58889   1.65059
  Beta virt. eigenvalues --    1.70575   1.98620   2.09081   2.11486   2.17798
  Beta virt. eigenvalues --    2.18165   2.21587   2.49599   2.50721   2.51771
  Beta virt. eigenvalues --    2.54478   2.59155   2.70137   2.72469   3.02398
  Beta virt. eigenvalues --    3.38534   3.75703   3.76080   4.01441  23.54852
  Beta virt. eigenvalues --   25.38999
          Condensed to atoms (all electrons):
               1          2          3          4          5          6
     1  C    4.631928   0.780577   0.344149   0.341971  -0.015074  -0.014486
     2  C    0.780577   4.631928  -0.015074  -0.014486   0.344149   0.341971
     3  H    0.344149  -0.015074   0.390847  -0.000556   0.006213  -0.009000
     4  H    0.341971  -0.014486  -0.000556   0.390220  -0.009000   0.006210
     5  H   -0.015074   0.344149   0.006213  -0.009000   0.390847  -0.000556
     6  H   -0.014486   0.341971  -0.009000   0.006210  -0.000556   0.390220
          Atomic-Atomic Spin Densities.
               1          2          3          4          5          6
     1  C    0.098109  -0.085452   0.079459   0.080890  -0.024528  -0.025290
     2  C   -0.085452   0.098109  -0.024528  -0.025290   0.079459   0.080890
     3  H    0.079459  -0.024528   0.158733  -0.014808   0.003527  -0.015979
     4  H    0.080890  -0.025290  -0.014808   0.161988  -0.015979   0.003607
     5  H   -0.024528   0.079459   0.003527  -0.015979   0.158733  -0.014808
     6  H   -0.025290   0.080890  -0.015979   0.003607  -0.014808   0.161988
 Mulliken charges and spin densities:
               1          2
     1  C   -0.069064   0.123188
     2  C   -0.069064   0.123188
     3  H    0.283422   0.186404
     4  H    0.285642   0.190408
     5  H    0.283422   0.186404
     6  H    0.285642   0.190408
 Sum of Mulliken charges =   1.00000   1.00000
 Mulliken charges and spin densities with hydrogens summed into heavy atoms:
               1          2
     1  C    0.500000   0.500000
     2  C    0.500000   0.500000
 Electronic spatial extent (au):  <R**2>=             53.9574
 Charge=              1.0000 electrons
 Dipole moment (field-independent basis, Debye):
    X=              0.0000    Y=             -0.0000    Z=             -0.0000  Tot=              0.0000
 Quadrupole moment (field-independent basis, Debye-Ang):
   XX=             -7.5333   YY=             -5.4628   ZZ=            -12.0307
   XY=             -0.0263   XZ=             -0.0000   YZ=             -0.0000
 Traceless Quadrupole moment (field-independent basis, Debye-Ang):
   XX=              0.8089   YY=              2.8795   ZZ=             -3.6884
   XY=             -0.0263   XZ=             -0.0000   YZ=             -0.0000
 Octapole moment (field-independent basis, Debye-Ang**2):
  XXX=              0.0000  YYY=             -0.0000  ZZZ=              0.0000  XYY=              0.0000
  XXY=             -0.0000  XXZ=              0.0000  XZZ=              0.0000  YZZ=              0.0000
  YYZ=              0.0000  XYZ=              0.0000
 Hexadecapole moment (field-independent basis, Debye-Ang**3):
 XXXX=            -33.4704 YYYY=            -12.1738 ZZZZ=            -11.0218 XXXY=             -0.0089
 XXXZ=             -0.0000 YYYX=             -0.0431 YYYZ=              0.0000 ZZZX=             -0.0000
 ZZZY=             -0.0000 XXYY=             -4.1201 XXZZ=             -7.8252 YYZZ=             -5.1137
 XXYZ=              0.0000 YYXZ=             -0.0000 ZZXY=              0.0002
 N-N= 4.025162755655D+01 E-N=-2.577081799999D+02  KE= 7.985592328271D+01
                          Isotropic Fermi Contact Couplings
        Atom                 a.u.       MegaHertz       Gauss      10(-4) cm-1
     1  C(13)             -0.04145     -46.59455     -16.62609     -15.54227
     2  C(13)             -0.04145     -46.59455     -16.62609     -15.54227
     3  H(1)               0.12234     546.84602     195.12826     182.40820
     4  H(1)               0.12433     555.74886     198.30501     185.37787
     5  H(1)               0.12234     546.84602     195.12826     182.40820
     6  H(1)               0.12433     555.74886     198.30501     185.37787
 --------------------------------------------------------
       Center         ----  Spin Dipole Couplings  ----
                      3XX-RR        3YY-RR        3ZZ-RR
 --------------------------------------------------------
     1   Atom       -0.195042      0.398632     -0.203590
     2   Atom       -0.195042      0.398632     -0.203590
     3   Atom       -0.012352      0.047092     -0.034740
     4   Atom       -0.013639      0.048365     -0.034725
     5   Atom       -0.012352      0.047092     -0.034740
     6   Atom       -0.013639      0.048365     -0.034725
 --------------------------------------------------------
                        XY            XZ            YZ
 --------------------------------------------------------
     1   Atom       -0.004660      0.000000     -0.000000
     2   Atom       -0.004660     -0.000000      0.000000
     3   Atom        0.044799      0.000000      0.000000
     4   Atom       -0.044114     -0.000000      0.000000
     5   Atom        0.044799     -0.000000     -0.000000
     6   Atom       -0.044114      0.000000     -0.000000
 --------------------------------------------------------


 ---------------------------------------------------------------------------------
              Anisotropic Spin Dipole Couplings in Principal Axis System
 ---------------------------------------------------------------------------------

       Atom             a.u.   MegaHertz   Gauss  10(-4) cm-1        Axes

              Baa    -0.2036   -27.320    -9.748    -9.113 -0.0000  0.0000  1.0000
     1 C(13)  Bbb    -0.1951   -26.178    -9.341    -8.732  1.0000  0.0078  0.0000
              Bcc     0.3987    53.497    19.089    17.845 -0.0078  1.0000 -0.0000
 
              Baa    -0.2036   -27.320    -9.748    -9.113  0.0000 -0.0000  1.0000
     2 C(13)  Bbb    -0.1951   -26.178    -9.341    -8.732  1.0000  0.0078 -0.0000
              Bcc     0.3987    53.497    19.089    17.845 -0.0078  1.0000  0.0000
 
              Baa    -0.0364   -19.417    -6.928    -6.477  0.8811 -0.4728 -0.0000
     3 H(1)   Bbb    -0.0347   -18.536    -6.614    -6.183 -0.0000 -0.0000  1.0000
              Bcc     0.0711    37.953    13.542    12.660  0.4728  0.8811  0.0000
 
              Baa    -0.0366   -19.504    -6.960    -6.506  0.8874  0.4610 -0.0000
     4 H(1)   Bbb    -0.0347   -18.528    -6.611    -6.180  0.0000  0.0000  1.0000
              Bcc     0.0713    38.032    13.571    12.686 -0.4610  0.8874  0.0000
 
              Baa    -0.0364   -19.417    -6.928    -6.477  0.8811 -0.4728 -0.0000
     5 H(1)   Bbb    -0.0347   -18.536    -6.614    -6.183  0.0000  0.0000  1.0000
              Bcc     0.0711    37.953    13.542    12.660  0.4728  0.8811 -0.0000
 
              Baa    -0.0366   -19.504    -6.960    -6.506  0.8874  0.4610  0.0000
     6 H(1)   Bbb    -0.0347   -18.528    -6.611    -6.180 -0.0000 -0.0000  1.0000
              Bcc     0.0713    38.032    13.571    12.686 -0.4610  0.8874 -0.0000
 

 ---------------------------------------------------------------------------------

 No NMR shielding tensors so no spin-rotation constants.
 Leave Link  601 at Tue Nov 19 10:45:59 2024, MaxMem=   536870912 cpu:               1.4 elap:               0.2
 (Enter /home/szhao/Apps/g16/l701.exe)
 ... and contract with generalized density number  0.
 Compute integral first derivatives.
 Leave Link  701 at Tue Nov 19 10:45:59 2024, MaxMem=   536870912 cpu:               0.8 elap:               0.1
 (Enter /home/szhao/Apps/g16/l702.exe)
 L702 exits ... SP integral derivatives will be done elsewhere.
 Leave Link  702 at Tue Nov 19 10:45:59 2024, MaxMem=   536870912 cpu:               0.3 elap:               0.0
 (Enter /home/szhao/Apps/g16/l703.exe)
 Integral derivatives from FoFJK, PRISM(SPDF).
 Compute integral first derivatives, UseDBF=F ICtDFT=           0.
 Calling FoFJK, ICntrl=      2127 FMM=F ISym2X=0 I1Cent= 0 IOpClX= 1 NMat=1 NMatS=1 NMatT=0.
 FoFJK:  IHMeth= 1 ICntrl=    2127 DoSepK=F KAlg= 0 I1Cent=           0 FoldK=F
 IRaf=         0 NMat=       1 IRICut=       1 DoRegI=T DoRafI=F ISym2E= 0 IDoP0=0 IntGTp=1.
 FoFCou: FMM=F IPFlag=           0 FMFlag=      100000 FMFlg1=         800
         NFxFlg=           0 DoJE=F BraDBF=F KetDBF=F FulRan=T
         wScrn=  0.000000 ICntrl=      2127 IOpCl=  1 I1Cent=           0 NGrid=           0
         NMat0=    1 NMatS0=      1 NMatT0=    0 NMatD0=    1 NMtDS0=    0 NMtDT0=    0
 Symmetry not used in FoFCou.
 Leave Link  703 at Tue Nov 19 10:46:01 2024, MaxMem=   536870912 cpu:               8.6 elap:               1.1
 (Enter /home/szhao/Apps/g16/l716.exe)
 Dipole        = 4.03899136D-13-5.28466160D-14-1.40761181D-15
 -------------------------------------------------------------------
 Center     Atomic                   Forces (Hartrees/Bohr)
 Number     Number              X              Y              Z
 -------------------------------------------------------------------
      1        6          -0.000000000   -0.000000000   -0.000000000
      2        6          -0.000000000   -0.000000000   -0.000000000
      3        1          -0.080213812   -0.069653460   -0.000000000
      4        1          -0.078263350    0.068108762    0.000000000
      5        1           0.080213812    0.069653460    0.000000000
      6        1           0.078263350   -0.068108762    0.000000000
 -------------------------------------------------------------------
 Cartesian Forces:  Max     0.080213812 RMS     0.049497268
 Leave Link  716 at Tue Nov 19 10:46:01 2024, MaxMem=   536870912 cpu:               0.3 elap:               0.0
 (Enter /home/szhao/Apps/g16/l103.exe)

 GradGradGradGradGradGradGradGradGradGradGradGradGradGradGradGradGradGrad
 Berny optimization.
 FormGI is forming the generalized inverse of G from B-inverse, IUseBI=4.
 Internal  Forces:  Max     0.158477163 RMS     0.069373537
 Search for a local minimum.
 Step number   1 out of a maximum of   30
 All quantities printed in internal units (Hartrees-Bohrs-Radians)
 RMS Force = .57336D-01 SwitMx=.10000D-02 MixMth= 1
 Mixed Optimization -- RFO/linear search
 Second derivative matrix not updated -- first step.
 The second derivative matrix:
                          X1        Y1        Z1        X2        Y2
           X1           0.50000
           Y1           0.00000   0.50000
           Z1           0.00000   0.00000   0.50000
           X2           0.00000   0.00000   0.00000   0.50000
           Y2           0.00000   0.00000   0.00000   0.00000   0.50000
           Z2           0.00000   0.00000   0.00000   0.00000   0.00000
           R1           0.00000   0.00000   0.00000   0.00000   0.00000
           R2           0.00000   0.00000   0.00000   0.00000   0.00000
           R3           0.00000   0.00000   0.00000   0.00000   0.00000
           R4           0.00000   0.00000   0.00000   0.00000   0.00000
           A1           0.00000   0.00000   0.00000   0.00000   0.00000
           A2           0.00000   0.00000   0.00000   0.00000   0.00000
           A3           0.00000   0.00000   0.00000   0.00000   0.00000
           A4           0.00000   0.00000   0.00000   0.00000   0.00000
           A5           0.00000   0.00000   0.00000   0.00000   0.00000
           A6           0.00000   0.00000   0.00000   0.00000   0.00000
           D1           0.00000   0.00000   0.00000   0.00000   0.00000
           D2           0.00000   0.00000   0.00000   0.00000   0.00000
           D3           0.00000   0.00000   0.00000   0.00000   0.00000
           D4           0.00000   0.00000   0.00000   0.00000   0.00000
                          Z2        R1        R2        R3        R4
           Z2           0.50000
           R1           0.00000   0.45217
           R2           0.00000   0.00000   0.44716
           R3           0.00000   0.00000   0.00000   0.45217
           R4           0.00000   0.00000   0.00000   0.00000   0.44716
           A1           0.00000   0.00000   0.00000   0.00000   0.00000
           A2           0.00000   0.00000   0.00000   0.00000   0.00000
           A3           0.00000   0.00000   0.00000   0.00000   0.00000
           A4           0.00000   0.00000   0.00000   0.00000   0.00000
           A5           0.00000   0.00000   0.00000   0.00000   0.00000
           A6           0.00000   0.00000   0.00000   0.00000   0.00000
           D1           0.00000   0.00000   0.00000   0.00000   0.00000
           D2           0.00000   0.00000   0.00000   0.00000   0.00000
           D3           0.00000   0.00000   0.00000   0.00000   0.00000
           D4           0.00000   0.00000   0.00000   0.00000   0.00000
                          A1        A2        A3        A4        A5
           A1           0.16000
           A2           0.00000   0.16000
           A3           0.00000   0.00000   0.16000
           A4           0.00000   0.00000   0.00000   0.16000
           A5           0.00000   0.00000   0.00000   0.00000   0.16000
           A6           0.00000   0.00000   0.00000   0.00000   0.00000
           D1           0.00000   0.00000   0.00000   0.00000   0.00000
           D2           0.00000   0.00000   0.00000   0.00000   0.00000
           D3           0.00000   0.00000   0.00000   0.00000   0.00000
           D4           0.00000   0.00000   0.00000   0.00000   0.00000
                          A6        D1        D2        D3        D4
           A6           0.16000
           D1           0.00000   0.07143
           D2           0.00000   0.00000   0.07143
           D3           0.00000   0.00000   0.00000   0.07143
           D4           0.00000   0.00000   0.00000   0.00000   0.07143
 ITU=  0
     Eigenvalues ---    0.07143   0.07143   0.07143   0.16000   0.16000
     Eigenvalues ---    0.16000   0.16000   0.44716   0.44716   0.45217
     Eigenvalues ---    0.452171000.000001000.000001000.000001000.00000
     Eigenvalues --- 1000.000001000.000001000.000001000.000001000.00000
 RFO step:  Lambda=-1.03665805D-01 EMin= 7.14288245D-02
 Linear search not attempted -- first point.
 Maximum step size (   0.300) exceeded in Quadratic search.
    -- Step size scaled by   0.583
 Iteration  1 RMS(Cart)=  0.07125943 RMS(Int)=  0.00306011
 Iteration  2 RMS(Cart)=  0.00342083 RMS(Int)=  0.00000672
 Iteration  3 RMS(Cart)=  0.00000709 RMS(Int)=  0.00000000
 Iteration  4 RMS(Cart)=  0.00000000 RMS(Int)=  0.00000000
 ITry= 1 IFail=0 DXMaxC= 1.61D-01 DCOld= 1.00D+10 DXMaxT= 3.00D-01 DXLimC= 3.00D+00 Rises=F
 Variable       Old X    -DE/DX   Delta X   Delta X   Delta X     New X
                                 (Linear)    (Quad)   (Total)
    X1       -0.96180  -0.15848   0.00000   0.00000   0.00000  -0.96180
    Y1        0.00000  -0.00017   0.00000   0.00000   0.00000   0.00000
    Z1        0.00000  -0.00000   0.00000   0.00000   0.00000   0.00000
    X2        0.96180   0.15848   0.00000   0.00000   0.00000   0.96180
    Y2        0.00000   0.00017   0.00000   0.00000   0.00000   0.00000
    Z2        0.00000   0.00000   0.00000   0.00000   0.00000   0.00000
    R1        1.91724   0.09565   0.00000   0.10027   0.10027   2.01751
    R2        1.92307   0.09328   0.00000   0.09868   0.09868   2.02174
    R3        1.91724   0.09565   0.00000   0.10027   0.10027   2.01751
    R4        1.92307   0.09328   0.00000   0.09868   0.09868   2.02174
    A1        1.97627   0.02999   0.00000   0.06627   0.06627   2.04254
    A2        1.97244   0.02867   0.00000   0.06336   0.06336   2.03580
    A3        2.33448  -0.05866   0.00000  -0.12963  -0.12963   2.20485
    A4        1.97627   0.02999   0.00000   0.06627   0.06627   2.04254
    A5        1.97244   0.02867   0.00000   0.06336   0.06336   2.03580
    A6        2.33448  -0.05866   0.00000  -0.12963  -0.12963   2.20485
    D1        3.14159  -0.00000   0.00000  -0.00000   0.00000   3.14159
    D2        0.00000  -0.00000   0.00000  -0.00000   0.00000   0.00000
    D3        0.00000   0.00000   0.00000   0.00000   0.00000   0.00000
    D4        3.14159  -0.00000   0.00000  -0.00000   0.00000   3.14159
         Item               Value     Threshold  Converged?
 Maximum Force            0.095646     0.000450     NO 
 RMS     Force            0.057336     0.000300     NO 
 Maximum Displacement     0.160574     0.001800     NO 
 RMS     Displacement     0.072370     0.001200     NO 
 Predicted change in Energy=-4.747119D-02
 Lowest energy point so far.  Saving SCF results.
 GradGradGradGradGradGradGradGradGradGradGradGradGradGradGradGradGradGrad

 Leave Link  103 at Tue Nov 19 10:46:01 2024, MaxMem=   536870912 cpu:               0.0 elap:               0.0
 (Enter /home/szhao/Apps/g16/l202.exe)
                          Input orientation:                          
 ---------------------------------------------------------------------
 Center     Atomic      Atomic             Coordinates (Angstroms)
 Number     Number       Type             X           Y           Z
 ---------------------------------------------------------------------
      1          6           0       -0.508962    0.000000    0.000000
      2          6           0        0.508962    0.000000    0.000000
      3          1           0       -0.994129   -0.951012    0.000000
      4          1           0       -0.988713    0.956265   -0.000000
      5          1           0        0.994129    0.951012    0.000000
      6          1           0        0.988713   -0.956265   -0.000000
 ---------------------------------------------------------------------
                    Distance matrix (angstroms):
                    1          2          3          4          5
     1  C    0.000000
     2  C    1.017924   0.000000
     3  H    1.067619   1.778681   0.000000
     4  H    1.069861   1.776928   1.907285   0.000000
     5  H    1.778681   1.067619   2.751521   1.982849   0.000000
     6  H    1.776928   1.069861   1.982849   2.750997   1.907285
                    6
     6  H    0.000000
 Symmetry turned off by external request.
 Stoichiometry    C2H4(1+,2)
 Framework group  C2H[SGH(C2H4)]
 Deg. of freedom     5
 Full point group                 C2H     NOp   4
 Rotational constants (GHZ):         137.8482017          49.6468502          36.5008514
 Leave Link  202 at Tue Nov 19 10:46:01 2024, MaxMem=   536870912 cpu:               0.0 elap:               0.0
 (Enter /home/szhao/Apps/g16/l301.exe)
 Standard basis: 6-311+G(d,p) (5D, 7F)
 Ernie: Thresh=  0.10000D-02 Tol=  0.10000D-05 Strict=F.
    68 basis functions,   104 primitive gaussians,    70 cartesian basis functions
     8 alpha electrons        7 beta electrons
       nuclear repulsion energy        39.2154439395 Hartrees.
 IExCor= 4336 DFT=T Ex+Corr=M062X ExCW=0 ScaHFX=  0.540000
 ScaDFX=  1.000000  1.000000  1.000000  1.000000 ScalE2=  1.000000  1.000000
 IRadAn=      7 IRanWt=     -1 IRanGd=            0 ICorTp=0 IEmpDi=  4
 NAtoms=    6 NActive=    6 NUniq=    6 SFac= 1.00D+00 NAtFMM=   60 NAOKFM=F Big=F
 Integral buffers will be    131072 words long.
 Raffenetti 2 integral format.
 Two-electron integral symmetry is turned off.
 Leave Link  301 at Tue Nov 19 10:46:01 2024, MaxMem=   536870912 cpu:               0.3 elap:               0.0
 (Enter /home/szhao/Apps/g16/l302.exe)
 NPDir=0 NMtPBC=     1 NCelOv=     1 NCel=       1 NClECP=     1 NCelD=      1
         NCelK=      1 NCelE2=     1 NClLst=     1 CellRange=     0.0.
 One-electron integrals computed using PRISM.
 NBasis=    68 RedAO= T EigKep=  2.88D-05  NBF=    68
 NBsUse=    68 1.00D-06 EigRej= -1.00D+00 NBFU=    68
 Precomputing XC quadrature grid using
 IXCGrd= 4 IRadAn=           7 IRanWt=          -1 IRanGd=           0 AccXCQ= 0.00D+00.
 Generated NRdTot=       0 NPtTot=           0 NUsed=           0 NTot=          32
 NSgBfM=    70    70    70    70    70 MxSgAt=     6 MxSgA2=     6.
 Leave Link  302 at Tue Nov 19 10:46:01 2024, MaxMem=   536870912 cpu:               1.0 elap:               0.1
 (Enter /home/szhao/Apps/g16/l303.exe)
 DipDrv:  MaxL=1.
 Leave Link  303 at Tue Nov 19 10:46:01 2024, MaxMem=   536870912 cpu:               0.3 elap:               0.0
 (Enter /home/szhao/Apps/g16/l401.exe)
 Initial guess from the checkpoint file:  "opt.chk"
 B after Tr=     0.000000   -0.000000   -0.000000
         Rot=    1.000000    0.000000    0.000000    0.000316 Ang=   0.04 deg.
 Guess basis will be translated and rotated to current coordinates.
 JPrj=2 DoOrth=T DoCkMO=T.
 Initial guess <Sx>= 0.0000 <Sy>= 0.0000 <Sz>= 0.5000 <S**2>= 0.7551 S= 0.5025
 Generating alternative initial guess.
 ExpMin= 4.38D-02 ExpMax= 4.56D+03 ExpMxC= 6.82D+02 IAcc=3 IRadAn=         5 AccDes= 0.00D+00
 Harris functional with IExCor= 1009 and IRadAn=       5 diagonalized for initial guess.
 HarFok:  IExCor= 1009 AccDes= 0.00D+00 IRadAn=         5 IDoV= 1 UseB2=F ITyADJ=14
 ICtDFT=  3500011 ScaDFX=  1.000000  1.000000  1.000000  1.000000
 FoFCou: FMM=F IPFlag=           0 FMFlag=      100000 FMFlg1=           0
         NFxFlg=           0 DoJE=T BraDBF=F KetDBF=T FulRan=T
         wScrn=  0.000000 ICntrl=       500 IOpCl=  0 I1Cent=   200000004 NGrid=           0
         NMat0=    1 NMatS0=      1 NMatT0=    0 NMatD0=    1 NMtDS0=    0 NMtDT0=    0
 Symmetry not used in FoFCou.
 Harris En= -78.0557051347089    
 Leave Link  401 at Tue Nov 19 10:46:01 2024, MaxMem=   536870912 cpu:               1.9 elap:               0.2
 (Enter /home/szhao/Apps/g16/l502.exe)
 Keep R1 and R2 ints in memory in canonical form, NReq=12681614.
 FoFCou: FMM=F IPFlag=           0 FMFlag=           0 FMFlg1=           0
         NFxFlg=           0 DoJE=F BraDBF=F KetDBF=F FulRan=T
         wScrn=  0.000000 ICntrl=       600 IOpCl=  0 I1Cent=           0 NGrid=           0
         NMat0=    1 NMatS0=   2346 NMatT0=    0 NMatD0=    1 NMtDS0=    0 NMtDT0=    0
 Symmetry not used in FoFCou.
 Two-electron integral symmetry not used.
 UHF open shell SCF:
 Using DIIS extrapolation, IDIIS=  1040.
 NGot=   536870912 LenX=   531353794 LenY=   531348453
 Requested convergence on RMS density matrix=1.00D-08 within 128 cycles.
 Requested convergence on MAX density matrix=1.00D-06.
 Requested convergence on             energy=1.00D-06.
 No special actions if energy rises.

 Cycle   1  Pass 1  IDiag  1:
 E= -77.9094836873910    
 DIIS: error= 9.55D-03 at cycle   1 NSaved=   1.
 NSaved= 1 IEnMin= 1 EnMin= -77.9094836873910     IErMin= 1 ErrMin= 9.55D-03
 ErrMax= 9.55D-03  0.00D+00 EMaxC= 1.00D-01 BMatC= 1.16D-02 BMatP= 1.16D-02
 IDIUse=3 WtCom= 9.04D-01 WtEn= 9.55D-02
 Coeff-Com:  0.100D+01
 Coeff-En:   0.100D+01
 Coeff:      0.100D+01
 Gap=     0.754 Goal=   None    Shift=    0.000
 Gap=     0.729 Goal=   None    Shift=    0.000
 GapD=    0.729 DampG=2.000 DampE=1.000 DampFc=2.0000 IDamp=-1.
 RMSDP=6.99D-04 MaxDP=1.19D-02              OVMax= 1.89D-02

 Cycle   2  Pass 1  IDiag  1:
 E= -77.9118465933270     Delta-E=       -0.002362905936 Rises=F Damp=F
 DIIS: error= 1.84D-03 at cycle   2 NSaved=   2.
 NSaved= 2 IEnMin= 2 EnMin= -77.9118465933270     IErMin= 2 ErrMin= 1.84D-03
 ErrMax= 1.84D-03  0.00D+00 EMaxC= 1.00D-01 BMatC= 3.86D-04 BMatP= 1.16D-02
 IDIUse=3 WtCom= 9.82D-01 WtEn= 1.84D-02
 Coeff-Com:  0.282D-01 0.972D+00
 Coeff-En:   0.000D+00 0.100D+01
 Coeff:      0.277D-01 0.972D+00
 Gap=     0.554 Goal=   None    Shift=    0.000
 Gap=     0.224 Goal=   None    Shift=    0.000
 RMSDP=1.66D-04 MaxDP=3.64D-03 DE=-2.36D-03 OVMax= 4.79D-03

 Cycle   3  Pass 1  IDiag  1:
 E= -77.9119129230523     Delta-E=       -0.000066329725 Rises=F Damp=F
 DIIS: error= 1.24D-03 at cycle   3 NSaved=   3.
 NSaved= 3 IEnMin= 3 EnMin= -77.9119129230523     IErMin= 3 ErrMin= 1.24D-03
 ErrMax= 1.24D-03  0.00D+00 EMaxC= 1.00D-01 BMatC= 1.33D-04 BMatP= 3.86D-04
 IDIUse=3 WtCom= 9.88D-01 WtEn= 1.24D-02
 Coeff-Com: -0.191D-01 0.361D+00 0.659D+00
 Coeff-En:   0.000D+00 0.552D-01 0.945D+00
 Coeff:     -0.189D-01 0.357D+00 0.662D+00
 Gap=     0.554 Goal=   None    Shift=    0.000
 Gap=     0.222 Goal=   None    Shift=    0.000
 RMSDP=5.68D-05 MaxDP=1.02D-03 DE=-6.63D-05 OVMax= 1.69D-03

 Cycle   4  Pass 1  IDiag  1:
 E= -77.9119434354482     Delta-E=       -0.000030512396 Rises=F Damp=F
 DIIS: error= 1.13D-04 at cycle   4 NSaved=   4.
 NSaved= 4 IEnMin= 4 EnMin= -77.9119434354482     IErMin= 4 ErrMin= 1.13D-04
 ErrMax= 1.13D-04  0.00D+00 EMaxC= 1.00D-01 BMatC= 7.67D-07 BMatP= 1.33D-04
 IDIUse=3 WtCom= 9.99D-01 WtEn= 1.13D-03
 Coeff-Com:  0.416D-03-0.523D-01-0.332D-01 0.109D+01
 Coeff-En:   0.000D+00 0.000D+00 0.000D+00 0.100D+01
 Coeff:      0.416D-03-0.522D-01-0.332D-01 0.109D+01
 Gap=     0.554 Goal=   None    Shift=    0.000
 Gap=     0.223 Goal=   None    Shift=    0.000
 RMSDP=8.59D-06 MaxDP=1.66D-04 DE=-3.05D-05 OVMax= 2.82D-04

 Cycle   5  Pass 1  IDiag  1:
 E= -77.9119438066638     Delta-E=       -0.000000371216 Rises=F Damp=F
 DIIS: error= 2.13D-05 at cycle   5 NSaved=   5.
 NSaved= 5 IEnMin= 5 EnMin= -77.9119438066638     IErMin= 5 ErrMin= 2.13D-05
 ErrMax= 2.13D-05  0.00D+00 EMaxC= 1.00D-01 BMatC= 3.84D-08 BMatP= 7.67D-07
 IDIUse=1 WtCom= 1.00D+00 WtEn= 0.00D+00
 Coeff-Com:  0.330D-03 0.409D-02-0.946D-02-0.285D+00 0.129D+01
 Coeff:      0.330D-03 0.409D-02-0.946D-02-0.285D+00 0.129D+01
 Gap=     0.554 Goal=   None    Shift=    0.000
 Gap=     0.223 Goal=   None    Shift=    0.000
 RMSDP=2.47D-06 MaxDP=4.43D-05 DE=-3.71D-07 OVMax= 8.47D-05

 Cycle   6  Pass 1  IDiag  1:
 E= -77.9119438333284     Delta-E=       -0.000000026665 Rises=F Damp=F
 DIIS: error= 4.18D-06 at cycle   6 NSaved=   6.
 NSaved= 6 IEnMin= 6 EnMin= -77.9119438333284     IErMin= 6 ErrMin= 4.18D-06
 ErrMax= 4.18D-06  0.00D+00 EMaxC= 1.00D-01 BMatC= 1.68D-09 BMatP= 3.84D-08
 IDIUse=1 WtCom= 1.00D+00 WtEn= 0.00D+00
 Coeff-Com: -0.286D-04 0.347D-02 0.290D-02-0.591D-01-0.285D-01 0.108D+01
 Coeff:     -0.286D-04 0.347D-02 0.290D-02-0.591D-01-0.285D-01 0.108D+01
 Gap=     0.554 Goal=   None    Shift=    0.000
 Gap=     0.223 Goal=   None    Shift=    0.000
 RMSDP=5.77D-07 MaxDP=9.55D-06 DE=-2.67D-08 OVMax= 2.49D-05

 Cycle   7  Pass 1  IDiag  1:
 E= -77.9119438343708     Delta-E=       -0.000000001042 Rises=F Damp=F
 DIIS: error= 1.13D-06 at cycle   7 NSaved=   7.
 NSaved= 7 IEnMin= 7 EnMin= -77.9119438343708     IErMin= 7 ErrMin= 1.13D-06
 ErrMax= 1.13D-06  0.00D+00 EMaxC= 1.00D-01 BMatC= 4.70D-11 BMatP= 1.68D-09
 IDIUse=1 WtCom= 1.00D+00 WtEn= 0.00D+00
 Coeff-Com: -0.670D-05-0.437D-03 0.498D-04 0.135D-01-0.322D-01-0.127D+00
 Coeff-Com:  0.115D+01
 Coeff:     -0.670D-05-0.437D-03 0.498D-04 0.135D-01-0.322D-01-0.127D+00
 Coeff:      0.115D+01
 Gap=     0.554 Goal=   None    Shift=    0.000
 Gap=     0.223 Goal=   None    Shift=    0.000
 RMSDP=1.20D-07 MaxDP=1.23D-06 DE=-1.04D-09 OVMax= 1.07D-05

 Cycle   8  Pass 1  IDiag  1:
 E= -77.9119438344327     Delta-E=       -0.000000000062 Rises=F Damp=F
 DIIS: error= 6.11D-07 at cycle   8 NSaved=   8.
 NSaved= 8 IEnMin= 8 EnMin= -77.9119438344327     IErMin= 8 ErrMin= 6.11D-07
 ErrMax= 6.11D-07  0.00D+00 EMaxC= 1.00D-01 BMatC= 8.06D-12 BMatP= 4.70D-11
 IDIUse=1 WtCom= 1.00D+00 WtEn= 0.00D+00
 Coeff-Com:  0.575D-05 0.125D-03-0.186D-03-0.607D-02 0.234D-01 0.212D-01
 Coeff-Com: -0.660D+00 0.162D+01
 Coeff:      0.575D-05 0.125D-03-0.186D-03-0.607D-02 0.234D-01 0.212D-01
 Coeff:     -0.660D+00 0.162D+01
 Gap=     0.554 Goal=   None    Shift=    0.000
 Gap=     0.223 Goal=   None    Shift=    0.000
 RMSDP=5.89D-08 MaxDP=5.19D-07 DE=-6.20D-11 OVMax= 7.60D-06

 Cycle   9  Pass 1  IDiag  1:
 E= -77.9119438344503     Delta-E=       -0.000000000018 Rises=F Damp=F
 DIIS: error= 2.17D-07 at cycle   9 NSaved=   9.
 NSaved= 9 IEnMin= 9 EnMin= -77.9119438344503     IErMin= 9 ErrMin= 2.17D-07
 ErrMax= 2.17D-07  0.00D+00 EMaxC= 1.00D-01 BMatC= 9.84D-13 BMatP= 8.06D-12
 IDIUse=1 WtCom= 1.00D+00 WtEn= 0.00D+00
 Coeff-Com: -0.186D-05 0.139D-04 0.923D-04 0.590D-03-0.557D-02 0.105D-01
 Coeff-Com:  0.128D+00-0.780D+00 0.165D+01
 Coeff:     -0.186D-05 0.139D-04 0.923D-04 0.590D-03-0.557D-02 0.105D-01
 Coeff:      0.128D+00-0.780D+00 0.165D+01
 Gap=     0.554 Goal=   None    Shift=    0.000
 Gap=     0.223 Goal=   None    Shift=    0.000
 RMSDP=2.91D-08 MaxDP=2.71D-07 DE=-1.76D-11 OVMax= 3.87D-06

 Cycle  10  Pass 1  IDiag  1:
 E= -77.9119438344529     Delta-E=       -0.000000000003 Rises=F Damp=F
 DIIS: error= 1.64D-08 at cycle  10 NSaved=  10.
 NSaved=10 IEnMin=10 EnMin= -77.9119438344529     IErMin=10 ErrMin= 1.64D-08
 ErrMax= 1.64D-08  0.00D+00 EMaxC= 1.00D-01 BMatC= 1.08D-14 BMatP= 9.84D-13
 IDIUse=1 WtCom= 1.00D+00 WtEn= 0.00D+00
 Coeff-Com: -0.135D-06-0.248D-05 0.169D-05 0.117D-03-0.380D-03-0.100D-02
 Coeff-Com:  0.130D-01-0.330D-01-0.534D-01 0.107D+01
 Coeff:     -0.135D-06-0.248D-05 0.169D-05 0.117D-03-0.380D-03-0.100D-02
 Coeff:      0.130D-01-0.330D-01-0.534D-01 0.107D+01
 Gap=     0.554 Goal=   None    Shift=    0.000
 Gap=     0.223 Goal=   None    Shift=    0.000
 RMSDP=2.83D-09 MaxDP=2.42D-08 DE=-2.53D-12 OVMax= 3.34D-07

 SCF Done:  E(UM062X) =  -77.9119438345     A.U. after   10 cycles
            NFock= 10  Conv=0.28D-08     -V/T= 1.9797
 <Sx>= 0.0000 <Sy>= 0.0000 <Sz>= 0.5000 <S**2>= 0.7555 S= 0.5028
 <L.S>=  0.00000000000    
 KE= 7.953027496114D+01 PE=-2.556379185039D+02 EE= 5.898025576879D+01
 Annihilation of the first spin contaminant:
 S**2 before annihilation     0.7555,   after     0.7500
 Leave Link  502 at Tue Nov 19 10:46:07 2024, MaxMem=   536870912 cpu:              47.1 elap:               6.0
 (Enter /home/szhao/Apps/g16/l701.exe)
 ... and contract with generalized density number  0.
 Compute integral first derivatives.
 Leave Link  701 at Tue Nov 19 10:46:07 2024, MaxMem=   536870912 cpu:               0.7 elap:               0.1
 (Enter /home/szhao/Apps/g16/l702.exe)
 L702 exits ... SP integral derivatives will be done elsewhere.
 Leave Link  702 at Tue Nov 19 10:46:07 2024, MaxMem=   536870912 cpu:               0.3 elap:               0.0
 (Enter /home/szhao/Apps/g16/l703.exe)
 Integral derivatives from FoFJK, PRISM(SPDF).
 Compute integral first derivatives, UseDBF=F ICtDFT=           0.
 Calling FoFJK, ICntrl=      2127 FMM=F ISym2X=0 I1Cent= 0 IOpClX= 1 NMat=1 NMatS=1 NMatT=0.
 FoFJK:  IHMeth= 1 ICntrl=    2127 DoSepK=F KAlg= 0 I1Cent=           0 FoldK=F
 IRaf=         0 NMat=       1 IRICut=       1 DoRegI=T DoRafI=F ISym2E= 0 IDoP0=0 IntGTp=1.
 FoFCou: FMM=F IPFlag=           0 FMFlag=      100000 FMFlg1=         800
         NFxFlg=           0 DoJE=F BraDBF=F KetDBF=F FulRan=T
         wScrn=  0.000000 ICntrl=      2127 IOpCl=  1 I1Cent=           0 NGrid=           0
         NMat0=    1 NMatS0=      1 NMatT0=    0 NMatD0=    1 NMtDS0=    0 NMtDT0=    0
 Symmetry not used in FoFCou.
 Leave Link  703 at Tue Nov 19 10:46:08 2024, MaxMem=   536870912 cpu:               8.9 elap:               1.1
 (Enter /home/szhao/Apps/g16/l716.exe)
 Dipole        = 2.69495537D-12-3.19744231D-14-4.77266288D-13
 -------------------------------------------------------------------
 Center     Atomic                   Forces (Hartrees/Bohr)
 Number     Number              X              Y              Z
 -------------------------------------------------------------------
      1        6          -0.000000000   -0.000000000   -0.000000000
      2        6          -0.000000000   -0.000000000   -0.000000000
      3        1          -0.051526767   -0.025780821   -0.000000000
      4        1          -0.050522109    0.025631966    0.000000000
      5        1           0.051526767    0.025780821   -0.000000000
      6        1           0.050522109   -0.025631966    0.000000000
 -------------------------------------------------------------------
 Cartesian Forces:  Max     0.051526767 RMS     0.026934364
 Leave Link  716 at Tue Nov 19 10:46:08 2024, MaxMem=   536870912 cpu:               0.3 elap:               0.0
 (Enter /home/szhao/Apps/g16/l103.exe)

 GradGradGradGradGradGradGradGradGradGradGradGradGradGradGradGradGradGrad
 Berny optimization.
 Using GEDIIS/GDIIS optimizer.
 FormGI is forming the generalized inverse of G from B-inverse, IUseBI=4.
 Internal  Forces:  Max     0.102048876 RMS     0.042156484
 Search for a local minimum.
 Step number   2 out of a maximum of   30
 All quantities printed in internal units (Hartrees-Bohrs-Radians)
 RMS Force = .32419D-01 SwitMx=.10000D-02 MixMth= 1
 Mixed Optimization -- RFO/linear search
 Update second derivatives using D2CorX and points    1    2
 DE= -4.78D-02 DEPred=-4.75D-02 R= 1.01D+00
 TightC=F SS=  1.41D+00  RLast= 3.00D-01 DXNew= 5.0454D-01 9.0000D-01
 Trust test= 1.01D+00 RLast= 3.00D-01 DXMaxT set to 5.05D-01
 The second derivative matrix:
                          X1        Y1        Z1        X2        Y2
           X1           0.63079
           Y1           0.00224   0.50004
           Z1           0.00000   0.00000   0.50000
           X2          -0.13079  -0.00224  -0.00000   0.63079
           Y2          -0.00224  -0.00004  -0.00000   0.00224   0.50004
           Z2          -0.00000  -0.00000  -0.00000   0.00000   0.00000
           R1          -0.11418  -0.00195  -0.00000   0.11418   0.00195
           R2          -0.11060  -0.00189  -0.00000   0.11060   0.00189
           R3          -0.11418  -0.00195  -0.00000   0.11418   0.00195
           R4          -0.11060  -0.00189  -0.00000   0.11060   0.00189
           A1          -0.01552  -0.00027  -0.00000   0.01552   0.00027
           A2          -0.01456  -0.00025  -0.00000   0.01456   0.00025
           A3           0.03009   0.00052   0.00000  -0.03009  -0.00052
           A4          -0.01552  -0.00027  -0.00000   0.01552   0.00027
           A5          -0.01456  -0.00025  -0.00000   0.01456   0.00025
           A6           0.03009   0.00052   0.00000  -0.03009  -0.00052
           D1          -0.00000  -0.00000  -0.00000   0.00000   0.00000
           D2          -0.00000  -0.00000  -0.00000   0.00000   0.00000
           D3          -0.00000  -0.00000  -0.00000   0.00000   0.00000
           D4          -0.00000  -0.00000  -0.00000   0.00000   0.00000
                          Z2        R1        R2        R3        R4
           Z2           0.50000
           R1           0.00000   0.47240
           R2           0.00000   0.01922   0.46542
           R3           0.00000   0.02023   0.01922   0.47240
           R4           0.00000   0.01922   0.01825   0.01922   0.46542
           A1           0.00000  -0.00503  -0.00496  -0.00503  -0.00496
           A2           0.00000  -0.00505  -0.00498  -0.00505  -0.00498
           A3          -0.00000   0.01008   0.00994   0.01008   0.00994
           A4           0.00000  -0.00503  -0.00496  -0.00503  -0.00496
           A5           0.00000  -0.00505  -0.00498  -0.00505  -0.00498
           A6          -0.00000   0.01008   0.00994   0.01008   0.00994
           D1           0.00000   0.00000   0.00000   0.00000   0.00000
           D2           0.00000   0.00000   0.00000   0.00000   0.00000
           D3           0.00000   0.00000   0.00000   0.00000   0.00000
           D4           0.00000   0.00000   0.00000   0.00000   0.00000
                          A1        A2        A3        A4        A5
           A1           0.15750
           A2          -0.00243   0.15765
           A3           0.00493   0.00478   0.15029
           A4          -0.00250  -0.00243   0.00493   0.15750
           A5          -0.00243  -0.00235   0.00478  -0.00243   0.15765
           A6           0.00493   0.00478  -0.00971   0.00493   0.00478
           D1           0.00000   0.00000  -0.00000   0.00000   0.00000
           D2           0.00000   0.00000  -0.00000   0.00000   0.00000
           D3           0.00000   0.00000  -0.00000   0.00000   0.00000
           D4           0.00000   0.00000  -0.00000   0.00000   0.00000
                          A6        D1        D2        D3        D4
           A6           0.15029
           D1          -0.00000   0.07143
           D2          -0.00000   0.00000   0.07143
           D3          -0.00000   0.00000   0.00000   0.07143
           D4          -0.00000   0.00000   0.00000   0.00000   0.07143
 ITU=  1  0
 Use linear search instead of GDIIS.
 Linear search step of   0.600 exceeds DXMaxT=   0.505 but not scaled.
 Quartic linear search produced a step of  2.00000.
 Iteration  1 RMS(Cart)=  0.13322736 RMS(Int)=  0.02368077
 Iteration  2 RMS(Cart)=  0.03020168 RMS(Int)=  0.00046018
 Iteration  3 RMS(Cart)=  0.00046524 RMS(Int)=  0.00000004
 Iteration  4 RMS(Cart)=  0.00000005 RMS(Int)=  0.00000000
 ITry= 1 IFail=0 DXMaxC= 3.43D-01 DCOld= 1.00D+10 DXMaxT= 5.05D-01 DXLimC= 3.00D+00 Rises=F
 Variable       Old X    -DE/DX   Delta X   Delta X   Delta X     New X
                                 (Linear)    (Quad)   (Total)
    X1       -0.96180  -0.10205   0.00000   0.00000   0.00000  -0.96180
    Y1        0.00000   0.00079   0.00000   0.00000   0.00000   0.00000
    Z1        0.00000   0.00000   0.00000   0.00000   0.00000   0.00000
    X2        0.96180   0.10205   0.00000   0.00000   0.00000   0.96180
    Y2        0.00000  -0.00079   0.00000   0.00000   0.00000   0.00000
    Z2        0.00000   0.00000   0.00000   0.00000   0.00000   0.00000
    R1        2.01751   0.04638   0.20053   0.00000   0.20053   2.21804
    R2        2.02174   0.04557   0.19736   0.00000   0.19736   2.21910
    R3        2.01751   0.04638   0.20053   0.00000   0.20053   2.21804
    R4        2.02174   0.04557   0.19736   0.00000   0.19736   2.21910
    A1        2.04254   0.02329   0.13254   0.00000   0.13254   2.17508
    A2        2.03580   0.02238   0.12671   0.00000   0.12671   2.16251
    A3        2.20485  -0.04567  -0.25925   0.00000  -0.25925   1.94560
    A4        2.04254   0.02329   0.13254   0.00000   0.13254   2.17508
    A5        2.03580   0.02238   0.12671   0.00000   0.12671   2.16251
    A6        2.20485  -0.04567  -0.25925   0.00000  -0.25925   1.94560
    D1        3.14159  -0.00000   0.00000   0.00000   0.00000   3.14159
    D2        0.00000  -0.00000   0.00000   0.00000  -0.00000   0.00000
    D3        0.00000  -0.00000   0.00000   0.00000   0.00000   0.00000
    D4        3.14159  -0.00000   0.00000   0.00000   0.00000   3.14159
         Item               Value     Threshold  Converged?
 Maximum Force            0.046381     0.000450     NO 
 RMS     Force            0.032419     0.000300     NO 
 Maximum Displacement     0.343396     0.001800     NO 
 RMS     Displacement     0.151525     0.001200     NO 
 Predicted change in Energy=-2.342381D-02
 Lowest energy point so far.  Saving SCF results.
 GradGradGradGradGradGradGradGradGradGradGradGradGradGradGradGradGradGrad

 Leave Link  103 at Tue Nov 19 10:46:08 2024, MaxMem=   536870912 cpu:               0.0 elap:               0.0
 (Enter /home/szhao/Apps/g16/l202.exe)
                          Input orientation:                          
 ---------------------------------------------------------------------
 Center     Atomic      Atomic             Coordinates (Angstroms)
 Number     Number       Type             X           Y           Z
 ---------------------------------------------------------------------
      1          6           0       -0.508962    0.000000    0.000000
      2          6           0        0.508962    0.000000    0.000000
      3          1           0       -1.175846   -0.965880   -0.000000
      4          1           0       -1.163967    0.974652   -0.000000
      5          1           0        1.175846    0.965880    0.000000
      6          1           0        1.163967   -0.974652    0.000000
 ---------------------------------------------------------------------
                    Distance matrix (angstroms):
                    1          2          3          4          5
     1  C    0.000000
     2  C    1.017924   0.000000
     3  H    1.173737   1.942036   0.000000
     4  H    1.174299   1.936141   1.940568   0.000000
     5  H    1.942036   1.173737   3.043378   2.339830   0.000000
     6  H    1.936141   1.174299   2.339830   3.036292   1.940568
                    6
     6  H    0.000000
 Symmetry turned off by external request.
 Stoichiometry    C2H4(1+,2)
 Framework group  C2H[SGH(C2H4)]
 Deg. of freedom     5
 Full point group                 C2H     NOp   4
 Rotational constants (GHZ):         133.1624245          43.0669417          32.5422402
 Leave Link  202 at Tue Nov 19 10:46:08 2024, MaxMem=   536870912 cpu:               0.0 elap:               0.0
 (Enter /home/szhao/Apps/g16/l301.exe)
 Standard basis: 6-311+G(d,p) (5D, 7F)
 Ernie: Thresh=  0.10000D-02 Tol=  0.10000D-05 Strict=F.
    68 basis functions,   104 primitive gaussians,    70 cartesian basis functions
     8 alpha electrons        7 beta electrons
       nuclear repulsion energy        37.4281751723 Hartrees.
 IExCor= 4336 DFT=T Ex+Corr=M062X ExCW=0 ScaHFX=  0.540000
 ScaDFX=  1.000000  1.000000  1.000000  1.000000 ScalE2=  1.000000  1.000000
 IRadAn=      7 IRanWt=     -1 IRanGd=            0 ICorTp=0 IEmpDi=  4
 NAtoms=    6 NActive=    6 NUniq=    6 SFac= 1.00D+00 NAtFMM=   60 NAOKFM=F Big=F
 Integral buffers will be    131072 words long.
 Raffenetti 2 integral format.
 Two-electron integral symmetry is turned off.
 Leave Link  301 at Tue Nov 19 10:46:09 2024, MaxMem=   536870912 cpu:               0.3 elap:               0.0
 (Enter /home/szhao/Apps/g16/l302.exe)
 NPDir=0 NMtPBC=     1 NCelOv=     1 NCel=       1 NClECP=     1 NCelD=      1
         NCelK=      1 NCelE2=     1 NClLst=     1 CellRange=     0.0.
 One-electron integrals computed using PRISM.
 NBasis=    68 RedAO= T EigKep=  3.19D-05  NBF=    68
 NBsUse=    68 1.00D-06 EigRej= -1.00D+00 NBFU=    68
 Precomputing XC quadrature grid using
 IXCGrd= 4 IRadAn=           7 IRanWt=          -1 IRanGd=           0 AccXCQ= 0.00D+00.
 Generated NRdTot=       0 NPtTot=           0 NUsed=           0 NTot=          32
 NSgBfM=    70    70    70    70    70 MxSgAt=     6 MxSgA2=     6.
 Leave Link  302 at Tue Nov 19 10:46:09 2024, MaxMem=   536870912 cpu:               1.1 elap:               0.1
 (Enter /home/szhao/Apps/g16/l303.exe)
 DipDrv:  MaxL=1.
 Leave Link  303 at Tue Nov 19 10:46:09 2024, MaxMem=   536870912 cpu:               0.3 elap:               0.0
 (Enter /home/szhao/Apps/g16/l401.exe)
 Initial guess from the checkpoint file:  "opt.chk"
 B after Tr=     0.000000   -0.000000    0.000000
         Rot=    1.000000    0.000000    0.000000    0.000753 Ang=   0.09 deg.
 Guess basis will be translated and rotated to current coordinates.
 JPrj=2 DoOrth=T DoCkMO=T.
 Initial guess <Sx>= 0.0000 <Sy>= 0.0000 <Sz>= 0.5000 <S**2>= 0.7566 S= 0.5033
 Generating alternative initial guess.
 ExpMin= 4.38D-02 ExpMax= 4.56D+03 ExpMxC= 6.82D+02 IAcc=3 IRadAn=         5 AccDes= 0.00D+00
 Harris functional with IExCor= 1009 and IRadAn=       5 diagonalized for initial guess.
 HarFok:  IExCor= 1009 AccDes= 0.00D+00 IRadAn=         5 IDoV= 1 UseB2=F ITyADJ=14
 ICtDFT=  3500011 ScaDFX=  1.000000  1.000000  1.000000  1.000000
 FoFCou: FMM=F IPFlag=           0 FMFlag=      100000 FMFlg1=           0
         NFxFlg=           0 DoJE=T BraDBF=F KetDBF=T FulRan=T
         wScrn=  0.000000 ICntrl=       500 IOpCl=  0 I1Cent=   200000004 NGrid=           0
         NMat0=    1 NMatS0=      1 NMatT0=    0 NMatD0=    1 NMtDS0=    0 NMtDT0=    0
 Symmetry not used in FoFCou.
 Harris En= -78.0822568144888    
 Leave Link  401 at Tue Nov 19 10:46:09 2024, MaxMem=   536870912 cpu:               1.9 elap:               0.2
 (Enter /home/szhao/Apps/g16/l502.exe)
 Keep R1 and R2 ints in memory in canonical form, NReq=12681614.
 FoFCou: FMM=F IPFlag=           0 FMFlag=           0 FMFlg1=           0
         NFxFlg=           0 DoJE=F BraDBF=F KetDBF=F FulRan=T
         wScrn=  0.000000 ICntrl=       600 IOpCl=  0 I1Cent=           0 NGrid=           0
         NMat0=    1 NMatS0=   2346 NMatT0=    0 NMatD0=    1 NMtDS0=    0 NMtDT0=    0
 Symmetry not used in FoFCou.
 Two-electron integral symmetry not used.
 UHF open shell SCF:
 Using DIIS extrapolation, IDIIS=  1040.
 NGot=   536870912 LenX=   531353794 LenY=   531348453
 Requested convergence on RMS density matrix=1.00D-08 within 128 cycles.
 Requested convergence on MAX density matrix=1.00D-06.
 Requested convergence on             energy=1.00D-06.
 No special actions if energy rises.

 Cycle   1  Pass 1  IDiag  1:
 E= -77.9385859309460    
 DIIS: error= 1.73D-02 at cycle   1 NSaved=   1.
 NSaved= 1 IEnMin= 1 EnMin= -77.9385859309460     IErMin= 1 ErrMin= 1.73D-02
 ErrMax= 1.73D-02  0.00D+00 EMaxC= 1.00D-01 BMatC= 3.49D-02 BMatP= 3.49D-02
 IDIUse=3 WtCom= 8.27D-01 WtEn= 1.73D-01
 Coeff-Com:  0.100D+01
 Coeff-En:   0.100D+01
 Coeff:      0.100D+01
 Recover alternate guess density for next cycle.
 RMSDP=3.06D-03 MaxDP=6.55D-02              OVMax= 0.00D+00

 Cycle   2  Pass 1  IDiag  1:
 E= -77.8032317361506     Delta-E=        0.135354194795 Rises=F Damp=F
 Switch densities from cycles 1 and 2 for lowest energy.
 DIIS: error= 7.56D-02 at cycle   2 NSaved=   2.
 NSaved= 2 IEnMin= 1 EnMin= -77.9385859309460     IErMin= 1 ErrMin= 1.73D-02
 ErrMax= 7.56D-02  0.00D+00 EMaxC= 1.00D+00 BMatC= 6.88D-01 BMatP= 3.49D-02
 IDIUse=1 WtCom= 1.00D+00 WtEn= 0.00D+00
 Coeff-Com:  0.101D+01-0.545D-02
 Coeff:      0.101D+01-0.545D-02
 Gap=     0.528 Goal=   None    Shift=    0.000
 Gap=     0.236 Goal=   None    Shift=    0.000
 RMSDP=1.47D-03 MaxDP=2.57D-02 DE= 1.35D-01 OVMax= 1.54D-01

 Cycle   3  Pass 1  IDiag  1:
 E= -77.9464600366953     Delta-E=       -0.143228300545 Rises=F Damp=F
 DIIS: error= 3.77D-03 at cycle   3 NSaved=   3.
 NSaved= 3 IEnMin= 3 EnMin= -77.9464600366953     IErMin= 3 ErrMin= 3.77D-03
 ErrMax= 3.77D-03  0.00D+00 EMaxC= 1.00D+00 BMatC= 1.28D-03 BMatP= 3.49D-02
 IDIUse=1 WtCom= 1.00D+00 WtEn= 0.00D+00
 Coeff-Com: -0.389D-01 0.381D-01 0.100D+01
 Coeff:     -0.389D-01 0.381D-01 0.100D+01
 Gap=     0.499 Goal=   None    Shift=    0.000
 Gap=     0.239 Goal=   None    Shift=    0.000
 RMSDP=2.76D-04 MaxDP=4.95D-03 DE=-1.43D-01 OVMax= 8.30D-03

 Cycle   4  Pass 1  IDiag  1:
 E= -77.9468036831130     Delta-E=       -0.000343646418 Rises=F Damp=F
 DIIS: error= 8.75D-04 at cycle   4 NSaved=   4.
 NSaved= 4 IEnMin= 4 EnMin= -77.9468036831130     IErMin= 4 ErrMin= 8.75D-04
 ErrMax= 8.75D-04  0.00D+00 EMaxC= 1.00D+00 BMatC= 3.02D-05 BMatP= 1.28D-03
 IDIUse=1 WtCom= 1.00D+00 WtEn= 0.00D+00
 Coeff-Com: -0.512D-02-0.351D-02 0.269D-01 0.982D+00
 Coeff:     -0.512D-02-0.351D-02 0.269D-01 0.982D+00
 Gap=     0.498 Goal=   None    Shift=    0.000
 Gap=     0.239 Goal=   None    Shift=    0.000
 RMSDP=3.98D-05 MaxDP=5.95D-04 DE=-3.44D-04 OVMax= 1.72D-03

 Cycle   5  Pass 1  IDiag  1:
 E= -77.9468154853947     Delta-E=       -0.000011802282 Rises=F Damp=F
 DIIS: error= 1.68D-04 at cycle   5 NSaved=   5.
 NSaved= 5 IEnMin= 5 EnMin= -77.9468154853947     IErMin= 5 ErrMin= 1.68D-04
 ErrMax= 1.68D-04  0.00D+00 EMaxC= 1.00D+00 BMatC= 1.67D-06 BMatP= 3.02D-05
 IDIUse=1 WtCom= 1.00D+00 WtEn= 0.00D+00
 Coeff-Com:  0.203D-02-0.686D-03-0.455D-01-0.154D+00 0.120D+01
 Coeff:      0.203D-02-0.686D-03-0.455D-01-0.154D+00 0.120D+01
 Gap=     0.498 Goal=   None    Shift=    0.000
 Gap=     0.239 Goal=   None    Shift=    0.000
 RMSDP=1.40D-05 MaxDP=2.80D-04 DE=-1.18D-05 OVMax= 6.27D-04

 Cycle   6  Pass 1  IDiag  1:
 E= -77.9468166910128     Delta-E=       -0.000001205618 Rises=F Damp=F
 DIIS: error= 3.02D-05 at cycle   6 NSaved=   6.
 NSaved= 6 IEnMin= 6 EnMin= -77.9468166910128     IErMin= 6 ErrMin= 3.02D-05
 ErrMax= 3.02D-05  0.00D+00 EMaxC= 1.00D+00 BMatC= 1.10D-07 BMatP= 1.67D-06
 IDIUse=1 WtCom= 1.00D+00 WtEn= 0.00D+00
 Coeff-Com: -0.661D-04 0.386D-03 0.997D-02-0.342D-01-0.282D+00 0.131D+01
 Coeff:     -0.661D-04 0.386D-03 0.997D-02-0.342D-01-0.282D+00 0.131D+01
 Gap=     0.498 Goal=   None    Shift=    0.000
 Gap=     0.239 Goal=   None    Shift=    0.000
 RMSDP=5.13D-06 MaxDP=6.65D-05 DE=-1.21D-06 OVMax= 1.64D-04

 Cycle   7  Pass 1  IDiag  1:
 E= -77.9468167779633     Delta-E=       -0.000000086950 Rises=F Damp=F
 DIIS: error= 3.48D-06 at cycle   7 NSaved=   7.
 NSaved= 7 IEnMin= 7 EnMin= -77.9468167779633     IErMin= 7 ErrMin= 3.48D-06
 ErrMax= 3.48D-06  0.00D+00 EMaxC= 1.00D+00 BMatC= 1.38D-09 BMatP= 1.10D-07
 IDIUse=1 WtCom= 1.00D+00 WtEn= 0.00D+00
 Coeff-Com: -0.173D-04-0.332D-04 0.307D-03 0.507D-02-0.325D-02-0.110D+00
 Coeff-Com:  0.111D+01
 Coeff:     -0.173D-04-0.332D-04 0.307D-03 0.507D-02-0.325D-02-0.110D+00
 Coeff:      0.111D+01
 Gap=     0.498 Goal=   None    Shift=    0.000
 Gap=     0.239 Goal=   None    Shift=    0.000
 RMSDP=5.45D-07 MaxDP=8.90D-06 DE=-8.70D-08 OVMax= 1.88D-05

 Cycle   8  Pass 1  IDiag  1:
 E= -77.9468167787892     Delta-E=       -0.000000000826 Rises=F Damp=F
 DIIS: error= 6.93D-07 at cycle   8 NSaved=   8.
 NSaved= 8 IEnMin= 8 EnMin= -77.9468167787892     IErMin= 8 ErrMin= 6.93D-07
 ErrMax= 6.93D-07  0.00D+00 EMaxC= 1.00D+00 BMatC= 1.80D-11 BMatP= 1.38D-09
 IDIUse=1 WtCom= 1.00D+00 WtEn= 0.00D+00
 Coeff-Com:  0.191D-05-0.414D-06-0.183D-03 0.159D-03 0.532D-02-0.142D-01
 Coeff-Com: -0.820D-01 0.109D+01
 Coeff:      0.191D-05-0.414D-06-0.183D-03 0.159D-03 0.532D-02-0.142D-01
 Coeff:     -0.820D-01 0.109D+01
 Gap=     0.498 Goal=   None    Shift=    0.000
 Gap=     0.239 Goal=   None    Shift=    0.000
 RMSDP=5.61D-08 MaxDP=7.68D-07 DE=-8.26D-10 OVMax= 2.20D-06

 Cycle   9  Pass 1  IDiag  1:
 E= -77.9468167787980     Delta-E=       -0.000000000009 Rises=F Damp=F
 DIIS: error= 8.54D-08 at cycle   9 NSaved=   9.
 NSaved= 9 IEnMin= 9 EnMin= -77.9468167787980     IErMin= 9 ErrMin= 8.54D-08
 ErrMax= 8.54D-08  0.00D+00 EMaxC= 1.00D+00 BMatC= 3.15D-13 BMatP= 1.80D-11
 IDIUse=1 WtCom= 1.00D+00 WtEn= 0.00D+00
 Coeff-Com: -0.124D-07 0.241D-06 0.208D-04-0.896D-04-0.672D-03 0.358D-02
 Coeff-Com: -0.602D-02-0.116D+00 0.112D+01
 Coeff:     -0.124D-07 0.241D-06 0.208D-04-0.896D-04-0.672D-03 0.358D-02
 Coeff:     -0.602D-02-0.116D+00 0.112D+01
 Gap=     0.498 Goal=   None    Shift=    0.000
 Gap=     0.239 Goal=   None    Shift=    0.000
 RMSDP=9.64D-09 MaxDP=1.23D-07 DE=-8.88D-12 OVMax= 4.11D-07

 SCF Done:  E(UM062X) =  -77.9468167788     A.U. after    9 cycles
            NFock=  9  Conv=0.96D-08     -V/T= 1.9867
 <Sx>= 0.0000 <Sy>= 0.0000 <Sz>= 0.5000 <S**2>= 0.7582 S= 0.5041
 <L.S>=  0.00000000000    
 KE= 7.899801628752D+01 PE=-2.520075785350D+02 EE= 5.763457029634D+01
 Annihilation of the first spin contaminant:
 S**2 before annihilation     0.7582,   after     0.7500
 Leave Link  502 at Tue Nov 19 10:46:14 2024, MaxMem=   536870912 cpu:              42.6 elap:               5.4
 (Enter /home/szhao/Apps/g16/l701.exe)
 ... and contract with generalized density number  0.
 Compute integral first derivatives.
 Leave Link  701 at Tue Nov 19 10:46:15 2024, MaxMem=   536870912 cpu:               0.7 elap:               0.1
 (Enter /home/szhao/Apps/g16/l702.exe)
 L702 exits ... SP integral derivatives will be done elsewhere.
 Leave Link  702 at Tue Nov 19 10:46:15 2024, MaxMem=   536870912 cpu:               0.3 elap:               0.0
 (Enter /home/szhao/Apps/g16/l703.exe)
 Integral derivatives from FoFJK, PRISM(SPDF).
 Compute integral first derivatives, UseDBF=F ICtDFT=           0.
 Calling FoFJK, ICntrl=      2127 FMM=F ISym2X=0 I1Cent= 0 IOpClX= 1 NMat=1 NMatS=1 NMatT=0.
 FoFJK:  IHMeth= 1 ICntrl=    2127 DoSepK=F KAlg= 0 I1Cent=           0 FoldK=F
 IRaf=         0 NMat=       1 IRICut=       1 DoRegI=T DoRafI=F ISym2E= 0 IDoP0=0 IntGTp=1.
 FoFCou: FMM=F IPFlag=           0 FMFlag=      100000 FMFlg1=         800
         NFxFlg=           0 DoJE=F BraDBF=F KetDBF=F FulRan=T
         wScrn=  0.000000 ICntrl=      2127 IOpCl=  1 I1Cent=           0 NGrid=           0
         NMat0=    1 NMatS0=      1 NMatT0=    0 NMatD0=    1 NMtDS0=    0 NMtDT0=    0
 Symmetry not used in FoFCou.
 Leave Link  703 at Tue Nov 19 10:46:16 2024, MaxMem=   536870912 cpu:               8.7 elap:               1.1
 (Enter /home/szhao/Apps/g16/l716.exe)
 Dipole        = 2.39208653D-11-1.94511074D-13-2.18715871D-13
 -------------------------------------------------------------------
 Center     Atomic                   Forces (Hartrees/Bohr)
 Number     Number              X              Y              Z
 -------------------------------------------------------------------
      1        6          -0.000000000   -0.000000000   -0.000000000
      2        6          -0.000000000   -0.000000000   -0.000000000
      3        1          -0.001980248    0.024017782    0.000000000
      4        1          -0.002680340   -0.023340136    0.000000000
      5        1           0.001980248   -0.024017782   -0.000000000
      6        1           0.002680340    0.023340136   -0.000000000
 -------------------------------------------------------------------
 Cartesian Forces:  Max     0.024017782 RMS     0.011218642
 Leave Link  716 at Tue Nov 19 10:46:16 2024, MaxMem=   536870912 cpu:               0.3 elap:               0.0
 (Enter /home/szhao/Apps/g16/l103.exe)

 GradGradGradGradGradGradGradGradGradGradGradGradGradGradGradGradGradGrad
 Berny optimization.
 Using GEDIIS/GDIIS optimizer.
 FormGI is forming the generalized inverse of G from B-inverse, IUseBI=4.
 Internal  Forces:  Max     0.022569668 RMS     0.012055534
 Search for a local minimum.
 Step number   3 out of a maximum of   30
 All quantities printed in internal units (Hartrees-Bohrs-Radians)
 RMS Force = .14298D-01 SwitMx=.10000D-02 MixMth= 1
 Mixed Optimization -- RFO/linear search
 Update second derivatives using D2CorX and points    2    3
 The second derivative matrix:
                          X1        Y1        Z1        X2        Y2
           X1           0.63727
           Y1          -0.00008   0.50000
           Z1           0.00000  -0.00000   0.50000
           X2          -0.13727   0.00008  -0.00000   0.63727
           Y2           0.00008  -0.00000   0.00000  -0.00008   0.50000
           Z2          -0.00000   0.00000  -0.00000   0.00000  -0.00000
           R1          -0.09165   0.00005  -0.00000   0.09165  -0.00005
           R2          -0.08942   0.00005  -0.00000   0.08942  -0.00005
           R3          -0.09165   0.00005  -0.00000   0.09165  -0.00005
           R4          -0.08942   0.00005  -0.00000   0.08942  -0.00005
           A1          -0.01688   0.00001  -0.00000   0.01688  -0.00001
           A2          -0.01568   0.00001  -0.00000   0.01568  -0.00001
           A3           0.03257  -0.00002   0.00000  -0.03257   0.00002
           A4          -0.01688   0.00001  -0.00000   0.01688  -0.00001
           A5          -0.01568   0.00001  -0.00000   0.01568  -0.00001
           A6           0.03257  -0.00002   0.00000  -0.03257   0.00002
           D1           0.00000  -0.00000   0.00000  -0.00000   0.00000
           D2           0.00000  -0.00000   0.00000  -0.00000   0.00000
           D3          -0.00000   0.00000  -0.00000   0.00000  -0.00000
           D4           0.00000  -0.00000   0.00000  -0.00000   0.00000
                          Z2        R1        R2        R3        R4
           Z2           0.50000
           R1           0.00000   0.43390
           R2           0.00000  -0.01764   0.43014
           R3           0.00000  -0.01828  -0.01764   0.43390
           R4           0.00000  -0.01764  -0.01702  -0.01764   0.43014
           A1           0.00000  -0.00731  -0.00709  -0.00731  -0.00709
           A2           0.00000  -0.00730  -0.00707  -0.00730  -0.00707
           A3          -0.00000   0.01461   0.01417   0.01461   0.01417
           A4           0.00000  -0.00731  -0.00709  -0.00731  -0.00709
           A5           0.00000  -0.00730  -0.00707  -0.00730  -0.00707
           A6          -0.00000   0.01461   0.01417   0.01461   0.01417
[...]
           D2          -0.00000  -0.00000   0.00000   0.00000   0.00000
           D3           0.00000   0.00000  -0.00000  -0.00000  -0.00000
           D4           0.00000   0.00000  -0.00000  -0.00000  -0.00000
                          Z2        R1        R2        R3        R4
           Z2           0.50000
           R1          -0.00000   0.41313
           R2          -0.00000  -0.03377   0.41790
           R3          -0.00000  -0.03904  -0.03377   0.41313
           R4          -0.00000  -0.03377  -0.02926  -0.03377   0.41790
           A1           0.00000   0.00503   0.00284   0.00503   0.00284
           A2           0.00000  -0.00057  -0.00168  -0.00057  -0.00168
           A3          -0.00000  -0.00446  -0.00116  -0.00446  -0.00116
           A4           0.00000   0.00503   0.00284   0.00503   0.00284
           A5           0.00000  -0.00057  -0.00168  -0.00057  -0.00168
           A6          -0.00000  -0.00446  -0.00116  -0.00446  -0.00116
           D1           0.00000  -0.00000  -0.00000  -0.00000  -0.00000
           D2          -0.00000   0.00000   0.00000   0.00000   0.00000
           D3           0.00000  -0.00000  -0.00000  -0.00000  -0.00000
           D4           0.00000  -0.00000  -0.00000  -0.00000  -0.00000
                          A1        A2        A3        A4        A5
           A1           0.15145
           A2          -0.00557   0.15579
           A3           0.01412   0.00978   0.13610
           A4          -0.00855  -0.00557   0.01412   0.15145
           A5          -0.00557  -0.00421   0.00978  -0.00557   0.15579
           A6           0.01412   0.00978  -0.02390   0.01412   0.00978
           D1           0.00000   0.00000  -0.00000   0.00000   0.00000
           D2          -0.00000  -0.00000   0.00000  -0.00000  -0.00000
           D3           0.00000   0.00000  -0.00000   0.00000   0.00000
           D4           0.00000   0.00000  -0.00000   0.00000   0.00000
                          A6        D1        D2        D3        D4
           A6           0.13610
           D1          -0.00000   0.07143
           D2           0.00000  -0.00000   0.07143
           D3          -0.00000   0.00000  -0.00000   0.07143
           D4          -0.00000   0.00000  -0.00000   0.00000   0.07143
 ITU=  1  1  1  0  1  0
     Eigenvalues ---    0.07143   0.07143   0.07143   0.08690   0.15864
     Eigenvalues ---    0.16000   0.16000   0.31451   0.44716   0.44937
     Eigenvalues ---    0.452171000.000001000.000001000.000001000.00000
     Eigenvalues --- 1000.000001000.000001000.000001000.000001000.00000
 En-DIIS/RFO-DIIS/Sim-DIIS IScMMF=       -3 using points:     6    5
 RFO step:  Lambda=-9.96590128D-08.
 NNeg= 0 NGDIIS= 2 SimSw=  2.50D-01 Rises=F DC= -5.12D-06 SmlDif=  1.00D-05
 NRisDI= 0 DoIntr=F SqrtH=F CThrHd= 10.0 CDAdj=  3.0
 RMS Error=  0.1707774141D-03 NUsed= 2 OKEnD=F EnDIS=F
 InvSVX:  RCond= 2.29D-05 Info=           0 Equed=N FErr=  1.06D-15 BErr=  5.42D-17
 DidBck=F Rises=F RFO-DIIS coefs:    1.02345   -0.02345
 Iteration  1 RMS(Cart)=  0.00034103 RMS(Int)=  0.00000006
 Iteration  2 RMS(Cart)=  0.00000007 RMS(Int)=  0.00000000
 ITry= 1 IFail=0 DXMaxC= 6.42D-04 DCOld= 1.00D+10 DXMaxT= 8.28D-01 DXLimC= 3.00D+00 Rises=F
 Variable       Old X    -DE/DX   Delta X   Delta X   Delta X     New X
                                 (Linear)    (Quad)   (Total)
    X1       -0.96180   0.00005   0.00000   0.00000   0.00000  -0.96180
    Y1        0.00000  -0.00020   0.00000   0.00000   0.00000   0.00000
    Z1        0.00000   0.00000   0.00000   0.00000   0.00000   0.00000
    X2        0.96180  -0.00005  -0.00000   0.00000   0.00000   0.96180
    Y2        0.00000   0.00020   0.00000   0.00000   0.00000   0.00000
    Z2        0.00000  -0.00000   0.00000   0.00000   0.00000   0.00000
    R1        2.14170   0.00001   0.00004  -0.00003   0.00001   2.14171
    R2        2.14511  -0.00006   0.00004  -0.00020  -0.00016   2.14495
    R3        2.14170   0.00001   0.00004  -0.00003   0.00001   2.14171
    R4        2.14511  -0.00006   0.00004  -0.00020  -0.00016   2.14495
    A1        2.32167  -0.00006  -0.00007  -0.00035  -0.00041   2.32125
    A2        2.30977   0.00005  -0.00005   0.00033   0.00028   2.31005
    A3        1.65174   0.00001   0.00012   0.00002   0.00014   1.65188
    A4        2.32167  -0.00006  -0.00007  -0.00035  -0.00041   2.32125
    A5        2.30977   0.00005  -0.00005   0.00033   0.00028   2.31005
    A6        1.65174   0.00001   0.00012   0.00002   0.00014   1.65188
    D1        3.14159   0.00000  -0.00000   0.00000   0.00000   3.14159
    D2       -0.00000   0.00000   0.00000   0.00000   0.00000   0.00000
    D3        0.00000  -0.00000   0.00000  -0.00000   0.00000   0.00000
    D4        3.14159   0.00000  -0.00000   0.00000   0.00000   3.14159
         Item               Value     Threshold  Converged?
 Maximum Force            0.000065     0.000450     YES
 RMS     Force            0.000038     0.000300     YES
 Maximum Displacement     0.000642     0.001800     YES
 RMS     Displacement     0.000341     0.001200     YES
 Predicted change in Energy=-4.978643D-08
 Optimization completed.
    -- Stationary point found.
                           ----------------------------
                           !   Optimized Parameters   !
                           ! (Angstroms and Degrees)  !
 --------------------------                            --------------------------
 ! Name  Definition              Value          Derivative Info.                !
 --------------------------------------------------------------------------------
 ! X1    R(1,-1)                -0.509          -DE/DX =    0.0                 !
 ! Y1    R(1,-2)                 0.0            -DE/DX =   -0.0002              !
 ! Z1    R(1,-3)                 0.0            -DE/DX =    0.0                 !
 ! X2    R(2,-1)                 0.509          -DE/DX =    0.0                 !
 ! Y2    R(2,-2)                 0.0            -DE/DX =    0.0002              !
 ! Z2    R(2,-3)                 0.0            -DE/DX =    0.0                 !
 ! R1    R(1,3)                  1.1333         -DE/DX =    0.0                 !
 ! R2    R(1,4)                  1.1351         -DE/DX =   -0.0001              !
 ! R3    R(2,5)                  1.1333         -DE/DX =    0.0                 !
 ! R4    R(2,6)                  1.1351         -DE/DX =   -0.0001              !
 ! A1    A(2,1,3)              133.0218         -DE/DX =   -0.0001              !
 ! A2    A(2,1,4)              132.3402         -DE/DX =    0.0                 !
 ! A3    A(3,1,4)               94.638          -DE/DX =    0.0                 !
 ! A4    A(1,2,5)              133.0218         -DE/DX =   -0.0001              !
 ! A5    A(1,2,6)              132.3402         -DE/DX =    0.0                 !
 ! A6    A(5,2,6)               94.638          -DE/DX =    0.0                 !
 ! D1    D(3,1,2,5)            180.0            -DE/DX =    0.0                 !
 ! D2    D(3,1,2,6)              0.0            -DE/DX =    0.0                 !
 ! D3    D(4,1,2,5)              0.0            -DE/DX =    0.0                 !
 ! D4    D(4,1,2,6)            180.0            -DE/DX =    0.0                 !
 --------------------------------------------------------------------------------
 Lowest energy point so far.  Saving SCF results.
 Largest change from initial coordinates is atom    5       0.379 Angstoms.
 GradGradGradGradGradGradGradGradGradGradGradGradGradGradGradGradGradGrad

 Leave Link  103 at Tue Nov 19 10:46:36 2024, MaxMem=   536870912 cpu:               0.0 elap:               0.0
 (Enter /home/szhao/Apps/g16/l202.exe)
                          Input orientation:                          
 ---------------------------------------------------------------------
 Center     Atomic      Atomic             Coordinates (Angstroms)
 Number     Number       Type             X           Y           Z
 ---------------------------------------------------------------------
      1          6           0       -0.508962    0.000000    0.000000
      2          6           0        0.508962    0.000000    0.000000
      3          1           0       -1.282213   -0.828576   -0.000000
      4          1           0       -1.273517    0.839051   -0.000000
      5          1           0        1.282213    0.828576    0.000000
      6          1           0        1.273517   -0.839051    0.000000
 ---------------------------------------------------------------------
                    Distance matrix (angstroms):
                    1          2          3          4          5
     1  C    0.000000
     2  C    1.017924   0.000000
     3  H    1.133338   1.973537   0.000000
     4  H    1.135144   1.970086   1.667650   0.000000
     5  H    1.973537   1.133338   3.053266   2.555751   0.000000
     6  H    1.970086   1.135144   2.555751   3.050149   1.667650
                    6
     6  H    0.000000
 Symmetry turned off by external request.
 Stoichiometry    C2H4(1+,2)
 Framework group  C2H[SGH(C2H4)]
 Deg. of freedom     5
 Full point group                 C2H     NOp   4
 Rotational constants (GHZ):         180.3096828          39.4828011          32.3902402
 Leave Link  202 at Tue Nov 19 10:46:36 2024, MaxMem=   536870912 cpu:               0.0 elap:               0.0
 (Enter /home/szhao/Apps/g16/l601.exe)
 Copying SCF densities to generalized density rwf, IOpCl= 1 IROHF=0.

 **********************************************************************

            Population analysis using the SCF density.

 **********************************************************************

 Alpha  occ. eigenvalues --  -10.81593 -10.80452  -1.23941  -0.97041  -0.87268
 Alpha  occ. eigenvalues --   -0.86672  -0.70817  -0.65902
 Alpha virt. eigenvalues --   -0.16821  -0.16782  -0.15169  -0.13773  -0.10550
 Alpha virt. eigenvalues --   -0.08811  -0.07450  -0.06724  -0.02696  -0.02530
 Alpha virt. eigenvalues --   -0.00125   0.02549   0.13287   0.17501   0.19575
 Alpha virt. eigenvalues --    0.21866   0.26339   0.29142   0.32949   0.34783
 Alpha virt. eigenvalues --    0.44138   0.47581   0.49389   0.51913   0.55394
 Alpha virt. eigenvalues --    0.73901   0.91735   0.92900   0.96246   1.04397
 Alpha virt. eigenvalues --    1.27297   1.30943   1.39454   1.39794   1.41580
 Alpha virt. eigenvalues --    1.41642   1.42308   1.66466   1.74454   1.75184
 Alpha virt. eigenvalues --    1.85089   1.91110   2.04254   2.11313   2.16697
 Alpha virt. eigenvalues --    2.28725   2.29001   2.33471   2.39882   2.45592
 Alpha virt. eigenvalues --    2.52635   2.69601   2.92391   3.04119   3.08560
 Alpha virt. eigenvalues --    3.45731   3.61764   3.64224  23.53274  25.35027
  Beta  occ. eigenvalues --  -10.81606 -10.80448  -1.22894  -0.92258  -0.84239
  Beta  occ. eigenvalues --   -0.81567  -0.70515
  Beta virt. eigenvalues --   -0.45121  -0.16581  -0.15627  -0.15054  -0.13524
  Beta virt. eigenvalues --   -0.10364  -0.08701  -0.05147  -0.04826  -0.02446
  Beta virt. eigenvalues --   -0.01740   0.00300   0.03324   0.13403   0.17361
  Beta virt. eigenvalues --    0.19308   0.22102   0.27004   0.29150   0.32051
  Beta virt. eigenvalues --    0.35339   0.44153   0.47682   0.49068   0.51388
  Beta virt. eigenvalues --    0.54928   0.74310   0.92006   0.93624   0.96016
  Beta virt. eigenvalues --    1.04499   1.28640   1.30668   1.39020   1.39661
  Beta virt. eigenvalues --    1.40955   1.41869   1.42107   1.66242   1.74526
  Beta virt. eigenvalues --    1.76982   1.84821   1.90986   2.05706   2.13245
  Beta virt. eigenvalues --    2.16858   2.27807   2.30734   2.32795   2.38854
  Beta virt. eigenvalues --    2.45390   2.52256   2.69361   2.91698   3.03513
  Beta virt. eigenvalues --    3.09399   3.44899   3.61055   3.63949  23.53194
  Beta virt. eigenvalues --   25.35023
          Condensed to atoms (all electrons):
               1          2          3          4          5          6
     1  C    4.651027   0.875539   0.307801   0.307600   0.006842   0.005380
     2  C    0.875539   4.651027   0.006842   0.005380   0.307801   0.307600
     3  H    0.307801   0.006842   0.368690  -0.009032   0.002556  -0.003838
     4  H    0.307600   0.005380  -0.009032   0.370006  -0.003838   0.002674
     5  H    0.006842   0.307801   0.002556  -0.003838   0.368690  -0.009032
     6  H    0.005380   0.307600  -0.003838   0.002674  -0.009032   0.370006
          Atomic-Atomic Spin Densities.
               1          2          3          4          5          6
     1  C    0.126925  -0.132301   0.079166   0.079984  -0.021292  -0.022013
     2  C   -0.132301   0.126925  -0.021292  -0.022013   0.079166   0.079984
     3  H    0.079166  -0.021292   0.160270  -0.022296   0.001992  -0.005178
     4  H    0.079984  -0.022013  -0.022296   0.164272  -0.005178   0.002100
     5  H   -0.021292   0.079166   0.001992  -0.005178   0.160270  -0.022296
     6  H   -0.022013   0.079984  -0.005178   0.002100  -0.022296   0.164272
 Mulliken charges and spin densities:
               1          2
     1  C   -0.154189   0.110469
     2  C   -0.154189   0.110469
     3  H    0.326980   0.192662
     4  H    0.327210   0.196869
     5  H    0.326980   0.192662
     6  H    0.327210   0.196869
 Sum of Mulliken charges =   1.00000   1.00000
 Mulliken charges and spin densities with hydrogens summed into heavy atoms:
               1          2
     1  C    0.500000   0.500000
     2  C    0.500000   0.500000
 Electronic spatial extent (au):  <R**2>=             61.0341
 Charge=              1.0000 electrons
 Dipole moment (field-independent basis, Debye):
    X=             -0.0000    Y=              0.0000    Z=             -0.0000  Tot=              0.0000
 Quadrupole moment (field-independent basis, Debye-Ang):
   XX=             -2.4463   YY=             -7.4522   ZZ=            -12.5317
   XY=             -0.0256   XZ=              0.0000   YZ=             -0.0000
 Traceless Quadrupole moment (field-independent basis, Debye-Ang):
   XX=              5.0304   YY=              0.0245   ZZ=             -5.0550
   XY=             -0.0256   XZ=              0.0000   YZ=             -0.0000
 Octapole moment (field-independent basis, Debye-Ang**2):
  XXX=             -0.0000  YYY=              0.0000  ZZZ=             -0.0000  XYY=             -0.0000
  XXY=              0.0000  XXZ=             -0.0000  XZZ=             -0.0000  YZZ=              0.0000
  YYZ=             -0.0000  XYZ=              0.0000
 Hexadecapole moment (field-independent basis, Debye-Ang**3):
 XXXX=            -29.4258 YYYY=            -15.3888 ZZZZ=            -11.8454 XXXY=              0.0770
 XXXZ=              0.0000 YYYX=             -0.0756 YYYZ=             -0.0000 ZZZX=             -0.0000
 ZZZY=              0.0000 XXYY=             -2.1978 XXZZ=             -9.9493 YYZZ=             -5.3066
 XXYZ=             -0.0000 YYXZ=              0.0000 ZZXY=              0.0068
 N-N= 3.774853473274D+01 E-N=-2.526721921238D+02  KE= 7.913302978217D+01
                          Isotropic Fermi Contact Couplings
        Atom                 a.u.       MegaHertz       Gauss      10(-4) cm-1
     1  C(13)             -0.04707     -52.91787     -18.88241     -17.65150
     2  C(13)             -0.04707     -52.91787     -18.88241     -17.65150
     3  H(1)               0.10838     484.44528     172.86212     161.59355
     4  H(1)               0.11046     493.75511     176.18410     164.69898
     5  H(1)               0.10838     484.44528     172.86212     161.59355
     6  H(1)               0.11046     493.75511     176.18410     164.69898
 --------------------------------------------------------
       Center         ----  Spin Dipole Couplings  ----
                      3XX-RR        3YY-RR        3ZZ-RR
 --------------------------------------------------------
     1   Atom       -0.119123      0.244351     -0.125228
     2   Atom       -0.119123      0.244351     -0.125228
     3   Atom        0.026982     -0.004279     -0.022702
     4   Atom        0.025740     -0.003147     -0.022593
     5   Atom        0.026982     -0.004279     -0.022702
     6   Atom        0.025740     -0.003147     -0.022593
 --------------------------------------------------------
                        XY            XZ            YZ
 --------------------------------------------------------
     1   Atom       -0.001475      0.000000      0.000000
     2   Atom       -0.001475      0.000000     -0.000000
     3   Atom        0.032923     -0.000000     -0.000000
     4   Atom       -0.033622      0.000000     -0.000000
     5   Atom        0.032923      0.000000      0.000000
     6   Atom       -0.033622     -0.000000      0.000000
 --------------------------------------------------------


 ---------------------------------------------------------------------------------
              Anisotropic Spin Dipole Couplings in Principal Axis System
 ---------------------------------------------------------------------------------

       Atom             a.u.   MegaHertz   Gauss  10(-4) cm-1        Axes

              Baa    -0.1252   -16.804    -5.996    -5.605 -0.0000 -0.0000  1.0000
     1 C(13)  Bbb    -0.1191   -15.986    -5.704    -5.332  1.0000  0.0041  0.0000
              Bcc     0.2444    32.790    11.700    10.938 -0.0041  1.0000  0.0000
 
              Baa    -0.1252   -16.804    -5.996    -5.605 -0.0000  0.0000  1.0000
     2 C(13)  Bbb    -0.1191   -15.986    -5.704    -5.332  1.0000  0.0041  0.0000
              Bcc     0.2444    32.790    11.700    10.938 -0.0041  1.0000 -0.0000
 
              Baa    -0.0251   -13.389    -4.777    -4.466 -0.5344  0.8452  0.0000
     3 H(1)   Bbb    -0.0227   -12.113    -4.322    -4.040  0.0000 -0.0000  1.0000
              Bcc     0.0478    25.502     9.100     8.506  0.8452  0.5344 -0.0000
 
              Baa    -0.0253   -13.497    -4.816    -4.502  0.5501  0.8351 -0.0000
     4 H(1)   Bbb    -0.0226   -12.054    -4.301    -4.021 -0.0000  0.0000  1.0000
              Bcc     0.0479    25.552     9.117     8.523  0.8351 -0.5501  0.0000
 
              Baa    -0.0251   -13.389    -4.777    -4.466 -0.5344  0.8452  0.0000
     5 H(1)   Bbb    -0.0227   -12.113    -4.322    -4.040 -0.0000 -0.0000  1.0000
              Bcc     0.0478    25.502     9.100     8.506  0.8452  0.5344  0.0000
 
              Baa    -0.0253   -13.497    -4.816    -4.502  0.5501  0.8351 -0.0000
     6 H(1)   Bbb    -0.0226   -12.054    -4.301    -4.021  0.0000  0.0000  1.0000
              Bcc     0.0479    25.552     9.117     8.523  0.8351 -0.5501 -0.0000
 

 ---------------------------------------------------------------------------------

 No NMR shielding tensors so no spin-rotation constants.
 Leave Link  601 at Tue Nov 19 10:46:36 2024, MaxMem=   536870912 cpu:               1.3 elap:               0.2
 (Enter /home/szhao/Apps/g16/l9999.exe)
 1\1\GINC-NODE01\FOpt\UM062X\6-311+G(d,p)\C2H4(1+,2)\SZHAO\19-Nov-2024\
 0\\#p opt UM062X/6-311+G** nosymm int=superfine\\Title Card Required\\
 1,2\C,-0.50896224,0.,0.\C,0.50896224,0.,0.\H,-1.2822128227,-0.82857638
 54,0.\H,-1.2735168982,0.839051394,-0.0000000001\H,1.2822128227,0.82857
 63853,0.0000000001\H,1.2735168982,-0.8390513939,0.\\Version=ES64L-G16R
 evA.03\HF=-77.9598898\S2=0.757687\S2-1=0.\S2A=0.750032\RMSD=8.149e-09\
 RMSF=2.512e-05\Dipole=0.,0.,0.\Quadrupole=3.7400097,0.0182327,-3.75824
 25,-0.0190372,0.,0.\PG=C02H [SGH(C2H4)]\\@


 SOME PHYSICISTS WOULD PREFER TO COME BACK TO THE IDEA OF AN OBJECTIVE
 REAL WORLD WHOSE SMALLEST PARTS EXIST OBJECTIVELY IN THE SAME SENSE AS
 STONES OR TREES EXIST INDEPENDENTLY OF WHETHER WE OBSERVE THEM.
 THIS, HOWEVER, IS IMPOSSIBLE.  -- WERNER HEISENBERG
 Job cpu time:       0 days  0 hours  5 minutes 50.4 seconds.
 Elapsed time:       0 days  0 hours  0 minutes 44.5 seconds.
 File lengths (MBytes):  RWF=     10 Int=      0 D2E=      0 Chk=      2 Scr=      1
 Normal termination of Gaussian 16 at Tue Nov 19 10:46:36 2024.
