Title Card Required                                                     
FOpt      UM062X                                                      6-311+G(d,p)        
Number of atoms                            I                4
Info1-9                                    I   N=           9
          13          13           0           0           0         110
           2          18        -502
Full Title                                 C   N=           2
Title Card Required     
Route                                      C   N=           5
#p opt UM062X/6-311+G** nosymm int=superfine SCF=NoVarAcc   
Charge                                     I                1
Multiplicity                               I                2
Number of electrons                        I               13
Number of alpha electrons                  I                7
Number of beta electrons                   I                6
Number of basis functions                  I               56
Number of independent functions            I               56
Number of point charges in /Mol/           I                0
Number of translation vectors              I                0
Atomic numbers                             I   N=           4
           6           6           1           1
Nuclear charges                            R   N=           4
  6.00000000E+00  6.00000000E+00  1.00000000E+00  1.00000000E+00
Current cartesian coordinates              R   N=          12
 -8.28108223E+00  0.00000000E+00  0.00000000E+00  8.28108223E+00  0.00000000E+00
  0.00000000E+00 -1.03935442E+01 -1.27015281E-12 -8.20517575E-13  1.03935425E+01
  7.98131531E-14 -8.84702796E-13
Number of symbols in /Mol/                 I                0
Force Field                                I                0
Atom Types                                 C   N=           4
                                                
Int Atom Types                             I   N=           4
           0           0           0           0
MM charges                                 R   N=           4
  0.00000000E+00  0.00000000E+00  0.00000000E+00  0.00000000E+00
Integer atomic weights                     I   N=           4
          12          12           1           1
Real atomic weights                        R   N=           4
  1.20000000E+01  1.20000000E+01  1.00782504E+00  1.00782504E+00
Atom fragment info                         I   N=           4
           0           0           0           0
Atom residue num                           I   N=           4
           0           0           0           0
Nuclear spins                              I   N=           4
           0           0           1           1
Nuclear ZEff                               R   N=           4
 -3.60000000E+00 -3.60000000E+00 -1.00000000E+00 -1.00000000E+00
Nuclear ZNuc                               R   N=           4
  6.00000000E+00  6.00000000E+00  1.00000000E+00  1.00000000E+00
Nuclear QMom                               R   N=           4
  0.00000000E+00  0.00000000E+00  0.00000000E+00  0.00000000E+00
Nuclear GFac                               R   N=           4
  0.00000000E+00  0.00000000E+00  2.79284600E+00  2.79284600E+00
MicOpt                                     I   N=           4
          -2          -2          -1          -1
Number of residues                         I                0
Number of secondary structures             I                0
Redundant internal dimensions              I   N=           4
          12           8           4           0
Redundant internal coordinate indices      I   N=          48
           1          -1           0           0           1          -2
           0           0           1          -3           0           0
           2          -1           0           0           2          -2
           0           0           2          -3           0           0
           1           3           0           0           2           4
           0           0           2           1           3          -4
           1           2           4          -4           2           1
           3          -8           1           2           4          -8
Redundant internal coordinates             R   N=          12
 -8.28108223E+00  0.00000000E+00  0.00000000E+00  8.28108223E+00  0.00000000E+00
  0.00000000E+00  2.11246195E+00  2.11246030E+00  3.14159265E+00  3.14159265E+00
  3.14159265E+00  3.14159265E+00
ZRed-IntVec                                I   N=          12
          -1          -1          -1          -1          -1          -1
           0           0           0           0           0           0
ZRed-FPVec                                 R   N=          12
  0.00000000E+00  0.00000000E+00  0.00000000E+00  0.00000000E+00  0.00000000E+00
  0.00000000E+00  0.00000000E+00  0.00000000E+00  0.00000000E+00  0.00000000E+00
  0.00000000E+00  0.00000000E+00
ZRed-Constraint1                           R   N=          12
 -8.28108223E+00  0.00000000E+00  0.00000000E+00  8.28108223E+00  0.00000000E+00
  0.00000000E+00  2.08057524E+00  2.08053366E+00  3.14159265E+00  3.14159265E+00
  3.14159265E+00  3.14159265E+00
ZRed-Constraint2                           R   N=          12
 -8.28108223E+00  0.00000000E+00  0.00000000E+00  8.28108223E+00  0.00000000E+00
  0.00000000E+00  0.00000000E+00  0.00000000E+00  0.00000000E+00  0.00000000E+00
  0.00000000E+00  0.00000000E+00
Number of contracted shells                I               20
Number of primitive shells                 I               38
Pure/Cartesian d shells                    I                0
Pure/Cartesian f shells                    I                0
Highest angular momentum                   I                2
Largest degree of contraction              I                6
Shell types                                I   N=          20
           0          -1          -1          -1          -1          -2
           0          -1          -1          -1          -1          -2
           0           0           0           1           0           0
           0           1
Number of primitives per shell             I   N=          20
           6           3           1           1           1           1
           6           3           1           1           1           1
           3           1           1           1           3           1
           1           1
Shell to atom map                          I   N=          20
           1           1           1           1           1           1
           2           2           2           2           2           2
           3           3           3           3           4           4
           4           4
Primitive exponents                        R   N=          38
  4.56324000E+03  6.82024000E+02  1.54973000E+02  4.44553000E+01  1.30290000E+01
  1.82773000E+00  2.09642000E+01  4.80331000E+00  1.45933000E+00  4.83456000E-01
  1.45585000E-01  4.38000000E-02  6.26000000E-01  4.56324000E+03  6.82024000E+02
  1.54973000E+02  4.44553000E+01  1.30290000E+01  1.82773000E+00  2.09642000E+01
  4.80331000E+00  1.45933000E+00  4.83456000E-01  1.45585000E-01  4.38000000E-02
  6.26000000E-01  3.38650000E+01  5.09479000E+00  1.15879000E+00  3.25840000E-01
  1.02741000E-01  7.50000000E-01  3.38650000E+01  5.09479000E+00  1.15879000E+00
  3.25840000E-01  1.02741000E-01  7.50000000E-01
Contraction coefficients                   R   N=          38
  1.96665025E-03  1.52306019E-02  7.61269097E-02  2.60801033E-01  6.16462078E-01
  2.21006028E-01  1.14660081E-01  9.19999648E-01 -3.03068213E-03  1.00000000E+00
  1.00000000E+00  1.00000000E+00  1.00000000E+00  1.96665025E-03  1.52306019E-02
  7.61269097E-02  2.60801033E-01  6.16462078E-01  2.21006028E-01  1.14660081E-01
  9.19999648E-01 -3.03068213E-03  1.00000000E+00  1.00000000E+00  1.00000000E+00
  1.00000000E+00  2.54938145E-02  1.90373109E-01  8.52161486E-01  1.00000000E+00
  1.00000000E+00  1.00000000E+00  2.54938145E-02  1.90373109E-01  8.52161486E-01
  1.00000000E+00  1.00000000E+00  1.00000000E+00
P(S=P) Contraction coefficients            R   N=          38
  0.00000000E+00  0.00000000E+00  0.00000000E+00  0.00000000E+00  0.00000000E+00
  0.00000000E+00  4.02486927E-02  2.37593957E-01  8.15853851E-01  1.00000000E+00
  1.00000000E+00  1.00000000E+00  0.00000000E+00  0.00000000E+00  0.00000000E+00
  0.00000000E+00  0.00000000E+00  0.00000000E+00  0.00000000E+00  4.02486927E-02
  2.37593957E-01  8.15853851E-01  1.00000000E+00  1.00000000E+00  1.00000000E+00
  0.00000000E+00  0.00000000E+00  0.00000000E+00  0.00000000E+00  0.00000000E+00
  0.00000000E+00  0.00000000E+00  0.00000000E+00  0.00000000E+00  0.00000000E+00
  0.00000000E+00  0.00000000E+00  0.00000000E+00
Coordinates of each shell                  R   N=          60
 -8.28108223E+00  0.00000000E+00  0.00000000E+00 -8.28108223E+00  0.00000000E+00
  0.00000000E+00 -8.28108223E+00  0.00000000E+00  0.00000000E+00 -8.28108223E+00
  0.00000000E+00  0.00000000E+00 -8.28108223E+00  0.00000000E+00  0.00000000E+00
 -8.28108223E+00  0.00000000E+00  0.00000000E+00  8.28108223E+00  0.00000000E+00
  0.00000000E+00  8.28108223E+00  0.00000000E+00  0.00000000E+00  8.28108223E+00
  0.00000000E+00  0.00000000E+00  8.28108223E+00  0.00000000E+00  0.00000000E+00
  8.28108223E+00  0.00000000E+00  0.00000000E+00  8.28108223E+00  0.00000000E+00
  0.00000000E+00 -1.03935442E+01 -1.27015281E-12 -8.20517575E-13 -1.03935442E+01
 -1.27015281E-12 -8.20517575E-13 -1.03935442E+01 -1.27015281E-12 -8.20517575E-13
 -1.03935442E+01 -1.27015281E-12 -8.20517575E-13  1.03935425E+01  7.98131531E-14
 -8.84702796E-13  1.03935425E+01  7.98131531E-14 -8.84702796E-13  1.03935425E+01
  7.98131531E-14 -8.84702796E-13  1.03935425E+01  7.98131531E-14 -8.84702796E-13
Num ILSW                                   I              100
ILSW                                       I   N=         100
           1           0           0           0           2           0
           0           0           0           0        4336          -1
           7           0           0           0           2           0
           0           0           0           0           1           0
           1           1           0           0           0           0
           0           0      100000           0          -1           0
           0           0           0           0           0           0
           0           0           0           1           0           0
           0 -2000000000           1           0           0           0
           0           0           4          52           0           0
           0           0          55           0           0           0
           0           0           0           4           0           1
           0           0           0           0           0           0
           0           0           0           0           0           0
           0           0           0           0           0           0
           0           0           0           0           0           0
           0           0           0           0
Num RLSW                                   I               52
RLSW                                       R   N=          52
  1.00000000E+00  1.00000000E+00  1.00000000E+00  1.00000000E+00  5.40000000E-01
  0.00000000E+00  0.00000000E+00  1.00000000E+00  0.00000000E+00  0.00000000E+00
  0.00000000E+00  0.00000000E+00  1.00000000E+00  0.00000000E+00  0.00000000E+00
  0.00000000E+00  0.00000000E+00  1.00000000E+00  0.00000000E+00  0.00000000E+00
  0.00000000E+00  0.00000000E+00  1.00000000E+00  0.00000000E+00  0.00000000E+00
  0.00000000E+00  0.00000000E+00  1.00000000E+00  0.00000000E+00  0.00000000E+00
  0.00000000E+00  0.00000000E+00  1.00000000E+00  0.00000000E+00  0.00000000E+00
  0.00000000E+00  0.00000000E+00  0.00000000E+00  1.00000000E+00  1.00000000E+00
  0.00000000E+00  1.00000000E+00  0.00000000E+00  0.00000000E+00  0.00000000E+00
  0.00000000E+00  0.00000000E+00  0.00000000E+00  0.00000000E+00  0.00000000E+00
  0.00000000E+00  0.00000000E+00
MxBond                                     I                2
NBond                                      I   N=           4
           2           2           1           1
IBond                                      I   N=           8
           2           3           1           4           1           0
           2           0
RBond                                      R   N=           8
  1.00000000E-01  1.00000000E+00  1.00000000E-01  1.00000000E+00  1.00000000E+00
  0.00000000E+00  1.00000000E+00  0.00000000E+00
Virial Ratio                               R      2.002706141732520E+00
SCF Energy                                 R     -7.658369455857820E+01
Total Energy                               R     -7.658369455857820E+01
S**2                                       R      7.513065535910330E-01
S**2 after annihilation                    R      7.500012281877153E-01
RMS Force                                  R      1.366457829095686E-04
RMS Density                                R      1.469383874512756E-09
Job Status                                 I                1
Nuclear derivative order                   I                1
External E-field                           R   N=          35
  0.00000000E+00  0.00000000E+00  0.00000000E+00  0.00000000E+00  0.00000000E+00
  0.00000000E+00  0.00000000E+00  0.00000000E+00  0.00000000E+00  0.00000000E+00
  0.00000000E+00  0.00000000E+00  0.00000000E+00  0.00000000E+00  0.00000000E+00
  0.00000000E+00  0.00000000E+00  0.00000000E+00  0.00000000E+00  0.00000000E+00
  0.00000000E+00  0.00000000E+00  0.00000000E+00  0.00000000E+00  0.00000000E+00
  0.00000000E+00  0.00000000E+00  0.00000000E+00  0.00000000E+00  0.00000000E+00
  0.00000000E+00  0.00000000E+00  0.00000000E+00  0.00000000E+00  0.00000000E+00
IOpCl                                      I                1
IROHF                                      I                0
Alpha Orbital Energies                     R   N=          56
 -1.09185957E+01 -1.09185952E+01 -9.56387128E-01 -9.56322047E-01 -6.07082763E-01
 -6.07049202E-01 -4.34153393E-01 -4.01924906E-01 -3.05991702E-01 -3.05988801E-01
 -9.50512820E-02 -9.47583522E-02 -5.12494802E-02 -4.36107409E-02 -4.21408861E-02
 -4.19510287E-02 -4.04385504E-02 -3.51164139E-02  1.79028962E-02  2.00555996E-02
  2.97260104E-01  3.05082919E-01  3.92683143E-01  3.94078601E-01  4.01723198E-01
  4.03158655E-01  4.28041432E-01  4.29540936E-01  4.89692201E-01  5.02264503E-01
  9.19154997E-01  9.19163082E-01  9.21067260E-01  9.21167671E-01  1.10342139E+00
  1.10346969E+00  1.11380297E+00  1.11385043E+00  1.37788388E+00  1.38073899E+00
  1.65229159E+00  1.65234338E+00  1.65509427E+00  1.65515491E+00  2.18278767E+00
  2.18356410E+00  2.30181327E+00  2.30517395E+00  2.46455790E+00  2.46544212E+00
  2.47886053E+00  2.47975038E+00  2.95637660E+00  2.96196918E+00  2.32635210E+01
  2.32664713E+01
Beta Orbital Energies                      R   N=          56
 -1.09144460E+01 -1.09144457E+01 -9.32717222E-01 -9.32716359E-01 -5.93174447E-01
 -5.93172558E-01 -2.87137970E-01 -2.87134180E-01 -2.70805252E-01 -2.70799657E-01
 -9.71272003E-02 -9.70449488E-02 -5.09220197E-02 -3.56875516E-02 -3.52173047E-02
 -3.42045329E-02 -2.64471994E-02 -2.49716615E-02  3.57612259E-02  3.83352735E-02
  2.90232312E-01  2.98755564E-01  3.97189013E-01  3.98827383E-01  3.99798760E-01
  4.01342230E-01  4.56128509E-01  4.60457084E-01  5.13161655E-01  5.22843418E-01
  9.90644041E-01  9.90653849E-01  9.99682522E-01  9.99691912E-01  1.13610229E+00
  1.13610420E+00  1.13620540E+00  1.13620544E+00  1.38188469E+00  1.38480876E+00
  1.66958679E+00  1.66963841E+00  1.67634283E+00  1.67639401E+00  2.34122581E+00
  2.34386786E+00  2.35070063E+00  2.35139738E+00  2.49064147E+00  2.49153260E+00
  2.51419941E+00  2.51507498E+00  3.05064572E+00  3.05706100E+00  2.32766821E+01
  2.32796301E+01
Alpha MO coefficients                      R   N=        3136
  4.45395702E-01  3.66948942E-01 -1.59272124E-03  7.77309646E-17 -2.50678223E-16
  7.37527112E-03 -9.44786256E-04 -1.33698954E-15  6.09071162E-18 -3.10854855E-03
 -4.31024998E-05  1.48321064E-15 -3.78669745E-16  3.45623713E-04  4.79497126E-04
 -3.56418115E-16  5.32007770E-16 -3.81537482E-04  1.75194113E-16 -1.60624255E-05
  6.59907669E-04  2.93710097E-16  3.46038288E-01  2.85091829E-01  1.23652384E-03
 -1.04867325E-15 -3.04154834E-16  5.72552062E-03  7.36697247E-04  6.73364042E-16
 -3.47630327E-16 -2.40315647E-03  2.60662107E-05 -2.04499696E-16  5.06299396E-16
  2.71074346E-04 -3.55357935E-04 -4.12773945E-17  1.88639772E-17 -2.96124259E-04
  1.38634997E-16 -1.24009186E-05  5.12180577E-04  1.70946332E-16  2.87057348E-04
 -2.06228633E-03  1.69278933E-03 -1.46176775E-03 -2.89066294E-15 -1.77226694E-15
  2.20978576E-04 -1.59308088E-03  1.29494010E-03  1.13600867E-03  6.81492201E-17
 -1.77668586E-15 -3.46038526E-01 -2.85088717E-01  1.24105772E-03  5.47068666E-16
  5.73717717E-17 -5.74825019E-03  7.23251414E-04  3.78743032E-17  7.02511808E-16
  2.46343380E-03  6.35092698E-05  5.44459793E-17 -6.88845881E-16 -2.58191752E-04
 -4.42017180E-04 -3.84708015E-16  1.64376797E-16  2.97651248E-04 -5.66795365E-17
  1.27961545E-05 -5.14802487E-04 -1.28411189E-16  4.45395887E-01  3.66946522E-01
  1.59624385E-03 -6.26230915E-16 -2.69258939E-16  7.39294291E-03  9.34354859E-04
 -1.61071215E-16 -5.10128010E-16 -3.15537707E-03  7.21925977E-05  3.39497229E-16
  5.21472104E-16  3.35609631E-04 -5.46826803E-04 -2.43246973E-16  8.37402239E-17
 -3.82727718E-04  4.83168336E-17 -1.63694380E-05  6.61951195E-04  6.25541198E-17
 -2.31282073E-04  1.63932682E-03 -1.39702179E-03  1.13438091E-03  2.32027610E-15
  1.55631417E-15  2.95060081E-04 -2.09823673E-03  1.77211067E-03  1.46051472E-03
  3.08222682E-16 -2.16678989E-15 -7.96622813E-02 -1.30057166E-01 -5.62142122E-02
 -2.43871095E-14 -1.60482033E-14  3.83551326E-01 -8.61972738E-02 -1.98498359E-14
 -1.27894797E-14  2.42355989E-01 -3.20174060E-02  1.24973787E-14  7.69767400E-15
 -5.43068297E-03 -2.09483945E-03 -8.37031976E-15 -5.46415628E-15 -4.24409630E-03
 -9.92225549E-15  3.85782466E-04  7.37345399E-03 -1.47600672E-14 -7.99164168E-02
 -1.30472052E-01  5.63936869E-02 -1.49285932E-14 -1.66587267E-14  3.84774700E-01
  8.64725722E-02 -3.33956680E-14 -1.39995659E-14  2.43129659E-01  3.21190467E-02
 -3.31849909E-14  7.88723456E-15 -5.44794583E-03  2.10299432E-03  5.94022016E-15
 -5.06660132E-15 -4.25764474E-03  1.17332722E-14  3.86951951E-04  7.39699195E-03
 -1.65119107E-14  9.82906892E-02  1.22020281E-01 -2.09395260E-03  1.68607652E-02
 -2.54494959E-14 -1.62591275E-14  9.86043768E-02  1.22410379E-01 -2.10209515E-03
 -1.69145740E-02  3.94747427E-14 -1.80960040E-14 -7.99129723E-02 -1.30462209E-01
 -5.64030101E-02 -2.40623127E-14 -1.56118571E-14  3.84708304E-01 -8.65331968E-02
 -1.96731554E-14 -1.24325938E-14  2.43324598E-01 -3.19573921E-02  1.25332241E-14
  8.23278093E-15 -5.43102040E-03 -2.56294419E-03 -8.28206277E-15 -5.49081301E-15
 -4.25718262E-03 -9.99379059E-15  3.67156324E-04  7.39503522E-03 -1.47088114E-14
  7.96587911E-02  1.30047227E-01 -5.62237495E-02  1.43347480E-14  1.62840056E-14
 -3.83484436E-01 -8.62582727E-02  3.35151387E-14  1.36764610E-14 -2.42551163E-01
 -3.18552460E-02  3.25934230E-14 -8.36582400E-15  5.41368418E-03 -2.55625971E-03
 -5.83383093E-15  5.14030682E-15  4.24365075E-03 -1.20054793E-14 -3.65927455E-04
 -7.37152905E-03  1.65913826E-14  9.85932354E-02  1.22631441E-01 -2.55425887E-03
  1.69163956E-02 -2.54307955E-14 -1.62394303E-14 -9.82797614E-02 -1.22242215E-01
  2.54759256E-03  1.68626093E-02 -3.95122552E-14  1.83592441E-14 -4.25527388E-02
 -7.09426493E-02  1.66335730E-01  6.96093419E-14  4.47766166E-14  2.19829695E-01
  2.46093495E-01  8.85485648E-14  5.70897425E-14  2.62147533E-01  1.41985461E-01
  1.40281955E-14  9.76575291E-15  1.79458397E-02 -1.59202499E-03  2.10398782E-15
  1.00479125E-15  1.48504729E-02  2.82450830E-15  1.38405122E-05 -2.57209723E-02
  4.63530301E-15 -4.25845464E-02 -7.09956782E-02 -1.66459942E-01  6.98907586E-14
  2.75509562E-14  2.19993997E-01 -2.46277206E-01  8.59965503E-14  2.89189560E-14
  2.62343663E-01 -1.42091465E-01  1.03188170E-13 -1.10651859E-14  1.79592598E-02
  1.59342983E-03  1.24229451E-15  1.81597346E-15  1.48615657E-02 -1.80107722E-15
  1.38392027E-05 -2.57401856E-02  3.54949736E-14 -9.53731315E-02 -1.71251681E-01
 -7.67098068E-02 -7.90885798E-03  2.36880319E-14  1.47708701E-14 -9.54443122E-02
 -1.71379371E-01 -7.67672859E-02  7.91474874E-03 -1.92154981E-14  1.71376740E-14
 -4.25984183E-02 -7.10169941E-02  1.66461368E-01  7.03342324E-14  4.61077676E-14
  2.20049103E-01  2.46260280E-01  9.13239732E-14  5.92915514E-14  2.62491883E-01
  1.42192759E-01  1.51721368E-14  1.11010007E-14  1.79531391E-02 -1.87440300E-03
  2.42447580E-15  1.50366610E-15  1.48616470E-02  2.67022237E-15 -2.79083908E-06
 -2.57412952E-02  4.35767635E-15  4.25666719E-02  7.09640691E-02  1.66337191E-01
 -6.99635010E-14 -2.73994503E-14 -2.19885095E-01  2.46076515E-01 -8.56455724E-14
 -2.90252196E-14 -2.62296440E-01  1.42086662E-01 -1.03054089E-13  1.12521061E-14
 -1.79397654E-02 -1.87322046E-03 -1.29498760E-15 -1.86658941E-15 -1.48505637E-02
  2.08266093E-15  2.80037804E-06  2.57220988E-02 -3.53792437E-14 -9.54432020E-02
 -1.71245851E-01 -7.70350996E-02 -7.90978485E-03  2.38889215E-14  1.49021721E-14
  9.53719639E-02  1.71117912E-01  7.69778286E-02 -7.90386911E-03  1.93603278E-14
 -1.68615945E-14  3.31586761E-15  1.40024835E-14 -9.77403003E-14  1.45081398E-01
  1.49367861E-01 -1.67093222E-14  7.42143629E-14  2.28406667E-01  2.35154967E-01
 -6.09269227E-13  2.72509713E-13  2.06635512E-01  2.12740591E-01 -2.41786963E-13
  1.35954201E-13  1.70021890E-02  1.75045122E-02  6.80975233E-14 -1.33473180E-02
 -7.13897602E-15 -1.15460703E-13 -1.29642859E-02 -2.82163088E-15 -6.99487627E-15
  9.23484821E-14  1.45081081E-01  1.49368184E-01 -4.45341644E-14  2.38572949E-13
  2.28406176E-01  2.35155484E-01  7.82823424E-13  6.66574156E-13  2.06635070E-01
  2.12741060E-01  5.12314192E-13  3.15810265E-13  1.70021513E-02  1.75045495E-02
 -5.27992597E-14  1.33473590E-02 -9.34599675E-15  9.66475732E-14  1.29642694E-02
 -1.08306962E-14  4.90297801E-13  6.40558285E-13  2.11794327E-13  1.12913641E-02
  1.16249698E-02  2.79851194E-14 -3.24524309E-13 -1.26285430E-12  1.45364987E-13
  1.12913486E-02  1.16250043E-02  3.46702218E-15  1.43717264E-14 -9.70702637E-14
  1.45048384E-01  1.49333873E-01 -1.90280500E-14  7.51815334E-14  2.28346135E-01
  2.35092649E-01 -6.05071780E-13  2.75351092E-13  2.06596146E-01  2.12700067E-01
 -2.39771888E-13  1.24618611E-13  1.71168101E-02  1.76225156E-02  6.83928681E-14
 -1.37319503E-02 -6.73267815E-15 -1.15563597E-13 -1.33378802E-02  2.47166493E-15
  6.52381745E-15 -9.46157890E-14 -1.45048038E-01 -1.49334166E-01  4.53424606E-14
 -2.41435694E-13 -2.28345598E-01 -2.35093119E-01 -7.80718838E-13 -6.71853363E-13
 -2.06595662E-01 -2.12700494E-01 -5.12300069E-13 -3.08144261E-13 -1.71167687E-02
 -1.76225495E-02  5.32763468E-14 -1.37319894E-02  9.19156248E-15 -9.72838224E-14
 -1.33378601E-02 -1.13554960E-14  4.93457205E-13  6.31847027E-13  2.11894938E-13
  1.14644091E-02  1.18031274E-02 -2.89180722E-14  3.24957833E-13  1.26397580E-12
 -1.45302137E-13 -1.14643909E-02 -1.18031600E-02  7.82875760E-16  3.20448302E-15
 -2.03931216E-14  1.40819305E-01 -1.36778185E-01 -2.18246178E-15  2.11143972E-14
  2.27526851E-01 -2.20997443E-01 -1.54020627E-13  6.76991772E-14  2.17400044E-01
 -2.11161261E-01 -6.85337155E-14  4.08697989E-14  4.11565305E-02 -3.99754339E-02
  2.09987373E-14  1.22951055E-02  1.19831139E-15 -2.43280134E-14 -1.26583658E-02
 -4.66788555E-16 -1.00251711E-14  3.29011040E-14  1.39700183E-01 -1.35690589E-01
 -6.85973411E-14  3.31350184E-13  2.25718643E-01 -2.19240172E-01  1.38193867E-12
  1.02293702E-12  2.15672339E-01 -2.09482226E-01  8.68776499E-13  5.23907132E-13
  4.08295332E-02 -3.96576485E-02 -1.07531060E-13 -1.21973480E-02  3.49409660E-15
  2.05295137E-13  1.25577746E-02 -1.91552388E-15  1.13054831E-13  1.77313981E-13
  4.95827864E-14  1.23722449E-02 -1.20171958E-02  4.75374942E-14 -7.18101102E-13
 -2.10102061E-12  3.30541855E-13  1.22739283E-02 -1.19216488E-02 -7.94040962E-16
 -3.29698107E-15  2.00902144E-14 -1.39704006E-01  1.35694892E-01  3.57985874E-15
 -2.02258484E-14 -2.25725572E-01  2.19247851E-01  1.47444854E-13 -7.12433540E-14
 -2.15677652E-01  2.09488303E-01  6.55678656E-14 -2.76243920E-14 -4.08211334E-02
  3.96496480E-02 -2.12122236E-14 -1.21979081E-02 -1.00210255E-15  2.41962299E-14
  1.25582968E-02 -4.62425065E-16 -1.01162433E-14  3.33127777E-14  1.40823671E-01
 -1.36781831E-01 -6.94179267E-14  3.34678255E-13  2.27534659E-01 -2.21004062E-01
  1.39327398E-12  1.02982260E-12  2.17406233E-01 -2.11166360E-01  8.72960156E-13
  5.26388784E-13  4.11483798E-02 -3.99673295E-02 -1.08415752E-13 -1.22956229E-02
  3.55030671E-15  2.06697531E-13  1.26589536E-02  2.33430389E-15 -1.15701786E-13
 -1.64686600E-13 -4.92144326E-14 -1.22743783E-02  1.19221374E-02  4.79951575E-14
 -7.23892407E-13 -2.11514724E-12  3.32821259E-13  1.23727604E-02 -1.20176439E-02
  2.58493601E-02  4.33322576E-02  4.80593207E-02  1.96295474E-14  1.13299855E-14
 -1.27249213E-01  1.02443391E-01  5.72299592E-14  3.43414762E-14 -5.17979824E-01
  1.21788021E-01  1.04161013E-13  6.38981484E-14  9.60299810E-01 -3.66696844E-01
 -2.05860250E-13 -1.23753862E-13  6.34711847E-03 -2.39541832E-14  1.87500252E-03
 -1.08843248E-02 -3.76918431E-14 -2.58462692E-02 -4.33270852E-02  4.80534991E-02
 -1.98342693E-14 -1.85662792E-14  1.27234117E-01  1.02431105E-01 -2.91890992E-14
 -4.83099882E-14  5.17917452E-01  1.21773307E-01 -2.06453613E-14 -8.37001171E-14
 -9.60187055E-01 -3.66655313E-01  1.07297989E-14  1.62582117E-13 -6.34641524E-03
 -2.67900906E-14 -1.87477745E-03  1.08831035E-02  2.90437420E-15 -2.35300530E-04
  1.32686465E-01 -9.14078885E-02 -4.29655156E-03 -1.25905913E-13 -8.06437774E-14
  2.35452259E-04 -1.32670894E-01  9.13996200E-02 -4.29598393E-03  3.39653957E-14
  8.88332229E-14  2.59905805E-02  4.35432891E-02  4.78398695E-02  1.82588727E-14
  1.12924635E-14 -1.27599041E-01  1.02665468E-01  5.56207677E-14  3.40634575E-14
 -5.22850356E-01  1.19343158E-01  1.00028926E-13  6.30174854E-14  9.60471246E-01
 -3.55606313E-01 -2.00411091E-13 -1.22027878E-13  6.23628283E-03 -2.41370425E-14
  1.90277659E-03 -1.06907341E-02 -3.70351391E-14  2.59936191E-02  4.35483885E-02
 -4.78453824E-02  2.10891310E-14  1.89142258E-14 -1.27614075E-01 -1.02677428E-01
  3.26464625E-14  4.81490341E-14 -5.22911059E-01 -1.19356937E-01  2.48080672E-14
  8.61844308E-14  9.60585598E-01  3.55650136E-01 -1.90108776E-14 -1.64636793E-13
  6.23706703E-03  2.58121492E-14  1.90299819E-03 -1.06920630E-02 -2.57362830E-15
  1.31133050E-04  1.30737801E-01 -8.24107376E-02 -4.33847548E-03 -1.25125343E-13
 -8.04974095E-14  1.30969581E-04  1.30753369E-01 -8.24230090E-02  4.33892833E-03
 -3.42482149E-14 -8.80081096E-14  1.26343200E-02  2.05970739E-02 -5.67010958E-02
 -1.87208622E-15 -4.71222373E-15 -5.34662096E-02 -4.60503654E-02  1.02696574E-15
 -3.41685835E-15 -2.75909900E-01 -2.45109088E-01 -1.26176793E-14 -2.20650328E-14
  3.83841740E-01  7.85788000E-01  8.80733292E-14  8.99082230E-14 -5.03087775E-03
  4.64944066E-15  8.63533544E-04  8.76403213E-03  6.01021463E-15  1.26343133E-02
  2.05970635E-02  5.67010012E-02  5.98609844E-14 -4.24185720E-15 -5.34661641E-02
  4.60502353E-02  8.57013867E-14 -8.66042607E-15 -2.75909871E-01  2.45108726E-01
  2.11577282E-13 -1.42058176E-14  3.83841417E-01 -7.85787191E-01 -5.83798822E-13
  3.26578892E-14 -5.03086828E-03 -4.67706878E-15  8.63532319E-04  8.76402310E-03
  1.67442671E-15  1.60851995E-02 -2.51478315E-02  1.05492555E-01  9.25327438E-03
  2.12440832E-14  1.33351922E-14  1.60852193E-02 -2.51477033E-02  1.05492573E-01
 -9.25327368E-03  4.34331190E-15  1.30431075E-14  7.18569251E-15  1.06663876E-14
 -1.03241973E-14 -6.16839939E-02  5.99120547E-02 -2.60835146E-14 -3.31335778E-14
 -6.91575185E-02  6.71712325E-02 -1.55086504E-13 -5.73478298E-14 -2.21541089E-01
  2.15176652E-01  1.20483718E-13  3.21584880E-13  6.04561353E-01 -5.87192954E-01
 -1.15400470E-14 -4.88713697E-03 -1.44836369E-16  1.41394809E-14  5.03167132E-03
 -5.25674665E-15 -3.00225726E-15  5.71485494E-14 -6.16835273E-02  5.99114534E-02
 -1.36637441E-14 -8.17894175E-14 -6.91570019E-02  6.71705430E-02  2.19128061E-13
  2.36607201E-13 -2.21539437E-01  2.15174541E-01  5.73851027E-13  2.00157959E-13
  6.04556767E-01 -5.87187154E-01  3.23639337E-14  4.88709490E-03 -1.39832004E-16
 -6.35194579E-14 -5.03164080E-03  1.27544492E-14 -7.12948874E-14  2.07928944E-13
 -2.03306259E-14  2.03312564E-03 -1.97467945E-03 -4.57800076E-14  3.45276756E-13
 -1.18746484E-12 -1.10023911E-13  2.03310027E-03 -1.97465258E-03  2.74869710E-15
  5.73334767E-15 -3.66833102E-14  6.19742306E-02 -6.01924001E-02 -2.00731178E-14
 -7.72142365E-15  7.01638934E-02 -6.81472424E-02 -3.74421997E-14 -1.44635201E-13
  2.20686378E-01 -2.14340603E-01  2.16915493E-13  2.69603483E-13 -6.05999888E-01
  5.88573532E-01  7.91144945E-15  4.89662523E-03  8.69485693E-16 -7.82336700E-15
 -5.04156514E-03 -5.79616551E-15 -3.88336214E-15  5.55444238E-14 -6.19758303E-02
  6.01918197E-02 -1.14626905E-14 -8.31571983E-14 -7.01655196E-02  6.81467668E-02
  2.33706414E-13  2.31629776E-13 -2.20692324E-01  2.14338354E-01  5.70057658E-13
  2.36726695E-13  6.06016446E-01 -5.88566997E-01  3.27624611E-14  4.89658835E-03
 -1.67181170E-16 -6.40671958E-14 -5.04169960E-03 -2.17118977E-15  5.43624992E-14
 -1.90617501E-13  2.78536851E-14 -2.02236853E-03  1.96414391E-03 -4.69123442E-14
  3.45530851E-13 -1.20742345E-12 -1.09971536E-13  2.02243402E-03 -1.96409379E-03
  1.53666295E-14  2.09041479E-14  2.33959945E-14 -5.51062292E-02 -5.67352370E-02
 -4.07546650E-14 -7.09228736E-14 -5.18512456E-02 -5.33841959E-02 -4.04402131E-13
  8.02041367E-14 -2.08475166E-01 -2.14637731E-01 -5.29455892E-14  5.12454321E-13
  5.90063932E-01  6.07506085E-01 -2.95214583E-14  4.42765340E-03  3.61273010E-15