 Entering Gaussian System, Link 0=g16
 Initial command:
 /home/szhao/Apps/g16/l1.exe "/home/szhao/tmp/Gau-104545.inp" -scrdir="/home/szhao/tmp/"
 Default is to use a total of  16 processors:
                               16 via shared-memory
                                1 via Linda
 Entering Link 1 = /home/szhao/Apps/g16/l1.exe PID=    104554.
  
 Copyright (c) 1988,1990,1992,1993,1995,1998,2003,2009,2016,
            Gaussian, Inc.  All Rights Reserved.
  
 This is part of the Gaussian(R) 16 program.  It is based on
 the Gaussian(R) 09 system (copyright 2009, Gaussian, Inc.),
 the Gaussian(R) 03 system (copyright 2003, Gaussian, Inc.),
 the Gaussian(R) 98 system (copyright 1998, Gaussian, Inc.),
 the Gaussian(R) 94 system (copyright 1995, Gaussian, Inc.),
 the Gaussian 92(TM) system (copyright 1992, Gaussian, Inc.),
 the Gaussian 90(TM) system (copyright 1990, Gaussian, Inc.),
 the Gaussian 88(TM) system (copyright 1988, Gaussian, Inc.),
 the Gaussian 86(TM) system (copyright 1986, Carnegie Mellon
 University), and the Gaussian 82(TM) system (copyright 1983,
 Carnegie Mellon University). Gaussian is a federally registered
 trademark of Gaussian, Inc.
  
 This software contains proprietary and confidential information,
 including trade secrets, belonging to Gaussian, Inc.
  
 This software is provided under written license and may be
 used, copied, transmitted, or stored only in accord with that
 written license.
  
 The following legend is applicable only to US Government
 contracts under FAR:
  
                    RESTRICTED RIGHTS LEGEND
  
 Use, reproduction and disclosure by the US Government is
 subject to restrictions as set forth in subparagraphs (a)
 and (c) of the Commercial Computer Software - Restricted
 Rights clause in FAR 52.227-19.
  
 Gaussian, Inc.
 340 Quinnipiac St., Bldg. 40, Wallingford CT 06492
  
  
 ---------------------------------------------------------------
 Warning -- This program may not be used in any manner that
 competes with the business of Gaussian, Inc. or will provide
 assistance to any competitor of Gaussian, Inc.  The licensee
 of this program is prohibited from giving any competitor of
 Gaussian, Inc. access to this program.  By using this program,
 the user acknowledges that Gaussian, Inc. is engaged in the
 business of creating and licensing software in the field of
 computational chemistry and represents and warrants to the
 licensee that it is not a competitor of Gaussian, Inc. and that
 it will not use this program in any manner prohibited above.
 ---------------------------------------------------------------
  

 Cite this work as:
 Gaussian 16, Revision A.03,
 M. J. Frisch, G. W. Trucks, H. B. Schlegel, G. E. Scuseria, 
 M. A. Robb, J. R. Cheeseman, G. Scalmani, V. Barone, 
 G. A. Petersson, H. Nakatsuji, X. Li, M. Caricato, A. V. Marenich, 
 J. Bloino, B. G. Janesko, R. Gomperts, B. Mennucci, H. P. Hratchian, 
 J. V. Ortiz, A. F. Izmaylov, J. L. Sonnenberg, D. Williams-Young, 
 F. Ding, F. Lipparini, F. Egidi, J. Goings, B. Peng, A. Petrone, 
 T. Henderson, D. Ranasinghe, V. G. Zakrzewski, J. Gao, N. Rega, 
 G. Zheng, W. Liang, M. Hada, M. Ehara, K. Toyota, R. Fukuda, 
 J. Hasegawa, M. Ishida, T. Nakajima, Y. Honda, O. Kitao, H. Nakai, 
 T. Vreven, K. Throssell, J. A. Montgomery, Jr., J. E. Peralta, 
 F. Ogliaro, M. J. Bearpark, J. J. Heyd, E. N. Brothers, K. N. Kudin, 
 V. N. Staroverov, T. A. Keith, R. Kobayashi, J. Normand, 
 K. Raghavachari, A. P. Rendell, J. C. Burant, S. S. Iyengar, 
 J. Tomasi, M. Cossi, J. M. Millam, M. Klene, C. Adamo, R. Cammi, 
 J. W. Ochterski, R. L. Martin, K. Morokuma, O. Farkas, 
 J. B. Foresman, and D. J. Fox, Gaussian, Inc., Wallingford CT, 2016.
 
 ******************************************
 Gaussian 16:  ES64L-G16RevA.03 25-Dec-2016
                21-Apr-2025 
 ******************************************
 %chk=opt.chk
 %mem=4GB
 %nprocshared=8
 Will use up to    8 processors via shared memory.
 --------------------------------------------
 #p opt UM062X/6-311+G** nosymm int=superfine
 --------------------------------------------
 1/18=20,19=15,26=5,38=1/1,3;
 2/9=110,12=2,15=1,17=6,18=5,40=1/2;
 3/5=4,6=6,7=111,11=2,25=1,30=1,71=1,74=-55,75=-7,116=2/1,2,3;
 4//1;
 5/5=2,38=5/2;
 6/7=2,8=2,9=2,10=2,28=1/1;
 7/30=1/1,2,3,16;
 1/18=20,19=15,26=5/3(2);
 2/9=110,15=1/2;
 99//99;
 2/9=110,15=1/2;
 3/5=4,6=6,7=111,11=2,25=1,30=1,71=1,74=-55,75=-7,116=2/1,2,3;
 4/5=5,16=3,69=1/1;
 5/5=2,38=5/2;
 7/30=1/1,2,3,16;
 1/18=20,19=15,26=5/3(-5);
 2/9=110,15=1/2;
 6/7=2,8=2,9=2,10=2,19=2,28=1/1;
 99/9=1/99;
 Leave Link    1 at Mon Apr 21 18:00:58 2025, MaxMem=   536870912 cpu:               2.2 elap:               0.3
 (Enter /home/szhao/Apps/g16/l101.exe)
 -------------------
 Title Card Required
 -------------------
 Symbolic Z-matrix:
 Charge =  0 Multiplicity = 1
 B                    -1   -0.74207   0.        0. 
 N                    -1    0.74207   0.        0. 
 H                    0    -1.90796  -0.00072   0. 
 H                    0     1.73622   0.00009   0. 
 
 ITRead=  2  2  0  0
 MicOpt= -2 -2 -1 -1
 NAtoms=      4 NQM=        2 NQMF=       2 NMMI=      0 NMMIF=      0
                NMic=       0 NMicF=      0.
                    Isotopes and Nuclear Properties:
 (Nuclear quadrupole moments (NQMom) in fm**2, nuclear magnetic moments (NMagM)
  in nuclear magnetons)

  Atom         1           2           3           4
 IAtWgt=          11          14           1           1
 AtmWgt=  11.0093053  14.0030740   1.0078250   1.0078250
 NucSpn=           3           2           1           1
 AtZEff=  -0.0000000  -0.0000000  -0.0000000  -0.0000000
 NQMom=    4.0590000   2.0440000   0.0000000   0.0000000
 NMagM=    2.6886370   0.4037610   2.7928460   2.7928460
 AtZNuc=   5.0000000   7.0000000   1.0000000   1.0000000
 Leave Link  101 at Mon Apr 21 18:00:59 2025, MaxMem=   536870912 cpu:               3.5 elap:               0.5
 (Enter /home/szhao/Apps/g16/l103.exe)

 GradGradGradGradGradGradGradGradGradGradGradGradGradGradGradGradGradGrad
 Berny optimization.
 Initialization pass.
                           ----------------------------
                           !    Initial Parameters    !
                           ! (Angstroms and Degrees)  !
 --------------------------                            --------------------------
 ! Name  Definition              Value          Derivative Info.                !
 --------------------------------------------------------------------------------
 ! X1    R(1,-1)                -0.7421         Frozen                          !
 ! Y1    R(1,-2)                 0.0            Frozen                          !
 ! Z1    R(1,-3)                 0.0            Frozen                          !
 ! X2    R(2,-1)                 0.7421         Frozen                          !
 ! Y2    R(2,-2)                 0.0            Frozen                          !
 ! Z2    R(2,-3)                 0.0            Frozen                          !
 ! R1    R(1,3)                  1.1659         estimate D2E/DX2                !
 ! R2    R(2,4)                  0.9942         estimate D2E/DX2                !
 ! A1    L(2,1,3,-3,-1)        179.9644         estimate D2E/DX2                !
 ! A2    L(1,2,4,-3,-1)        179.995          estimate D2E/DX2                !
 ! A3    L(2,1,3,-2,-2)        180.0            estimate D2E/DX2                !
 ! A4    L(1,2,4,-2,-2)        180.0            estimate D2E/DX2                !
 --------------------------------------------------------------------------------
 Trust Radius=3.00D-01 FncErr=1.00D-07 GrdErr=1.00D-07 EigMax=2.50D+02 EigMin=1.00D-04
 Number of steps in this run=     22 maximum allowed number of steps=    100.
 GradGradGradGradGradGradGradGradGradGradGradGradGradGradGradGradGradGrad

 Leave Link  103 at Mon Apr 21 18:01:00 2025, MaxMem=   536870912 cpu:               0.2 elap:               0.1
 (Enter /home/szhao/Apps/g16/l202.exe)
                          Input orientation:                          
 ---------------------------------------------------------------------
 Center     Atomic      Atomic             Coordinates (Angstroms)
 Number     Number       Type             X           Y           Z
 ---------------------------------------------------------------------
      1          5           0       -0.742066    0.000000    0.000000
      2          7           0        0.742066    0.000000    0.000000
      3          1           0       -1.907957   -0.000725    0.000000
      4          1           0        1.736219    0.000086    0.000000
 ---------------------------------------------------------------------
                    Distance matrix (angstroms):
                    1          2          3          4
     1  B    0.000000
     2  N    1.484132   0.000000
     3  H    1.165891   2.650023   0.000000
     4  H    2.478285   0.994153   3.644176   0.000000
 Symmetry turned off by external request.
 Stoichiometry    BH2N
 Framework group  C*V[C*(HNBH)]
 Deg. of freedom     3
 Full point group                 C*V     NOp   4
 Rotational constants (GHZ):           0.0000000          24.8649804          24.8649799
 Leave Link  202 at Mon Apr 21 18:01:00 2025, MaxMem=   536870912 cpu:               0.1 elap:               0.1
 (Enter /home/szhao/Apps/g16/l301.exe)
 Standard basis: 6-311+G(d,p) (5D, 7F)
 Ernie: Thresh=  0.10000D-02 Tol=  0.10000D-05 Strict=F.
    56 basis functions,    88 primitive gaussians,    58 cartesian basis functions
     7 alpha electrons        7 beta electrons
       nuclear repulsion energy        21.0855782327 Hartrees.
 IExCor= 4336 DFT=T Ex+Corr=M062X ExCW=0 ScaHFX=  0.540000
 ScaDFX=  1.000000  1.000000  1.000000  1.000000 ScalE2=  1.000000  1.000000
 IRadAn=      7 IRanWt=     -1 IRanGd=            0 ICorTp=0 IEmpDi=  4
 NAtoms=    4 NActive=    4 NUniq=    4 SFac= 1.00D+00 NAtFMM=   60 NAOKFM=F Big=F
 Integral buffers will be    131072 words long.
 Raffenetti 2 integral format.
 Two-electron integral symmetry is turned off.
 Leave Link  301 at Mon Apr 21 18:01:00 2025, MaxMem=   536870912 cpu:               0.7 elap:               0.1
 (Enter /home/szhao/Apps/g16/l302.exe)
 NPDir=0 NMtPBC=     1 NCelOv=     1 NCel=       1 NClECP=     1 NCelD=      1
         NCelK=      1 NCelE2=     1 NClLst=     1 CellRange=     0.0.
 One-electron integrals computed using PRISM.
 NBasis=    56 RedAO= T EigKep=  1.62D-03  NBF=    56
 NBsUse=    56 1.00D-06 EigRej= -1.00D+00 NBFU=    56
 Precomputing XC quadrature grid using
 IXCGrd= 4 IRadAn=           7 IRanWt=          -1 IRanGd=           0 AccXCQ= 0.00D+00.
 Generated NRdTot=       0 NPtTot=           0 NUsed=           0 NTot=          32
 NSgBfM=    58    58    58    58    58 MxSgAt=     4 MxSgA2=     4.
 Leave Link  302 at Mon Apr 21 18:01:01 2025, MaxMem=   536870912 cpu:               2.1 elap:               0.3
 (Enter /home/szhao/Apps/g16/l303.exe)
 DipDrv:  MaxL=1.
 Leave Link  303 at Mon Apr 21 18:01:01 2025, MaxMem=   536870912 cpu:               0.4 elap:               0.2
 (Enter /home/szhao/Apps/g16/l401.exe)
 ExpMin= 3.15D-02 ExpMax= 6.29D+03 ExpMxC= 9.49D+02 IAcc=3 IRadAn=         7 AccDes= 0.00D+00
 Harris functional with IExCor= 1009 and IRadAn=       7 diagonalized for initial guess.
 HarFok:  IExCor= 1009 AccDes= 0.00D+00 IRadAn=         7 IDoV= 1 UseB2=F ITyADJ=14
 ICtDFT=  3500011 ScaDFX=  1.000000  1.000000  1.000000  1.000000
 FoFCou: FMM=F IPFlag=           0 FMFlag=      100000 FMFlg1=           0
         NFxFlg=           0 DoJE=T BraDBF=F KetDBF=T FulRan=T
         wScrn=  0.000000 ICntrl=       500 IOpCl=  0 I1Cent=   200000004 NGrid=           0
         NMat0=    1 NMatS0=      1 NMatT0=    0 NMatD0=    1 NMtDS0=    0 NMtDT0=    0
 Symmetry not used in FoFCou.
 Harris En= -80.6907709980875    
 JPrj=0 DoOrth=F DoCkMO=F.
 Initial guess <Sx>= 0.0000 <Sy>= 0.0000 <Sz>= 0.0000 <S**2>= 0.0000 S= 0.0000
 Leave Link  401 at Mon Apr 21 18:01:02 2025, MaxMem=   536870912 cpu:               2.9 elap:               0.5
 (Enter /home/szhao/Apps/g16/l502.exe)
 Keep R1 and R2 ints in memory in canonical form, NReq=9624198.
 FoFCou: FMM=F IPFlag=           0 FMFlag=           0 FMFlg1=           0
         NFxFlg=           0 DoJE=F BraDBF=F KetDBF=F FulRan=T
         wScrn=  0.000000 ICntrl=       600 IOpCl=  0 I1Cent=           0 NGrid=           0
         NMat0=    1 NMatS0=   1596 NMatT0=    0 NMatD0=    1 NMtDS0=    0 NMtDT0=    0
 Symmetry not used in FoFCou.
 Two-electron integral symmetry not used.
 UHF open shell SCF:
 Using DIIS extrapolation, IDIIS=  1040.
 NGot=   536870912 LenX=   534314338 LenY=   534310533
 Requested convergence on RMS density matrix=1.00D-08 within 128 cycles.
 Requested convergence on MAX density matrix=1.00D-06.
 Requested convergence on             energy=1.00D-06.
 No special actions if energy rises.

 Cycle   1  Pass 1  IDiag  1:
 E= -80.6218934369890    
 DIIS: error= 5.14D-02 at cycle   1 NSaved=   1.
 NSaved= 1 IEnMin= 1 EnMin= -80.6218934369890     IErMin= 1 ErrMin= 5.14D-02
 ErrMax= 5.14D-02  0.00D+00 EMaxC= 1.00D-01 BMatC= 5.17D-01 BMatP= 5.17D-01
 IDIUse=3 WtCom= 4.86D-01 WtEn= 5.14D-01
 Coeff-Com:  0.100D+01
 Coeff-En:   0.100D+01
 Coeff:      0.100D+01
 Gap=     0.190 Goal=   None    Shift=    0.000
 Gap=     0.190 Goal=   None    Shift=    0.000
 GapD=    0.190 DampG=1.000 DampE=0.500 DampFc=0.5000 IDamp=-1.
 Damping current iteration by 5.00D-01
 RMSDP=7.57D-03 MaxDP=1.17D-01              OVMax= 3.78D-01

 Cycle   2  Pass 1  IDiag  1:
 E= -80.6061799036977     Delta-E=        0.015713533291 Rises=F Damp=T
 DIIS: error= 3.67D-02 at cycle   2 NSaved=   2.
 NSaved= 2 IEnMin= 1 EnMin= -80.6218934369890     IErMin= 2 ErrMin= 3.67D-02
 ErrMax= 3.67D-02  0.00D+00 EMaxC= 1.00D-01 BMatC= 1.54D-01 BMatP= 5.17D-01
 IDIUse=3 WtCom= 6.33D-01 WtEn= 3.67D-01
 Coeff-Com:  0.323D+00 0.677D+00
 Coeff-En:   0.547D+00 0.453D+00
 Coeff:      0.405D+00 0.595D+00
 Gap=     0.304 Goal=   None    Shift=    0.000
 Gap=     0.304 Goal=   None    Shift=    0.000
 RMSDP=2.11D-03 MaxDP=3.21D-02 DE= 1.57D-02 OVMax= 2.73D-01

 Cycle   3  Pass 1  IDiag  1:
 E= -80.7226875133521     Delta-E=       -0.116507609654 Rises=F Damp=F
 DIIS: error= 5.41D-03 at cycle   3 NSaved=   3.
 NSaved= 3 IEnMin= 3 EnMin= -80.7226875133521     IErMin= 3 ErrMin= 5.41D-03
 ErrMax= 5.41D-03  0.00D+00 EMaxC= 1.00D-01 BMatC= 6.85D-03 BMatP= 1.54D-01
 IDIUse=3 WtCom= 9.46D-01 WtEn= 5.41D-02
 Coeff-Com:  0.920D-01 0.111D+00 0.797D+00
 Coeff-En:   0.000D+00 0.000D+00 0.100D+01
 Coeff:      0.870D-01 0.105D+00 0.808D+00
 Gap=     0.328 Goal=   None    Shift=    0.000
 Gap=     0.328 Goal=   None    Shift=    0.000
 RMSDP=7.23D-04 MaxDP=1.34D-02 DE=-1.17D-01 OVMax= 2.04D-02

 Cycle   4  Pass 1  IDiag  1:
 E= -80.7242749593750     Delta-E=       -0.001587446023 Rises=F Damp=F
 DIIS: error= 2.54D-03 at cycle   4 NSaved=   4.
 NSaved= 4 IEnMin= 4 EnMin= -80.7242749593750     IErMin= 4 ErrMin= 2.54D-03
 ErrMax= 2.54D-03  0.00D+00 EMaxC= 1.00D-01 BMatC= 7.50D-04 BMatP= 6.85D-03
 IDIUse=3 WtCom= 9.75D-01 WtEn= 2.54D-02
 Coeff-Com:  0.152D-01-0.215D-01 0.226D+00 0.780D+00
 Coeff-En:   0.000D+00 0.000D+00 0.000D+00 0.100D+01
 Coeff:      0.148D-01-0.209D-01 0.220D+00 0.786D+00
 Gap=     0.328 Goal=   None    Shift=    0.000
 Gap=     0.328 Goal=   None    Shift=    0.000
 RMSDP=1.73D-04 MaxDP=4.24D-03 DE=-1.59D-03 OVMax= 4.09D-03

 Cycle   5  Pass 1  IDiag  1:
 E= -80.7244750223352     Delta-E=       -0.000200062960 Rises=F Damp=F
 DIIS: error= 6.49D-04 at cycle   5 NSaved=   5.
 NSaved= 5 IEnMin= 5 EnMin= -80.7244750223352     IErMin= 5 ErrMin= 6.49D-04
 ErrMax= 6.49D-04  0.00D+00 EMaxC= 1.00D-01 BMatC= 5.46D-05 BMatP= 7.50D-04
 IDIUse=3 WtCom= 9.94D-01 WtEn= 6.49D-03
 Coeff-Com:  0.544D-02-0.129D-01 0.171D-01 0.744D-01 0.916D+00
 Coeff-En:   0.000D+00 0.000D+00 0.000D+00 0.000D+00 0.100D+01
 Coeff:      0.540D-02-0.128D-01 0.170D-01 0.739D-01 0.916D+00
 Gap=     0.329 Goal=   None    Shift=    0.000
 Gap=     0.329 Goal=   None    Shift=    0.000
 RMSDP=2.77D-05 MaxDP=5.27D-04 DE=-2.00D-04 OVMax= 8.87D-04

 Cycle   6  Pass 1  IDiag  1:
 E= -80.7244876007458     Delta-E=       -0.000012578411 Rises=F Damp=F
 DIIS: error= 1.54D-04 at cycle   6 NSaved=   6.
 NSaved= 6 IEnMin= 6 EnMin= -80.7244876007458     IErMin= 6 ErrMin= 1.54D-04
 ErrMax= 1.54D-04  0.00D+00 EMaxC= 1.00D-01 BMatC= 3.16D-06 BMatP= 5.46D-05
 IDIUse=3 WtCom= 9.98D-01 WtEn= 1.54D-03
 Coeff-Com:  0.285D-03-0.661D-03-0.207D-02-0.321D-01-0.142D+00 0.118D+01
 Coeff-En:   0.000D+00 0.000D+00 0.000D+00 0.000D+00 0.000D+00 0.100D+01
 Coeff:      0.285D-03-0.660D-03-0.206D-02-0.320D-01-0.142D+00 0.118D+01
 Gap=     0.329 Goal=   None    Shift=    0.000
 Gap=     0.329 Goal=   None    Shift=    0.000
 RMSDP=1.17D-05 MaxDP=1.57D-04 DE=-1.26D-05 OVMax= 3.01D-04

 Cycle   7  Pass 1  IDiag  1:
 E= -80.7244884045946     Delta-E=       -0.000000803849 Rises=F Damp=F
 DIIS: error= 1.73D-05 at cycle   7 NSaved=   7.
 NSaved= 7 IEnMin= 7 EnMin= -80.7244884045946     IErMin= 7 ErrMin= 1.73D-05
 ErrMax= 1.73D-05  0.00D+00 EMaxC= 1.00D-01 BMatC= 2.95D-08 BMatP= 3.16D-06
 IDIUse=1 WtCom= 1.00D+00 WtEn= 0.00D+00
 Coeff-Com: -0.483D-04 0.179D-03 0.266D-03 0.462D-04-0.155D-02-0.153D+00
 Coeff-Com:  0.115D+01
 Coeff:     -0.483D-04 0.179D-03 0.266D-03 0.462D-04-0.155D-02-0.153D+00
 Coeff:      0.115D+01
 Gap=     0.329 Goal=   None    Shift=    0.000
 Gap=     0.329 Goal=   None    Shift=    0.000
 RMSDP=2.06D-06 MaxDP=2.76D-05 DE=-8.04D-07 OVMax= 5.20D-05

 Cycle   8  Pass 1  IDiag  1:
 E= -80.7244884139401     Delta-E=       -0.000000009346 Rises=F Damp=F
 DIIS: error= 1.43D-06 at cycle   8 NSaved=   8.
 NSaved= 8 IEnMin= 8 EnMin= -80.7244884139401     IErMin= 8 ErrMin= 1.43D-06
 ErrMax= 1.43D-06  0.00D+00 EMaxC= 1.00D-01 BMatC= 2.32D-10 BMatP= 2.95D-08
 IDIUse=1 WtCom= 1.00D+00 WtEn= 0.00D+00
 Coeff-Com:  0.228D-05 0.879D-05-0.164D-04 0.424D-03 0.427D-02-0.317D-01
 Coeff-Com:  0.294D-01 0.998D+00
 Coeff:      0.228D-05 0.879D-05-0.164D-04 0.424D-03 0.427D-02-0.317D-01
 Coeff:      0.294D-01 0.998D+00
 Gap=     0.329 Goal=   None    Shift=    0.000
 Gap=     0.329 Goal=   None    Shift=    0.000
 RMSDP=1.86D-07 MaxDP=1.66D-06 DE=-9.35D-09 OVMax= 4.80D-06

 Cycle   9  Pass 1  IDiag  1:
 E= -80.7244884140131     Delta-E=       -0.000000000073 Rises=F Damp=F
 DIIS: error= 1.63D-07 at cycle   9 NSaved=   9.
 NSaved= 9 IEnMin= 9 EnMin= -80.7244884140131     IErMin= 9 ErrMin= 1.63D-07
 ErrMax= 1.63D-07  0.00D+00 EMaxC= 1.00D-01 BMatC= 2.53D-12 BMatP= 2.32D-10
 IDIUse=1 WtCom= 1.00D+00 WtEn= 0.00D+00
 Coeff-Com:  0.127D-05-0.324D-05-0.608D-06-0.757D-05 0.341D-04 0.217D-02
 Coeff-Com: -0.176D-01-0.475D-01 0.106D+01
 Coeff:      0.127D-05-0.324D-05-0.608D-06-0.757D-05 0.341D-04 0.217D-02
 Coeff:     -0.176D-01-0.475D-01 0.106D+01
 Gap=     0.329 Goal=   None    Shift=    0.000
 Gap=     0.329 Goal=   None    Shift=    0.000
 RMSDP=2.76D-08 MaxDP=2.77D-07 DE=-7.30D-11 OVMax= 5.27D-07

 Cycle  10  Pass 1  IDiag  1:
 E= -80.7244884140142     Delta-E=       -0.000000000001 Rises=F Damp=F
 DIIS: error= 2.60D-08 at cycle  10 NSaved=  10.
 NSaved=10 IEnMin=10 EnMin= -80.7244884140142     IErMin=10 ErrMin= 2.60D-08
 ErrMax= 2.60D-08  0.00D+00 EMaxC= 1.00D-01 BMatC= 6.40D-14 BMatP= 2.53D-12
 IDIUse=1 WtCom= 1.00D+00 WtEn= 0.00D+00
 Coeff-Com:  0.568D-07-0.229D-06 0.280D-05 0.166D-05-0.366D-04-0.419D-04
 Coeff-Com:  0.212D-02-0.658D-02-0.901D-01 0.109D+01
 Coeff:      0.568D-07-0.229D-06 0.280D-05 0.166D-05-0.366D-04-0.419D-04
 Coeff:      0.212D-02-0.658D-02-0.901D-01 0.109D+01
 Gap=     0.329 Goal=   None    Shift=    0.000
 Gap=     0.329 Goal=   None    Shift=    0.000
 RMSDP=2.54D-09 MaxDP=2.47D-08 DE=-1.05D-12 OVMax= 6.29D-08

 SCF Done:  E(UM062X) =  -80.7244884140     A.U. after   10 cycles
            NFock= 10  Conv=0.25D-08     -V/T= 2.0116
 <Sx>= 0.0000 <Sy>= 0.0000 <Sz>= 0.0000 <S**2>=-0.0000 S=-0.0000
 <L.S>=  0.00000000000    
 KE= 7.980057483495D+01 PE=-2.297372164162D+02 EE= 4.812657493460D+01
 Annihilation of the first spin contaminant:
 S**2 before annihilation    -0.0000,   after    -0.0000
 Leave Link  502 at Mon Apr 21 18:01:06 2025, MaxMem=   536870912 cpu:              32.7 elap:               4.3
 (Enter /home/szhao/Apps/g16/l601.exe)
 Copying SCF densities to generalized density rwf, IOpCl= 1 IROHF=0.

 **********************************************************************

            Population analysis using the SCF density.

 **********************************************************************

 Alpha  occ. eigenvalues --  -14.74921  -7.12885  -0.88920  -0.60390  -0.53199
 Alpha  occ. eigenvalues --   -0.32753  -0.32753
 Alpha virt. eigenvalues --    0.00110   0.00110   0.01282   0.02210   0.06048
 Alpha virt. eigenvalues --    0.06048   0.09467   0.12141   0.18346   0.18346
 Alpha virt. eigenvalues --    0.21661   0.25682   0.33580   0.41211   0.41211
 Alpha virt. eigenvalues --    0.43346   0.53007   0.67859   0.79761   0.85647
 Alpha virt. eigenvalues --    0.85647   0.85739   0.85739   0.89571   0.89571
 Alpha virt. eigenvalues --    0.99339   1.24787   1.44839   1.44839   1.49840
 Alpha virt. eigenvalues --    1.75779   1.75779   1.86706   1.86706   2.07405
 Alpha virt. eigenvalues --    2.07405   2.09498   2.22424   2.57229   2.64091
 Alpha virt. eigenvalues --    2.64091   2.65827   2.86122   3.44344   3.92767
 Alpha virt. eigenvalues --    3.92767   4.72389  14.83189  35.62465
  Beta  occ. eigenvalues --  -14.74921  -7.12885  -0.88920  -0.60390  -0.53199
  Beta  occ. eigenvalues --   -0.32753  -0.32753
  Beta virt. eigenvalues --    0.00110   0.00110   0.01282   0.02210   0.06048
  Beta virt. eigenvalues --    0.06048   0.09467   0.12141   0.18346   0.18346
  Beta virt. eigenvalues --    0.21661   0.25682   0.33580   0.41211   0.41211
  Beta virt. eigenvalues --    0.43346   0.53007   0.67859   0.79761   0.85647
  Beta virt. eigenvalues --    0.85647   0.85739   0.85739   0.89571   0.89571
  Beta virt. eigenvalues --    0.99339   1.24787   1.44839   1.44839   1.49840
  Beta virt. eigenvalues --    1.75779   1.75779   1.86706   1.86706   2.07405
  Beta virt. eigenvalues --    2.07405   2.09498   2.22424   2.57229   2.64091
  Beta virt. eigenvalues --    2.64091   2.65827   2.86122   3.44344   3.92767
  Beta virt. eigenvalues --    3.92767   4.72389  14.83189  35.62465
          Condensed to atoms (all electrons):
               1          2          3          4
     1  B    3.692556   0.687926   0.424770  -0.045997
     2  N    0.687926   6.554108  -0.018868   0.367995
     3  H    0.424770  -0.018868   0.536827  -0.000213
     4  H   -0.045997   0.367995  -0.000213   0.385282
          Atomic-Atomic Spin Densities.
               1          2          3          4
     1  B   -0.000000   0.000000  -0.000000   0.000000
     2  N    0.000000  -0.000000   0.000000  -0.000000
     3  H   -0.000000   0.000000  -0.000000   0.000000
     4  H    0.000000  -0.000000   0.000000  -0.000000
 Mulliken charges and spin densities:
               1          2
     1  B    0.240745  -0.000000
     2  N   -0.591162   0.000000
     3  H    0.057484  -0.000000
     4  H    0.292933  -0.000000
 Sum of Mulliken charges =  -0.00000   0.00000
 Mulliken charges and spin densities with hydrogens summed into heavy atoms:
               1          2
     1  B    0.298229  -0.000000
     2  N   -0.298229   0.000000
 Electronic spatial extent (au):  <R**2>=             73.7594
 Charge=             -0.0000 electrons
 Dipole moment (field-independent basis, Debye):
    X=             -1.1104    Y=              0.0001    Z=              0.0000  Tot=              1.1104
 Quadrupole moment (field-independent basis, Debye-Ang):
   XX=             -7.2212   YY=            -14.1421   ZZ=            -14.1421
   XY=              0.0006   XZ=             -0.0000   YZ=             -0.0000
 Traceless Quadrupole moment (field-independent basis, Debye-Ang):
   XX=              4.6140   YY=             -2.3070   ZZ=             -2.3070
   XY=              0.0006   XZ=             -0.0000   YZ=             -0.0000
 Octapole moment (field-independent basis, Debye-Ang**2):
  XXX=              5.0424  YYY=              0.0015  ZZZ=              0.0000  XYY=             -1.0957
  XXY=             -0.0004  XXZ=              0.0000  XZZ=             -1.0957  YZZ=              0.0005
  YYZ=              0.0000  XYZ=              0.0000
 Hexadecapole moment (field-independent basis, Debye-Ang**3):
 XXXX=            -53.8977 YYYY=            -18.6822 ZZZZ=            -18.6822 XXXY=              0.0011
 XXXZ=             -0.0000 YYYX=             -0.0038 YYYZ=              0.0000 ZZZX=             -0.0000
 ZZZY=              0.0000 XXYY=            -16.5630 XXZZ=            -16.5630 YYZZ=             -6.2274
 XXYZ=              0.0000 YYXZ=             -0.0000 ZZXY=             -0.0013
 N-N= 2.108557823267D+01 E-N=-2.297372167549D+02  KE= 7.980057483495D+01
                          Isotropic Fermi Contact Couplings
        Atom                 a.u.       MegaHertz       Gauss      10(-4) cm-1
     1  B(11)              0.00000       0.00000       0.00000       0.00000
     2  N(14)             -0.00000      -0.00000      -0.00000      -0.00000
     3  H(1)               0.00000       0.00000       0.00000       0.00000
     4  H(1)               0.00000       0.00000       0.00000       0.00000
 --------------------------------------------------------
       Center         ----  Spin Dipole Couplings  ----
                      3XX-RR        3YY-RR        3ZZ-RR
 --------------------------------------------------------
     1   Atom        0.000000      0.000000      0.000000
     2   Atom        0.000000      0.000000      0.000000
     3   Atom        0.000000      0.000000      0.000000
     4   Atom        0.000000      0.000000      0.000000
 --------------------------------------------------------
                        XY            XZ            YZ
 --------------------------------------------------------
     1   Atom        0.000000      0.000000      0.000000
     2   Atom        0.000000      0.000000      0.000000
     3   Atom        0.000000      0.000000      0.000000
     4   Atom        0.000000      0.000000      0.000000
 --------------------------------------------------------


 ---------------------------------------------------------------------------------
              Anisotropic Spin Dipole Couplings in Principal Axis System
 ---------------------------------------------------------------------------------

       Atom             a.u.   MegaHertz   Gauss  10(-4) cm-1        Axes

              Baa     0.0000     0.000     0.000     0.000  1.0000  0.0000  0.0000
     1 B(11)  Bbb     0.0000     0.000     0.000     0.000 -0.0000  1.0000  0.0000
              Bcc     0.0000     0.000     0.000     0.000  0.0000  0.0000  1.0000
 
              Baa     0.0000     0.000     0.000     0.000  1.0000  0.0000  0.0000
     2 N(14)  Bbb     0.0000     0.000     0.000     0.000 -0.0000  1.0000  0.0000
              Bcc     0.0000     0.000     0.000     0.000  0.0000  0.0000  1.0000
 
              Baa     0.0000     0.000     0.000     0.000  1.0000  0.0000  0.0000
     3 H(1)   Bbb     0.0000     0.000     0.000     0.000 -0.0000  1.0000  0.0000
              Bcc     0.0000     0.000     0.000     0.000  0.0000  0.0000  1.0000
 
              Baa     0.0000     0.000     0.000     0.000  1.0000  0.0000  0.0000
     4 H(1)   Bbb     0.0000     0.000     0.000     0.000 -0.0000  1.0000  0.0000
              Bcc     0.0000     0.000     0.000     0.000  0.0000  0.0000  1.0000
 

 ---------------------------------------------------------------------------------

 No NMR shielding tensors so no spin-rotation constants.
 Leave Link  601 at Mon Apr 21 18:01:07 2025, MaxMem=   536870912 cpu:               1.5 elap:               0.2
 (Enter /home/szhao/Apps/g16/l701.exe)
 ... and contract with generalized density number  0.
 Compute integral first derivatives.
 Leave Link  701 at Mon Apr 21 18:01:07 2025, MaxMem=   536870912 cpu:               1.3 elap:               0.2
 (Enter /home/szhao/Apps/g16/l702.exe)
 L702 exits ... SP integral derivatives will be done elsewhere.
 Leave Link  702 at Mon Apr 21 18:01:08 2025, MaxMem=   536870912 cpu:               0.6 elap:               0.1
 (Enter /home/szhao/Apps/g16/l703.exe)
 Integral derivatives from FoFJK, PRISM(SPDF).
 Compute integral first derivatives, UseDBF=F ICtDFT=           0.
 Calling FoFJK, ICntrl=      2127 FMM=F ISym2X=0 I1Cent= 0 IOpClX= 1 NMat=1 NMatS=1 NMatT=0.
 FoFJK:  IHMeth= 1 ICntrl=    2127 DoSepK=F KAlg= 0 I1Cent=           0 FoldK=F
 IRaf=         0 NMat=       1 IRICut=       1 DoRegI=T DoRafI=F ISym2E= 0 IDoP0=0 IntGTp=1.
 FoFCou: FMM=F IPFlag=           0 FMFlag=      100000 FMFlg1=         800
         NFxFlg=           0 DoJE=F BraDBF=F KetDBF=F FulRan=T
         wScrn=  0.000000 ICntrl=      2127 IOpCl=  1 I1Cent=           0 NGrid=           0
         NMat0=    1 NMatS0=      1 NMatT0=    0 NMatD0=    1 NMtDS0=    0 NMtDT0=    0
 Symmetry not used in FoFCou.
 Leave Link  703 at Mon Apr 21 18:01:08 2025, MaxMem=   536870912 cpu:               5.4 elap:               0.7
 (Enter /home/szhao/Apps/g16/l716.exe)
 Dipole        =-4.36883857D-01 4.29268636D-05 2.71008303D-16
 -------------------------------------------------------------------
 Center     Atomic                   Forces (Hartrees/Bohr)
 Number     Number              X              Y              Z
 -------------------------------------------------------------------
      1        5          -0.000000000   -0.000000000   -0.000000000
      2        7          -0.000000000   -0.000000000   -0.000000000
      3        1          -0.000434630    0.000015132    0.000000000
      4        1           0.004892684    0.000010755   -0.000000000
 -------------------------------------------------------------------
 Cartesian Forces:  Max     0.004892684 RMS     0.001417968
 Leave Link  716 at Mon Apr 21 18:01:09 2025, MaxMem=   536870912 cpu:               0.6 elap:               0.2
 (Enter /home/szhao/Apps/g16/l103.exe)

 GradGradGradGradGradGradGradGradGradGradGradGradGradGradGradGradGradGrad
 Berny optimization.
 FormGI is forming the generalized inverse of G from B-inverse, IUseBI=4.
 Internal  Forces:  Max     0.004892685 RMS     0.002005327
 Search for a local minimum.
 Step number   1 out of a maximum of   22
 All quantities printed in internal units (Hartrees-Bohrs-Radians)
 RMS Force = .20053D-02 SwitMx=.10000D-02 MixMth= 1
 Mixed Optimization -- RFO/linear search
 Second derivative matrix not updated -- first step.
 The second derivative matrix:
                          X1        Y1        Z1        X2        Y2
           X1           0.50000
           Y1           0.00000   0.50000
           Z1           0.00000   0.00000   0.50000
           X2           0.00000   0.00000   0.00000   0.50000
           Y2           0.00000   0.00000   0.00000   0.00000   0.50000
           Z2           0.00000   0.00000   0.00000   0.00000   0.00000
           R1           0.00000   0.00000   0.00000   0.00000   0.00000
           R2           0.00000   0.00000   0.00000   0.00000   0.00000
           A1           0.00000   0.00000   0.00000   0.00000   0.00000
           A2           0.00000   0.00000   0.00000   0.00000   0.00000
           A3           0.00000   0.00000   0.00000   0.00000   0.00000
           A4           0.00000   0.00000   0.00000   0.00000   0.00000
                          Z2        R1        R2        A1        A2
           Z2           0.50000
           R1           0.00000   0.27332
           R2           0.00000   0.00000   0.48731
           A1           0.00000   0.00000   0.00000   0.00230
           A2           0.00000   0.00000   0.00000   0.00000   0.01106
           A3           0.00000   0.00000   0.00000   0.00000   0.00000
           A4           0.00000   0.00000   0.00000   0.00000   0.00000
                          A3        A4
           A3           0.00230
           A4           0.00000   0.01106
 ITU=  0
     Eigenvalues ---    0.00230   0.00872   0.01106   0.27332   0.48731
     Eigenvalues --- 1000.000001000.000001000.000001000.000001000.00000
     Eigenvalues --- 1000.000001000.00000
 RFO step:  Lambda=-4.99480189D-05 EMin= 2.30000000D-03
 Linear search not attempted -- first point.
 Iteration  1 RMS(Cart)=  0.00367435 RMS(Int)=  0.00000594
 Iteration  2 RMS(Cart)=  0.00001073 RMS(Int)=  0.00000000
 Iteration  3 RMS(Cart)=  0.00000001 RMS(Int)=  0.00000000
 ITry= 1 IFail=0 DXMaxC= 1.00D-02 DCOld= 1.00D+10 DXMaxT= 3.00D-01 DXLimC= 3.00D+00 Rises=F
 Variable       Old X    -DE/DX   Delta X   Delta X   Delta X     New X
                                 (Linear)    (Quad)   (Total)
    X1       -1.40230  -0.00043   0.00000   0.00000   0.00000  -1.40230
    Y1        0.00000   0.00001   0.00000   0.00000   0.00000   0.00000
    Z1        0.00000   0.00000   0.00000   0.00000   0.00000   0.00000
    X2        1.40230   0.00489   0.00000   0.00000   0.00000   1.40230
    Y2        0.00000   0.00002   0.00000   0.00000   0.00000   0.00000
    Z2        0.00000  -0.00000   0.00000   0.00000   0.00000   0.00000
    R1        2.20322   0.00043   0.00000   0.00159   0.00159   2.20481
    R2        1.87868   0.00489   0.00000   0.01004   0.01004   1.88872
    A1        3.14097   0.00002   0.00000   0.00201   0.00201   3.14298
    A2        3.14151  -0.00003   0.00000  -0.00333  -0.00333   3.13817
    A3        3.14159  -0.00000   0.00000  -0.00000   0.00000   3.14159
    A4        3.14159  -0.00000   0.00000  -0.00000   0.00000   3.14159
         Item               Value     Threshold  Converged?
 Maximum Force            0.004893     0.000450     NO 
 RMS     Force            0.002005     0.000300     NO 
 Maximum Displacement     0.010028     0.001800     NO 
 RMS     Displacement     0.003678     0.001200     NO 
 Predicted change in Energy=-2.497401D-05
 Lowest energy point so far.  Saving SCF results.
 GradGradGradGradGradGradGradGradGradGradGradGradGradGradGradGradGradGrad

 Leave Link  103 at Mon Apr 21 18:01:09 2025, MaxMem=   536870912 cpu:               0.4 elap:               0.1
 (Enter /home/szhao/Apps/g16/l202.exe)
                          Input orientation:                          
 ---------------------------------------------------------------------
 Center     Atomic      Atomic             Coordinates (Angstroms)
 Number     Number       Type             X           Y           Z
 ---------------------------------------------------------------------
      1          5           0       -0.742066    0.000000    0.000000
      2          7           0        0.742066    0.000000    0.000000
      3          1           0       -1.908797    0.001620   -0.000000
      4          1           0        1.741526    0.003418   -0.000000
 ---------------------------------------------------------------------
                    Distance matrix (angstroms):
                    1          2          3          4
     1  B    0.000000
     2  N    1.484132   0.000000
     3  H    1.166733   2.650864   0.000000
     4  H    2.483594   0.999466   3.650323   0.000000
 Symmetry turned off by external request.
 Stoichiometry    BH2N
 Framework group  C1[X(BH2N)]
 Deg. of freedom     6
 Full point group                 C1      NOp   1
 Rotational constants (GHZ):    38398633.6714085          24.8391337          24.8391176
 Leave Link  202 at Mon Apr 21 18:01:09 2025, MaxMem=   536870912 cpu:               0.3 elap:               0.1
 (Enter /home/szhao/Apps/g16/l301.exe)
 Standard basis: 6-311+G(d,p) (5D, 7F)
 Ernie: Thresh=  0.10000D-02 Tol=  0.10000D-05 Strict=F.
    56 basis functions,    88 primitive gaussians,    58 cartesian basis functions
     7 alpha electrons        7 beta electrons
       nuclear repulsion energy        21.0611667386 Hartrees.
 IExCor= 4336 DFT=T Ex+Corr=M062X ExCW=0 ScaHFX=  0.540000
 ScaDFX=  1.000000  1.000000  1.000000  1.000000 ScalE2=  1.000000  1.000000
 IRadAn=      7 IRanWt=     -1 IRanGd=            0 ICorTp=0 IEmpDi=  4
 NAtoms=    4 NActive=    4 NUniq=    4 SFac= 1.00D+00 NAtFMM=   60 NAOKFM=F Big=F
 Integral buffers will be    131072 words long.
 Raffenetti 2 integral format.
 Two-electron integral symmetry is turned off.
 Leave Link  301 at Mon Apr 21 18:01:09 2025, MaxMem=   536870912 cpu:               0.6 elap:               0.1
 (Enter /home/szhao/Apps/g16/l302.exe)
 NPDir=0 NMtPBC=     1 NCelOv=     1 NCel=       1 NClECP=     1 NCelD=      1
         NCelK=      1 NCelE2=     1 NClLst=     1 CellRange=     0.0.
 One-electron integrals computed using PRISM.
 NBasis=    56 RedAO= T EigKep=  1.62D-03  NBF=    56
 NBsUse=    56 1.00D-06 EigRej= -1.00D+00 NBFU=    56
 Precomputing XC quadrature grid using
 IXCGrd= 4 IRadAn=           7 IRanWt=          -1 IRanGd=           0 AccXCQ= 0.00D+00.
 Generated NRdTot=       0 NPtTot=           0 NUsed=           0 NTot=          32
 NSgBfM=    58    58    58    58    58 MxSgAt=     4 MxSgA2=     4.
 Leave Link  302 at Mon Apr 21 18:01:10 2025, MaxMem=   536870912 cpu:               1.7 elap:               0.3
 (Enter /home/szhao/Apps/g16/l303.exe)
 DipDrv:  MaxL=1.
 Leave Link  303 at Mon Apr 21 18:01:10 2025, MaxMem=   536870912 cpu:               0.4 elap:               0.1
 (Enter /home/szhao/Apps/g16/l401.exe)
 Initial guess from the checkpoint file:  "opt.chk"
 B after Tr=     0.000603    0.000541   -0.000000
         Rot=   -0.000001    1.000000    0.000151   -0.000000 Ang= 180.00 deg.
 Guess basis will be translated and rotated to current coordinates.
 JPrj=2 DoOrth=T DoCkMO=T.
 Initial guess <Sx>= 0.0000 <Sy>= 0.0000 <Sz>= 0.0000 <S**2>=-0.0000 S=-0.0000
 Leave Link  401 at Mon Apr 21 18:01:10 2025, MaxMem=   536870912 cpu:               1.2 elap:               0.2
 (Enter /home/szhao/Apps/g16/l502.exe)
 Keep R1 and R2 ints in memory in canonical form, NReq=9624198.
 FoFCou: FMM=F IPFlag=           0 FMFlag=           0 FMFlg1=           0
         NFxFlg=           0 DoJE=F BraDBF=F KetDBF=F FulRan=T
         wScrn=  0.000000 ICntrl=       600 IOpCl=  0 I1Cent=           0 NGrid=           0
         NMat0=    1 NMatS0=   1596 NMatT0=    0 NMatD0=    1 NMtDS0=    0 NMtDT0=    0
 Symmetry not used in FoFCou.
 Two-electron integral symmetry not used.
 UHF open shell SCF:
 Using DIIS extrapolation, IDIIS=  1040.
 NGot=   536870912 LenX=   534314338 LenY=   534310533
 Requested convergence on RMS density matrix=1.00D-08 within 128 cycles.
 Requested convergence on MAX density matrix=1.00D-06.
 Requested convergence on             energy=1.00D-06.
 No special actions if energy rises.

 Cycle   1  Pass 1  IDiag  1:
 E= -80.7245038305904    
 DIIS: error= 3.06D-04 at cycle   1 NSaved=   1.
 NSaved= 1 IEnMin= 1 EnMin= -80.7245038305904     IErMin= 1 ErrMin= 3.06D-04
 ErrMax= 3.06D-04  0.00D+00 EMaxC= 1.00D-01 BMatC= 3.39D-05 BMatP= 3.39D-05
 IDIUse=3 WtCom= 9.97D-01 WtEn= 3.06D-03
 Coeff-Com:  0.100D+01
 Coeff-En:   0.100D+01
 Coeff:      0.100D+01
 Gap=     0.541 Goal=   None    Shift=    0.000
 Gap=     0.541 Goal=   None    Shift=    0.000
 RMSDP=3.79D-05 MaxDP=4.32D-04              OVMax= 9.97D-04

 Cycle   2  Pass 1  IDiag  1:
 E= -80.7245083827388     Delta-E=       -0.000004552148 Rises=F Damp=F
 DIIS: error= 3.04D-04 at cycle   2 NSaved=   2.
 NSaved= 2 IEnMin= 2 EnMin= -80.7245083827388     IErMin= 2 ErrMin= 3.04D-04
 ErrMax= 3.04D-04  0.00D+00 EMaxC= 1.00D-01 BMatC= 1.17D-05 BMatP= 3.39D-05
 IDIUse=3 WtCom= 9.97D-01 WtEn= 3.04D-03
 Coeff-Com:  0.304D+00 0.696D+00
 Coeff-En:   0.000D+00 0.100D+01
 Coeff:      0.303D+00 0.697D+00
 Gap=     0.329 Goal=   None    Shift=    0.000
 Gap=     0.329 Goal=   None    Shift=    0.000
 RMSDP=2.73D-05 MaxDP=4.44D-04 DE=-4.55D-06 OVMax= 1.34D-03

 Cycle   3  Pass 1  IDiag  1:
 E= -80.7245077475508     Delta-E=        0.000000635188 Rises=F Damp=F
 DIIS: error= 3.38D-04 at cycle   3 NSaved=   3.
 NSaved= 3 IEnMin= 2 EnMin= -80.7245083827388     IErMin= 2 ErrMin= 3.04D-04
 ErrMax= 3.38D-04  0.00D+00 EMaxC= 1.00D-01 BMatC= 1.43D-05 BMatP= 1.17D-05
 IDIUse=3 WtCom= 3.52D-01 WtEn= 6.48D-01
 Coeff-Com: -0.291D-02 0.527D+00 0.476D+00
 Coeff-En:   0.000D+00 0.540D+00 0.460D+00
 Coeff:     -0.103D-02 0.536D+00 0.465D+00
 Gap=     0.329 Goal=   None    Shift=    0.000
 Gap=     0.329 Goal=   None    Shift=    0.000
 RMSDP=1.47D-05 MaxDP=2.22D-04 DE= 6.35D-07 OVMax= 6.94D-04

 Cycle   4  Pass 1  IDiag  1:
 E= -80.7245110807366     Delta-E=       -0.000003333186 Rises=F Damp=F
 DIIS: error= 7.85D-06 at cycle   4 NSaved=   4.
 NSaved= 4 IEnMin= 4 EnMin= -80.7245110807366     IErMin= 4 ErrMin= 7.85D-06
 ErrMax= 7.85D-06  0.00D+00 EMaxC= 1.00D-01 BMatC= 1.18D-08 BMatP= 1.17D-05
 IDIUse=1 WtCom= 1.00D+00 WtEn= 0.00D+00
 Coeff-Com: -0.939D-02 0.332D-01 0.264D-01 0.950D+00
 Coeff:     -0.939D-02 0.332D-01 0.264D-01 0.950D+00
 Gap=     0.329 Goal=   None    Shift=    0.000
 Gap=     0.329 Goal=   None    Shift=    0.000
 RMSDP=1.31D-06 MaxDP=1.16D-05 DE=-3.33D-06 OVMax= 3.80D-05

 Cycle   5  Pass 1  IDiag  1:
 E= -80.7245110854999     Delta-E=       -0.000000004763 Rises=F Damp=F
 DIIS: error= 2.72D-06 at cycle   5 NSaved=   5.
 NSaved= 5 IEnMin= 5 EnMin= -80.7245110854999     IErMin= 5 ErrMin= 2.72D-06
 ErrMax= 2.72D-06  0.00D+00 EMaxC= 1.00D-01 BMatC= 1.02D-09 BMatP= 1.18D-08
 IDIUse=1 WtCom= 1.00D+00 WtEn= 0.00D+00
 Coeff-Com: -0.798D-03-0.159D-01-0.140D-01 0.107D+00 0.924D+00
 Coeff:     -0.798D-03-0.159D-01-0.140D-01 0.107D+00 0.924D+00
 Gap=     0.329 Goal=   None    Shift=    0.000
 Gap=     0.329 Goal=   None    Shift=    0.000
 RMSDP=4.49D-07 MaxDP=4.86D-06 DE=-4.76D-09 OVMax= 1.27D-05

 Cycle   6  Pass 1  IDiag  1:
 E= -80.7245110858807     Delta-E=       -0.000000000381 Rises=F Damp=F
 DIIS: error= 7.86D-07 at cycle   6 NSaved=   6.
 NSaved= 6 IEnMin= 6 EnMin= -80.7245110858807     IErMin= 6 ErrMin= 7.86D-07
 ErrMax= 7.86D-07  0.00D+00 EMaxC= 1.00D-01 BMatC= 1.34D-10 BMatP= 1.02D-09
 IDIUse=1 WtCom= 1.00D+00 WtEn= 0.00D+00
 Coeff-Com:  0.372D-03-0.570D-02-0.617D-02-0.417D-01 0.217D+00 0.836D+00
 Coeff:      0.372D-03-0.570D-02-0.617D-02-0.417D-01 0.217D+00 0.836D+00
 Gap=     0.329 Goal=   None    Shift=    0.000
 Gap=     0.329 Goal=   None    Shift=    0.000
 RMSDP=1.57D-07 MaxDP=1.93D-06 DE=-3.81D-10 OVMax= 4.52D-06

 Cycle   7  Pass 1  IDiag  1:
 E= -80.7245110859359     Delta-E=       -0.000000000055 Rises=F Damp=F
 DIIS: error= 9.59D-08 at cycle   7 NSaved=   7.
 NSaved= 7 IEnMin= 7 EnMin= -80.7245110859359     IErMin= 7 ErrMin= 9.59D-08
 ErrMax= 9.59D-08  0.00D+00 EMaxC= 1.00D-01 BMatC= 2.11D-12 BMatP= 1.34D-10
 IDIUse=1 WtCom= 1.00D+00 WtEn= 0.00D+00
 Coeff-Com:  0.112D-04 0.119D-02 0.130D-02-0.227D-02-0.613D-01-0.732D-01
 Coeff-Com:  0.113D+01
 Coeff:      0.112D-04 0.119D-02 0.130D-02-0.227D-02-0.613D-01-0.732D-01
 Coeff:      0.113D+01
 Gap=     0.329 Goal=   None    Shift=    0.000
 Gap=     0.329 Goal=   None    Shift=    0.000
 RMSDP=4.88D-08 MaxDP=6.16D-07 DE=-5.52D-11 OVMax= 1.29D-06

 Cycle   8  Pass 1  IDiag  1:
 E= -80.7245110859375     Delta-E=       -0.000000000002 Rises=F Damp=F
 DIIS: error= 1.42D-08 at cycle   8 NSaved=   8.
 NSaved= 8 IEnMin= 8 EnMin= -80.7245110859375     IErMin= 8 ErrMin= 1.42D-08
 ErrMax= 1.42D-08  0.00D+00 EMaxC= 1.00D-01 BMatC= 3.87D-14 BMatP= 2.11D-12
 IDIUse=1 WtCom= 1.00D+00 WtEn= 0.00D+00
 Coeff-Com: -0.107D-04-0.263D-04-0.410D-04 0.860D-03 0.579D-02-0.853D-02
 Coeff-Com: -0.181D+00 0.118D+01
 Coeff:     -0.107D-04-0.263D-04-0.410D-04 0.860D-03 0.579D-02-0.853D-02
 Coeff:     -0.181D+00 0.118D+01
 Gap=     0.329 Goal=   None    Shift=    0.000
 Gap=     0.329 Goal=   None    Shift=    0.000
 RMSDP=6.49D-09 MaxDP=9.77D-08 DE=-1.65D-12 OVMax= 1.91D-07

 SCF Done:  E(UM062X) =  -80.7245110859     A.U. after    8 cycles
            NFock=  8  Conv=0.65D-08     -V/T= 2.0117
 <Sx>= 0.0000 <Sy>= 0.0000 <Sz>= 0.0000 <S**2>=-0.0000 S=-0.0000
 <L.S>=  0.00000000000    
 KE= 7.979040277090D+01 PE=-2.296838969806D+02 EE= 4.810781638512D+01
 Annihilation of the first spin contaminant:
 S**2 before annihilation    -0.0000,   after    -0.0000
 Leave Link  502 at Mon Apr 21 18:01:14 2025, MaxMem=   536870912 cpu:              24.3 elap:               3.1
 (Enter /home/szhao/Apps/g16/l701.exe)
 ... and contract with generalized density number  0.
 Compute integral first derivatives.
 Leave Link  701 at Mon Apr 21 18:01:14 2025, MaxMem=   536870912 cpu:               2.1 elap:               0.4
 (Enter /home/szhao/Apps/g16/l702.exe)
 L702 exits ... SP integral derivatives will be done elsewhere.
 Leave Link  702 at Mon Apr 21 18:01:14 2025, MaxMem=   536870912 cpu:               0.8 elap:               0.1
 (Enter /home/szhao/Apps/g16/l703.exe)
 Integral derivatives from FoFJK, PRISM(SPDF).
 Compute integral first derivatives, UseDBF=F ICtDFT=           0.
 Calling FoFJK, ICntrl=      2127 FMM=F ISym2X=0 I1Cent= 0 IOpClX= 1 NMat=1 NMatS=1 NMatT=0.
 FoFJK:  IHMeth= 1 ICntrl=    2127 DoSepK=F KAlg= 0 I1Cent=           0 FoldK=F
 IRaf=         0 NMat=       1 IRICut=       1 DoRegI=T DoRafI=F ISym2E= 0 IDoP0=0 IntGTp=1.
 FoFCou: FMM=F IPFlag=           0 FMFlag=      100000 FMFlg1=         800
         NFxFlg=           0 DoJE=F BraDBF=F KetDBF=F FulRan=T
         wScrn=  0.000000 ICntrl=      2127 IOpCl=  1 I1Cent=           0 NGrid=           0
         NMat0=    1 NMatS0=      1 NMatT0=    0 NMatD0=    1 NMtDS0=    0 NMtDT0=    0
 Symmetry not used in FoFCou.
 Leave Link  703 at Mon Apr 21 18:01:15 2025, MaxMem=   536870912 cpu:               6.0 elap:               0.8
 (Enter /home/szhao/Apps/g16/l716.exe)
 Dipole        =-4.32329792D-01 2.10538464D-03-9.93007313D-09
 -------------------------------------------------------------------
 Center     Atomic                   Forces (Hartrees/Bohr)
 Number     Number              X              Y              Z
 -------------------------------------------------------------------
      1        5          -0.000000000   -0.000000000   -0.000000000
      2        7          -0.000000000   -0.000000000   -0.000000000
      3        1           0.000019455   -0.000081958    0.000000000
      4        1          -0.000394752    0.000007029   -0.000000000
 -------------------------------------------------------------------
 Cartesian Forces:  Max     0.000394752 RMS     0.000116538
 Leave Link  716 at Mon Apr 21 18:01:15 2025, MaxMem=   536870912 cpu:               0.6 elap:               0.1
 (Enter /home/szhao/Apps/g16/l103.exe)

 GradGradGradGradGradGradGradGradGradGradGradGradGradGradGradGradGradGrad
 Berny optimization.
 Using GEDIIS/GDIIS optimizer.
 FormGI is forming the generalized inverse of G from B-inverse, IUseBI=4.
 Internal  Forces:  Max     0.000394755 RMS     0.000163632
 Search for a local minimum.
 Step number   2 out of a maximum of   22
 All quantities printed in internal units (Hartrees-Bohrs-Radians)
 RMS Force = .16469D-03 SwitMx=.10000D-02 MixMth= 2
 Mixed Optimization -- En-DIIS/RFO-DIIS
 Update second derivatives using D2CorX and points    1    2
 DE= -2.27D-05 DEPred=-2.50D-05 R= 9.08D-01
 TightC=F SS=  1.41D+00  RLast= 1.09D-02 DXNew= 5.0454D-01 3.2652D-02
 Trust test= 9.08D-01 RLast= 1.09D-02 DXMaxT set to 3.00D-01
 The second derivative matrix:
                          X1        Y1        Z1        X2        Y2
           X1           0.50380
           Y1          -0.00019   0.50001
           Z1           0.00000  -0.00000   0.50000
           X2          -0.04426   0.00226  -0.00000   1.01531
           Y2          -0.00049   0.00003  -0.00000   0.00573   0.50006
           Z2          -0.00000   0.00000  -0.00000   0.00000   0.00000
           R1          -0.00380   0.00019  -0.00000   0.04427   0.00049
           R2          -0.04426   0.00226  -0.00000   0.51533   0.00573
           A1          -0.00069   0.00004  -0.00000   0.00805   0.00009
           A2           0.00070  -0.00004   0.00000  -0.00820  -0.00009
           A3          -0.00000   0.00000  -0.00000   0.00000   0.00000
           A4          -0.00000   0.00000  -0.00000   0.00000   0.00000
                          Z2        R1        R2        A1        A2
           Z2           0.50000
           R1           0.00000   0.27335
           R2           0.00000   0.00169   0.52337
           A1           0.00000   0.00065   0.00760   0.00243
           A2          -0.00000  -0.00038  -0.00459  -0.00012   0.01116
           A3           0.00000   0.00000   0.00000   0.00000  -0.00000
           A4           0.00000   0.00000   0.00000   0.00000  -0.00000
                          A3        A4
           A3           0.00230
           A4           0.00000   0.01106
 ITU=  1  0
 Use linear search instead of GDIIS.
     Eigenvalues ---    0.00230   0.00877   0.01106   0.27334   0.52350
     Eigenvalues --- 1000.000001000.000001000.000001000.000001000.00000
     Eigenvalues --- 1000.000001000.00000
 RFO step:  Lambda=-6.26425927D-07 EMin= 2.30000000D-03
 Quartic linear search produced a step of -0.08059.
 Iteration  1 RMS(Cart)=  0.00500158 RMS(Int)=  0.00001658
 Iteration  2 RMS(Cart)=  0.00001662 RMS(Int)=  0.00000000
 Iteration  3 RMS(Cart)=  0.00000000 RMS(Int)=  0.00000000
 ITry= 1 IFail=0 DXMaxC= 1.41D-02 DCOld= 1.00D+10 DXMaxT= 3.00D-01 DXLimC= 3.00D+00 Rises=F
 Variable       Old X    -DE/DX   Delta X   Delta X   Delta X     New X
                                 (Linear)    (Quad)   (Total)
    X1       -1.40230   0.00002   0.00000   0.00000   0.00000  -1.40230
    Y1        0.00000  -0.00002   0.00000   0.00000   0.00000   0.00000
    Z1        0.00000   0.00000   0.00000   0.00000   0.00000   0.00000
    X2        1.40230  -0.00039   0.00000   0.00000   0.00000   1.40230
    Y2        0.00000  -0.00004   0.00000   0.00000   0.00000   0.00000
    Z2        0.00000  -0.00000   0.00000   0.00000   0.00000   0.00000
    R1        2.20481  -0.00002  -0.00013   0.00008  -0.00005   2.20476
    R2        1.88872  -0.00039  -0.00081   0.00018  -0.00063   1.88808
    A1        3.14298  -0.00006  -0.00016  -0.00440  -0.00456   3.13842
    A2        3.13817   0.00006   0.00027   0.00719   0.00746   3.14564
    A3        3.14159  -0.00000  -0.00000  -0.00000  -0.00000   3.14159
    A4        3.14159  -0.00000   0.00000  -0.00000  -0.00000   3.14159
         Item               Value     Threshold  Converged?
 Maximum Force            0.000395     0.000450     YES
 RMS     Force            0.000165     0.000300     YES
 Maximum Displacement     0.014093     0.001800     NO 
 RMS     Displacement     0.005001     0.001200     NO 
 Predicted change in Energy=-4.674411D-07
 Lowest energy point so far.  Saving SCF results.
 GradGradGradGradGradGradGradGradGradGradGradGradGradGradGradGradGradGrad

 Leave Link  103 at Mon Apr 21 18:01:16 2025, MaxMem=   536870912 cpu:               0.3 elap:               0.1
 (Enter /home/szhao/Apps/g16/l202.exe)
                          Input orientation:                          
 ---------------------------------------------------------------------
 Center     Atomic      Atomic             Coordinates (Angstroms)
 Number     Number       Type             X           Y           Z
 ---------------------------------------------------------------------
      1          5           0       -0.742066    0.000000    0.000000
      2          7           0        0.742066    0.000000    0.000000
      3          1           0       -1.908766   -0.003700    0.000001
      4          1           0        1.741188   -0.004039   -0.000000
 ---------------------------------------------------------------------
                    Distance matrix (angstroms):
                    1          2          3          4
     1  B    0.000000
     2  N    1.484132   0.000000
     3  H    1.166706   2.650835   0.000000
     4  H    2.483258   0.999131   3.649955   0.000000
 Symmetry turned off by external request.
 Stoichiometry    BH2N
 Framework group  C1[X(BH2N)]
 Deg. of freedom     6
 Full point group                 C1      NOp   1
 Rotational constants (GHZ):    18065590.9113695          24.8406667          24.8406325
 Leave Link  202 at Mon Apr 21 18:01:16 2025, MaxMem=   536870912 cpu:               0.2 elap:               0.2
 (Enter /home/szhao/Apps/g16/l301.exe)
 Standard basis: 6-311+G(d,p) (5D, 7F)
 Ernie: Thresh=  0.10000D-02 Tol=  0.10000D-05 Strict=F.
    56 basis functions,    88 primitive gaussians,    58 cartesian basis functions
     7 alpha electrons        7 beta electrons
       nuclear repulsion energy        21.0626336567 Hartrees.
 IExCor= 4336 DFT=T Ex+Corr=M062X ExCW=0 ScaHFX=  0.540000
 ScaDFX=  1.000000  1.000000  1.000000  1.000000 ScalE2=  1.000000  1.000000
 IRadAn=      7 IRanWt=     -1 IRanGd=            0 ICorTp=0 IEmpDi=  4
 NAtoms=    4 NActive=    4 NUniq=    4 SFac= 1.00D+00 NAtFMM=   60 NAOKFM=F Big=F
 Integral buffers will be    131072 words long.
 Raffenetti 2 integral format.
 Two-electron integral symmetry is turned off.
 Leave Link  301 at Mon Apr 21 18:01:16 2025, MaxMem=   536870912 cpu:               0.9 elap:               0.1
 (Enter /home/szhao/Apps/g16/l302.exe)
 NPDir=0 NMtPBC=     1 NCelOv=     1 NCel=       1 NClECP=     1 NCelD=      1
         NCelK=      1 NCelE2=     1 NClLst=     1 CellRange=     0.0.
 One-electron integrals computed using PRISM.
 NBasis=    56 RedAO= T EigKep=  1.62D-03  NBF=    56
 NBsUse=    56 1.00D-06 EigRej= -1.00D+00 NBFU=    56
 Precomputing XC quadrature grid using
 IXCGrd= 4 IRadAn=           7 IRanWt=          -1 IRanGd=           0 AccXCQ= 0.00D+00.
 Generated NRdTot=       0 NPtTot=           0 NUsed=           0 NTot=          32
 NSgBfM=    58    58    58    58    58 MxSgAt=     4 MxSgA2=     4.
 Leave Link  302 at Mon Apr 21 18:01:17 2025, MaxMem=   536870912 cpu:               1.4 elap:               0.2
 (Enter /home/szhao/Apps/g16/l303.exe)
 DipDrv:  MaxL=1.
 Leave Link  303 at Mon Apr 21 18:01:17 2025, MaxMem=   536870912 cpu:               0.5 elap:               0.1
 (Enter /home/szhao/Apps/g16/l401.exe)
 Initial guess from the checkpoint file:  "opt.chk"
 B after Tr=    -0.000041   -0.000407    0.000000
         Rot=   -0.000020    1.000000    0.000119   -0.000000 Ang= 180.00 deg.
 Guess basis will be translated and rotated to current coordinates.
 JPrj=2 DoOrth=T DoCkMO=T.
 Initial guess <Sx>= 0.0000 <Sy>= 0.0000 <Sz>= 0.0000 <S**2>=-0.0000 S=-0.0000
 Leave Link  401 at Mon Apr 21 18:01:17 2025, MaxMem=   536870912 cpu:               1.1 elap:               0.2
 (Enter /home/szhao/Apps/g16/l502.exe)
 Keep R1 and R2 ints in memory in canonical form, NReq=9624198.
 FoFCou: FMM=F IPFlag=           0 FMFlag=           0 FMFlg1=           0
         NFxFlg=           0 DoJE=F BraDBF=F KetDBF=F FulRan=T
         wScrn=  0.000000 ICntrl=       600 IOpCl=  0 I1Cent=           0 NGrid=           0
         NMat0=    1 NMatS0=   1596 NMatT0=    0 NMatD0=    1 NMtDS0=    0 NMtDT0=    0
 Symmetry not used in FoFCou.
 Two-electron integral symmetry not used.
 UHF open shell SCF:
 Using DIIS extrapolation, IDIIS=  1040.
 NGot=   536870912 LenX=   534314338 LenY=   534310533
 Requested convergence on RMS density matrix=1.00D-08 within 128 cycles.
 Requested convergence on MAX density matrix=1.00D-06.
 Requested convergence on             energy=1.00D-06.
 No special actions if energy rises.

 Cycle   1  Pass 1  IDiag  1:
 E= -80.7245105840650    
 DIIS: error= 6.35D-05 at cycle   1 NSaved=   1.
 NSaved= 1 IEnMin= 1 EnMin= -80.7245105840650     IErMin= 1 ErrMin= 6.35D-05
 ErrMax= 6.35D-05  0.00D+00 EMaxC= 1.00D-01 BMatC= 6.64D-07 BMatP= 6.64D-07
 IDIUse=1 WtCom= 1.00D+00 WtEn= 0.00D+00
 Coeff-Com:  0.100D+01
 Coeff:      0.100D+01
 Gap=     0.541 Goal=   None    Shift=    0.000
 Gap=     0.541 Goal=   None    Shift=    0.000
 RMSDP=7.20D-06 MaxDP=8.34D-05              OVMax= 1.85D-04

 Cycle   2  Pass 1  IDiag  1:
 E= -80.7245107790524     Delta-E=       -0.000000194987 Rises=F Damp=F
 DIIS: error= 1.96D-05 at cycle   2 NSaved=   2.
 NSaved= 2 IEnMin= 2 EnMin= -80.7245107790524     IErMin= 2 ErrMin= 1.96D-05
 ErrMax= 1.96D-05  0.00D+00 EMaxC= 1.00D-01 BMatC= 5.99D-08 BMatP= 6.64D-07
 IDIUse=1 WtCom= 1.00D+00 WtEn= 0.00D+00
 Coeff-Com:  0.371D-01 0.963D+00
 Coeff:      0.371D-01 0.963D+00
 Gap=     0.329 Goal=   None    Shift=    0.000
 Gap=     0.329 Goal=   None    Shift=    0.000
 RMSDP=2.75D-06 MaxDP=3.91D-05 DE=-1.95D-07 OVMax= 1.29D-04

 Cycle   3  Pass 1  IDiag  1:
 E= -80.7245107570574     Delta-E=        0.000000021995 Rises=F Damp=F
 DIIS: error= 3.75D-05 at cycle   3 NSaved=   3.
 NSaved= 3 IEnMin= 2 EnMin= -80.7245107790524     IErMin= 2 ErrMin= 1.96D-05
 ErrMax= 3.75D-05  0.00D+00 EMaxC= 1.00D-01 BMatC= 1.75D-07 BMatP= 5.99D-08
 IDIUse=1 WtCom= 1.00D+00 WtEn= 0.00D+00
 Coeff-Com: -0.635D-01 0.678D+00 0.385D+00
 Coeff:     -0.635D-01 0.678D+00 0.385D+00
 Gap=     0.329 Goal=   None    Shift=    0.000
 Gap=     0.329 Goal=   None    Shift=    0.000
 RMSDP=1.72D-06 MaxDP=2.65D-05 DE= 2.20D-08 OVMax= 8.22D-05

 Cycle   4  Pass 1  IDiag  1:
 E= -80.7245107978223     Delta-E=       -0.000000040765 Rises=F Damp=F
 DIIS: error= 1.92D-06 at cycle   4 NSaved=   4.
 NSaved= 4 IEnMin= 4 EnMin= -80.7245107978223     IErMin= 4 ErrMin= 1.92D-06
 ErrMax= 1.92D-06  0.00D+00 EMaxC= 1.00D-01 BMatC= 6.82D-10 BMatP= 5.99D-08
 IDIUse=1 WtCom= 1.00D+00 WtEn= 0.00D+00
 Coeff-Com: -0.659D-02-0.259D-01 0.383D-01 0.994D+00
 Coeff:     -0.659D-02-0.259D-01 0.383D-01 0.994D+00
 Gap=     0.329 Goal=   None    Shift=    0.000
 Gap=     0.329 Goal=   None    Shift=    0.000
 RMSDP=2.86D-07 MaxDP=4.90D-06 DE=-4.08D-08 OVMax= 1.08D-05

 Cycle   5  Pass 1  IDiag  1:
 E= -80.7245107981215     Delta-E=       -0.000000000299 Rises=F Damp=F
 DIIS: error= 3.30D-07 at cycle   5 NSaved=   5.
 NSaved= 5 IEnMin= 5 EnMin= -80.7245107981215     IErMin= 5 ErrMin= 3.30D-07
 ErrMax= 3.30D-07  0.00D+00 EMaxC= 1.00D-01 BMatC= 2.24D-11 BMatP= 6.82D-10
 IDIUse=1 WtCom= 1.00D+00 WtEn= 0.00D+00
 Coeff-Com:  0.218D-02-0.331D-01-0.143D-01 0.718D-01 0.973D+00
 Coeff:      0.218D-02-0.331D-01-0.143D-01 0.718D-01 0.973D+00
 Gap=     0.329 Goal=   None    Shift=    0.000
 Gap=     0.329 Goal=   None    Shift=    0.000
 RMSDP=7.88D-08 MaxDP=1.28D-06 DE=-2.99D-10 OVMax= 3.26D-06

 Cycle   6  Pass 1  IDiag  1:
 E= -80.7245107981355     Delta-E=       -0.000000000014 Rises=F Damp=F
 DIIS: error= 1.20D-07 at cycle   6 NSaved=   6.
 NSaved= 6 IEnMin= 6 EnMin= -80.7245107981355     IErMin= 6 ErrMin= 1.20D-07
 ErrMax= 1.20D-07  0.00D+00 EMaxC= 1.00D-01 BMatC= 2.32D-12 BMatP= 2.24D-11
 IDIUse=1 WtCom= 1.00D+00 WtEn= 0.00D+00
 Coeff-Com:  0.633D-03-0.374D-02-0.557D-02-0.423D-01 0.188D+00 0.863D+00
 Coeff:      0.633D-03-0.374D-02-0.557D-02-0.423D-01 0.188D+00 0.863D+00
 Gap=     0.329 Goal=   None    Shift=    0.000
 Gap=     0.329 Goal=   None    Shift=    0.000
 RMSDP=2.05D-08 MaxDP=2.68D-07 DE=-1.40D-11 OVMax= 8.21D-07

 Cycle   7  Pass 1  IDiag  1:
 E= -80.7245107981367     Delta-E=       -0.000000000001 Rises=F Damp=F
 DIIS: error= 2.28D-08 at cycle   7 NSaved=   7.
 NSaved= 7 IEnMin= 7 EnMin= -80.7245107981367     IErMin= 7 ErrMin= 2.28D-08
 ErrMax= 2.28D-08  0.00D+00 EMaxC= 1.00D-01 BMatC= 1.32D-13 BMatP= 2.32D-12
 IDIUse=1 WtCom= 1.00D+00 WtEn= 0.00D+00
 Coeff-Com: -0.157D-03 0.285D-02 0.132D-02-0.102D-01-0.704D-01 0.711D-01
 Coeff-Com:  0.101D+01
 Coeff:     -0.157D-03 0.285D-02 0.132D-02-0.102D-01-0.704D-01 0.711D-01
 Coeff:      0.101D+01
 Gap=     0.329 Goal=   None    Shift=    0.000
 Gap=     0.329 Goal=   None    Shift=    0.000
 RMSDP=6.03D-09 MaxDP=6.55D-08 DE=-1.17D-12 OVMax= 2.37D-07

 SCF Done:  E(UM062X) =  -80.7245107981     A.U. after    7 cycles
            NFock=  7  Conv=0.60D-08     -V/T= 2.0117
 <Sx>= 0.0000 <Sy>= 0.0000 <Sz>= 0.0000 <S**2>=-0.0000 S=-0.0000
 <L.S>=  0.00000000000    
 KE= 7.979100877849D+01 PE=-2.296870931063D+02 EE= 4.810893987300D+01
 Annihilation of the first spin contaminant:
 S**2 before annihilation    -0.0000,   after    -0.0000
 Leave Link  502 at Mon Apr 21 18:01:21 2025, MaxMem=   536870912 cpu:              22.3 elap:               2.9
 (Enter /home/szhao/Apps/g16/l701.exe)
 ... and contract with generalized density number  0.
 Compute integral first derivatives.
 Leave Link  701 at Mon Apr 21 18:01:21 2025, MaxMem=   536870912 cpu:               0.9 elap:               0.2
 (Enter /home/szhao/Apps/g16/l702.exe)
 L702 exits ... SP integral derivatives will be done elsewhere.
 Leave Link  702 at Mon Apr 21 18:01:21 2025, MaxMem=   536870912 cpu:               0.7 elap:               0.2
 (Enter /home/szhao/Apps/g16/l703.exe)
 Integral derivatives from FoFJK, PRISM(SPDF).
 Compute integral first derivatives, UseDBF=F ICtDFT=           0.
 Calling FoFJK, ICntrl=      2127 FMM=F ISym2X=0 I1Cent= 0 IOpClX= 1 NMat=1 NMatS=1 NMatT=0.
 FoFJK:  IHMeth= 1 ICntrl=    2127 DoSepK=F KAlg= 0 I1Cent=           0 FoldK=F
 IRaf=         0 NMat=       1 IRICut=       1 DoRegI=T DoRafI=F ISym2E= 0 IDoP0=0 IntGTp=1.
 FoFCou: FMM=F IPFlag=           0 FMFlag=      100000 FMFlg1=         800
         NFxFlg=           0 DoJE=F BraDBF=F KetDBF=F FulRan=T
         wScrn=  0.000000 ICntrl=      2127 IOpCl=  1 I1Cent=           0 NGrid=           0
         NMat0=    1 NMatS0=      1 NMatT0=    0 NMatD0=    1 NMtDS0=    0 NMtDT0=    0
 Symmetry not used in FoFCou.
 Leave Link  703 at Mon Apr 21 18:01:22 2025, MaxMem=   536870912 cpu:               5.2 elap:               0.7
 (Enter /home/szhao/Apps/g16/l716.exe)
 Dipole        =-4.32621172D-01-2.51260429D-03-4.39941131D-08
 -------------------------------------------------------------------
 Center     Atomic                   Forces (Hartrees/Bohr)
 Number     Number              X              Y              Z
 -------------------------------------------------------------------
      1        5          -0.000000000   -0.000000000   -0.000000000
      2        7          -0.000000000   -0.000000000   -0.000000000
      3        1           0.000005197    0.000137527   -0.000000013
      4        1          -0.000066441    0.000013920   -0.000000009
 -------------------------------------------------------------------
 Cartesian Forces:  Max     0.000137527 RMS     0.000044299
 Leave Link  716 at Mon Apr 21 18:01:22 2025, MaxMem=   536870912 cpu:               0.5 elap:               0.1
 (Enter /home/szhao/Apps/g16/l103.exe)

 GradGradGradGradGradGradGradGradGradGradGradGradGradGradGradGradGradGrad
 Berny optimization.
 Using GEDIIS/GDIIS optimizer.
 FormGI is forming the generalized inverse of G from B-inverse, IUseBI=4.
 Internal  Forces:  Max     0.000133364 RMS     0.000065894
 Search for a local minimum.
 Step number   3 out of a maximum of   22
 All quantities printed in internal units (Hartrees-Bohrs-Radians)
 RMS Force = .78394D-04 SwitMx=.10000D-02 MixMth= 2
 Mixed Optimization -- En-DIIS/RFO-DIIS
 Swapping is turned off.
 Update second derivatives using D2CorX and points    1    2    3
 DE=  2.88D-07 DEPred=-4.67D-07 R=-6.16D-01
 Trust test=-6.16D-01 RLast= 8.77D-03 DXMaxT set to 1.50D-01
 The second derivative matrix:
                          X1        Y1        Z1        X2        Y2
           X1           0.50348
           Y1          -0.00006   0.50113
           Z1          -0.00000  -0.00000   0.50000
           X2          -0.04017   0.00421  -0.00000   0.97446
           Y2          -0.00015   0.00282  -0.00000   0.01059   0.50703
           Z2           0.00000   0.00000  -0.00000   0.00000   0.00000
           R1          -0.00384   0.00003   0.00000   0.04421   0.00008
           R2          -0.04074   0.00416  -0.00000   0.48097   0.01048
           A1           0.00003   0.00403  -0.00000   0.01244   0.01004
           A2          -0.00158  -0.00424   0.00000   0.00467  -0.01056
           A3           0.00000   0.00000  -0.00000   0.00000   0.00000
           A4           0.00000  -0.00000   0.00000  -0.00000  -0.00000
                          Z2        R1        R2        A1        A2
           Z2           0.50000
           R1          -0.00000   0.27337
           R2           0.00000   0.00160   0.49452
           A1           0.00000   0.00007   0.01221   0.01650
           A2          -0.00000   0.00012   0.00542  -0.01391   0.01761
           A3           0.00000  -0.00000   0.00000   0.00000  -0.00000
           A4          -0.00000   0.00000  -0.00000  -0.00000   0.00000
                          A3        A4
           A3           0.00230
           A4          -0.00000   0.01106
 ITU= -1  1  0
     Eigenvalues ---    0.00230   0.01106   0.02968   0.27335   0.49453
     Eigenvalues --- 1000.000001000.000001000.000001000.000001000.00000
     Eigenvalues --- 1000.000001000.00000
 En-DIIS/RFO-DIIS/Sim-DIIS IScMMF=       -3 using points:     3    2
 RFO step:  Lambda=-1.10390174D-06.
 NNeg= 0 NGDIIS= 2 SimSw=  2.50D-03 Rises=T DC=  2.88D-07 SmlDif=  1.00D-05
 NRisDI= 1 DoIntr=F SqrtH=F CThrHd= 10.0 CDAdj=  3.0
 RMS Error=  0.1753770580D-02 NUsed= 2 OKEnD=T EnDIS=T
 InvSVX:  RCond= 8.65D-05 Info=           0 Equed=N FErr=  1.19D-15 BErr=  7.45D-17
 IWarn =    0
 DidBck=T Rises=T En-DIIS coefs:    0.44219    0.55781
 Iteration  1 RMS(Cart)=  0.00347020 RMS(Int)=  0.00000799
 Iteration  2 RMS(Cart)=  0.00000799 RMS(Int)=  0.00000000
 Iteration  3 RMS(Cart)=  0.00000000 RMS(Int)=  0.00000000
 ITry= 1 IFail=0 DXMaxC= 9.78D-03 DCOld= 1.00D+10 DXMaxT= 1.50D-01 DXLimC= 3.00D+00 Rises=F
 Variable       Old X    -DE/DX   Delta X   Delta X   Delta X     New X
                                 (Linear)    (Quad)   (Total)
    X1       -1.40230   0.00001   0.00000   0.00000   0.00000  -1.40230
    Y1        0.00000   0.00004   0.00000   0.00000   0.00000   0.00000
    Z1        0.00000  -0.00000   0.00000   0.00000   0.00000   0.00000
    X2        1.40230  -0.00007   0.00000   0.00000   0.00000   1.40230
    Y2        0.00000   0.00009   0.00000   0.00000   0.00000   0.00000
    Z2        0.00000   0.00000   0.00000   0.00000   0.00000   0.00000
    R1        2.20476  -0.00001   0.00003  -0.00005  -0.00002   2.20474
    R2        1.88808  -0.00007   0.00035  -0.00051  -0.00016   1.88793
    A1        3.13842   0.00013   0.00254   0.00062   0.00317   3.14159
    A2        3.14564  -0.00013  -0.00416  -0.00102  -0.00518   3.14045
    A3        3.14159   0.00000   0.00000   0.00001   0.00001   3.14160
    A4        3.14159  -0.00000   0.00000  -0.00000  -0.00000   3.14159
         Item               Value     Threshold  Converged?
 Maximum Force            0.000154     0.000450     YES
 RMS     Force            0.000078     0.000300     YES
 Maximum Displacement     0.009784     0.001800     NO 
 RMS     Displacement     0.003470     0.001200     NO 
 Predicted change in Energy=-5.519568D-07
 GradGradGradGradGradGradGradGradGradGradGradGradGradGradGradGradGradGrad

 Leave Link  103 at Mon Apr 21 18:01:23 2025, MaxMem=   536870912 cpu:               0.3 elap:               0.1
 (Enter /home/szhao/Apps/g16/l202.exe)
                          Input orientation:                          
 ---------------------------------------------------------------------
 Center     Atomic      Atomic             Coordinates (Angstroms)
 Number     Number       Type             X           Y           Z
 ---------------------------------------------------------------------
      1          5           0       -0.742066    0.000000    0.000000
      2          7           0        0.742066    0.000000    0.000000
      3          1           0       -1.908763   -0.000006   -0.000008
      4          1           0        1.741113    0.001138   -0.000000
 ---------------------------------------------------------------------
                    Distance matrix (angstroms):
                    1          2          3          4
     1  B    0.000000
     2  N    1.484132   0.000000
     3  H    1.166697   2.650829   0.000000
     4  H    2.483180   0.999048   3.649876   0.000000
 Symmetry turned off by external request.
 Stoichiometry    BH2N
 Framework group  C1[X(BH2N)]
 Deg. of freedom     6
 Full point group                 C1      NOp   1
 Rotational constants (GHZ):   469673389.1183295          24.8409920          24.8409906
 Leave Link  202 at Mon Apr 21 18:01:23 2025, MaxMem=   536870912 cpu:               0.2 elap:               0.1
 (Enter /home/szhao/Apps/g16/l301.exe)
 Standard basis: 6-311+G(d,p) (5D, 7F)
 Ernie: Thresh=  0.10000D-02 Tol=  0.10000D-05 Strict=F.
    56 basis functions,    88 primitive gaussians,    58 cartesian basis functions
     7 alpha electrons        7 beta electrons
       nuclear repulsion energy        21.0629983473 Hartrees.
 IExCor= 4336 DFT=T Ex+Corr=M062X ExCW=0 ScaHFX=  0.540000
 ScaDFX=  1.000000  1.000000  1.000000  1.000000 ScalE2=  1.000000  1.000000
 IRadAn=      7 IRanWt=     -1 IRanGd=            0 ICorTp=0 IEmpDi=  4
 NAtoms=    4 NActive=    4 NUniq=    4 SFac= 1.00D+00 NAtFMM=   60 NAOKFM=F Big=F
 Integral buffers will be    131072 words long.
 Raffenetti 2 integral format.
 Two-electron integral symmetry is turned off.
 Leave Link  301 at Mon Apr 21 18:01:23 2025, MaxMem=   536870912 cpu:               0.7 elap:               0.2
 (Enter /home/szhao/Apps/g16/l302.exe)
 NPDir=0 NMtPBC=     1 NCelOv=     1 NCel=       1 NClECP=     1 NCelD=      1
         NCelK=      1 NCelE2=     1 NClLst=     1 CellRange=     0.0.
 One-electron integrals computed using PRISM.
 NBasis=    56 RedAO= T EigKep=  1.62D-03  NBF=    56
 NBsUse=    56 1.00D-06 EigRej= -1.00D+00 NBFU=    56
 Precomputing XC quadrature grid using
 IXCGrd= 4 IRadAn=           7 IRanWt=          -1 IRanGd=           0 AccXCQ= 0.00D+00.
 Generated NRdTot=       0 NPtTot=           0 NUsed=           0 NTot=          32
 NSgBfM=    58    58    58    58    58 MxSgAt=     4 MxSgA2=     4.
 Leave Link  302 at Mon Apr 21 18:01:23 2025, MaxMem=   536870912 cpu:               2.5 elap:               0.4
 (Enter /home/szhao/Apps/g16/l303.exe)
 DipDrv:  MaxL=1.
 Leave Link  303 at Mon Apr 21 18:01:24 2025, MaxMem=   536870912 cpu:               1.4 elap:               0.3
 (Enter /home/szhao/Apps/g16/l401.exe)
 Initial guess from the checkpoint file:  "opt.chk"
 B after Tr=    -0.000009   -0.000928    0.000005
         Rot=   -0.002960    0.999996    0.000100    0.000001 Ang= 180.34 deg.
 Guess basis will be translated and rotated to current coordinates.
 JPrj=2 DoOrth=T DoCkMO=T.
 Initial guess <Sx>= 0.0000 <Sy>= 0.0000 <Sz>= 0.0000 <S**2>=-0.0000 S=-0.0000
 Leave Link  401 at Mon Apr 21 18:01:24 2025, MaxMem=   536870912 cpu:               1.4 elap:               0.3
 (Enter /home/szhao/Apps/g16/l502.exe)
 Keep R1 and R2 ints in memory in canonical form, NReq=9624198.
 FoFCou: FMM=F IPFlag=           0 FMFlag=           0 FMFlg1=           0
         NFxFlg=           0 DoJE=F BraDBF=F KetDBF=F FulRan=T
         wScrn=  0.000000 ICntrl=       600 IOpCl=  0 I1Cent=           0 NGrid=           0
         NMat0=    1 NMatS0=   1596 NMatT0=    0 NMatD0=    1 NMtDS0=    0 NMtDT0=    0
 Symmetry not used in FoFCou.
 Two-electron integral symmetry not used.
 UHF open shell SCF:
 Using DIIS extrapolation, IDIIS=  1040.
 NGot=   536870912 LenX=   534314338 LenY=   534310533
 Requested convergence on RMS density matrix=1.00D-08 within 128 cycles.
 Requested convergence on MAX density matrix=1.00D-06.
 Requested convergence on             energy=1.00D-06.
 No special actions if energy rises.

 Cycle   1  Pass 1  IDiag  1:
 E= -80.7245100433500    
 DIIS: error= 1.71D-04 at cycle   1 NSaved=   1.
 NSaved= 1 IEnMin= 1 EnMin= -80.7245100433500     IErMin= 1 ErrMin= 1.71D-04
 ErrMax= 1.71D-04  0.00D+00 EMaxC= 1.00D-01 BMatC= 3.98D-06 BMatP= 3.98D-06
 IDIUse=3 WtCom= 9.98D-01 WtEn= 1.71D-03
 Coeff-Com:  0.100D+01
 Coeff-En:   0.100D+01
 Coeff:      0.100D+01
 Gap=     0.541 Goal=   None    Shift=    0.000
 Gap=     0.541 Goal=   None    Shift=    0.000
 RMSDP=1.78D-05 MaxDP=2.01D-04              OVMax= 4.86D-04

 Cycle   2  Pass 1  IDiag  1:
 E= -80.7245112984129     Delta-E=       -0.000001255063 Rises=F Damp=F
 DIIS: error= 2.80D-05 at cycle   2 NSaved=   2.
 NSaved= 2 IEnMin= 2 EnMin= -80.7245112984129     IErMin= 2 ErrMin= 2.80D-05
 ErrMax= 2.80D-05  0.00D+00 EMaxC= 1.00D-01 BMatC= 8.72D-08 BMatP= 3.98D-06
 IDIUse=1 WtCom= 1.00D+00 WtEn= 0.00D+00
 Coeff-Com: -0.116D+00 0.112D+01
 Coeff:     -0.116D+00 0.112D+01
 Gap=     0.329 Goal=   None    Shift=    0.000
 Gap=     0.329 Goal=   None    Shift=    0.000
 RMSDP=3.71D-06 MaxDP=5.46D-05 DE=-1.26D-06 OVMax= 1.30D-04

 Cycle   3  Pass 1  IDiag  1:
 E= -80.7245113411536     Delta-E=       -0.000000042741 Rises=F Damp=F
 DIIS: error= 1.13D-05 at cycle   3 NSaved=   3.
 NSaved= 3 IEnMin= 3 EnMin= -80.7245113411536     IErMin= 3 ErrMin= 1.13D-05
 ErrMax= 1.13D-05  0.00D+00 EMaxC= 1.00D-01 BMatC= 1.69D-08 BMatP= 8.72D-08
 IDIUse=1 WtCom= 1.00D+00 WtEn= 0.00D+00
 Coeff-Com: -0.418D-01 0.332D+00 0.710D+00
 Coeff:     -0.418D-01 0.332D+00 0.710D+00
 Gap=     0.329 Goal=   None    Shift=    0.000
 Gap=     0.329 Goal=   None    Shift=    0.000
 RMSDP=1.14D-06 MaxDP=1.65D-05 DE=-4.27D-08 OVMax= 5.27D-05

 Cycle   4  Pass 1  IDiag  1:
 E= -80.7245113407640     Delta-E=        0.000000000390 Rises=F Damp=F
 DIIS: error= 1.32D-05 at cycle   4 NSaved=   4.
 NSaved= 4 IEnMin= 3 EnMin= -80.7245113411536     IErMin= 3 ErrMin= 1.13D-05
 ErrMax= 1.32D-05  0.00D+00 EMaxC= 1.00D-01 BMatC= 2.17D-08 BMatP= 1.69D-08
 IDIUse=1 WtCom= 1.00D+00 WtEn= 0.00D+00
 Coeff-Com:  0.424D-02-0.935D-01 0.566D+00 0.523D+00
 Coeff:      0.424D-02-0.935D-01 0.566D+00 0.523D+00
 Gap=     0.329 Goal=   None    Shift=    0.000
 Gap=     0.329 Goal=   None    Shift=    0.000
 RMSDP=6.41D-07 MaxDP=9.13D-06 DE= 3.90D-10 OVMax= 2.95D-05

 Cycle   5  Pass 1  IDiag  1:
 E= -80.7245113459569     Delta-E=       -0.000000005193 Rises=F Damp=F
 DIIS: error= 4.32D-07 at cycle   5 NSaved=   5.
 NSaved= 5 IEnMin= 5 EnMin= -80.7245113459569     IErMin= 5 ErrMin= 4.32D-07
 ErrMax= 4.32D-07  0.00D+00 EMaxC= 1.00D-01 BMatC= 2.84D-11 BMatP= 1.69D-08
 IDIUse=1 WtCom= 1.00D+00 WtEn= 0.00D+00
 Coeff-Com:  0.204D-02-0.229D-01 0.125D-01 0.339D-01 0.974D+00
 Coeff:      0.204D-02-0.229D-01 0.125D-01 0.339D-01 0.974D+00
 Gap=     0.329 Goal=   None    Shift=    0.000
 Gap=     0.329 Goal=   None    Shift=    0.000
 RMSDP=9.97D-08 MaxDP=1.48D-06 DE=-5.19D-09 OVMax= 3.47D-06

 Cycle   6  Pass 1  IDiag  1:
 E= -80.7245113459734     Delta-E=       -0.000000000016 Rises=F Damp=F
 DIIS: error= 7.34D-08 at cycle   6 NSaved=   6.
 NSaved= 6 IEnMin= 6 EnMin= -80.7245113459734     IErMin= 6 ErrMin= 7.34D-08
 ErrMax= 7.34D-08  0.00D+00 EMaxC= 1.00D-01 BMatC= 1.01D-12 BMatP= 2.84D-11
 IDIUse=1 WtCom= 1.00D+00 WtEn= 0.00D+00
 Coeff-Com: -0.483D-04 0.190D-02-0.189D-01-0.149D-01 0.517D-01 0.980D+00
 Coeff:     -0.483D-04 0.190D-02-0.189D-01-0.149D-01 0.517D-01 0.980D+00
 Gap=     0.329 Goal=   None    Shift=    0.000
 Gap=     0.329 Goal=   None    Shift=    0.000
 RMSDP=2.16D-08 MaxDP=3.27D-07 DE=-1.65D-11 OVMax= 6.46D-07

 Cycle   7  Pass 1  IDiag  1:
 E= -80.7245113459740     Delta-E=       -0.000000000001 Rises=F Damp=F
 DIIS: error= 2.40D-08 at cycle   7 NSaved=   7.
 NSaved= 7 IEnMin= 7 EnMin= -80.7245113459740     IErMin= 7 ErrMin= 2.40D-08
 ErrMax= 2.40D-08  0.00D+00 EMaxC= 1.00D-01 BMatC= 9.17D-14 BMatP= 1.01D-12
 IDIUse=1 WtCom= 1.00D+00 WtEn= 0.00D+00
 Coeff-Com: -0.122D-03 0.171D-02-0.443D-02-0.543D-02-0.364D-01 0.185D+00
 Coeff-Com:  0.859D+00
 Coeff:     -0.122D-03 0.171D-02-0.443D-02-0.543D-02-0.364D-01 0.185D+00
 Coeff:      0.859D+00
 Gap=     0.329 Goal=   None    Shift=    0.000
 Gap=     0.329 Goal=   None    Shift=    0.000
 RMSDP=4.49D-09 MaxDP=5.27D-08 DE=-6.82D-13 OVMax= 1.42D-07

 SCF Done:  E(UM062X) =  -80.7245113460     A.U. after    7 cycles
            NFock=  7  Conv=0.45D-08     -V/T= 2.0117
 <Sx>= 0.0000 <Sy>= 0.0000 <Sz>= 0.0000 <S**2>=-0.0000 S=-0.0000
 <L.S>=  0.00000000000    
 KE= 7.979115987361D+01 PE=-2.296878865194D+02 EE= 4.810921695247D+01
 Annihilation of the first spin contaminant:
 S**2 before annihilation    -0.0000,   after     0.0000
 Leave Link  502 at Mon Apr 21 18:01:27 2025, MaxMem=   536870912 cpu:              23.1 elap:               3.1
 (Enter /home/szhao/Apps/g16/l701.exe)
 ... and contract with generalized density number  0.
 Compute integral first derivatives.
 Leave Link  701 at Mon Apr 21 18:01:28 2025, MaxMem=   536870912 cpu:               1.3 elap:               0.2
 (Enter /home/szhao/Apps/g16/l702.exe)
 L702 exits ... SP integral derivatives will be done elsewhere.
 Leave Link  702 at Mon Apr 21 18:01:28 2025, MaxMem=   536870912 cpu:               0.5 elap:               0.1
 (Enter /home/szhao/Apps/g16/l703.exe)
 Integral derivatives from FoFJK, PRISM(SPDF).
 Compute integral first derivatives, UseDBF=F ICtDFT=           0.
 Calling FoFJK, ICntrl=      2127 FMM=F ISym2X=0 I1Cent= 0 IOpClX= 1 NMat=1 NMatS=1 NMatT=0.
 FoFJK:  IHMeth= 1 ICntrl=    2127 DoSepK=F KAlg= 0 I1Cent=           0 FoldK=F
 IRaf=         0 NMat=       1 IRICut=       1 DoRegI=T DoRafI=F ISym2E= 0 IDoP0=0 IntGTp=1.
 FoFCou: FMM=F IPFlag=           0 FMFlag=      100000 FMFlg1=         800
         NFxFlg=           0 DoJE=F BraDBF=F KetDBF=F FulRan=T
         wScrn=  0.000000 ICntrl=      2127 IOpCl=  1 I1Cent=           0 NGrid=           0
         NMat0=    1 NMatS0=      1 NMatT0=    0 NMatD0=    1 NMtDS0=    0 NMtDT0=    0
 Symmetry not used in FoFCou.
 Leave Link  703 at Mon Apr 21 18:01:29 2025, MaxMem=   536870912 cpu:               5.5 elap:               0.7
 (Enter /home/szhao/Apps/g16/l716.exe)
 Dipole        =-4.32683962D-01 6.93497432D-04-2.20839808D-07
 -------------------------------------------------------------------
 Center     Atomic                   Forces (Hartrees/Bohr)
 Number     Number              X              Y              Z
 -------------------------------------------------------------------
      1        5          -0.000000000   -0.000000000   -0.000000000
      2        7          -0.000000000   -0.000000000   -0.000000000
      3        1           0.000000560   -0.000014868    0.000000178
      4        1           0.000014231    0.000009988    0.000000100
 -------------------------------------------------------------------
 Cartesian Forces:  Max     0.000014868 RMS     0.000006606
 Leave Link  716 at Mon Apr 21 18:01:29 2025, MaxMem=   536870912 cpu:               0.6 elap:               0.1
 (Enter /home/szhao/Apps/g16/l103.exe)

 GradGradGradGradGradGradGradGradGradGradGradGradGradGradGradGradGradGrad
 Berny optimization.
 Using GEDIIS/GDIIS optimizer.
 FormGI is forming the generalized inverse of G from B-inverse, IUseBI=4.
 Internal  Forces:  Max     0.000014241 RMS     0.000005888
 Search for a local minimum.
 Step number   4 out of a maximum of   22
 All quantities printed in internal units (Hartrees-Bohrs-Radians)
 RMS Force = .58355D-05 SwitMx=.10000D-02 MixMth= 2
 Mixed Optimization -- En-DIIS/RFO-DIIS
 Swapping is turned off.
 Update second derivatives using D2CorX and points    1    2    3    4
 DE= -5.48D-07 DEPred=-5.52D-07 R= 9.93D-01
 Trust test= 9.93D-01 RLast= 6.08D-03 DXMaxT set to 1.50D-01
 The second derivative matrix:
                          X1        Y1        Z1        X2        Y2
           X1           0.50227
           Y1          -0.00007   0.50121
           Z1          -0.00002  -0.00001   0.50000
           X2          -0.03410   0.00076   0.00023   1.01293
           Y2          -0.00017   0.00301  -0.00002   0.00203   0.50751
           Z2          -0.00000  -0.00000   0.00000   0.00002  -0.00000
           R1          -0.00350  -0.00028   0.00001   0.04475  -0.00068
           R2          -0.03399   0.00081   0.00023   0.51248   0.00216
           A1          -0.00017   0.00431  -0.00003   0.00179   0.01073
           A2          -0.00001  -0.00440   0.00003   0.00105  -0.01097
           A3           0.00002   0.00001  -0.00000  -0.00034   0.00003
           A4          -0.00001  -0.00001   0.00000   0.00016  -0.00001
                          Z2        R1        R2        A1        A2
           Z2           0.50000
           R1           0.00000   0.27314
           R2           0.00002   0.00150   0.51897
           A1          -0.00000  -0.00080   0.00194   0.01746
           A2           0.00000  -0.00052   0.00116  -0.01437   0.01686
           A3          -0.00000  -0.00002  -0.00034   0.00004  -0.00005
           A4           0.00000   0.00001   0.00016  -0.00002   0.00002
                          A3        A4
           A3           0.00230
           A4          -0.00000   0.01106
 ITU=  0 -1  1  0
     Eigenvalues ---    0.00230   0.01106   0.02981   0.27313   0.51898
     Eigenvalues --- 1000.000001000.000001000.000001000.000001000.00000
     Eigenvalues --- 1000.000001000.00000
 En-DIIS/RFO-DIIS/Sim-DIIS IScMMF=       -3 using points:     4    3    2
 RFO step:  Lambda=-3.76143205D-10.
 NNeg= 0 NGDIIS= 3 SimSw=  2.50D-03 Rises=F DC= -5.48D-07 SmlDif=  1.00D-05
 NRisDI= 0 DoIntr=F SqrtH=F CThrHd= 10.0 CDAdj=  3.0
 RMS Error=  0.5040989929D-04 NUsed= 3 OKEnD=F EnDIS=F
 InvSVX:  RCond= 1.95D-07 Info=           0 Equed=N FErr=  3.85D-15 BErr=  5.55D-17
 DidBck=F Rises=F RFO-DIIS coefs:    0.90930    0.03153    0.05917
 Iteration  1 RMS(Cart)=  0.00010502 RMS(Int)=  0.00000001
 Iteration  2 RMS(Cart)=  0.00000001 RMS(Int)=  0.00000000
 ITry= 1 IFail=0 DXMaxC= 3.55D-04 DCOld= 1.00D+10 DXMaxT= 1.50D-01 DXLimC= 3.00D+00 Rises=F
 Variable       Old X    -DE/DX   Delta X   Delta X   Delta X     New X
                                 (Linear)    (Quad)   (Total)
    X1       -1.40230   0.00000   0.00000   0.00000   0.00000  -1.40230
    Y1        0.00000   0.00000   0.00000   0.00000   0.00000   0.00000
    Z1        0.00000   0.00000   0.00000   0.00000   0.00000   0.00000
    X2        1.40230   0.00001   0.00000   0.00000   0.00000   1.40230
    Y2        0.00000  -0.00000   0.00000   0.00000   0.00000   0.00000
    Z2        0.00000   0.00000   0.00000   0.00000   0.00000   0.00000
    R1        2.20474  -0.00000   0.00000  -0.00001  -0.00000   2.20474
    R2        1.88793   0.00001   0.00005  -0.00002   0.00003   1.88796
    A1        3.14159  -0.00000  -0.00002  -0.00000  -0.00002   3.14157
    A2        3.14045  -0.00000   0.00003   0.00000   0.00003   3.14048
    A3        3.14160  -0.00000  -0.00000  -0.00016  -0.00016   3.14144
    A4        3.14159   0.00000   0.00000   0.00002   0.00002   3.14161
         Item               Value     Threshold  Converged?
 Maximum Force            0.000014     0.000450     YES
 RMS     Force            0.000006     0.000300     YES
 Maximum Displacement     0.000355     0.001800     YES
 RMS     Displacement     0.000105     0.001200     YES
 Predicted change in Energy=-2.474337D-10
 Optimization completed.
    -- Stationary point found.
                           ----------------------------
                           !   Optimized Parameters   !
                           ! (Angstroms and Degrees)  !
 --------------------------                            --------------------------
 ! Name  Definition              Value          Derivative Info.                !
 --------------------------------------------------------------------------------
 ! X1    R(1,-1)                -0.7421         -DE/DX =    0.0                 !
 ! Y1    R(1,-2)                 0.0            -DE/DX =    0.0                 !
 ! Z1    R(1,-3)                 0.0            -DE/DX =    0.0                 !
 ! X2    R(2,-1)                 0.7421         -DE/DX =    0.0                 !
 ! Y2    R(2,-2)                 0.0            -DE/DX =    0.0                 !
 ! Z2    R(2,-3)                 0.0            -DE/DX =    0.0                 !
 ! R1    R(1,3)                  1.1667         -DE/DX =    0.0                 !
 ! R2    R(2,4)                  0.999          -DE/DX =    0.0                 !
 ! A1    L(2,1,3,-3,-1)        179.9997         -DE/DX =    0.0                 !
 ! A2    L(1,2,4,-3,-1)        179.9347         -DE/DX =    0.0                 !
 ! A3    L(2,1,3,-2,-2)        180.0004         -DE/DX =    0.0                 !
 ! A4    L(1,2,4,-2,-2)        180.0            -DE/DX =    0.0                 !
 --------------------------------------------------------------------------------
 Lowest energy point so far.  Saving SCF results.
 Largest change from initial coordinates is atom    4       0.005 Angstoms.
 GradGradGradGradGradGradGradGradGradGradGradGradGradGradGradGradGradGrad

 Leave Link  103 at Mon Apr 21 18:01:29 2025, MaxMem=   536870912 cpu:               0.4 elap:               0.1
 (Enter /home/szhao/Apps/g16/l202.exe)
                          Input orientation:                          
 ---------------------------------------------------------------------
 Center     Atomic      Atomic             Coordinates (Angstroms)
 Number     Number       Type             X           Y           Z
 ---------------------------------------------------------------------
      1          5           0       -0.742066    0.000000    0.000000
      2          7           0        0.742066    0.000000    0.000000
      3          1           0       -1.908763   -0.000006   -0.000008
      4          1           0        1.741113    0.001138   -0.000000
 ---------------------------------------------------------------------
                    Distance matrix (angstroms):
                    1          2          3          4
     1  B    0.000000
     2  N    1.484132   0.000000
     3  H    1.166697   2.650829   0.000000
     4  H    2.483180   0.999048   3.649876   0.000000
 Symmetry turned off by external request.
 Stoichiometry    BH2N
 Framework group  C1[X(BH2N)]
 Deg. of freedom     6
 Full point group                 C1      NOp   1
 Rotational constants (GHZ):   469673389.1183295          24.8409920          24.8409906
 Leave Link  202 at Mon Apr 21 18:01:30 2025, MaxMem=   536870912 cpu:               0.1 elap:               0.0
 (Enter /home/szhao/Apps/g16/l601.exe)
 Copying SCF densities to generalized density rwf, IOpCl= 1 IROHF=0.

 **********************************************************************

            Population analysis using the SCF density.

 **********************************************************************

 Alpha  occ. eigenvalues --  -14.74959  -7.12880  -0.88823  -0.60311  -0.53152
 Alpha  occ. eigenvalues --   -0.32740  -0.32740
 Alpha virt. eigenvalues --    0.00119   0.00119   0.01275   0.02204   0.06052
 Alpha virt. eigenvalues --    0.06052   0.09472   0.12078   0.18345   0.18345
 Alpha virt. eigenvalues --    0.21670   0.25596   0.33578   0.41217   0.41217
 Alpha virt. eigenvalues --    0.43333   0.52904   0.67851   0.79560   0.85656
 Alpha virt. eigenvalues --    0.85656   0.85760   0.85760   0.89554   0.89554
 Alpha virt. eigenvalues --    0.99361   1.24671   1.44733   1.44733   1.49853
 Alpha virt. eigenvalues --    1.75608   1.75608   1.86708   1.86708   2.07420
 Alpha virt. eigenvalues --    2.07420   2.09069   2.22462   2.57154   2.63758
 Alpha virt. eigenvalues --    2.63758   2.65658   2.86182   3.43497   3.92730
 Alpha virt. eigenvalues --    3.92730   4.71727  14.83036  35.61881
  Beta  occ. eigenvalues --  -14.74959  -7.12880  -0.88823  -0.60311  -0.53152
  Beta  occ. eigenvalues --   -0.32740  -0.32740
  Beta virt. eigenvalues --    0.00119   0.00119   0.01275   0.02204   0.06052
  Beta virt. eigenvalues --    0.06052   0.09472   0.12078   0.18345   0.18345
  Beta virt. eigenvalues --    0.21670   0.25596   0.33578   0.41217   0.41217
  Beta virt. eigenvalues --    0.43333   0.52904   0.67851   0.79560   0.85656
  Beta virt. eigenvalues --    0.85656   0.85760   0.85760   0.89554   0.89554
  Beta virt. eigenvalues --    0.99361   1.24671   1.44733   1.44733   1.49853
  Beta virt. eigenvalues --    1.75608   1.75608   1.86708   1.86708   2.07420
  Beta virt. eigenvalues --    2.07420   2.09069   2.22462   2.57154   2.63758
  Beta virt. eigenvalues --    2.63758   2.65658   2.86182   3.43497   3.92730
  Beta virt. eigenvalues --    3.92730   4.71727  14.83036  35.61881
          Condensed to atoms (all electrons):
               1          2          3          4
     1  B    3.693048   0.687829   0.424714  -0.045668
     2  N    0.687829   6.555615  -0.018868   0.367099
     3  H    0.424714  -0.018868   0.536634  -0.000214
     4  H   -0.045668   0.367099  -0.000214   0.384919
          Atomic-Atomic Spin Densities.
               1          2          3          4
     1  B    0.000000   0.000000  -0.000000   0.000000
     2  N    0.000000   0.000000   0.000000  -0.000000
     3  H   -0.000000   0.000000  -0.000000  -0.000000
     4  H    0.000000  -0.000000  -0.000000  -0.000000
 Mulliken charges and spin densities:
               1          2
     1  B    0.240077   0.000000
     2  N   -0.591675   0.000000
     3  H    0.057733  -0.000000
     4  H    0.293865  -0.000000
 Sum of Mulliken charges =  -0.00000  -0.00000
 Mulliken charges and spin densities with hydrogens summed into heavy atoms:
               1          2
     1  B    0.297810  -0.000000
     2  N   -0.297810   0.000000
 Electronic spatial extent (au):  <R**2>=             73.8240
 Charge=             -0.0000 electrons
 Dipole moment (field-independent basis, Debye):
    X=             -1.0998    Y=              0.0018    Z=             -0.0000  Tot=              1.0998
 Quadrupole moment (field-independent basis, Debye-Ang):
   XX=             -7.1943   YY=            -14.1507   ZZ=            -14.1507
   XY=              0.0045   XZ=              0.0000   YZ=             -0.0000
 Traceless Quadrupole moment (field-independent basis, Debye-Ang):
   XX=              4.6376   YY=             -2.3188   ZZ=             -2.3188
   XY=              0.0045   XZ=              0.0000   YZ=             -0.0000
 Octapole moment (field-independent basis, Debye-Ang**2):
  XXX=              5.1097  YYY=             -0.0015  ZZZ=              0.0000  XYY=             -1.1024
  XXY=              0.0075  XXZ=             -0.0000  XZZ=             -1.1024  YZZ=             -0.0005
  YYZ=              0.0000  XYZ=              0.0000
 Hexadecapole moment (field-independent basis, Debye-Ang**3):
 XXXX=            -53.7985 YYYY=            -18.7002 ZZZZ=            -18.7002 XXXY=              0.0110
 XXXZ=              0.0000 YYYX=             -0.0013 YYYZ=             -0.0000 ZZZX=             -0.0000
 ZZZY=             -0.0000 XXYY=            -16.5933 XXZZ=            -16.5933 YYZZ=             -6.2334
 XXYZ=             -0.0000 YYXZ=             -0.0000 ZZXY=             -0.0004
 N-N= 2.106299834733D+01 E-N=-2.296878869228D+02  KE= 7.979115987361D+01
                          Isotropic Fermi Contact Couplings
        Atom                 a.u.       MegaHertz       Gauss      10(-4) cm-1
     1  B(11)              0.00000       0.00000       0.00000       0.00000
     2  N(14)             -0.00000      -0.00000      -0.00000      -0.00000
     3  H(1)               0.00000       0.00000       0.00000       0.00000
     4  H(1)              -0.00000      -0.00000      -0.00000      -0.00000
 --------------------------------------------------------
       Center         ----  Spin Dipole Couplings  ----
                      3XX-RR        3YY-RR        3ZZ-RR
 --------------------------------------------------------
     1   Atom        0.000000      0.000000      0.000000
     2   Atom        0.000000      0.000000      0.000000
     3   Atom        0.000000      0.000000      0.000000
     4   Atom        0.000000      0.000000      0.000000
 --------------------------------------------------------
                        XY            XZ            YZ
 --------------------------------------------------------
     1   Atom        0.000000      0.000000      0.000000
     2   Atom        0.000000      0.000000      0.000000
     3   Atom        0.000000      0.000000      0.000000
     4   Atom        0.000000      0.000000      0.000000
 --------------------------------------------------------


 ---------------------------------------------------------------------------------
              Anisotropic Spin Dipole Couplings in Principal Axis System
 ---------------------------------------------------------------------------------

       Atom             a.u.   MegaHertz   Gauss  10(-4) cm-1        Axes

              Baa     0.0000     0.000     0.000     0.000  1.0000  0.0000  0.0000
     1 B(11)  Bbb     0.0000     0.000     0.000     0.000 -0.0000  1.0000  0.0000
              Bcc     0.0000     0.000     0.000     0.000  0.0000  0.0000  1.0000
 
              Baa     0.0000     0.000     0.000     0.000  1.0000  0.0000  0.0000
     2 N(14)  Bbb     0.0000     0.000     0.000     0.000 -0.0000  1.0000  0.0000
              Bcc     0.0000     0.000     0.000     0.000  0.0000  0.0000  1.0000
 
              Baa     0.0000     0.000     0.000     0.000  1.0000  0.0000  0.0000
     3 H(1)   Bbb     0.0000     0.000     0.000     0.000 -0.0000  1.0000  0.0000
              Bcc     0.0000     0.000     0.000     0.000  0.0000  0.0000  1.0000
 
              Baa     0.0000     0.000     0.000     0.000  1.0000  0.0000  0.0000
     4 H(1)   Bbb     0.0000     0.000     0.000     0.000 -0.0000  1.0000  0.0000
              Bcc     0.0000     0.000     0.000     0.000  0.0000  0.0000  1.0000
 

 ---------------------------------------------------------------------------------

 No NMR shielding tensors so no spin-rotation constants.
 Leave Link  601 at Mon Apr 21 18:01:30 2025, MaxMem=   536870912 cpu:               1.7 elap:               0.3
 (Enter /home/szhao/Apps/g16/l9999.exe)
 1\1\GINC-NODE05\FOpt\UM062X\6-311+G(d,p)\B1H2N1\SZHAO\21-Apr-2025\0\\#
 p opt UM062X/6-311+G** nosymm int=superfine\\Title Card Required\\0,1\
 B,-0.74206583,0.,0.\N,0.74206583,0.,0.\H,-1.9087627271,-0.0000058046,-
 0.0000077186\H,1.7411134574,0.0011382111,-0.000000188\\Version=ES64L-G
 16RevA.03\HF=-80.7245113\S2=0.\S2-1=0.\S2A=0.\RMSD=4.491e-09\RMSF=6.60
 6e-06\Dipole=-0.432684,0.0006935,-0.0000002\Quadrupole=3.4479716,-1.72
 39842,-1.7239874,0.0033246,0.0000015,0.\PG=C01 [X(B1H2N1)]\\@


 IN NATURE THERE ARE NEITHER REWARDS OR
 PUNISHMENTS -- THERE ARE CONSEQUENCES.

                            -- ROBERT GREEN INGERSOLL
 Job cpu time:       0 days  0 hours  2 minutes 47.8 seconds.
 Elapsed time:       0 days  0 hours  0 minutes 24.2 seconds.
 File lengths (MBytes):  RWF=     17 Int=      0 D2E=      0 Chk=      2 Scr=      2
 Normal termination of Gaussian 16 at Mon Apr 21 18:01:30 2025.
