Title Card Required                                                     
FOpt      UM062X                                                      6-311+G(d,p)        
Number of atoms                            I                6
Info1-9                                    I   N=           9
          15          15           0           0           0         110
           2          18        -502
Full Title                                 C   N=           2
Title Card Required     
Route                                      C   N=           4
#p opt UM062X/6-311+G** nosymm int=superfine    
Charge                                     I                1
Multiplicity                               I                2
Number of electrons                        I               15
Number of alpha electrons                  I                8
Number of beta electrons                   I                7
Number of basis functions                  I               68
Number of independent functions            I               68
Number of point charges in /Mol/           I                0
Number of translation vectors              I                0
Atomic numbers                             I   N=           6
           6           6           1           1           1           1
Nuclear charges                            R   N=           6
  6.00000000E+00  6.00000000E+00  1.00000000E+00  1.00000000E+00  1.00000000E+00
  1.00000000E+00
Current cartesian coordinates              R   N=          18
 -1.93695681E+00  0.00000000E+00  0.00000000E+00  1.93695681E+00  0.00000000E+00
  0.00000000E+00 -2.80328203E+00 -1.85810178E+00 -7.08343816E-09 -2.80323599E+00
  1.85818114E+00 -5.04325692E-10  2.80328207E+00  1.85810181E+00  2.87284969E-08
  2.80323603E+00 -1.85818117E+00  3.53014078E-08
Number of symbols in /Mol/                 I                0
Force Field                                I                0
Atom Types                                 C   N=           6
                                                            
            
Int Atom Types                             I   N=           6
           0           0           0           0           0           0
MM charges                                 R   N=           6
  0.00000000E+00  0.00000000E+00  0.00000000E+00  0.00000000E+00  0.00000000E+00
  0.00000000E+00
Integer atomic weights                     I   N=           6
          12          12           1           1           1           1
Real atomic weights                        R   N=           6
  1.20000000E+01  1.20000000E+01  1.00782504E+00  1.00782504E+00  1.00782504E+00
  1.00782504E+00
Atom fragment info                         I   N=           6
           0           0           0           0           0           0
Atom residue num                           I   N=           6
           0           0           0           0           0           0
Nuclear spins                              I   N=           6
           0           0           1           1           1           1
Nuclear ZEff                               R   N=           6
 -3.60000000E+00 -3.60000000E+00 -1.00000000E+00 -1.00000000E+00 -1.00000000E+00
 -1.00000000E+00
Nuclear ZNuc                               R   N=           6
  6.00000000E+00  6.00000000E+00  1.00000000E+00  1.00000000E+00  1.00000000E+00
  1.00000000E+00
Nuclear QMom                               R   N=           6
  0.00000000E+00  0.00000000E+00  0.00000000E+00  0.00000000E+00  0.00000000E+00
  0.00000000E+00
Nuclear GFac                               R   N=           6
  0.00000000E+00  0.00000000E+00  2.79284600E+00  2.79284600E+00  2.79284600E+00
  2.79284600E+00
MicOpt                                     I   N=           6
          -2          -2          -1          -1          -1          -1
Number of residues                         I                0
Number of secondary structures             I                0
Redundant internal dimensions              I   N=           4
          20          10           6           4
Redundant internal coordinate indices      I   N=          80
           1          -1           0           0           1          -2
           0           0           1          -3           0           0
           2          -1           0           0           2          -2
           0           0           2          -3           0           0
           1           3           0           0           1           4
           0           0           2           5           0           0
           2           6           0           0           2           1
           3           0           2           1           4           0
           3           1           4           0           1           2
           5           0           1           2           6           0
           5           2           6           0           3           1
           2           5           3           1           2           6
           4           1           2           5           4           1
           2           6
Redundant internal coordinates             R   N=          20
 -1.93695681E+00  0.00000000E+00  0.00000000E+00  1.93695681E+00  0.00000000E+00
  0.00000000E+00  2.05013697E+00  2.05018945E+00  2.05013702E+00  2.05018950E+00
  2.00707477E+00  2.00703806E+00  2.26907248E+00  2.00707478E+00  2.00703807E+00
  2.26907246E+00  3.14159265E+00 -1.49011612E-08  1.49011612E-08  3.14159264E+00
ZRed-IntVec                                I   N=          20
          -1          -1          -1          -1          -1          -1
           0           0           0           0           0           0
           0           0           0           0           0           0
           0           0
ZRed-FPVec                                 R   N=          20
  0.00000000E+00  0.00000000E+00  0.00000000E+00  0.00000000E+00  0.00000000E+00
  0.00000000E+00  0.00000000E+00  0.00000000E+00  0.00000000E+00  0.00000000E+00
  0.00000000E+00  0.00000000E+00  0.00000000E+00  0.00000000E+00  0.00000000E+00
  0.00000000E+00  0.00000000E+00  0.00000000E+00  0.00000000E+00  0.00000000E+00
ZRed-Constraint1                           R   N=          20
 -1.93695681E+00  0.00000000E+00  0.00000000E+00  1.93695681E+00  0.00000000E+00
  0.00000000E+00  2.32883686E+00  2.32921483E+00  2.32883686E+00  2.32921483E+00
  2.28363423E+00  2.27839591E+00  1.72115516E+00  2.28363423E+00  2.27839591E+00
  1.72115516E+00  3.14159265E+00  0.00000000E+00  0.00000000E+00  3.14159265E+00
ZRed-Constraint2                           R   N=          20
 -1.93695681E+00  0.00000000E+00  0.00000000E+00  1.93695681E+00  0.00000000E+00
  0.00000000E+00  0.00000000E+00  0.00000000E+00  0.00000000E+00  0.00000000E+00
  0.00000000E+00  0.00000000E+00  0.00000000E+00  0.00000000E+00  0.00000000E+00
  0.00000000E+00  0.00000000E+00  0.00000000E+00  0.00000000E+00  0.00000000E+00
Number of contracted shells                I               28
Number of primitive shells                 I               50
Pure/Cartesian d shells                    I                0
Pure/Cartesian f shells                    I                0
Highest angular momentum                   I                2
Largest degree of contraction              I                6
Shell types                                I   N=          28
           0          -1          -1          -1          -1          -2
           0          -1          -1          -1          -1          -2
           0           0           0           1           0           0
           0           1           0           0           0           1
           0           0           0           1
Number of primitives per shell             I   N=          28
           6           3           1           1           1           1
           6           3           1           1           1           1
           3           1           1           1           3           1
           1           1           3           1           1           1
           3           1           1           1
Shell to atom map                          I   N=          28
           1           1           1           1           1           1
           2           2           2           2           2           2
           3           3           3           3           4           4
           4           4           5           5           5           5
           6           6           6           6
Primitive exponents                        R   N=          50
  4.56324000E+03  6.82024000E+02  1.54973000E+02  4.44553000E+01  1.30290000E+01
  1.82773000E+00  2.09642000E+01  4.80331000E+00  1.45933000E+00  4.83456000E-01
  1.45585000E-01  4.38000000E-02  6.26000000E-01  4.56324000E+03  6.82024000E+02
  1.54973000E+02  4.44553000E+01  1.30290000E+01  1.82773000E+00  2.09642000E+01
  4.80331000E+00  1.45933000E+00  4.83456000E-01  1.45585000E-01  4.38000000E-02
  6.26000000E-01  3.38650000E+01  5.09479000E+00  1.15879000E+00  3.25840000E-01
  1.02741000E-01  7.50000000E-01  3.38650000E+01  5.09479000E+00  1.15879000E+00
  3.25840000E-01  1.02741000E-01  7.50000000E-01  3.38650000E+01  5.09479000E+00
  1.15879000E+00  3.25840000E-01  1.02741000E-01  7.50000000E-01  3.38650000E+01
  5.09479000E+00  1.15879000E+00  3.25840000E-01  1.02741000E-01  7.50000000E-01
Contraction coefficients                   R   N=          50
  1.96665025E-03  1.52306019E-02  7.61269097E-02  2.60801033E-01  6.16462078E-01
  2.21006028E-01  1.14660081E-01  9.19999648E-01 -3.03068213E-03  1.00000000E+00
  1.00000000E+00  1.00000000E+00  1.00000000E+00  1.96665025E-03  1.52306019E-02
  7.61269097E-02  2.60801033E-01  6.16462078E-01  2.21006028E-01  1.14660081E-01
  9.19999648E-01 -3.03068213E-03  1.00000000E+00  1.00000000E+00  1.00000000E+00
  1.00000000E+00  2.54938145E-02  1.90373109E-01  8.52161486E-01  1.00000000E+00
  1.00000000E+00  1.00000000E+00  2.54938145E-02  1.90373109E-01  8.52161486E-01
  1.00000000E+00  1.00000000E+00  1.00000000E+00  2.54938145E-02  1.90373109E-01
  8.52161486E-01  1.00000000E+00  1.00000000E+00  1.00000000E+00  2.54938145E-02
  1.90373109E-01  8.52161486E-01  1.00000000E+00  1.00000000E+00  1.00000000E+00
P(S=P) Contraction coefficients            R   N=          50
  0.00000000E+00  0.00000000E+00  0.00000000E+00  0.00000000E+00  0.00000000E+00
  0.00000000E+00  4.02486927E-02  2.37593957E-01  8.15853851E-01  1.00000000E+00
  1.00000000E+00  1.00000000E+00  0.00000000E+00  0.00000000E+00  0.00000000E+00
  0.00000000E+00  0.00000000E+00  0.00000000E+00  0.00000000E+00  4.02486927E-02
  2.37593957E-01  8.15853851E-01  1.00000000E+00  1.00000000E+00  1.00000000E+00
  0.00000000E+00  0.00000000E+00  0.00000000E+00  0.00000000E+00  0.00000000E+00
  0.00000000E+00  0.00000000E+00  0.00000000E+00  0.00000000E+00  0.00000000E+00
  0.00000000E+00  0.00000000E+00  0.00000000E+00  0.00000000E+00  0.00000000E+00
  0.00000000E+00  0.00000000E+00  0.00000000E+00  0.00000000E+00  0.00000000E+00
  0.00000000E+00  0.00000000E+00  0.00000000E+00  0.00000000E+00  0.00000000E+00
Coordinates of each shell                  R   N=          84
 -1.93695681E+00  0.00000000E+00  0.00000000E+00 -1.93695681E+00  0.00000000E+00
  0.00000000E+00 -1.93695681E+00  0.00000000E+00  0.00000000E+00 -1.93695681E+00
  0.00000000E+00  0.00000000E+00 -1.93695681E+00  0.00000000E+00  0.00000000E+00
 -1.93695681E+00  0.00000000E+00  0.00000000E+00  1.93695681E+00  0.00000000E+00
  0.00000000E+00  1.93695681E+00  0.00000000E+00  0.00000000E+00  1.93695681E+00
  0.00000000E+00  0.00000000E+00  1.93695681E+00  0.00000000E+00  0.00000000E+00
  1.93695681E+00  0.00000000E+00  0.00000000E+00  1.93695681E+00  0.00000000E+00
  0.00000000E+00 -2.80328203E+00 -1.85810178E+00 -7.08343816E-09 -2.80328203E+00
 -1.85810178E+00 -7.08343816E-09 -2.80328203E+00 -1.85810178E+00 -7.08343816E-09
 -2.80328203E+00 -1.85810178E+00 -7.08343816E-09 -2.80323599E+00  1.85818114E+00
 -5.04325692E-10 -2.80323599E+00  1.85818114E+00 -5.04325692E-10 -2.80323599E+00
  1.85818114E+00 -5.04325692E-10 -2.80323599E+00  1.85818114E+00 -5.04325692E-10
  2.80328207E+00  1.85810181E+00  2.87284969E-08  2.80328207E+00  1.85810181E+00
  2.87284969E-08  2.80328207E+00  1.85810181E+00  2.87284969E-08  2.80328207E+00
  1.85810181E+00  2.87284969E-08  2.80323603E+00 -1.85818117E+00  3.53014078E-08
  2.80323603E+00 -1.85818117E+00  3.53014078E-08  2.80323603E+00 -1.85818117E+00
  3.53014078E-08  2.80323603E+00 -1.85818117E+00  3.53014078E-08
Num ILSW                                   I              100
ILSW                                       I   N=         100
           1           0           0           1           2           0
           0           0           0           0        4336          -1
           7           0           0           0           2           0
           0           0           0           0           1           0
           1           1           0           0           0           0
           0           0      100000           0          -1           0
           0           0           0           0           0           0
           0           0           0           1           0           0
           0 -2000000000           1           0           0           0
           0           0           4          52           0           0
           0           0          55           0           0           0
           0           0           0           6           0           1
           0           0           0           0           0           0
           0           0           0           0           0           0
           0           0           0           0           0           0
           0           0           0           0           0           0
           0           0           0           0
Num RLSW                                   I               52
RLSW                                       R   N=          52
  1.00000000E+00  1.00000000E+00  1.00000000E+00  1.00000000E+00  5.40000000E-01
  0.00000000E+00  0.00000000E+00  1.00000000E+00  0.00000000E+00  0.00000000E+00
  0.00000000E+00  0.00000000E+00  1.00000000E+00  0.00000000E+00  0.00000000E+00
  0.00000000E+00  0.00000000E+00  1.00000000E+00  0.00000000E+00  0.00000000E+00
  0.00000000E+00  0.00000000E+00  1.00000000E+00  0.00000000E+00  0.00000000E+00
  0.00000000E+00  0.00000000E+00  1.00000000E+00  0.00000000E+00  0.00000000E+00
  0.00000000E+00  0.00000000E+00  1.00000000E+00  0.00000000E+00  0.00000000E+00
  0.00000000E+00  0.00000000E+00  0.00000000E+00  1.00000000E+00  1.00000000E+00
  0.00000000E+00  1.00000000E+00  0.00000000E+00  0.00000000E+00  0.00000000E+00
  0.00000000E+00  0.00000000E+00  0.00000000E+00  0.00000000E+00  0.00000000E+00
  0.00000000E+00  0.00000000E+00
MxBond                                     I                3
NBond                                      I   N=           6
           3           3           1           1           1           1
IBond                                      I   N=          18
           2           3           4           1           5           6
           1           0           0           1           0           0
           2           0           0           2           0           0
RBond                                      R   N=          18
  1.00000000E-01  1.00000000E+00  1.00000000E+00  1.00000000E-01  1.00000000E+00
  1.00000000E+00  1.00000000E+00  0.00000000E+00  0.00000000E+00  1.00000000E+00
  0.00000000E+00  0.00000000E+00  1.00000000E+00  0.00000000E+00  0.00000000E+00
  1.00000000E+00  0.00000000E+00  0.00000000E+00
Virial Ratio                               R      2.010226694147020E+00
SCF Energy                                 R     -7.805621765433769E+01
Total Energy                               R     -7.805621765433769E+01
S**2                                       R      7.521753957670700E-01
S**2 after annihilation                    R      7.500035916507417E-01
RMS Force                                  R      1.737396796331282E-05
RMS Density                                R      9.123810269086615E-09
Job Status                                 I                1
Nuclear derivative order                   I                1
External E-field                           R   N=          35
  0.00000000E+00  0.00000000E+00  0.00000000E+00  0.00000000E+00  0.00000000E+00
  0.00000000E+00  0.00000000E+00  0.00000000E+00  0.00000000E+00  0.00000000E+00
  0.00000000E+00  0.00000000E+00  0.00000000E+00  0.00000000E+00  0.00000000E+00
  0.00000000E+00  0.00000000E+00  0.00000000E+00  0.00000000E+00  0.00000000E+00
  0.00000000E+00  0.00000000E+00  0.00000000E+00  0.00000000E+00  0.00000000E+00
  0.00000000E+00  0.00000000E+00  0.00000000E+00  0.00000000E+00  0.00000000E+00
  0.00000000E+00  0.00000000E+00  0.00000000E+00  0.00000000E+00  0.00000000E+00
IOpCl                                      I                1
IROHF                                      I                0
Alpha Orbital Energies                     R   N=          68
 -1.09222635E+01 -1.09221178E+01 -1.06624996E+00 -1.00113710E+00 -8.06672265E-01
 -7.75535341E-01 -6.69089191E-01 -5.61469803E-01 -3.65983170E-01 -2.47067271E-01
 -1.41083860E-01 -1.10193876E-01 -1.01235021E-01 -8.37147293E-02 -7.47558643E-02
 -7.16888210E-02 -4.75544413E-02 -4.12016286E-02 -2.80127870E-02 -4.93867388E-03
  2.10202231E-02  9.35134787E-02  1.79528530E-01  2.28843212E-01  2.43273358E-01
  3.23870391E-01  3.77472662E-01  3.89389376E-01  4.11398188E-01  4.47473002E-01
  4.52843430E-01  4.88190968E-01  5.30437513E-01  5.59860988E-01  7.98206100E-01
  8.16703370E-01  8.63259070E-01  9.03769953E-01  1.13932316E+00  1.16176508E+00
  1.17609842E+00  1.23807518E+00  1.26252872E+00  1.42459532E+00  1.46947968E+00
  1.50899506E+00  1.55041160E+00  1.61775765E+00  1.67598040E+00  1.72298770E+00
  1.76755789E+00  1.77765911E+00  2.11780153E+00  2.26111734E+00  2.29346396E+00
  2.33827126E+00  2.37490533E+00  2.37917388E+00  2.41086869E+00  2.43066816E+00
  2.44482569E+00  2.47384462E+00  2.48015787E+00  3.07052019E+00  3.42036643E+00
  3.45895047E+00  2.34988082E+01  2.35108138E+01
Beta Orbital Energies                      R   N=          68
 -1.09199038E+01 -1.09198121E+01 -1.03551615E+00 -9.78772051E-01 -8.01368700E-01
 -7.71995287E-01 -6.53499561E-01 -3.53427046E-01 -2.78540170E-01 -2.23339026E-01
 -1.54245202E-01 -1.13459208E-01 -1.01807570E-01 -7.82680165E-02 -7.57197078E-02
 -7.38054289E-02 -4.18739028E-02 -3.90433017E-02 -2.33069885E-02  7.82805772E-04
  1.28489303E-02  1.00930452E-01  1.79659777E-01  2.30195351E-01  2.47955739E-01
  3.37482932E-01  3.64062302E-01  4.01480634E-01  4.22076821E-01  4.38070637E-01
  4.68099131E-01  5.01621759E-01  5.29397774E-01  5.60151963E-01  8.29740233E-01
  8.45195434E-01  8.94082637E-01  9.39447847E-01  1.14909455E+00  1.17769298E+00
  1.19635357E+00  1.27355267E+00  1.28863151E+00  1.43925546E+00  1.48384652E+00
  1.52554447E+00  1.58727918E+00  1.62956202E+00  1.68810245E+00  1.74065001E+00
  1.78311603E+00  1.79455079E+00  2.15512542E+00  2.27783220E+00  2.31813093E+00
  2.35163008E+00  2.40914832E+00  2.43068019E+00  2.43391854E+00  2.45182103E+00
  2.48640340E+00  2.49311424E+00  2.51544791E+00  3.11753251E+00  3.46669359E+00
  3.50550902E+00  2.35113327E+01  2.35232718E+01
Alpha MO coefficients                      R   N=        4624
  3.98408670E-01  3.27557454E-01  5.61788387E-04  2.31799631E-09 -4.46835583E-12
  7.88425578E-03 -1.32215181E-03 -2.71332587E-07 -5.33577651E-12 -1.95380219E-03
  5.02524333E-05 -2.80704796E-09 -1.07950829E-12 -5.26276713E-04  3.58981175E-04
  1.27187705E-07  5.75787477E-12 -8.29943871E-04 -8.44601154E-13  4.36709201E-12
 -9.23881096E-04  1.41829416E-07  3.99648478E-01  3.28576831E-01 -5.63764781E-04
 -2.32524376E-09 -2.17272773E-11  7.90923364E-03  1.32764220E-03  2.72151661E-07
  6.29878319E-11 -1.96392161E-03 -4.90121007E-05  2.78290137E-09 -6.68554265E-12
 -5.23501357E-04 -3.61881478E-04 -1.27299737E-07 -1.22456314E-11 -8.32199767E-04
  1.57908625E-11 -4.37136152E-12 -9.27456666E-04  1.42261739E-07  1.40791359E-04
 -2.23894984E-03  1.44959833E-03 -6.50862359E-04 -1.26230135E-03 -5.56136307E-12
  1.40849028E-04 -2.23844631E-03  1.44921774E-03 -6.50721791E-04  1.26211521E-03
 -1.17371592E-12  1.41099089E-04 -2.24557098E-03  1.45463569E-03  6.52743421E-04
  1.26633349E-03  2.15598359E-11  1.41156970E-04 -2.24506605E-03  1.45425423E-03
  6.52602414E-04 -1.26614679E-03  2.59527556E-11  3.99664399E-01  3.28606489E-01
  6.36981897E-04  2.33848055E-09 -5.09464522E-12  8.05229828E-03 -1.76929759E-03
 -2.63950069E-07 -6.07885244E-12 -3.26015299E-03 -3.99126426E-04  7.75680674E-09
  9.52793457E-13  8.92301507E-04  9.34042436E-04  3.62369979E-08 -2.67688321E-12
 -7.27482778E-04  2.08499549E-13  4.15096403E-12 -1.15239221E-03  1.39290388E-07
 -3.98424642E-01 -3.27587204E-01  6.35233445E-04  2.33125776E-09  2.15141178E-11
 -8.02776154E-03 -1.76518098E-03 -2.63106094E-07 -6.38791085E-11  3.25406670E-03
 -3.99280578E-04  7.76534971E-09  1.23410326E-11 -8.93932449E-04  9.32922526E-04
  3.58418045E-08  1.21595538E-11  7.24900367E-04 -1.66975666E-11  4.12876339E-12
  1.14951587E-03 -1.38849330E-07  9.92387594E-05 -2.13478124E-03  1.62372350E-03
 -6.06512254E-04 -1.29985341E-03 -5.74613832E-12  9.93073977E-05 -2.13432971E-03
  1.62344434E-03 -6.06370753E-04  1.29967109E-03 -1.21445520E-12 -9.88009353E-05
  2.12781406E-03 -1.61921155E-03 -6.04486965E-04 -1.29592494E-03 -2.23667185E-11
 -9.88693942E-05  2.12736409E-03 -1.61893357E-03 -6.04345900E-04  1.29574320E-03
 -2.68765994E-11 -8.07383718E-02 -1.31456243E-01 -5.73927609E-03 -2.60458682E-06
  3.01978193E-11  3.63231837E-01  2.31316346E-04 -2.61442218E-06 -3.03221389E-11
  2.44112095E-01  6.53655272E-03 -8.25233316E-07  7.57547975E-11  7.92456431E-04
 -5.80729733E-03 -6.39374730E-07 -9.20685176E-11 -5.39927033E-03 -3.82051366E-11
  1.68206746E-11  2.71990987E-04  4.52703842E-07 -8.07386068E-02 -1.31456625E-01
  5.73940443E-03  2.60460153E-06  6.31435043E-10  3.63232952E-01 -2.31121190E-04
  2.61443892E-06  8.22199651E-10  2.44112801E-01 -6.53649804E-03  8.25237809E-07
  3.86571034E-10  7.92370407E-04  5.80733590E-03  6.39375011E-07  1.54986686E-10
 -5.39927838E-03 -3.96215091E-12 -1.67678966E-11  2.71961196E-04  4.52707213E-07
  6.81510297E-02  7.55878593E-02 -7.64313349E-03  5.02515119E-03  1.18096458E-02
  3.78141851E-11  6.81459800E-02  7.55828001E-02 -7.64153737E-03  5.02428913E-03
 -1.18092163E-02 -4.56932736E-12  6.81512598E-02  7.55881199E-02 -7.64314730E-03
 -5.02516218E-03 -1.18096836E-02 -1.43176589E-10  6.81462100E-02  7.55830607E-02
 -7.64155117E-03 -5.02430012E-03  1.18092540E-02 -1.85453775E-10 -7.82920548E-02
 -1.27908699E-01 -4.66984107E-02 -4.33706243E-06 -1.56429736E-10  3.59247424E-01
 -6.99819353E-02 -5.15933590E-06 -2.83119671E-10  2.53267151E-01 -1.95847640E-02
 -1.81334311E-06 -1.00244397E-10 -2.82831402E-02 -1.30807264E-02 -6.68074503E-08
  2.87401975E-11 -3.58682274E-03 -4.83125177E-11  2.92532604E-11 -1.04445932E-02
  7.69393104E-07  7.82918251E-02  1.27908324E-01 -4.66984346E-02 -4.33706360E-06
 -9.97872178E-10 -3.59246431E-01 -6.99820034E-02 -5.15933888E-06 -1.40566491E-09
 -2.53266395E-01 -1.95848217E-02 -1.81334275E-06 -5.98331484E-10  2.82831442E-02
 -1.30807062E-02 -6.68067226E-08 -1.11319012E-10  3.58680419E-03 -6.02468640E-11
  2.91929694E-11  1.04445990E-02 -7.69394097E-07  8.12574868E-02  9.32814597E-02
 -3.08744501E-03  3.53542210E-03  1.27321230E-02  3.05138088E-11  8.12494411E-02
  9.32737228E-02 -3.08681049E-03  3.53450403E-03 -1.27314202E-02 -1.72113089E-11
 -8.12572949E-02 -9.32812475E-02  3.08742552E-03  3.53540706E-03  1.27320916E-02
  1.37702807E-10 -8.12492493E-02 -9.32735105E-02  3.08679101E-03  3.53448900E-03
 -1.27313888E-02  1.85283046E-10 -1.89215861E-06 -3.19181262E-06  1.21848331E-06
  1.59038688E-01  2.33722643E-10  9.38304618E-06  8.12640361E-07  2.31343592E-01
  3.31557749E-10  1.13320450E-05  1.22738883E-06  1.38671255E-01  1.95023541E-10
  1.83158496E-07 -5.77102187E-08  3.67487483E-03  2.00114016E-11  1.73464336E-08
 -2.85395310E-11 -6.27501163E-11 -6.56547692E-07 -1.00368716E-02  1.89216489E-06
  3.19182353E-06  1.21854411E-06  1.59039652E-01 -2.33409364E-10 -9.38307936E-06
  8.12727780E-07  2.31344969E-01 -3.31119375E-10 -1.13320951E-05  1.22743907E-06
  1.38672070E-01 -1.94813988E-10 -1.83158064E-07 -5.77104475E-08  3.67494294E-03
 -1.99974465E-11 -1.73464892E-08 -2.85228259E-11  5.32938171E-10  6.56546839E-07
  1.00369833E-02 -1.03399282E-01 -1.33000436E-01 -7.13696475E-03 -7.67719839E-03
 -1.00056529E-02 -5.37938213E-11  1.03402446E-01  1.33006966E-01  7.13784361E-03
  7.67682651E-03 -1.00066862E-02  1.21485874E-11  1.03399906E-01  1.33001272E-01
  7.13701153E-03 -7.67724707E-03 -1.00057154E-02 -2.44997641E-10 -1.03403071E-01
 -1.33007802E-01 -7.13789039E-03  7.67687519E-03 -1.00067487E-02  2.86711984E-10
 -1.05046884E-06 -1.81331980E-06  9.32799343E-06  1.63262897E-01  3.25780564E-10
  5.23774761E-06  1.38208713E-05  2.33785173E-01  4.77697972E-10  8.61144797E-06
  8.18815143E-06  1.44404209E-01  2.98520724E-10  5.51608964E-08 -2.23980132E-07
  1.22489796E-02  6.05224197E-12  6.27840594E-09 -1.67544972E-11 -1.00880872E-10
  4.37325986E-07 -1.88854832E-02 -1.05046399E-06 -1.81331147E-06 -9.32799525E-06
 -1.63262006E-01  3.25335829E-10  5.23772324E-06 -1.38208773E-05 -2.33783872E-01
  4.77110656E-10  8.61141463E-06 -8.18815206E-06 -1.44403370E-01  2.98138731E-10
  5.51664816E-08  2.23977621E-07 -1.22489533E-02  6.02377381E-12  6.27856912E-09
  1.66972895E-11 -5.52773254E-10  4.37326928E-07 -1.88854329E-02 -1.09334330E-01
 -1.47241220E-01 -1.07408348E-02 -8.42051720E-03 -1.03297467E-02 -5.25878427E-11
  1.09330438E-01  1.47238176E-01  1.07410941E-02  8.42044177E-03 -1.03299754E-02
  1.86729139E-11 -1.09333731E-01 -1.47240456E-01 -1.07407921E-02  8.42047347E-03
  1.03296931E-02  2.56124450E-10  1.09329840E-01  1.47237413E-01  1.07410513E-02
 -8.42039804E-03  1.03299218E-02 -2.90007197E-10 -8.55861722E-03 -1.44473964E-02
  1.78882480E-01 -8.24919673E-06  4.58424244E-10  3.58920848E-02  2.89654596E-01
 -1.28819485E-05  4.69331312E-10  8.80687454E-02  1.99792113E-01 -8.33458068E-06
  5.54538536E-10  7.24168707E-04 -7.35081625E-03 -1.33795403E-07  2.83504611E-11
 -8.22265571E-04 -1.35262649E-10 -2.83412817E-11  1.90741074E-02  3.65594149E-07
 -8.55864794E-03 -1.44474468E-02 -1.78882566E-01  8.24920639E-06 -2.95237942E-09
  3.58922349E-02 -2.89654718E-01  1.28819648E-05 -4.36536262E-09  8.80689050E-02
 -1.99792213E-01  8.33459063E-06 -3.19906296E-09  7.24149306E-04  7.35082463E-03
  1.33795306E-07 -4.73577567E-11 -8.22260292E-04 -1.81195144E-10  2.83578974E-11
  1.90741014E-02  3.65592775E-07 -5.61522153E-02 -8.76568923E-02 -2.28880378E-02
  5.71440195E-03 -8.13799161E-03  4.51526155E-12 -5.61597723E-02 -8.76704397E-02
 -2.28921090E-02  5.71370045E-03  8.13844228E-03  3.47232642E-11 -5.61522077E-02
 -8.76568896E-02 -2.28880325E-02 -5.71440497E-03  8.13799318E-03 -5.36783935E-11
 -5.61597647E-02 -8.76704370E-02 -2.28921038E-02 -5.71370347E-03 -8.13844384E-03
 -2.33888212E-11 -4.33380484E-10 -7.45330119E-10  2.07362113E-09 -3.92782008E-10
  1.88120072E-01  2.30408748E-09  2.99747763E-09 -6.10175228E-10  3.02746987E-01
  3.12079531E-09  2.94218525E-09 -3.22254599E-10  2.93372173E-01 -2.40892130E-09
 -7.60604722E-10  8.70783442E-11  8.67583741E-03  5.54662661E-11  1.17245205E-02
 -2.44336722E-07  1.10397453E-11  1.33340801E-11  9.76132856E-10  1.67623398E-09
 -1.02826179E-09  3.92475951E-10  1.88120230E-01 -5.47021094E-09 -1.96027718E-09
  6.09088804E-10  3.02747235E-01 -5.80337722E-09 -1.10283694E-09  3.21204975E-10
  2.93372345E-01  2.74375307E-09 -9.83694572E-10 -8.75101128E-11  8.67583628E-03
 -2.16289766E-10 -1.17245131E-02  2.44337112E-07 -2.05191802E-11  1.31334604E-11
 -5.48766918E-10 -9.05810784E-10  1.02291390E-10  8.27712709E-11 -1.44310143E-10
  1.22073620E-02 -6.57799780E-10 -1.27082661E-09 -2.67631494E-10  6.71547510E-11
  1.25791174E-10  1.22069734E-02  1.14619568E-09  1.52976286E-09  1.27260002E-10
 -1.75296645E-10 -1.35277015E-10  1.22073698E-02  1.03707139E-09  1.16416688E-09
 -2.44220576E-10 -1.59331477E-10  1.53141013E-10  1.22069812E-02  2.05173264E-10
  3.27790709E-10 -2.08741184E-09 -3.08657376E-10  2.07379673E-01 -8.81810172E-10
 -3.53816339E-09 -5.00128996E-10  3.28602926E-01 -1.37071450E-09 -3.21449501E-09
 -6.10512372E-10  3.54788102E-01  1.80789848E-09  1.75887765E-10 -8.01479820E-11
  5.28495331E-02 -5.52209285E-11 -1.40360821E-02 -2.41355536E-07  6.51820636E-13
 -1.68820047E-11 -9.57127989E-10 -1.65207415E-09  1.71355463E-09 -3.08309989E-10
 -2.07379597E-01  5.29553080E-09  3.15442729E-09 -5.00073671E-10 -3.28602810E-01
  8.23967468E-09  3.18671863E-09 -6.11846293E-10 -3.54787833E-01 -1.12958109E-09
  1.00806510E-09 -8.25080331E-11 -5.28494859E-02  2.39524509E-10 -1.40361073E-02
 -2.41355641E-07  1.05907252E-10  1.66282760E-11  1.85855976E-10  2.96150403E-10
  2.83597180E-11 -1.39364883E-10 -1.34389752E-11  1.67516833E-02  3.07271087E-10
  5.36354881E-10  2.04648431E-10 -1.41894306E-10 -5.29149984E-11  1.67511014E-02
 -1.43891151E-09 -2.53696143E-09 -1.23070936E-09  2.01928374E-10  1.78217562E-10
 -1.67516755E-02 -1.56033465E-09 -2.77821354E-09 -1.41200404E-09  1.99831195E-10
 -2.45199899E-10 -1.67510937E-02 -4.93321249E-02 -8.34598304E-02  1.96039578E-01
 -1.46252321E-06  1.17908728E-10  2.48692769E-01  2.96582650E-01 -3.62347473E-06
 -9.15256829E-11  5.78740693E-01  4.66776376E-01 -5.92767656E-06 -1.81240016E-10
  5.27313492E-01  3.02278177E-01 -2.59525140E-06 -4.25880248E-10  1.65625751E-02
 -2.18820967E-10 -1.86363993E-11 -2.04235889E-02 -5.11162467E-07  4.93321323E-02
  8.34598434E-02  1.96039559E-01 -1.46253194E-06 -1.55108336E-09 -2.48692887E-01
  2.96582592E-01 -3.62349245E-06 -2.99223243E-09 -5.78740606E-01  4.66776246E-01