Title Card Required                                                     
FOpt      UM062X                                                      6-311+G(d,p)        
Number of atoms                            I                4
Info1-9                                    I   N=           9
          14          14           0           0           0         100
           2          18        -502
Full Title                                 C   N=           2
Title Card Required     
Route                                      C   N=           8
#p opt UM062X/6-311+G** nosymm int=superfine SCF=(MaxCycle=2
00,NoVarAcc,noincfock) guess=read   
Charge                                     I                0
Multiplicity                               I                1
Number of electrons                        I               26
Number of alpha electrons                  I               13
Number of beta electrons                   I               13
Number of basis functions                  I               64
Number of independent functions            I               64
Number of point charges in /Mol/           I                0
Number of translation vectors              I                0
Atomic numbers                             I   N=           4
           8          16           1           1
Nuclear charges                            R   N=           4
  8.00000000E+00  1.60000000E+01  1.00000000E+00  1.00000000E+00
Current cartesian coordinates              R   N=          12
 -2.94987476E+00  0.00000000E+00  0.00000000E+00  2.94987476E+00  0.00000000E+00
  0.00000000E+00 -4.77867309E+00  9.70839861E-03 -6.75292470E-03  5.50072496E+00
 -3.05615570E-02  1.11608684E-02
Number of symbols in /Mol/                 I                0
Force Field                                I                0
Atom Types                                 C   N=           4
                                                
Int Atom Types                             I   N=           4
           0           0           0           0
MM charges                                 R   N=           4
  0.00000000E+00  0.00000000E+00  0.00000000E+00  0.00000000E+00
Integer atomic weights                     I   N=           4
          16          32           1           1
Real atomic weights                        R   N=           4
  1.59949146E+01  3.19720718E+01  1.00782504E+00  1.00782504E+00
Atom fragment info                         I   N=           4
           0           0           0           0
Atom residue num                           I   N=           4
           0           0           0           0
Nuclear spins                              I   N=           4
           0           0           1           1
Nuclear ZEff                               R   N=           4
 -5.60000000E+00 -1.36000000E+01 -1.00000000E+00 -1.00000000E+00
Nuclear ZNuc                               R   N=           4
  8.00000000E+00  1.60000000E+01  1.00000000E+00  1.00000000E+00
Nuclear QMom                               R   N=           4
  0.00000000E+00  0.00000000E+00  0.00000000E+00  0.00000000E+00
Nuclear GFac                               R   N=           4
  0.00000000E+00  0.00000000E+00  2.79284600E+00  2.79284600E+00
MicOpt                                     I   N=           4
          -2          -2          -1          -1
Number of residues                         I                0
Number of secondary structures             I                0
Redundant internal dimensions              I   N=           4
          12           8           4           0
Redundant internal coordinate indices      I   N=          48
           1          -1           0           0           1          -2
           0           0           1          -3           0           0
           2          -1           0           0           2          -2
           0           0           2          -3           0           0
           1           3           0           0           2           4
           0           0           2           1           3          -5
           1           2           4          -5           2           1
           3          -7           1           2           4          -7
Redundant internal coordinates             R   N=          12
 -2.94987476E+00  0.00000000E+00  0.00000000E+00  2.94987476E+00  0.00000000E+00
  0.00000000E+00  1.82883657E+00  2.55105769E+00  3.14690123E+00  3.15357301E+00
  3.14528518E+00  3.14596798E+00
ZRed-IntVec                                I   N=          12
          -1          -1          -1          -1          -1          -1
           0           0           0           0           0           0
ZRed-FPVec                                 R   N=          12
  0.00000000E+00  0.00000000E+00  0.00000000E+00  0.00000000E+00  0.00000000E+00
  0.00000000E+00  0.00000000E+00  0.00000000E+00  0.00000000E+00  0.00000000E+00
  0.00000000E+00  0.00000000E+00
ZRed-Constraint1                           R   N=          12
 -2.94987476E+00  0.00000000E+00  0.00000000E+00  2.94987476E+00  0.00000000E+00
  0.00000000E+00  1.83597177E+00  2.59721753E+00  3.14071774E+00  3.14233270E+00
  3.14159265E+00  3.14158686E+00
ZRed-Constraint2                           R   N=          12
 -2.94987476E+00  0.00000000E+00  0.00000000E+00  2.94987476E+00  0.00000000E+00
  0.00000000E+00  0.00000000E+00  0.00000000E+00  0.00000000E+00  0.00000000E+00
  0.00000000E+00  0.00000000E+00
Number of contracted shells                I               27
Number of primitive shells                 I               49
Pure/Cartesian d shells                    I                0
Pure/Cartesian f shells                    I                0
Highest angular momentum                   I                2
Largest degree of contraction              I                6
Shell types                                I   N=          27
           0          -1          -1          -1          -1          -2
           0           0           0           0           0           0
          -1           1           1           1           1           1
          -2           0           0           0           1           0
           0           0           1
Number of primitives per shell             I   N=          27
           6           3           1           1           1           1
           6           3           1           1           1           1
           1           4           2           1           1           1
           1           3           1           1           1           3
           1           1           1
Shell to atom map                          I   N=          27
           1           1           1           1           1           1
           2           2           2           2           2           2
           2           2           2           2           2           2
           2           3           3           3           3           4
           4           4           4
Primitive exponents                        R   N=          49
  8.58850000E+03  1.29723000E+03  2.99296000E+02  8.73771000E+01  2.56789000E+01
  3.74004000E+00  4.21175000E+01  9.62837000E+00  2.85332000E+00  9.05661000E-01
  2.55611000E-01  8.45000000E-02  1.29200000E+00  9.34134000E+04  1.39617000E+04
  3.16991000E+03  9.02456000E+02  2.97158000E+02  1.08702000E+02  1.08702000E+02
  4.31553000E+01  1.81079000E+01  5.56009000E+00  2.13183000E+00  4.20403000E-01
  1.36045000E-01  4.05000000E-02  4.95040000E+02  1.17221000E+02  3.77749000E+01
  1.40584000E+01  5.56574000E+00  2.26297000E+00  8.07994000E-01  2.77460000E-01
  7.71410000E-02  6.50000000E-01  3.38650000E+01  5.09479000E+00  1.15879000E+00
  3.25840000E-01  1.02741000E-01  7.50000000E-01  3.38650000E+01  5.09479000E+00
  1.15879000E+00  3.25840000E-01  1.02741000E-01  7.50000000E-01
Contraction coefficients                   R   N=          49
  1.89515008E-03  1.43859006E-02  7.07320031E-02  2.40001011E-01  5.94797026E-01
  2.80802012E-01  1.13889012E-01  9.20811101E-01 -3.27447036E-03  1.00000000E+00
  1.00000000E+00  1.00000000E+00  1.00000000E+00  7.42999957E-04  5.79299966E-03
  2.99539983E-02  1.19027993E-01  3.68431979E-01  5.77298966E-01  1.43186060E-01
  6.24465262E-01  2.83366119E-01  1.00000000E+00  1.00000000E+00  1.00000000E+00
  1.00000000E+00  1.00000000E+00  8.30900251E-03  6.40240194E-02  2.77614084E-01
  7.45076225E-01  6.13711672E-01  4.43817763E-01  1.00000000E+00  1.00000000E+00
  1.00000000E+00  1.00000000E+00  2.54938145E-02  1.90373109E-01  8.52161486E-01
  1.00000000E+00  1.00000000E+00  1.00000000E+00  2.54938145E-02  1.90373109E-01
  8.52161486E-01  1.00000000E+00  1.00000000E+00  1.00000000E+00
P(S=P) Contraction coefficients            R   N=          49
  0.00000000E+00  0.00000000E+00  0.00000000E+00  0.00000000E+00  0.00000000E+00
  0.00000000E+00  3.65113974E-02  2.37152983E-01  8.19701941E-01  1.00000000E+00
  1.00000000E+00  1.00000000E+00  0.00000000E+00  0.00000000E+00  0.00000000E+00
  0.00000000E+00  0.00000000E+00  0.00000000E+00  0.00000000E+00  0.00000000E+00
  0.00000000E+00  0.00000000E+00  0.00000000E+00  0.00000000E+00  0.00000000E+00
  0.00000000E+00  1.00000000E+00  0.00000000E+00  0.00000000E+00  0.00000000E+00
  0.00000000E+00  0.00000000E+00  0.00000000E+00  0.00000000E+00  0.00000000E+00
  0.00000000E+00  0.00000000E+00  0.00000000E+00  0.00000000E+00  0.00000000E+00
  0.00000000E+00  0.00000000E+00  0.00000000E+00  0.00000000E+00  0.00000000E+00
  0.00000000E+00  0.00000000E+00  0.00000000E+00  0.00000000E+00
Coordinates of each shell                  R   N=          81
 -2.94987476E+00  0.00000000E+00  0.00000000E+00 -2.94987476E+00  0.00000000E+00
  0.00000000E+00 -2.94987476E+00  0.00000000E+00  0.00000000E+00 -2.94987476E+00
  0.00000000E+00  0.00000000E+00 -2.94987476E+00  0.00000000E+00  0.00000000E+00
 -2.94987476E+00  0.00000000E+00  0.00000000E+00  2.94987476E+00  0.00000000E+00
  0.00000000E+00  2.94987476E+00  0.00000000E+00  0.00000000E+00  2.94987476E+00
  0.00000000E+00  0.00000000E+00  2.94987476E+00  0.00000000E+00  0.00000000E+00
  2.94987476E+00  0.00000000E+00  0.00000000E+00  2.94987476E+00  0.00000000E+00
  0.00000000E+00  2.94987476E+00  0.00000000E+00  0.00000000E+00  2.94987476E+00
  0.00000000E+00  0.00000000E+00  2.94987476E+00  0.00000000E+00  0.00000000E+00
  2.94987476E+00  0.00000000E+00  0.00000000E+00  2.94987476E+00  0.00000000E+00
  0.00000000E+00  2.94987476E+00  0.00000000E+00  0.00000000E+00  2.94987476E+00
  0.00000000E+00  0.00000000E+00 -4.77867309E+00  9.70839861E-03 -6.75292470E-03
 -4.77867309E+00  9.70839861E-03 -6.75292470E-03 -4.77867309E+00  9.70839861E-03
 -6.75292470E-03 -4.77867309E+00  9.70839861E-03 -6.75292470E-03  5.50072496E+00
 -3.05615570E-02  1.11608684E-02  5.50072496E+00 -3.05615570E-02  1.11608684E-02
  5.50072496E+00 -3.05615570E-02  1.11608684E-02  5.50072496E+00 -3.05615570E-02
  1.11608684E-02
Num ILSW                                   I              100
ILSW                                       I   N=         100
           1           0           0           0           0           0
           0           0           0           0        4336          -1
           7           0           0           0           0           0
           0           0           0           0           1           0
           1           1           0           0           0           0
           0           0      100000           0          -1           0
           0           0           0           0           0           0
           0           0           0           1           0           0
           0 -2000000000           1           0           0           0
           0           0           4          52           0           0
           0           0          55           0           0           0
           0           0           0           4           0           1
           0           0           0           0           0           0
           0           0           0           0           0           0
           0           0           0           0           0           0
           0           0           0           0           0           0
           0           0           0           0
Num RLSW                                   I               52
RLSW                                       R   N=          52
  1.00000000E+00  1.00000000E+00  1.00000000E+00  1.00000000E+00  5.40000000E-01
  0.00000000E+00  0.00000000E+00  1.00000000E+00  0.00000000E+00  0.00000000E+00
  0.00000000E+00  0.00000000E+00  1.00000000E+00  0.00000000E+00  0.00000000E+00
  0.00000000E+00  0.00000000E+00  1.00000000E+00  0.00000000E+00  0.00000000E+00
  0.00000000E+00  0.00000000E+00  1.00000000E+00  0.00000000E+00  0.00000000E+00
  0.00000000E+00  0.00000000E+00  1.00000000E+00  0.00000000E+00  0.00000000E+00
  0.00000000E+00  0.00000000E+00  1.00000000E+00  0.00000000E+00  0.00000000E+00
  0.00000000E+00  0.00000000E+00  0.00000000E+00  1.00000000E+00  1.00000000E+00
  0.00000000E+00  1.00000000E+00  0.00000000E+00  0.00000000E+00  0.00000000E+00
  0.00000000E+00  0.00000000E+00  0.00000000E+00  0.00000000E+00  0.00000000E+00
  0.00000000E+00  0.00000000E+00
MxBond                                     I                2
NBond                                      I   N=           4
           2           2           1           1
IBond                                      I   N=           8
           2           3           1           4           1           0
           2           0
RBond                                      R   N=           8
  1.00000000E-01  1.00000000E+00  1.00000000E-01  1.00000000E+00  1.00000000E+00
  0.00000000E+00  1.00000000E+00  0.00000000E+00
Virial Ratio                               R      2.001313171510417E+00
SCF Energy                                 R     -4.743389604061417E+02
Total Energy                               R     -4.743389604061417E+02
S**2                                       R      3.357314426466473E-13
S**2 after annihilation                    R     -3.144151605739005E-13
RMS Force                                  R      7.797399717519460E-05
RMS Density                                R      1.369591753009525E-09
Job Status                                 I                3
Nuclear derivative order                   I                1
External E-field                           R   N=          35
  0.00000000E+00  0.00000000E+00  0.00000000E+00  0.00000000E+00  0.00000000E+00
  0.00000000E+00  0.00000000E+00  0.00000000E+00  0.00000000E+00  0.00000000E+00
  0.00000000E+00  0.00000000E+00  0.00000000E+00  0.00000000E+00  0.00000000E+00
  0.00000000E+00  0.00000000E+00  0.00000000E+00  0.00000000E+00  0.00000000E+00
  0.00000000E+00  0.00000000E+00  0.00000000E+00  0.00000000E+00  0.00000000E+00
  0.00000000E+00  0.00000000E+00  0.00000000E+00  0.00000000E+00  0.00000000E+00
  0.00000000E+00  0.00000000E+00  0.00000000E+00  0.00000000E+00  0.00000000E+00
IOpCl                                      I                1
IROHF                                      I                0
Alpha Orbital Energies                     R   N=          64
 -8.99631884E+01 -1.96422383E+01 -8.32548649E+00 -6.24721208E+00 -6.24399197E+00
 -6.23805296E+00 -1.06303188E+00 -8.26840643E-01 -5.15282723E-01 -4.76063793E-01
 -3.77804658E-01 -3.45731899E-01 -3.08754662E-01 -2.31467269E-01  1.65621035E-02
  5.21110842E-02  5.59688863E-02  5.91514237E-02  7.62350791E-02  1.28898524E-01
  2.01422162E-01  2.06887066E-01  2.39696229E-01  3.06613068E-01  3.39099256E-01
  3.48572943E-01  3.92148395E-01  4.35305228E-01  5.67277593E-01  6.29520278E-01
  7.11392029E-01  7.30984946E-01  7.89790651E-01  7.95633832E-01  9.81892193E-01
  1.07986254E+00  1.08826750E+00  1.09840964E+00  1.40665238E+00  1.41330000E+00
  1.45048264E+00  1.45997152E+00  1.46493821E+00  1.67166822E+00  1.67446011E+00
  1.69559559E+00  2.08926864E+00  2.09523798E+00  2.49520331E+00  2.53293170E+00
  2.89818014E+00  2.90735795E+00  3.18678094E+00  3.20875192E+00  3.87267711E+00
  5.03496719E+00  5.07007508E+00  5.59188119E+00  7.84312770E+00  1.74205137E+01
  1.74206442E+01  1.74921667E+01  4.99116228E+01  1.89106365E+02
Beta Orbital Energies                      R   N=          64
 -8.99631885E+01 -1.96422383E+01 -8.32548650E+00 -6.24721213E+00 -6.24399198E+00
 -6.23805296E+00 -1.06303178E+00 -8.26840716E-01 -5.15282680E-01 -4.76063811E-01
 -3.77804492E-01 -3.45731904E-01 -3.08754520E-01 -2.31467308E-01  1.65621296E-02
  5.21111070E-02  5.59688970E-02  5.91514327E-02  7.62350784E-02  1.28898519E-01
  2.01422118E-01  2.06887052E-01  2.39696214E-01  3.06613057E-01  3.39099290E-01
  3.48572952E-01  3.92148390E-01  4.35305268E-01  5.67277609E-01  6.29520228E-01
  7.11391961E-01  7.30984871E-01  7.89790581E-01  7.95633707E-01  9.81892153E-01
  1.07986256E+00  1.08826758E+00  1.09840966E+00  1.40665241E+00  1.41330003E+00
  1.45048260E+00  1.45997150E+00  1.46493825E+00  1.67166793E+00  1.67446010E+00
  1.69559554E+00  2.08926861E+00  2.09523799E+00  2.49520332E+00  2.53293168E+00
  2.89818023E+00  2.90735808E+00  3.18678105E+00  3.20875198E+00  3.87267717E+00
  5.03496737E+00  5.07007513E+00  5.59188125E+00  7.84312769E+00  1.74205138E+01
  1.74206440E+01  1.74921667E+01  4.99116228E+01  1.89106365E+02
Alpha MO coefficients                      R   N=        4096
 -5.85972115E-07  3.13590898E-06  3.33463113E-06  3.71848348E-08 -1.68183424E-08
 -1.63180777E-05 -7.92372995E-06 -1.42575080E-07  5.81960551E-08  3.35854611E-05
  7.33527031E-06  3.17004777E-07 -1.25232160E-07 -3.18957430E-04  1.21792425E-04
 -1.34487042E-06  7.28454149E-07  1.00567551E-06 -1.90418571E-08  3.58541823E-08
 -1.81227230E-06  2.25272596E-08  4.10785957E-01  6.54411535E-01  1.53526926E-02
 -4.35227674E-03  1.62808517E-03 -9.70801821E-04  1.72141637E-04 -8.52610190E-05
  1.60050582E-07 -6.74747243E-08  8.35509497E-05 -1.24625863E-06  1.48212770E-07
 -2.64709836E-05  3.68819094E-07 -5.66625234E-08 -8.23562813E-06  9.05612468E-08
 -8.97881915E-08  1.81761804E-04 -2.25816855E-06  8.67804493E-07 -1.51575654E-04
  2.55306589E-06 -9.80958963E-07 -4.82594251E-05  7.57437487E-07  3.98597766E-06
  7.56690634E-05 -1.83642421E-06 -1.59942542E-06 -1.80905436E-06  2.61389796E-04
  7.00857946E-06 -2.85747184E-08  3.25454224E-08  3.68921122E-05 -2.54125208E-04
  3.56409020E-04  1.71428424E-04 -2.06334213E-06  7.56228589E-07  5.52857554E-01
  4.69671817E-01 -1.23459579E-03  1.11669372E-05 -3.22285826E-06  8.10736420E-03
  1.94168547E-04 -2.14984819E-06 -2.66248555E-07 -3.15331102E-03 -5.84951413E-04
  1.64981909E-06 -6.47325873E-07  1.28447733E-03  1.46148892E-03 -1.92004317E-06
  1.70253640E-06 -7.02690451E-05  9.16981727E-07 -1.82453616E-05  1.57717843E-04
 -1.48659454E-06 -1.65365202E-07  2.39593934E-06 -1.98234721E-05  4.44794653E-05
 -1.06634784E-04  4.40247945E-04 -3.85021132E-04  4.38712306E-04 -4.26143714E-07
  8.18129527E-08 -4.94305701E-07  1.55550455E-09  5.59187911E-09  2.06454943E-06
  5.56911285E-08  4.12221271E-09 -1.91390978E-05 -1.48547652E-07 -7.77788561E-09
  5.20292218E-05  5.97864644E-08  2.78059830E-08  8.78310879E-04 -5.99271843E-06
  2.02096580E-06  1.31031680E-05  3.43340185E-07 -1.62058178E-06 -1.95061035E-05
 -9.07904329E-07  7.28835410E-05 -3.15322577E-04  1.10240881E-03 -4.73803938E-04
  2.28744760E-06 -1.45928086E-06 -1.95339339E-05  8.34185816E-05 -9.90152618E-04
  3.08749235E-05 -1.15691574E-06  4.34636105E-07  5.78878004E-06  3.02693765E-05
  3.29584096E-05  4.96100287E-07 -1.13354331E-07 -2.34528236E-04 -1.09821558E-04
 -1.28904264E-06  8.45832743E-07  5.00654985E-04  1.89764640E-04  4.07029669E-06
 -1.72658075E-06 -4.37772160E-03  1.58695853E-03 -1.77469501E-05  1.01999126E-05
  1.14493434E-05 -2.09420945E-07 -1.93629478E-06 -1.60001608E-05  3.04547085E-07
 -1.19755618E-01 -3.20470602E-01  5.15975565E-01  5.98937916E-01  4.32014626E-02
 -1.58492935E-02  2.88151288E-03 -1.26416036E-03  2.77024633E-06 -1.17441553E-06
  2.10469258E-03 -3.38024331E-05  2.24034097E-06  4.76507295E-03 -7.69330637E-05
  4.90645386E-06  4.51236243E-04 -8.23957916E-06 -8.39683948E-07  1.94773453E-03
 -2.39760841E-05  9.97965172E-06 -1.83998987E-03  3.23374099E-05 -1.27067121E-05
 -8.80390261E-04  1.52504987E-05  4.26445440E-04  6.80055359E-04 -1.75104742E-05
 -2.01543427E-05  2.98560354E-05  3.47023587E-03  8.37520298E-05 -4.78601972E-07
  4.51781614E-07  2.77214963E-04 -2.55301654E-03  4.61813871E-03  1.64744417E-03
 -1.99991590E-05  7.19740870E-06  6.27344413E-09  1.04218118E-07 -6.67107172E-08
 -7.14301241E-06 -2.98161819E-06 -1.33781536E-06  8.30200944E-08  4.85068890E-05
  2.02567534E-05  3.63730895E-06  2.54036406E-06 -1.26322746E-04 -5.27488837E-05
 -1.09240794E-05  1.26713247E-05  1.03248435E-04  4.31403341E-05 -1.26858080E-07
 -2.18718773E-06  2.55255475E-08  2.47430821E-07 -5.23698286E-06 -2.54216723E-06
 -7.01008657E-06  1.34424954E-05  9.26326283E-06  8.08746494E-07  4.54991156E-06
  1.91909365E-06 -2.99004559E-05 -2.15427579E-03 -8.99857436E-04  4.30950446E-03
  3.49539741E-01  1.45986085E-01  8.06455737E-03  6.54178537E-01  2.73219297E-01
  6.25956800E-04  5.06552542E-02  2.11557208E-02 -8.74872830E-05 -6.92276981E-03
 -2.89160744E-03  6.66090236E-05  4.04366269E-03  1.68913018E-03  7.20317949E-07
  2.28199631E-04 -2.86270805E-06  1.61557508E-05  5.47448081E-04  2.76171686E-08
  6.02926772E-07  1.38344212E-05  1.74437136E-08  2.24710417E-05  9.39572882E-06
  1.11447808E-06  7.78326814E-08 -1.33309748E-05  2.69283152E-06  6.62657503E-05
  2.77800729E-05  1.06258052E-07  3.83764661E-06 -1.04424403E-05 -9.44208766E-08
  8.71702492E-09 -5.47695606E-05  1.88421100E-05  1.91258475E-08 -1.48951049E-07
  8.82991244E-05  1.13639218E-04 -8.66056250E-08  6.52039738E-08 -8.11605594E-04
  1.69116742E-03 -1.53641891E-06  1.95160908E-06 -1.42576015E-05 -9.66814932E-09
  6.52643474E-07  2.34014025E-05  5.92052292E-08  8.26059274E-04  2.23542963E-03
 -3.95733832E-03 -4.00476674E-03  6.96249677E-04  8.08266667E-04  3.89318010E-04
 -2.23636678E-03  2.70420522E-05 -6.71369815E-06  3.79367651E-01 -5.24642710E-03
  1.36386734E-03  7.08810435E-01 -9.80333029E-03  2.54807832E-03  5.41200950E-02
 -7.46567404E-04  1.94552568E-04 -7.42172864E-03  9.81817711E-05 -2.53245092E-05
  6.37532782E-03 -6.94908469E-05  1.90153476E-05 -4.06383162E-04  4.63504789E-06
  2.54699354E-05  6.51862562E-04 -1.98441708E-05  1.32153565E-05 -3.28253620E-05
  1.71426178E-03 -8.43462872E-06 -1.28495452E-06  6.97436791E-07  5.41054168E-04
  2.52766240E-04 -2.57972691E-03  6.43825428E-04 -8.23994827E-06  3.30411920E-06
 -1.05292889E-08 -9.04374396E-08  7.45099113E-08  3.75116516E-06 -8.98349061E-06
  1.01779401E-06 -1.43203121E-07 -1.74109282E-05  4.16952760E-05 -2.46250894E-06
 -2.00812050E-06  5.06000919E-05 -1.21173699E-04  9.76806879E-06 -9.73357055E-06
 -4.01601592E-05  9.61974618E-05  8.38633477E-08 -5.61097231E-06 -3.09478824E-08
 -1.01383355E-07  2.34188992E-06 -1.21749997E-06 -3.31930764E-06  6.06874550E-06
  5.30228112E-06 -4.62901073E-07 -1.22499308E-06 -1.35951775E-06  2.18013961E-05
  8.29281386E-04 -1.98643196E-03 -3.28752191E-03 -1.46501096E-01  3.50870279E-01
 -6.13133546E-03 -2.73236313E-01  6.54401538E-01 -4.50279149E-04 -2.00354718E-02
  4.79836286E-02  6.35424221E-05  2.69256031E-03 -6.44946198E-03 -4.70054643E-05
 -1.55854991E-03  3.73338717E-03  1.03484808E-06  4.50092367E-04 -7.48554969E-06
 -6.76816919E-06 -1.88372506E-04 -4.84299565E-09 -8.64256158E-07 -1.15734556E-05
 -2.90858999E-07 -8.80212116E-06  2.10973433E-05  4.82423444E-08 -1.53495150E-06
  8.15403612E-06 -2.62020454E-07 -3.45255870E-05  8.28796677E-05 -1.18323268E-01
 -1.95005388E-01 -4.62322693E-02  2.74185162E-04 -1.73673250E-04  5.70491873E-01
 -7.48615050E-02  4.56366083E-04 -2.68025329E-04  4.20848251E-01 -1.96172427E-02
  1.68749145E-04 -1.10558898E-04  2.02042488E-03 -2.16214146E-02  2.70730800E-05
 -2.75544551E-05 -7.65401469E-03  9.32342563E-05  3.13368261E-03  7.06862310E-03
 -7.77821292E-05  1.57493439E-04  4.41670790E-04 -8.79380794E-04 -1.84130298E-03
  3.65087823E-03 -4.37360464E-03  4.23885952E-03 -5.69397388E-03  8.92987448E-06
 -1.21394767E-06  3.14162706E-04  2.28850039E-06  7.85889489E-07  5.32938217E-04
  4.52405226E-06  1.48068262E-06 -1.64753470E-04 -7.50245381E-06 -1.49268677E-06
 -2.80473630E-03 -9.38431990E-06 -7.36081208E-06 -1.46909661E-02  9.05560201E-05
 -3.54276381E-05 -3.30015659E-04 -2.72057042E-06 -1.81041276E-04  9.29421035E-04
  7.14165340E-06  1.10858835E-01  9.66019252E-02 -1.64916171E-02  2.64771938E-02
 -1.40824348E-04  9.69297659E-05  1.89267463E-04 -4.01294671E-04  1.53334432E-02
 -3.94012196E-04  1.04084442E-05 -3.68306459E-06  6.16943718E-04  9.75118826E-04
  3.26767658E-03  2.48691964E-05  1.69318309E-05 -2.14097569E-03  5.40900210E-03
  4.37275823E-05  2.32141990E-05 -5.15043039E-03  1.30529447E-03  2.40333670E-05
  2.77804233E-05  1.64340488E-02 -2.80879337E-03  8.63640187E-05 -3.18850738E-05
  1.30709489E-04 -1.60285318E-06 -1.18674478E-04  8.05373211E-06  1.99805209E-06
  3.32585109E-02  9.45016285E-02 -1.98267109E-01 -3.67088087E-01  6.63996665E-01
  4.11566245E-01 -1.32083455E-02  6.80351371E-03 -4.39664601E-05  1.14348350E-05
 -1.78094447E-02  2.16976181E-04 -6.91393129E-05 -3.54844160E-02  4.34538653E-04
 -1.37176261E-04  4.84039973E-02 -6.01769058E-04  1.88478643E-04  6.98305657E-02
 -8.47237400E-04  2.46834810E-04  1.43943951E-02 -1.46116235E-04  5.62775306E-05
 -1.74382265E-02  2.96466455E-04  7.94422036E-03  1.44669544E-02 -3.88566195E-04
 -2.51398700E-03 -3.04128765E-03 -1.02198247E-02 -5.96518360E-04  5.56859170E-06
 -2.73520304E-06  1.01779321E-01  1.36231403E-01 -2.63544076E-03 -2.31376881E-02
  2.75577255E-04 -1.00311518E-04 -3.38168669E-02 -5.65698671E-02  2.25905951E-01
 -1.21238177E-03  6.94362377E-04  1.70797822E-01  3.24738371E-01 -1.73702947E-03
  1.00646158E-03  2.49323438E-01  2.31785272E-01 -1.18352274E-03  6.46113582E-04
  6.59371126E-02  4.21951749E-03 -1.29896384E-04  1.68361218E-05  7.64834279E-03
 -9.42245340E-05  8.16253477E-04 -1.48571218E-02  1.88984186E-04  4.12734282E-03
  1.17857631E-02 -2.52870654E-02 -4.64143413E-02  8.48272235E-02  9.86498407E-02
  1.04260255E-02  7.08687026E-03 -8.36545333E-05  3.06006034E-05  3.37044761E-02
 -3.29987982E-04  1.05873869E-04  6.55664032E-02 -6.43470804E-04  2.07496072E-04
 -9.37646083E-02  9.39985337E-04 -2.96132261E-04 -1.68348538E-01  1.57467395E-03
 -4.98411473E-04 -5.69449295E-02  4.54880270E-04 -1.29595807E-04  7.70039566E-03
 -1.24975285E-04  1.00889628E-03 -1.53224088E-02  4.61529692E-04 -1.50700831E-01
 -2.21785422E-01 -9.77897126E-02 -2.49608791E-02  1.23890044E-04 -9.92875414E-05
 -6.29516992E-02 -1.11799349E-01 -3.84878559E-02  1.05695332E-02 -1.29090389E-04
  5.28509244E-05 -1.90749801E-02 -3.20518938E-02  1.07135723E-01 -8.75347327E-04
  5.21755300E-04  9.93355047E-02  1.54459801E-01 -1.25581219E-03  7.55404064E-04
  1.28083729E-01  1.01536447E-01 -1.00445674E-03  5.40732096E-04  1.41987089E-02
  6.89312522E-02 -2.04975143E-04  1.67889706E-04  3.93612580E-03 -5.00855809E-05
  5.82806704E-04 -7.96718169E-03  9.76219322E-05 -1.24098165E-02 -3.54415819E-02
  7.60548424E-02  1.39914496E-01 -2.60706776E-01 -2.90684112E-01 -3.30367318E-02
 -1.72823656E-02  2.40080138E-04 -1.02514383E-04 -7.43776474E-02  9.81887840E-04
 -3.66121338E-04 -1.45216834E-01  1.91023093E-03 -7.12819388E-04  2.14282524E-01
 -2.78154580E-03  1.03924605E-03  3.57467763E-01 -4.89697663E-03  1.83400388E-03
  1.22819067E-01 -1.44906346E-03  5.25738825E-04 -2.32370849E-02  2.87495215E-04
 -3.97559134E-03  4.80859617E-02 -1.09979335E-03 -7.14315166E-02 -1.17905552E-01
  1.91032823E-02 -1.15039390E-02  2.76548350E-05 -2.36171707E-05  1.44832583E-01
  2.75917889E-01  1.17806481E-01 -2.47653431E-02  2.85341964E-04 -1.04515586E-04
  5.71697517E-07  1.93297633E-06 -1.65572255E-03 -1.15417294E-01  2.76155032E-01
 -2.01473642E-05 -2.43917371E-03 -1.69214134E-01  4.04873499E-01  1.27692868E-04
 -2.11539668E-03 -1.54887734E-01  3.70594696E-01  4.29667405E-04 -1.65154335E-03
 -3.67743579E-02  8.79908673E-02 -7.34871148E-05 -1.25133048E-02  1.12372873E-04
  1.16241041E-04  5.22940582E-03  2.45713779E-05  7.02505470E-05 -1.51369247E-04
 -2.78493862E-04  5.32140664E-04  4.67025417E-04  1.01335901E-04  2.05876033E-04
  1.65974679E-03 -3.97729075E-03  1.94047659E-04  4.84989769E-03 -1.16190196E-02
  3.81759511E-04  9.29465197E-03 -2.22673445E-02 -6.08181034E-04 -1.32850713E-02
  3.18273540E-02 -8.54031075E-04 -2.90999493E-02  6.97129008E-02 -1.39896454E-03
 -1.31968244E-02  3.16243224E-02  6.10954069E-05  2.12240971E-05 -2.14076847E-05
 -1.41790418E-04 -7.05970101E-06  1.93924292E-05  1.40429790E-04 -1.24811285E-03
 -1.90731498E-04 -1.36715856E-02  3.27116032E-02 -2.15129625E-04 -5.62533032E-04
  3.91308132E-04  2.50216251E-05 -9.17632558E-04  2.19709279E-03  8.75416846E-05
  1.50070022E-04 -8.85921471E-05  1.62636513E-02 -3.88469825E-02 -5.13210003E-04
 -1.65443513E-04  2.40453907E-02 -5.74339895E-02 -3.99476903E-04  3.45422004E-04
  2.12641159E-02 -5.07828559E-02  1.39508915E-03 -2.81104951E-03  8.79730687E-03
 -2.10191571E-02 -9.44008944E-07  2.20252971E-03 -1.82252726E-05  1.05068821E-05
 -9.21694752E-04  1.00805210E-05  2.85500143E-05 -5.91740807E-05 -1.25429655E-04
  3.10364400E-04 -3.41726468E-04  1.35742321E-04  5.06023292E-04  2.12132352E-02
 -5.08045611E-02  9.06775186E-04  3.94582926E-02 -9.45097027E-02  1.75382205E-03
  7.60258016E-02 -1.82092987E-01 -2.62450859E-03 -1.11839651E-01  2.67862655E-01
 -5.06713925E-03 -2.30723712E-01  5.52649010E-01 -4.84986692E-03 -1.27798726E-01
  3.06123479E-01  9.78909350E-05  1.86334784E-02 -2.54993975E-04 -2.97631811E-04
 -7.78470906E-03  2.13322806E-04  7.85882796E-04 -3.20610659E-03  7.07209074E-05
  2.02129308E-03 -4.82948572E-03 -3.48878766E-05 -2.07213832E-04  1.49591113E-03
 -1.82736562E-04 -8.62937698E-03  2.06690764E-02 -5.49935861E-05 -9.41219637E-05
 -6.58280705E-04 -2.05888815E-01 -8.60569214E-02  3.18825035E-04 -9.88155382E-04