Title Card Required                                                     
FOpt      UM062X                                                      6-311+G(d,p)        
Number of atoms                            I                4
Info1-9                                    I   N=           9
          13          13           0           0           0         110
           2          18        -502
Full Title                                 C   N=           2
Title Card Required     
Route                                      C   N=           4
#p opt UM062X/6-311+G** nosymm int=superfine    
Charge                                     I                1
Multiplicity                               I                2
Number of electrons                        I               13
Number of alpha electrons                  I                7
Number of beta electrons                   I                6
Number of basis functions                  I               56
Number of independent functions            I               56
Number of point charges in /Mol/           I                0
Number of translation vectors              I                0
Atomic numbers                             I   N=           4
           6           6           1           1
Nuclear charges                            R   N=           4
  6.00000000E+00  6.00000000E+00  1.00000000E+00  1.00000000E+00
Current cartesian coordinates              R   N=          12
 -2.42293125E+00  0.00000000E+00  0.00000000E+00  2.42293125E+00  0.00000000E+00
  0.00000000E+00 -4.54611485E+00 -1.35984489E-06  1.11038686E-06  4.54611461E+00
 -1.06008433E-06  8.18734455E-07
Number of symbols in /Mol/                 I                0
Force Field                                I                0
Atom Types                                 C   N=           4
                                                
Int Atom Types                             I   N=           4
           0           0           0           0
MM charges                                 R   N=           4
  0.00000000E+00  0.00000000E+00  0.00000000E+00  0.00000000E+00
Integer atomic weights                     I   N=           4
          12          12           1           1
Real atomic weights                        R   N=           4
  1.20000000E+01  1.20000000E+01  1.00782504E+00  1.00782504E+00
Atom fragment info                         I   N=           4
           0           0           0           0
Atom residue num                           I   N=           4
           0           0           0           0
Nuclear spins                              I   N=           4
           0           0           1           1
Nuclear ZEff                               R   N=           4
 -3.60000000E+00 -3.60000000E+00 -1.00000000E+00 -1.00000000E+00
Nuclear ZNuc                               R   N=           4
  6.00000000E+00  6.00000000E+00  1.00000000E+00  1.00000000E+00
Nuclear QMom                               R   N=           4
  0.00000000E+00  0.00000000E+00  0.00000000E+00  0.00000000E+00
Nuclear GFac                               R   N=           4
  0.00000000E+00  0.00000000E+00  2.79284600E+00  2.79284600E+00
MicOpt                                     I   N=           4
          -2          -2          -1          -1
Number of residues                         I                0
Number of secondary structures             I                0
Redundant internal dimensions              I   N=           4
          12           8           4           0
Redundant internal coordinate indices      I   N=          48
           1          -1           0           0           1          -2
           0           0           1          -3           0           0
           2          -1           0           0           2          -2
           0           0           2          -3           0           0
           1           3           0           0           2           4
           0           0           2           1           3          -4
           1           2           4          -4           2           1
           3          -8           1           2           4          -8
Redundant internal coordinates             R   N=          12
 -2.42293125E+00  0.00000000E+00  0.00000000E+00  2.42293125E+00  0.00000000E+00
  0.00000000E+00  2.12318360E+00  2.12318336E+00  3.14159213E+00  3.14159304E+00
  3.14159201E+00  3.14159315E+00
ZRed-IntVec                                I   N=          12
          -1          -1          -1          -1          -1          -1
           0           0           0           0           0           0
ZRed-FPVec                                 R   N=          12
  0.00000000E+00  0.00000000E+00  0.00000000E+00  0.00000000E+00  0.00000000E+00
  0.00000000E+00  0.00000000E+00  0.00000000E+00  0.00000000E+00  0.00000000E+00
  0.00000000E+00  0.00000000E+00
ZRed-Constraint1                           R   N=          12
 -2.42293125E+00  0.00000000E+00  0.00000000E+00  2.42293125E+00  0.00000000E+00
  0.00000000E+00  2.08057524E+00  2.08053366E+00  3.14159263E+00  3.14159265E+00
  3.14159263E+00  3.14159265E+00
ZRed-Constraint2                           R   N=          12
 -2.42293125E+00  0.00000000E+00  0.00000000E+00  2.42293125E+00  0.00000000E+00
  0.00000000E+00  0.00000000E+00  0.00000000E+00  0.00000000E+00  0.00000000E+00
  0.00000000E+00  0.00000000E+00
Number of contracted shells                I               20
Number of primitive shells                 I               38
Pure/Cartesian d shells                    I                0
Pure/Cartesian f shells                    I                0
Highest angular momentum                   I                2
Largest degree of contraction              I                6
Shell types                                I   N=          20
           0          -1          -1          -1          -1          -2
           0          -1          -1          -1          -1          -2
           0           0           0           1           0           0
           0           1
Number of primitives per shell             I   N=          20
           6           3           1           1           1           1
           6           3           1           1           1           1
           3           1           1           1           3           1
           1           1
Shell to atom map                          I   N=          20
           1           1           1           1           1           1
           2           2           2           2           2           2
           3           3           3           3           4           4
           4           4
Primitive exponents                        R   N=          38
  4.56324000E+03  6.82024000E+02  1.54973000E+02  4.44553000E+01  1.30290000E+01
  1.82773000E+00  2.09642000E+01  4.80331000E+00  1.45933000E+00  4.83456000E-01
  1.45585000E-01  4.38000000E-02  6.26000000E-01  4.56324000E+03  6.82024000E+02
  1.54973000E+02  4.44553000E+01  1.30290000E+01  1.82773000E+00  2.09642000E+01
  4.80331000E+00  1.45933000E+00  4.83456000E-01  1.45585000E-01  4.38000000E-02
  6.26000000E-01  3.38650000E+01  5.09479000E+00  1.15879000E+00  3.25840000E-01
  1.02741000E-01  7.50000000E-01  3.38650000E+01  5.09479000E+00  1.15879000E+00
  3.25840000E-01  1.02741000E-01  7.50000000E-01
Contraction coefficients                   R   N=          38
  1.96665025E-03  1.52306019E-02  7.61269097E-02  2.60801033E-01  6.16462078E-01
  2.21006028E-01  1.14660081E-01  9.19999648E-01 -3.03068213E-03  1.00000000E+00
  1.00000000E+00  1.00000000E+00  1.00000000E+00  1.96665025E-03  1.52306019E-02
  7.61269097E-02  2.60801033E-01  6.16462078E-01  2.21006028E-01  1.14660081E-01
  9.19999648E-01 -3.03068213E-03  1.00000000E+00  1.00000000E+00  1.00000000E+00
  1.00000000E+00  2.54938145E-02  1.90373109E-01  8.52161486E-01  1.00000000E+00
  1.00000000E+00  1.00000000E+00  2.54938145E-02  1.90373109E-01  8.52161486E-01
  1.00000000E+00  1.00000000E+00  1.00000000E+00
P(S=P) Contraction coefficients            R   N=          38
  0.00000000E+00  0.00000000E+00  0.00000000E+00  0.00000000E+00  0.00000000E+00
  0.00000000E+00  4.02486927E-02  2.37593957E-01  8.15853851E-01  1.00000000E+00
  1.00000000E+00  1.00000000E+00  0.00000000E+00  0.00000000E+00  0.00000000E+00
  0.00000000E+00  0.00000000E+00  0.00000000E+00  0.00000000E+00  4.02486927E-02
  2.37593957E-01  8.15853851E-01  1.00000000E+00  1.00000000E+00  1.00000000E+00
  0.00000000E+00  0.00000000E+00  0.00000000E+00  0.00000000E+00  0.00000000E+00
  0.00000000E+00  0.00000000E+00  0.00000000E+00  0.00000000E+00  0.00000000E+00
  0.00000000E+00  0.00000000E+00  0.00000000E+00
Coordinates of each shell                  R   N=          60
 -2.42293125E+00  0.00000000E+00  0.00000000E+00 -2.42293125E+00  0.00000000E+00
  0.00000000E+00 -2.42293125E+00  0.00000000E+00  0.00000000E+00 -2.42293125E+00
  0.00000000E+00  0.00000000E+00 -2.42293125E+00  0.00000000E+00  0.00000000E+00
 -2.42293125E+00  0.00000000E+00  0.00000000E+00  2.42293125E+00  0.00000000E+00
  0.00000000E+00  2.42293125E+00  0.00000000E+00  0.00000000E+00  2.42293125E+00
  0.00000000E+00  0.00000000E+00  2.42293125E+00  0.00000000E+00  0.00000000E+00
  2.42293125E+00  0.00000000E+00  0.00000000E+00  2.42293125E+00  0.00000000E+00
  0.00000000E+00 -4.54611485E+00 -1.35984489E-06  1.11038686E-06 -4.54611485E+00
 -1.35984489E-06  1.11038686E-06 -4.54611485E+00 -1.35984489E-06  1.11038686E-06
 -4.54611485E+00 -1.35984489E-06  1.11038686E-06  4.54611461E+00 -1.06008433E-06
  8.18734455E-07  4.54611461E+00 -1.06008433E-06  8.18734455E-07  4.54611461E+00
 -1.06008433E-06  8.18734455E-07  4.54611461E+00 -1.06008433E-06  8.18734455E-07
Num ILSW                                   I              100
ILSW                                       I   N=         100
           1           0           0           1           2           0
           0           0           0           0        4336          -1
           7           0           0           0           2           0
           0           0           0           0           1           0
           1           1           0           0           0           0
           0           0      100000           0          -1           0
           0           0           0           0           0           0
           0           0           0           1           0           0
           0 -2000000000           1           0           0           0
           0           0           4          52           0           0
           0           0          55           0           0           0
           0           0           0           4           0           1
           0           0           0           0           0           0
           0           0           0           0           0           0
           0           0           0           0           0           0
           0           0           0           0           0           0
           0           0           0           0
Num RLSW                                   I               52
RLSW                                       R   N=          52
  1.00000000E+00  1.00000000E+00  1.00000000E+00  1.00000000E+00  5.40000000E-01
  0.00000000E+00  0.00000000E+00  1.00000000E+00  0.00000000E+00  0.00000000E+00
  0.00000000E+00  0.00000000E+00  1.00000000E+00  0.00000000E+00  0.00000000E+00
  0.00000000E+00  0.00000000E+00  1.00000000E+00  0.00000000E+00  0.00000000E+00
  0.00000000E+00  0.00000000E+00  1.00000000E+00  0.00000000E+00  0.00000000E+00
  0.00000000E+00  0.00000000E+00  1.00000000E+00  0.00000000E+00  0.00000000E+00
  0.00000000E+00  0.00000000E+00  1.00000000E+00  0.00000000E+00  0.00000000E+00
  0.00000000E+00  0.00000000E+00  0.00000000E+00  1.00000000E+00  1.00000000E+00
  0.00000000E+00  1.00000000E+00  0.00000000E+00  0.00000000E+00  0.00000000E+00
  0.00000000E+00  0.00000000E+00  0.00000000E+00  0.00000000E+00  0.00000000E+00
  0.00000000E+00  0.00000000E+00
MxBond                                     I                2
NBond                                      I   N=           4
           2           2           1           1
IBond                                      I   N=           8
           2           3           1           4           1           0
           2           0
RBond                                      R   N=           8
  1.00000000E-01  1.00000000E+00  1.00000000E-01  1.00000000E+00  1.00000000E+00
  0.00000000E+00  1.00000000E+00  0.00000000E+00
Virial Ratio                               R      2.001660148344592E+00
SCF Energy                                 R     -7.657930537250371E+01
Total Energy                               R     -7.657930537250371E+01
S**2                                       R      7.509880454803781E-01
S**2 after annihilation                    R      7.500007104808992E-01
RMS Force                                  R      1.343154366341760E-07
RMS Density                                R      6.178538400554994E-09
Job Status                                 I                1
Nuclear derivative order                   I                1
External E-field                           R   N=          35
  0.00000000E+00  0.00000000E+00  0.00000000E+00  0.00000000E+00  0.00000000E+00
  0.00000000E+00  0.00000000E+00  0.00000000E+00  0.00000000E+00  0.00000000E+00
  0.00000000E+00  0.00000000E+00  0.00000000E+00  0.00000000E+00  0.00000000E+00
  0.00000000E+00  0.00000000E+00  0.00000000E+00  0.00000000E+00  0.00000000E+00
  0.00000000E+00  0.00000000E+00  0.00000000E+00  0.00000000E+00  0.00000000E+00
  0.00000000E+00  0.00000000E+00  0.00000000E+00  0.00000000E+00  0.00000000E+00
  0.00000000E+00  0.00000000E+00  0.00000000E+00  0.00000000E+00  0.00000000E+00
IOpCl                                      I                1
IROHF                                      I                0
Alpha Orbital Energies                     R   N=          56
 -1.09547149E+01 -1.09546936E+01 -9.98382890E-01 -9.84950316E-01 -6.97782232E-01
 -5.95250674E-01 -5.20503747E-01 -3.92561983E-01 -3.59863705E-01 -3.32869617E-01
 -1.32918554E-01 -1.17128400E-01 -8.34779997E-02 -7.80929611E-02 -6.75994507E-02
 -5.30482387E-02 -4.92132215E-02 -9.75849644E-03  1.81501530E-02  5.89119936E-02
  2.53232724E-01  3.17726027E-01  3.24831550E-01  3.31542385E-01  3.89465936E-01
  3.95904610E-01  4.29666889E-01  5.33189279E-01  5.65434594E-01  6.56957311E-01
  8.60955347E-01  8.61513355E-01  9.20352467E-01  9.24340103E-01  1.06045840E+00
  1.06710611E+00  1.07077695E+00  1.07743617E+00  1.31104045E+00  1.38483520E+00
  1.61133596E+00  1.61483192E+00  1.61546697E+00  1.61778425E+00  2.13957700E+00
  2.18509327E+00  2.27963701E+00  2.38408869E+00  2.42273536E+00  2.43775231E+00
  2.44673079E+00  2.46103903E+00  3.00988584E+00  3.03968525E+00  2.32433464E+01
  2.32733789E+01
Beta Orbital Energies                      R   N=          56
 -1.09509404E+01 -1.09509334E+01 -9.73637951E-01 -9.63742416E-01 -6.85078012E-01
 -5.80040480E-01 -3.43943484E-01 -3.28102374E-01 -3.14243273E-01 -2.97642755E-01
 -1.39537004E-01 -1.16749432E-01 -7.88427718E-02 -7.48362085E-02 -7.11414906E-02
 -4.62645610E-02 -3.73388050E-02 -1.73569969E-02  3.45528528E-02  7.00004176E-02
  2.45780921E-01  3.36067276E-01  3.39163000E-01  3.40902291E-01  3.84589230E-01
  3.89875659E-01  4.49631917E-01  5.54230500E-01  5.72849643E-01  6.54932024E-01
  9.24004776E-01  9.33508306E-01  9.85397518E-01  9.93479759E-01  1.09320880E+00
  1.09336013E+00  1.09826072E+00  1.09829931E+00  1.31428169E+00  1.39165878E+00
  1.62731256E+00  1.63138735E+00  1.63450809E+00  1.63775451E+00  2.29144238E+00
  2.31177691E+00  2.31665777E+00  2.41938331E+00  2.44923392E+00  2.47083600E+00
  2.47231440E+00  2.49215947E+00  3.07984494E+00  3.14029861E+00  2.32556779E+01
  2.32853627E+01
Alpha MO coefficients                      R   N=        3136
  3.98969528E-01  3.28720422E-01 -1.45075788E-03 -1.61027603E-09  1.53689530E-09
  6.74793868E-03 -7.03519136E-04 -3.27711843E-10  2.12692559E-10 -3.53104393E-03
  1.71762943E-04  3.12895027E-11  4.75431677E-12 -1.44048683E-04  1.05342985E-03
  4.48813871E-10 -3.83953148E-10 -3.48981060E-04 -5.76820860E-10  7.86759363E-06
  6.01149493E-04  6.85619934E-10  3.98628060E-01  3.28439112E-01  1.44949586E-03
 -1.34932609E-09  1.30540958E-09  6.74184795E-03  7.03121023E-04 -2.56318549E-10
  1.37356120E-10 -3.52751525E-03 -1.72808707E-04  2.54827922E-11  1.34310181E-11
 -1.47798654E-04 -1.05116860E-03  2.43184868E-10 -1.84346203E-10 -3.48764128E-04
  4.38721387E-10  7.84971072E-06  6.00781274E-04 -5.43375817E-10  2.91917583E-04
 -1.82619546E-03  2.46653047E-03 -1.21407993E-03 -8.16573415E-10  6.82197796E-10
  2.91583667E-04 -1.82441057E-03  2.46523870E-03  1.21307505E-03 -6.42605971E-10
  5.15223537E-10 -3.98631222E-01 -3.28403065E-01  1.47329415E-03  1.60093220E-09
 -1.51909401E-09 -7.11162314E-03  4.66069930E-04  1.91008235E-10 -8.74317092E-11
  4.11931983E-03  1.22125481E-03  2.78847909E-10 -2.39743163E-10 -4.37846283E-03
 -2.64022251E-03 -5.27803559E-10  4.36730440E-10  2.53568313E-04  6.75401779E-10
 -2.08764487E-05 -4.30415231E-04 -7.93529885E-10  3.98972686E-01  3.28684405E-01
  1.47453580E-03 -1.33638544E-09  1.28246049E-09  7.11739929E-03  4.66673287E-04
 -1.28525770E-10  1.98330999E-11 -4.12234136E-03  1.22110735E-03 -2.18912780E-10
  1.81373804E-10  4.37833759E-03 -2.64112361E-03  4.63630681E-10 -3.74519409E-10
 -2.53867322E-04  5.27071989E-10  2.08831725E-05  4.30930305E-04 -6.40268606E-10
 -3.89630434E-04  2.08564350E-03 -1.50869624E-03  1.17418896E-03  7.91045660E-10
 -6.61516130E-10  3.89880090E-04 -2.08720799E-03  1.51080823E-03  1.17522898E-03
 -6.29305960E-10  5.06196457E-10 -8.12305544E-02 -1.32424483E-01 -4.63288359E-02
 -3.03312880E-08  2.26978520E-08  3.87884946E-01 -7.30469069E-02 -5.10818527E-08
  3.96099320E-08  2.60696654E-01 -2.24773012E-02 -2.47543486E-08  1.98154498E-08
 -6.46514379E-04 -1.09077585E-02 -2.98103619E-09  2.60115341E-09 -3.76595416E-03
 -6.71714495E-09 -5.83251679E-04  6.76832025E-03  7.98272963E-09 -8.12307186E-02
 -1.32424751E-01  4.63289725E-02 -2.11812708E-08  1.34668200E-08  3.87885724E-01
  7.30471098E-02 -3.68598025E-08  2.53508394E-08  2.60697175E-01  2.24773782E-02
 -1.90668189E-08  1.40999783E-08 -6.46635888E-04  1.09078308E-02 -1.53416406E-09
  1.33724354E-09 -3.76596490E-03  5.38637976E-09 -5.83251852E-04  6.76833893E-03
 -6.51900025E-09  9.18821287E-02  1.14649180E-01 -1.44014662E-02  1.58608289E-02
  8.99440881E-09 -6.96800069E-09  9.18823534E-02  1.14649447E-01 -1.44014961E-02
 -1.58608648E-02  6.59015661E-09 -4.57055663E-09 -7.95991967E-02 -1.29865687E-01
 -5.98598720E-02 -2.95593504E-08  2.04935893E-08  3.80993101E-01 -9.17043983E-02
 -4.79488053E-08  3.43860990E-08  2.61631995E-01 -3.76736642E-02 -2.02922639E-08
  1.35772698E-08 -6.39628094E-02 -3.79307767E-02 -9.31873069E-09  7.84890414E-09
 -4.46765848E-03 -1.05661824E-08  1.01451520E-04  7.69556516E-03  1.21084310E-08
  7.95990239E-02  1.29865405E-01 -5.98597913E-02  1.92906133E-08 -1.00860925E-08
 -3.80992268E-01 -9.17042629E-02  3.20306562E-08 -1.83685270E-08 -2.61631420E-01
 -3.76736209E-02  1.37446747E-08 -6.79366497E-09  6.39628081E-02 -3.79307518E-02
  8.84039934E-09 -7.40908018E-09  4.46765238E-03 -8.62379060E-09 -1.01452413E-04
 -7.69555422E-03  1.00005716E-08  9.92504999E-02  1.22580684E-01 -1.44901675E-02
  1.66544610E-02  9.49933722E-09 -7.40948848E-09 -9.92503281E-02 -1.22580457E-01
  1.44901370E-02  1.66544291E-02 -7.03004869E-09  4.94388298E-09 -3.18417224E-02
 -5.28562876E-02  1.65609197E-01  1.21124722E-07 -1.13410389E-07  1.61138931E-01
  2.40940994E-01  1.75217290E-07 -1.63586295E-07  1.81531864E-01  1.53138036E-01
  9.85308742E-08 -9.48882116E-08  8.35063278E-03  2.75699439E-03  9.93536464E-10
 -4.94620908E-10  1.22340751E-02  3.20986331E-08 -2.54869355E-04 -2.10827536E-02
 -3.75022697E-08 -3.18417306E-02 -5.28563013E-02 -1.65609205E-01  1.10167851E-07
 -1.05226121E-07  1.61138973E-01 -2.40941001E-01  1.60025726E-07 -1.52387752E-07
  1.81531927E-01 -1.53138031E-01  9.00725413E-08 -8.94887236E-08  8.35062341E-03
 -2.75698569E-03 -2.89775467E-10  9.05413620E-10  1.22340765E-02 -2.55823766E-08
 -2.54869365E-04 -2.10827560E-02  3.06106298E-08 -9.60710571E-02 -1.56741680E-01
 -3.86661272E-02 -9.88720841E-03 -4.41629683E-09  2.70628554E-09 -9.60710582E-02
 -1.56741676E-01 -3.86661325E-02  9.88720707E-03 -2.27603902E-09  4.72613752E-10
 -5.05371867E-02 -8.42730367E-02  1.73120188E-01  2.41315134E-07 -2.40534319E-07
  2.60881254E-01  2.47779886E-01  3.58382438E-07 -3.57859199E-07  3.18067526E-01
  2.11729056E-01  2.77800613E-07 -2.79874005E-07  5.08836538E-02  2.62166767E-02
  1.58702874E-08 -1.33204236E-08  1.77910942E-02  4.35093674E-08  6.41244266E-04
 -3.10848677E-02 -4.92474235E-08  5.05371871E-02  8.42730376E-02  1.73120183E-01
 -2.20766583E-07  2.24419509E-07 -2.60881253E-01  2.47779874E-01 -3.27639791E-07
  3.33793470E-07 -3.18067549E-01  2.11729045E-01 -2.55673868E-07  2.63281136E-07
 -5.08836571E-02  2.62166741E-02 -1.44575660E-08  1.20680986E-08 -1.77910942E-02
  3.54781652E-08 -6.41244089E-04  3.10848675E-02 -4.07892820E-08 -1.00321591E-01
 -1.72846560E-01 -5.32501288E-02 -6.34948071E-03  4.90411805E-09 -6.81095481E-09
  1.00321582E-01  1.72846536E-01  5.32501185E-02 -6.34947875E-03 -5.97870626E-09
  8.08282639E-09  6.47105492E-09  1.28979227E-08  1.68901970E-07 -1.27117000E-01
  1.56648253E-01 -6.93314723E-08  2.71769150E-07 -1.99105579E-01  2.45360904E-01
  3.26846796E-09  2.61719329E-07 -1.85612930E-01  2.28733214E-01  3.25603211E-08
  2.18378340E-08 -1.07413468E-02  1.32367664E-02  6.93803856E-09 -7.98310299E-03
 -1.77627946E-08 -1.23707746E-08  6.47813980E-03  6.66451429E-09  1.34754454E-08
 -1.28985396E-07 -1.27117005E-01  1.56648260E-01 -7.23798373E-08 -2.12041703E-07
 -1.99105588E-01  2.45360916E-01 -6.85936134E-09 -2.01657343E-07 -1.85612939E-01
  2.28733226E-01  1.42125334E-08 -1.13207471E-08 -1.07413474E-02  1.32367672E-02
  2.72505898E-09  7.98310544E-03 -1.24283961E-08 -6.14440004E-09 -6.47814179E-03
 -8.19634821E-09 -1.00929012E-08 -3.75597801E-09  1.00362670E-08 -8.30846117E-03
  1.02386552E-02 -5.52616402E-09 -2.01157710E-09  6.21809144E-10 -7.71627465E-09
 -8.30846278E-03  1.02386571E-02 -5.30137908E-08 -8.68558054E-08  3.12674336E-07
 -1.33522010E-01  1.64541434E-01  2.52187259E-07  4.60236054E-07 -2.08327589E-01
  2.56725659E-01  3.69036627E-07  5.33751177E-07 -1.98821599E-01  2.45010694E-01
  3.02931984E-07  1.95824319E-07 -2.46049889E-02  3.03212601E-02  3.22296230E-08
 -1.69756312E-02 -1.55275618E-08 -5.70273940E-08  1.37753964E-02  5.79009503E-08
  9.46919259E-08  2.85254831E-07  1.33522003E-01 -1.64541426E-01 -2.73027466E-07
  4.17015392E-07  2.08327579E-01 -2.56725647E-01 -4.09149882E-07  4.93145860E-07
  1.98821591E-01 -2.45010683E-01 -3.06748580E-07  1.90386492E-07  2.46049880E-02
 -3.03212589E-02 -2.93210422E-08 -1.69756325E-02  1.00308913E-08  5.31157467E-08
  1.37753974E-02 -9.05422664E-08 -1.48202321E-07 -5.01567359E-08  1.42388457E-08
 -1.07075695E-02  1.31951258E-02  9.94452597E-08  1.64834361E-07  5.86763275E-08
  1.08050398E-08  1.07075702E-02 -1.31951267E-02 -2.51234868E-09 -4.27076704E-09
 -2.72373190E-08  1.46030860E-01  1.18501374E-01  1.48193469E-08 -4.39109653E-08
  2.34594117E-01  1.90368841E-01  1.58555333E-08 -4.45559433E-08  2.30821607E-01
  1.87307111E-01 -5.06586013E-09 -1.10027749E-08  3.64569561E-02  2.95841754E-02
  1.14128711E-08 -7.36427203E-03 -3.77550863E-10  1.03637052E-08 -9.07510060E-03
 -3.30039359E-09 -5.58702475E-09  2.09182343E-08  1.46030835E-01  1.18501354E-01
  1.88973877E-08  3.44216075E-08  2.34594078E-01  1.90368809E-01  2.18709393E-08
  3.40735642E-08  2.30821572E-01  1.87307082E-01  1.80793007E-09  6.26247170E-09
  3.64569491E-02  2.95841697E-02  7.60814202E-09  7.36427118E-03 -9.53799729E-10
  6.61433043E-09  9.07509957E-03 -1.89990494E-09 -2.98863668E-09 -3.88799344E-09
 -2.37736786E-09  1.14103264E-02  9.25927802E-03 -3.46232067E-09 -6.08176356E-09
 -5.37488198E-09  2.01810914E-09  1.14103258E-02  9.25927751E-03  2.93421038E-09
  4.88323442E-09 -4.05344441E-08  1.56566678E-01  1.27050811E-01 -1.48009562E-08
 -6.08180805E-08  2.51127199E-01  2.03784873E-01 -1.96626341E-08 -7.94286731E-08
  2.49694644E-01  2.02621891E-01 -5.78686664E-08 -4.17952888E-08  5.69843691E-02
  4.62418075E-02  8.65005162E-09 -1.22065738E-02 -6.79206485E-10  1.42654823E-08
 -1.50423727E-02 -3.31149889E-09 -5.52068073E-09 -3.65484062E-08 -1.56566698E-01
 -1.27050827E-01  1.68154093E-08 -5.41673433E-08 -2.51127232E-01 -2.03784899E-01
  2.30700046E-08 -7.27013473E-08 -2.49694679E-01 -2.02621920E-01  5.83028502E-08
 -4.04211072E-08 -5.69843759E-02 -4.62418130E-02 -4.24223886E-09 -1.22065758E-02
  1.29210909E-09 -1.12064991E-08 -1.50423751E-02  4.99796443E-09  5.78070830E-09
 -2.00828066E-09 -3.14108755E-09  1.35047172E-02  1.09588205E-02 -5.54666031E-09
 -7.29584885E-09  9.56763582E-10 -2.72850733E-09 -1.35047203E-02 -1.09588230E-02
  2.89749339E-02  4.95386438E-02  3.80011034E-02  4.20326093E-08 -3.27349402E-08
 -1.65197688E-01  8.06541797E-02  8.68022497E-08 -7.01830659E-08 -4.33144528E-01
  8.13335061E-02  8.05115030E-08 -5.88167652E-08  9.69285889E-01 -4.47784329E-01
 -2.62996957E-07  2.05014679E-07  5.37112202E-03  9.76520278E-09 -2.14896790E-03
 -8.39880040E-03 -1.14705877E-08  2.89749285E-02  4.95386350E-02 -3.80010559E-02
  3.59157489E-08 -2.67937718E-08 -1.65197659E-01 -8.06541169E-02  7.36951125E-08
 -5.76606772E-08 -4.33144447E-01 -8.13333812E-02  6.88936510E-08 -4.73461429E-08
  9.69286204E-01  4.47783917E-01 -1.77173409E-07  1.19742079E-07  5.37112246E-03
 -7.51421559E-09 -2.14896761E-03 -8.39880127E-03  9.32508216E-09  1.46040036E-03
  1.37461673E-01 -2.15010657E-01 -7.13713827E-03 -2.80629534E-09  2.42541436E-09
  1.46038889E-03  1.37461630E-01 -2.15010719E-01  7.13712657E-03 -1.74595980E-09
  1.38824249E-09 -1.64902557E-02 -2.88740905E-02 -7.18522218E-02 -2.40413389E-08
  1.98703725E-08  1.12063014E-01 -1.23681343E-01 -4.71587099E-08  3.93795823E-08
  1.50789984E-01 -1.34606869E-01 -4.16576988E-08  3.37919583E-08  5.77208784E-01
  1.32343790E+00  4.79127028E-07 -3.93312077E-07 -5.25982330E-03 -6.11491749E-09
  1.07644083E-03  8.65730726E-03  7.31609286E-09  1.64902615E-02  2.88741008E-02
 -7.18522036E-02  1.70796105E-08 -1.32167128E-08 -1.12063055E-01 -1.23681330E-01
  3.40596119E-08 -2.65433198E-08 -1.50790025E-01 -1.34606763E-01  3.01649374E-08
 -2.33880168E-08 -5.77208343E-01  1.32343802E+00 -4.24407288E-07  3.42836726E-07
  5.25982861E-03 -3.07557694E-09 -1.07644175E-03 -8.65731606E-03  4.31923067E-09
  7.80156726E-03 -9.15760180E-02  2.47642769E-01  1.56203780E-02  1.21727308E-08
 -1.01518287E-08 -7.80159112E-03  9.15759978E-02 -2.47643053E-01  1.56203741E-02
 -1.04969460E-08  8.59491373E-09  3.22261240E-09  5.55211623E-09  2.17369461E-08
 -7.26893215E-02 -5.89871801E-02 -1.91325589E-08  2.91338766E-08 -8.72007940E-02
 -7.07631463E-02 -4.68525067E-08  9.32890263E-08 -2.46063277E-01 -1.99679428E-01
 -7.74956793E-09 -1.30659524E-07  5.33893427E-01  4.33253551E-01 -6.56191402E-09
  5.03960340E-03  2.02866500E-10 -1.35261220E-09  6.21029600E-03  3.03635661E-09
  5.22363916E-09 -1.99829224E-08 -7.26893178E-02 -5.89871772E-02 -1.77565480E-08
 -2.65576775E-08 -8.72007899E-02 -7.07631430E-02 -4.67193563E-08 -8.94968651E-08
 -2.46063267E-01 -1.99679420E-01  1.97999356E-08  1.03304814E-07  5.33893371E-01
  4.33253506E-01 -4.87908939E-09 -5.03960430E-03  4.04996980E-10 -2.82580125E-10
 -6.21029711E-03  9.25421012E-09  3.00816745E-08  9.80313385E-08 -1.98904552E-09
  3.78612240E-04  3.07258462E-04  8.85352344E-09  3.01338955E-08  9.82827535E-08
  1.88930406E-09  3.78610369E-04  3.07256944E-04 -1.27275695E-08 -2.23735872E-08
 -9.86005605E-08  5.48404631E-02 -6.75791618E-02  8.01555582E-08 -1.27814004E-07
  5.88626700E-02 -7.25355881E-02  2.07721513E-07 -4.59361429E-07  1.87872248E-01
 -2.31512187E-01  2.06711982E-07  5.93423022E-07 -4.33641286E-01  5.34371039E-01
  7.01135058E-09  5.53799868E-03  5.10834067E-09 -1.18122509E-08 -4.49411717E-03
 -1.09749671E-08 -1.94010344E-08  8.72816332E-08  5.48404601E-02 -6.75791580E-02
  6.90125184E-08  1.14600375E-07  5.88626671E-02 -7.25355845E-02  2.04361878E-07
  4.31770850E-07  1.87872239E-01 -2.31512176E-01 -2.82733173E-08 -3.86985182E-07
 -4.33641247E-01  5.34370990E-01  6.92633720E-09 -5.53799977E-03  3.33015900E-09
 -1.13174926E-08  4.49411805E-03 -4.70172586E-08 -1.40635972E-07 -5.55365489E-07
  8.29645352E-09 -1.17324716E-03  1.44579893E-03 -4.22400099E-08 -1.37706116E-07
 -5.47099012E-07 -7.22952047E-09 -1.17324573E-03  1.44579717E-03 -1.42944121E-03
 -2.11397279E-03  9.65429117E-02  7.91567849E-08 -6.51892831E-08  6.00788022E-03
  1.15511204E-01  7.95863947E-08 -6.27956807E-08 -8.57388026E-03  5.07708419E-01
  3.86023444E-07 -3.15854690E-07 -5.16162044E-01 -5.37780054E-01 -3.81751518E-07
  3.22389459E-07 -9.01438327E-03 -2.94563356E-09  1.88436356E-03  1.48204713E-02
  3.03414779E-09 -1.42943932E-03 -2.11396947E-03 -9.65428782E-02  6.19121997E-08
 -4.85865315E-08  6.00786636E-03 -1.15511160E-01  5.87429650E-08 -4.25979259E-08
 -8.57391210E-03 -5.07708309E-01  3.04263958E-07 -2.36442927E-07 -5.16161744E-01
  5.37780322E-01 -2.63899505E-07  2.08218680E-07 -9.01437971E-03  2.80441077E-09
  1.88436310E-03  1.48204653E-02 -2.93758117E-09  3.48965779E-02  1.59695590E-01
  6.88039268E-01 -1.70253413E-02 -5.99592017E-09  5.17272902E-09  3.48965433E-02
  1.59695548E-01  6.88038906E-01  1.70253412E-02 -4.90219616E-09  4.12223519E-09
  2.62033139E-10  5.62036021E-10  8.57692026E-11 -6.26071581E-02 -5.08057418E-02
 -6.11858504E-09 -9.94483773E-10 -7.30041789E-02 -5.92427354E-02  4.91883689E-08
 -2.44206517E-08 -2.31663329E-01 -1.87994993E-01 -2.34000434E-07 -2.51016419E-07
  1.00575723E+00  8.16173686E-01 -5.28397223E-09 -1.69240039E-03 -9.18611677E-11