 Entering Gaussian System, Link 0=g16
 Initial command:
 /home/szhao/Apps/g16/l1.exe "/home/szhao/tmp/Gau-110773.inp" -scrdir="/home/szhao/tmp/"
 Default is to use a total of  16 processors:
                               16 via shared-memory
                                1 via Linda
 Entering Link 1 = /home/szhao/Apps/g16/l1.exe PID=    111050.
  
 Copyright (c) 1988,1990,1992,1993,1995,1998,2003,2009,2016,
            Gaussian, Inc.  All Rights Reserved.
  
 This is part of the Gaussian(R) 16 program.  It is based on
 the Gaussian(R) 09 system (copyright 2009, Gaussian, Inc.),
 the Gaussian(R) 03 system (copyright 2003, Gaussian, Inc.),
 the Gaussian(R) 98 system (copyright 1998, Gaussian, Inc.),
 the Gaussian(R) 94 system (copyright 1995, Gaussian, Inc.),
 the Gaussian 92(TM) system (copyright 1992, Gaussian, Inc.),
 the Gaussian 90(TM) system (copyright 1990, Gaussian, Inc.),
 the Gaussian 88(TM) system (copyright 1988, Gaussian, Inc.),
 the Gaussian 86(TM) system (copyright 1986, Carnegie Mellon
 University), and the Gaussian 82(TM) system (copyright 1983,
 Carnegie Mellon University). Gaussian is a federally registered
 trademark of Gaussian, Inc.
  
 This software contains proprietary and confidential information,
 including trade secrets, belonging to Gaussian, Inc.
  
 This software is provided under written license and may be
 used, copied, transmitted, or stored only in accord with that
 written license.
  
 The following legend is applicable only to US Government
 contracts under FAR:
  
                    RESTRICTED RIGHTS LEGEND
  
 Use, reproduction and disclosure by the US Government is
 subject to restrictions as set forth in subparagraphs (a)
 and (c) of the Commercial Computer Software - Restricted
 Rights clause in FAR 52.227-19.
  
 Gaussian, Inc.
 340 Quinnipiac St., Bldg. 40, Wallingford CT 06492
  
  
 ---------------------------------------------------------------
 Warning -- This program may not be used in any manner that
 competes with the business of Gaussian, Inc. or will provide
 assistance to any competitor of Gaussian, Inc.  The licensee
 of this program is prohibited from giving any competitor of
 Gaussian, Inc. access to this program.  By using this program,
 the user acknowledges that Gaussian, Inc. is engaged in the
 business of creating and licensing software in the field of
 computational chemistry and represents and warrants to the
 licensee that it is not a competitor of Gaussian, Inc. and that
 it will not use this program in any manner prohibited above.
 ---------------------------------------------------------------
  

 Cite this work as:
 Gaussian 16, Revision A.03,
 M. J. Frisch, G. W. Trucks, H. B. Schlegel, G. E. Scuseria, 
 M. A. Robb, J. R. Cheeseman, G. Scalmani, V. Barone, 
 G. A. Petersson, H. Nakatsuji, X. Li, M. Caricato, A. V. Marenich, 
 J. Bloino, B. G. Janesko, R. Gomperts, B. Mennucci, H. P. Hratchian, 
 J. V. Ortiz, A. F. Izmaylov, J. L. Sonnenberg, D. Williams-Young, 
 F. Ding, F. Lipparini, F. Egidi, J. Goings, B. Peng, A. Petrone, 
 T. Henderson, D. Ranasinghe, V. G. Zakrzewski, J. Gao, N. Rega, 
 G. Zheng, W. Liang, M. Hada, M. Ehara, K. Toyota, R. Fukuda, 
 J. Hasegawa, M. Ishida, T. Nakajima, Y. Honda, O. Kitao, H. Nakai, 
 T. Vreven, K. Throssell, J. A. Montgomery, Jr., J. E. Peralta, 
 F. Ogliaro, M. J. Bearpark, J. J. Heyd, E. N. Brothers, K. N. Kudin, 
 V. N. Staroverov, T. A. Keith, R. Kobayashi, J. Normand, 
 K. Raghavachari, A. P. Rendell, J. C. Burant, S. S. Iyengar, 
 J. Tomasi, M. Cossi, J. M. Millam, M. Klene, C. Adamo, R. Cammi, 
 J. W. Ochterski, R. L. Martin, K. Morokuma, O. Farkas, 
 J. B. Foresman, and D. J. Fox, Gaussian, Inc., Wallingford CT, 2016.
 
 ******************************************
 Gaussian 16:  ES64L-G16RevA.03 25-Dec-2016
                26-Feb-2025 
 ******************************************
 %chk=opt.chk
 %mem=4GB
 %nprocshared=8
 Will use up to    8 processors via shared memory.
 ---------------------------------------
 #p UM062X/6-311+G** force int=superfine
 ---------------------------------------
 1/10=7,30=1,38=1/1,3;
 2/12=2,17=6,18=5,40=1/2;
 3/5=4,6=6,7=111,11=2,25=1,30=1,71=1,74=-55,75=-7,116=2/1,2,3;
 4//1;
 5/5=2,38=5/2;
 6/7=2,8=2,9=2,10=2,28=1/1;
 7/29=1/1,2,3,16;
 1/10=7,30=1/3;
 99//99;
 Leave Link    1 at Wed Feb 26 13:53:31 2025, MaxMem=   536870912 cpu:              74.7 elap:              10.7
 (Enter /home/szhao/Apps/g16/l101.exe)
 -------------------
 Title Card Required
 -------------------
 Symbolic Z-matrix:
 Charge =  1 Multiplicity = 2
 N                    -1    1.48039   0.        0. 
 N                    -1   -1.48039   0.        0. 
 
 ITRead=  2  2
 MicOpt= -2 -2
 NAtoms=      2 NQM=        0 NQMF=       2 NMMI=      0 NMMIF=      0
                NMic=       0 NMicF=      0.
                    Isotopes and Nuclear Properties:
 (Nuclear quadrupole moments (NQMom) in fm**2, nuclear magnetic moments (NMagM)
  in nuclear magnetons)

  Atom         1           2
 IAtWgt=          14          14
 AtmWgt=  14.0030740  14.0030740
 NucSpn=           2           2
 AtZEff=  -0.0000000  -0.0000000
 NQMom=    2.0440000   2.0440000
 NMagM=    0.4037610   0.4037610
 AtZNuc=   7.0000000   7.0000000
 Leave Link  101 at Wed Feb 26 13:53:35 2025, MaxMem=   536870912 cpu:               0.4 elap:               1.0
 (Enter /home/szhao/Apps/g16/l103.exe)

 GradGradGradGradGradGradGradGradGradGradGradGradGradGradGradGradGradGrad
 Berny optimization.
 Initialization pass.
 Trust Radius=3.00D-01 FncErr=1.00D-07 GrdErr=1.00D-07 EigMax=2.50D+02 EigMin=1.00D-04
 Number of steps in this run=      2 maximum allowed number of steps=      2.
 GradGradGradGradGradGradGradGradGradGradGradGradGradGradGradGradGradGrad

 Leave Link  103 at Wed Feb 26 13:53:38 2025, MaxMem=   536870912 cpu:               1.6 elap:               1.9
 (Enter /home/szhao/Apps/g16/l202.exe)
                          Input orientation:                          
 ---------------------------------------------------------------------
 Center     Atomic      Atomic             Coordinates (Angstroms)
 Number     Number       Type             X           Y           Z
 ---------------------------------------------------------------------
      1          7           0        1.480391    0.000000    0.000000
      2          7           0       -1.480391    0.000000    0.000000
 ---------------------------------------------------------------------
 Stoichiometry    N2(1+,2)
 Framework group  D*H[C*(N.N)]
 Deg. of freedom     1
 Full point group                 D*H     NOp   8
 Largest Abelian subgroup         D2H     NOp   8
 Largest concise Abelian subgroup C2      NOp   2
                         Standard orientation:                         
 ---------------------------------------------------------------------
 Center     Atomic      Atomic             Coordinates (Angstroms)
 Number     Number       Type             X           Y           Z
 ---------------------------------------------------------------------
      1          7           0        0.000000    0.000000    1.480391
      2          7           0        0.000000    0.000000   -1.480391
 ---------------------------------------------------------------------
 Rotational constants (GHZ):           0.0000000           8.2340016           8.2340016
 Leave Link  202 at Wed Feb 26 13:53:42 2025, MaxMem=   536870912 cpu:               2.4 elap:               2.0
 (Enter /home/szhao/Apps/g16/l301.exe)
 Standard basis: 6-311+G(d,p) (5D, 7F)
 Ernie: Thresh=  0.10000D-02 Tol=  0.10000D-05 Strict=F.
 There are    12 symmetry adapted cartesian basis functions of AG  symmetry.
 There are     1 symmetry adapted cartesian basis functions of B1G symmetry.
 There are     5 symmetry adapted cartesian basis functions of B2G symmetry.
 There are     5 symmetry adapted cartesian basis functions of B3G symmetry.
 There are     1 symmetry adapted cartesian basis functions of AU  symmetry.
 There are    12 symmetry adapted cartesian basis functions of B1U symmetry.
 There are     5 symmetry adapted cartesian basis functions of B2U symmetry.
 There are     5 symmetry adapted cartesian basis functions of B3U symmetry.
 There are    11 symmetry adapted basis functions of AG  symmetry.
 There are     1 symmetry adapted basis functions of B1G symmetry.
 There are     5 symmetry adapted basis functions of B2G symmetry.
 There are     5 symmetry adapted basis functions of B3G symmetry.
 There are     1 symmetry adapted basis functions of AU  symmetry.
 There are    11 symmetry adapted basis functions of B1U symmetry.
 There are     5 symmetry adapted basis functions of B2U symmetry.
 There are     5 symmetry adapted basis functions of B3U symmetry.
    44 basis functions,    72 primitive gaussians,    46 cartesian basis functions
     7 alpha electrons        6 beta electrons
       nuclear repulsion energy         8.7577144603 Hartrees.
 IExCor= 4336 DFT=T Ex+Corr=M062X ExCW=0 ScaHFX=  0.540000
 ScaDFX=  1.000000  1.000000  1.000000  1.000000 ScalE2=  1.000000  1.000000
 IRadAn=      7 IRanWt=     -1 IRanGd=            0 ICorTp=0 IEmpDi=  4
 NAtoms=    2 NActive=    2 NUniq=    1 SFac= 4.00D+00 NAtFMM=   60 NAOKFM=F Big=F
 Integral buffers will be    131072 words long.
 Raffenetti 2 integral format.
 Two-electron integral symmetry is turned on.
 Leave Link  301 at Wed Feb 26 13:53:46 2025, MaxMem=   536870912 cpu:               9.0 elap:               2.9
 (Enter /home/szhao/Apps/g16/l302.exe)
 NPDir=0 NMtPBC=     1 NCelOv=     1 NCel=       1 NClECP=     1 NCelD=      1
         NCelK=      1 NCelE2=     1 NClLst=     1 CellRange=     0.0.
 One-electron integrals computed using PRISM.
 One-electron integral symmetry used in STVInt
 NBasis=    44 RedAO= T EigKep=  2.82D-02  NBF=    11     1     5     5     1    11     5     5
 NBsUse=    44 1.00D-06 EigRej= -1.00D+00 NBFU=    11     1     5     5     1    11     5     5
 Precomputing XC quadrature grid using
 IXCGrd= 4 IRadAn=           7 IRanWt=          -1 IRanGd=           0 AccXCQ= 0.00D+00.
 Generated NRdTot=       0 NPtTot=           0 NUsed=           0 NTot=          32
 NSgBfM=    46    46    46    46    46 MxSgAt=     2 MxSgA2=     2.
 Leave Link  302 at Wed Feb 26 13:53:50 2025, MaxMem=   536870912 cpu:               3.4 elap:               2.6
 (Enter /home/szhao/Apps/g16/l303.exe)
 DipDrv:  MaxL=1.
 Leave Link  303 at Wed Feb 26 13:53:52 2025, MaxMem=   536870912 cpu:               3.4 elap:               1.6
 (Enter /home/szhao/Apps/g16/l401.exe)
 ExpMin= 6.39D-02 ExpMax= 6.29D+03 ExpMxC= 9.49D+02 IAcc=3 IRadAn=         7 AccDes= 0.00D+00
 Harris functional with IExCor= 1009 and IRadAn=       7 diagonalized for initial guess.
 HarFok:  IExCor= 1009 AccDes= 0.00D+00 IRadAn=         7 IDoV= 1 UseB2=F ITyADJ=14
 ICtDFT=  3500011 ScaDFX=  1.000000  1.000000  1.000000  1.000000
 FoFCou: FMM=F IPFlag=           0 FMFlag=      100000 FMFlg1=           0
         NFxFlg=           0 DoJE=T BraDBF=F KetDBF=T FulRan=T
         wScrn=  0.000000 ICntrl=       500 IOpCl=  0 I1Cent=   200000004 NGrid=           0
         NMat0=    1 NMatS0=      1 NMatT0=    0 NMatD0=    1 NMtDS0=    0 NMtDT0=    0
 Petite list used in FoFCou.
 Harris En= -108.644050828602    
 JPrj=0 DoOrth=F DoCkMO=F.
 Initial guess orbital symmetries:
 Alpha Orbitals:
       Occupied  (SGU) (SGG) (SGG) (SGU) (SGG) (PIU) (PIU)
       Virtual   (PIG) (PIG) (SGU) (SGG) (SGU) (PIU) (PIU) (PIG)
                 (PIG) (SGG) (SGU) (SGG) (PIU) (PIU) (PIG) (PIG)
                 (SGU) (SGG) (SGU) (DLTG) (DLTG) (DLTU) (DLTU)
                 (PIU) (PIU) (PIG) (PIG) (SGG) (SGU) (SGG) (PIU)
                 (PIU) (PIG) (PIG) (SGU) (SGG) (SGU)
 Beta  Orbitals:
       Occupied  (SGU) (SGG) (SGG) (SGU) (SGG) (PIU)
       Virtual   (PIU) (PIG) (PIG) (SGU) (SGG) (SGU) (PIU) (PIU)
                 (PIG) (PIG) (SGG) (SGU) (SGG) (PIU) (PIU) (PIG)
                 (PIG) (SGU) (SGG) (SGU) (DLTG) (DLTG) (DLTU) (DLTU)
                 (PIU) (PIU) (PIG) (PIG) (SGG) (SGU) (SGG) (PIU)
                 (PIU) (PIG) (PIG) (SGU) (SGG) (SGU)
 Initial guess <Sx>= 0.0000 <Sy>= 0.0000 <Sz>= 0.5000 <S**2>= 0.7500 S= 0.5000
 Leave Link  401 at Wed Feb 26 13:53:56 2025, MaxMem=   536870912 cpu:               2.8 elap:               1.0
 (Enter /home/szhao/Apps/g16/l502.exe)
 Keep R1 and R2 ints in memory in symmetry-blocked form, NReq=7471005.
 FoFCou: FMM=F IPFlag=           0 FMFlag=           0 FMFlg1=           0
         NFxFlg=           0 DoJE=F BraDBF=F KetDBF=F FulRan=T
         wScrn=  0.000000 ICntrl=       600 IOpCl=  0 I1Cent=           0 NGrid=           0
         NMat0=    1 NMatS0=    990 NMatT0=    0 NMatD0=    1 NMtDS0=    0 NMtDT0=    0
 Petite list used in FoFCou.
 UHF open shell SCF:
 Using DIIS extrapolation, IDIIS=  1040.
 NGot=   536870912 LenX=   536724438 LenY=   536721881
 Requested convergence on RMS density matrix=1.00D-08 within 128 cycles.
 Requested convergence on MAX density matrix=1.00D-06.
 Requested convergence on             energy=1.00D-06.
 No special actions if energy rises.
 Integral accuracy reduced to 1.0D-05 until final iterations.

 Cycle   1  Pass 0  IDiag  1:
 E= -108.303704185291    
 DIIS: error= 5.86D-02 at cycle   1 NSaved=   1.
 NSaved= 1 IEnMin= 1 EnMin= -108.303704185291     IErMin= 1 ErrMin= 5.86D-02
 ErrMax= 5.86D-02  0.00D+00 EMaxC= 1.00D-01 BMatC= 2.95D-01 BMatP= 2.95D-01
 IDIUse=3 WtCom= 4.14D-01 WtEn= 5.86D-01
 Coeff-Com:  0.100D+01
 Coeff-En:   0.100D+01
 Coeff:      0.100D+01
 Gap=     0.072 Goal=   None    Shift=    0.000
 Gap=     0.096 Goal=   None    Shift=    0.000
 GapD=    0.072 DampG=0.500 DampE=0.500 DampFc=0.2500 IDamp=-1.
 Damping current iteration by 2.50D-01
 RMSDP=7.31D-03 MaxDP=1.43D-01              OVMax= 1.51D-01

 Cycle   2  Pass 0  IDiag  1:
 E= -108.328555551028     Delta-E=       -0.024851365736 Rises=F Damp=T
 DIIS: error= 3.75D-02 at cycle   2 NSaved=   2.
 NSaved= 2 IEnMin= 2 EnMin= -108.328555551028     IErMin= 2 ErrMin= 3.75D-02
 ErrMax= 3.75D-02  0.00D+00 EMaxC= 1.00D-01 BMatC= 1.27D-01 BMatP= 2.95D-01
 IDIUse=3 WtCom= 6.25D-01 WtEn= 3.75D-01
 Coeff-Com: -0.171D+01 0.271D+01
 Coeff-En:   0.000D+00 0.100D+01
 Coeff:     -0.107D+01 0.207D+01
 Gap=     0.074 Goal=   None    Shift=    0.000
 Gap=     0.101 Goal=   None    Shift=    0.000
 RMSDP=4.08D-03 MaxDP=7.77D-02 DE=-2.49D-02 OVMax= 3.21D-02

 Cycle   3  Pass 0  IDiag  1:
 E= -108.382446535821     Delta-E=       -0.053890984793 Rises=F Damp=F
 DIIS: error= 6.59D-03 at cycle   3 NSaved=   3.
 NSaved= 3 IEnMin= 3 EnMin= -108.382446535821     IErMin= 3 ErrMin= 6.59D-03
 ErrMax= 6.59D-03  0.00D+00 EMaxC= 1.00D-01 BMatC= 4.20D-03 BMatP= 1.27D-01
 IDIUse=3 WtCom= 9.34D-01 WtEn= 6.59D-02
 Coeff-Com:  0.921D+00-0.124D+01 0.132D+01
 Coeff-En:   0.000D+00 0.000D+00 0.100D+01
 Coeff:      0.861D+00-0.116D+01 0.130D+01
 Gap=     0.075 Goal=   None    Shift=    0.000
 Gap=     0.102 Goal=   None    Shift=    0.000
 RMSDP=6.73D-04 MaxDP=1.19D-02 DE=-5.39D-02 OVMax= 1.35D-02

 Cycle   4  Pass 0  IDiag  1:
 E= -108.383368110937     Delta-E=       -0.000921575116 Rises=F Damp=F
 DIIS: error= 5.01D-04 at cycle   4 NSaved=   4.
 NSaved= 4 IEnMin= 4 EnMin= -108.383368110937     IErMin= 4 ErrMin= 5.01D-04
 ErrMax= 5.01D-04  0.00D+00 EMaxC= 1.00D-01 BMatC= 2.33D-05 BMatP= 4.20D-03
 IDIUse=3 WtCom= 9.95D-01 WtEn= 5.01D-03
 Coeff-Com:  0.462D-01-0.675D-01 0.960D-01 0.925D+00
 Coeff-En:   0.000D+00 0.000D+00 0.000D+00 0.100D+01
 Coeff:      0.460D-01-0.672D-01 0.955D-01 0.926D+00
 Gap=     0.075 Goal=   None    Shift=    0.000
 Gap=     0.102 Goal=   None    Shift=    0.000
 RMSDP=5.61D-05 MaxDP=1.31D-03 DE=-9.22D-04 OVMax= 1.05D-03

 Cycle   5  Pass 0  IDiag  1:
 E= -108.383374168913     Delta-E=       -0.000006057976 Rises=F Damp=F
 DIIS: error= 6.96D-05 at cycle   5 NSaved=   5.
 NSaved= 5 IEnMin= 5 EnMin= -108.383374168913     IErMin= 5 ErrMin= 6.96D-05
 ErrMax= 6.96D-05  0.00D+00 EMaxC= 1.00D-01 BMatC= 4.77D-07 BMatP= 2.33D-05
 IDIUse=1 WtCom= 1.00D+00 WtEn= 0.00D+00
 Coeff-Com: -0.115D-01 0.153D-01-0.163D-01-0.472D-01 0.106D+01
 Coeff:     -0.115D-01 0.153D-01-0.163D-01-0.472D-01 0.106D+01
 Gap=     0.075 Goal=   None    Shift=    0.000
 Gap=     0.102 Goal=   None    Shift=    0.000
 RMSDP=1.14D-05 MaxDP=2.45D-04 DE=-6.06D-06 OVMax= 3.06D-04

 Cycle   6  Pass 0  IDiag  1:
 E= -108.383374439998     Delta-E=       -0.000000271084 Rises=F Damp=F
 DIIS: error= 2.31D-05 at cycle   6 NSaved=   6.
 NSaved= 6 IEnMin= 6 EnMin= -108.383374439998     IErMin= 6 ErrMin= 2.31D-05
 ErrMax= 2.31D-05  0.00D+00 EMaxC= 1.00D-01 BMatC= 4.77D-08 BMatP= 4.77D-07
 IDIUse=1 WtCom= 1.00D+00 WtEn= 0.00D+00
 Coeff-Com: -0.101D-02 0.163D-02-0.368D-02-0.542D-01-0.177D-01 0.107D+01
 Coeff:     -0.101D-02 0.163D-02-0.368D-02-0.542D-01-0.177D-01 0.107D+01
 Gap=     0.075 Goal=   None    Shift=    0.000
 Gap=     0.102 Goal=   None    Shift=    0.000
 RMSDP=3.56D-06 MaxDP=4.43D-05 DE=-2.71D-07 OVMax= 1.15D-04

 Initial convergence to 1.0D-05 achieved.  Increase integral accuracy.
 Cycle   7  Pass 1  IDiag  1:
 E= -108.383377585007     Delta-E=       -0.000003145010 Rises=F Damp=F
 DIIS: error= 1.10D-05 at cycle   1 NSaved=   1.
 NSaved= 1 IEnMin= 1 EnMin= -108.383377585007     IErMin= 1 ErrMin= 1.10D-05
 ErrMax= 1.10D-05  0.00D+00 EMaxC= 1.00D-01 BMatC= 8.25D-09 BMatP= 8.25D-09
 IDIUse=1 WtCom= 1.00D+00 WtEn= 0.00D+00
 Coeff-Com:  0.100D+01
 Coeff:      0.100D+01
 Gap=     0.075 Goal=   None    Shift=    0.000
 Gap=     0.102 Goal=   None    Shift=    0.000
 RMSDP=3.56D-06 MaxDP=4.43D-05 DE=-3.15D-06 OVMax= 3.10D-05

 Cycle   8  Pass 1  IDiag  1:
 E= -108.383377589199     Delta-E=       -0.000000004191 Rises=F Damp=F
 DIIS: error= 3.07D-06 at cycle   2 NSaved=   2.
 NSaved= 2 IEnMin= 2 EnMin= -108.383377589199     IErMin= 2 ErrMin= 3.07D-06
 ErrMax= 3.07D-06  0.00D+00 EMaxC= 1.00D-01 BMatC= 9.69D-10 BMatP= 8.25D-09
 IDIUse=1 WtCom= 1.00D+00 WtEn= 0.00D+00
 Coeff-Com: -0.234D+00 0.123D+01
 Coeff:     -0.234D+00 0.123D+01
 Gap=     0.075 Goal=   None    Shift=    0.000
 Gap=     0.102 Goal=   None    Shift=    0.000
 RMSDP=5.50D-07 MaxDP=7.30D-06 DE=-4.19D-09 OVMax= 1.74D-05

 Cycle   9  Pass 1  IDiag  1:
 E= -108.383377589940     Delta-E=       -0.000000000742 Rises=F Damp=F
 DIIS: error= 1.35D-06 at cycle   3 NSaved=   3.
 NSaved= 3 IEnMin= 3 EnMin= -108.383377589940     IErMin= 3 ErrMin= 1.35D-06
 ErrMax= 1.35D-06  0.00D+00 EMaxC= 1.00D-01 BMatC= 1.32D-10 BMatP= 9.69D-10
 IDIUse=1 WtCom= 1.00D+00 WtEn= 0.00D+00
 Coeff-Com: -0.107D+00 0.112D+00 0.995D+00
 Coeff:     -0.107D+00 0.112D+00 0.995D+00
 Gap=     0.075 Goal=   None    Shift=    0.000
 Gap=     0.102 Goal=   None    Shift=    0.000
 RMSDP=1.92D-07 MaxDP=2.42D-06 DE=-7.42D-10 OVMax= 6.96D-06

 Cycle  10  Pass 1  IDiag  1:
 E= -108.383377590033     Delta-E=       -0.000000000093 Rises=F Damp=F
 DIIS: error= 3.60D-07 at cycle   4 NSaved=   4.
 NSaved= 4 IEnMin= 4 EnMin= -108.383377590033     IErMin= 4 ErrMin= 3.60D-07
 ErrMax= 3.60D-07  0.00D+00 EMaxC= 1.00D-01 BMatC= 1.15D-11 BMatP= 1.32D-10
 IDIUse=1 WtCom= 1.00D+00 WtEn= 0.00D+00
 Coeff-Com:  0.237D-01-0.148D+00 0.936D-02 0.112D+01
 Coeff:      0.237D-01-0.148D+00 0.936D-02 0.112D+01
 Gap=     0.075 Goal=   None    Shift=    0.000
 Gap=     0.102 Goal=   None    Shift=    0.000
 RMSDP=7.07D-08 MaxDP=8.92D-07 DE=-9.25D-11 OVMax= 2.90D-06

 Cycle  11  Pass 1  IDiag  1:
 E= -108.383377590043     Delta-E=       -0.000000000010 Rises=F Damp=F
 DIIS: error= 6.00D-08 at cycle   5 NSaved=   5.
 NSaved= 5 IEnMin= 5 EnMin= -108.383377590043     IErMin= 5 ErrMin= 6.00D-08
 ErrMax= 6.00D-08  0.00D+00 EMaxC= 1.00D-01 BMatC= 2.52D-13 BMatP= 1.15D-11
 IDIUse=1 WtCom= 1.00D+00 WtEn= 0.00D+00
 Coeff-Com:  0.519D-02-0.116D-01-0.373D-01 0.358D-01 0.101D+01
 Coeff:      0.519D-02-0.116D-01-0.373D-01 0.358D-01 0.101D+01
 Gap=     0.075 Goal=   None    Shift=    0.000
 Gap=     0.102 Goal=   None    Shift=    0.000
 RMSDP=8.58D-09 MaxDP=1.19D-07 DE=-9.61D-12 OVMax= 4.06D-07

 SCF Done:  E(UM062X) =  -108.383377590     A.U. after   11 cycles
            NFock= 11  Conv=0.86D-08     -V/T= 2.0050
 <Sx>= 0.0000 <Sy>= 0.0000 <Sz>= 0.5000 <S**2>= 0.7509 S= 0.5004
 <L.S>=  0.00000000000    
 KE= 1.078412580220D+02 PE=-2.676271790945D+02 EE= 4.264482902222D+01
 Annihilation of the first spin contaminant:
 S**2 before annihilation     0.7509,   after     0.7500
 Leave Link  502 at Wed Feb 26 13:54:01 2025, MaxMem=   536870912 cpu:              16.8 elap:               2.9
 (Enter /home/szhao/Apps/g16/l601.exe)
 Copying SCF densities to generalized density rwf, IOpCl= 1 IROHF=0.

 **********************************************************************

            Population analysis using the SCF density.

 **********************************************************************

 Orbital symmetries:
 Alpha Orbitals:
       Occupied  (SGG) (SGU) (SGG) (SGU) (PIU) (SGG) (PIU)
       Virtual   (PIG) (PIG) (SGU) (SGG) (PIU) (SGU) (PIU) (SGG)
                 (PIG) (PIG) (SGU) (SGG) (PIU) (PIU) (PIG) (PIG)
                 (SGU) (SGG) (SGU) (?A) (PIU) (?B) (?A) (?B) (PIG)
                 (PIU) (?A) (PIG) (?B) (PIU) (SGG) (PIU) (PIG)
                 (PIG) (SGU) (SGG) (SGU)
 Beta  Orbitals:
       Occupied  (SGG) (SGU) (SGG) (SGU) (SGG) (PIU)
       Virtual   (PIG) (SGU) (PIU) (PIG) (SGG) (SGU) (PIU) (PIU)
                 (SGG) (PIG) (PIG) (SGU) (SGG) (PIU) (PIU) (PIG)
                 (PIG) (SGU) (SGG) (SGU) (PIU) (PIU) (?A) (?B)
                 (PIG) (?A) (PIG) (?B) (?A) (?B) (SGG) (PIU) (PIU)
                 (PIG) (PIG) (SGU) (SGG) (SGU)
 Unable to determine electronic state:  partially filled degenerate orbitals.
 Alpha  occ. eigenvalues --  -15.33204 -15.33198  -1.21778  -1.20250  -0.67946
 Alpha  occ. eigenvalues --   -0.67341  -0.65325
 Alpha virt. eigenvalues --   -0.57870  -0.55213  -0.53390  -0.12857  -0.08484
 Alpha virt. eigenvalues --   -0.08397  -0.08318  -0.03400  -0.02954  -0.02746
 Alpha virt. eigenvalues --    0.04256   0.43092   0.49029   0.50283   0.52861
 Alpha virt. eigenvalues --    0.54125   0.58536   0.64843   0.77326   1.59239
 Alpha virt. eigenvalues --    1.59647   1.59695   1.59832   1.59998   1.60108
 Alpha virt. eigenvalues --    1.61408   1.61772   1.61868   1.63938   3.34452
 Alpha virt. eigenvalues --    3.35348   3.37193   3.38188   3.40857   3.47174
 Alpha virt. eigenvalues --   34.71969  34.76022
  Beta  occ. eigenvalues --  -15.32713 -15.32709  -1.18029  -1.16591  -0.65666
  Beta  occ. eigenvalues --   -0.63548
  Beta virt. eigenvalues --   -0.53388  -0.51409  -0.45704  -0.44726  -0.13986
  Beta virt. eigenvalues --   -0.09053  -0.08855  -0.08447  -0.03788  -0.03185
  Beta virt. eigenvalues --   -0.02991   0.02829   0.43102   0.50184   0.50467
  Beta virt. eigenvalues --    0.53999   0.54279   0.58708   0.65605   0.78052
  Beta virt. eigenvalues --    1.62784   1.62840   1.62957   1.63041   1.63076
  Beta virt. eigenvalues --    1.63191   1.63300   1.63520   1.63839   1.65929
  Beta virt. eigenvalues --    3.37134   3.38609   3.41193   3.42233   3.44699
  Beta virt. eigenvalues --    3.48617  34.72302  34.76377
          Condensed to atoms (all electrons):
               1          2
     1  N    6.402576   0.097424
     2  N    0.097424   6.402576
          Atomic-Atomic Spin Densities.
               1          2
     1  N    0.497842   0.002158
     2  N    0.002158   0.497842
 Mulliken charges and spin densities:
               1          2
     1  N    0.500000   0.500000
     2  N    0.500000   0.500000
 Sum of Mulliken charges =   1.00000   1.00000
 Mulliken charges and spin densities with hydrogens summed into heavy atoms:
               1          2
     1  N    0.500000   0.500000
     2  N    0.500000   0.500000
 Electronic spatial extent (au):  <R**2>=            121.7153
 Charge=              1.0000 electrons
 Dipole moment (field-independent basis, Debye):
    X=              0.0000    Y=             -0.0000    Z=             -0.0000  Tot=              0.0000
 Quadrupole moment (field-independent basis, Debye-Ang):
   XX=            -10.0181   YY=             -8.5687   ZZ=              2.2465
   XY=              0.0000   XZ=             -0.0000   YZ=             -0.0000
 Traceless Quadrupole moment (field-independent basis, Debye-Ang):
   XX=             -4.5713   YY=             -3.1220   ZZ=              7.6933
   XY=              0.0000   XZ=             -0.0000   YZ=             -0.0000
 Octapole moment (field-independent basis, Debye-Ang**2):
  XXX=             -0.0000  YYY=             -0.0000  ZZZ=             -0.0000  XYY=             -0.0000
  XXY=             -0.0000  XXZ=              0.0000  XZZ=              0.0000  YZZ=              0.0000
  YYZ=             -0.0000  XYZ=             -0.0000
 Hexadecapole moment (field-independent basis, Debye-Ang**3):
 XXXX=             -9.1280 YYYY=             -6.7758 ZZZZ=           -106.9340 XXXY=             -0.0000
 XXXZ=              0.0000 YYYX=             -0.0000 YYYZ=             -0.0000 ZZZX=              0.0000
 ZZZY=             -0.0000 XXYY=             -2.6506 XXZZ=            -23.9758 YYZZ=            -20.5336
 XXYZ=             -0.0000 YYXZ=              0.0000 ZZXY=              0.0000
 N-N= 8.757714460261D+00 E-N=-2.676271785388D+02  KE= 1.078412580220D+02
 Symmetry AG   KE= 5.275954296903D+01
 Symmetry B1G  KE= 3.733910321049D-36
 Symmetry B2G  KE= 5.098526075397D-33
 Symmetry B3G  KE= 1.217577403622D-32
 Symmetry AU   KE= 4.584981272566D-36
 Symmetry B1U  KE= 4.932904500535D+01
 Symmetry B2U  KE= 1.957509322241D+00
 Symmetry B3U  KE= 3.795160725382D+00
 Symmetry AG   SP=-1.260153060669D-14
 Symmetry B1G  SP= 1.160911374058D-36
 Symmetry B2G  SP=-1.433162712523D-34
 Symmetry B3G  SP= 1.727228198267D-33
 Symmetry AU   SP= 1.269646671916D-36
 Symmetry B1U  SP=-2.013827438249D-15
 Symmetry B2U  SP= 1.000000000000D+00
 Symmetry B3U  SP= 6.987951950807D-17
                          Isotropic Fermi Contact Couplings
        Atom                 a.u.       MegaHertz       Gauss      10(-4) cm-1
     1  N(14)              0.02931       9.46889       3.37874       3.15848
     2  N(14)              0.02931       9.46889       3.37874       3.15848
 --------------------------------------------------------
       Center         ----  Spin Dipole Couplings  ----
                      3XX-RR        3YY-RR        3ZZ-RR
 --------------------------------------------------------
     1   Atom       -0.644006      1.273149     -0.629142
     2   Atom       -0.644006      1.273149     -0.629142
 --------------------------------------------------------
                        XY            XZ            YZ
 --------------------------------------------------------
     1   Atom        0.000000     -0.000000      0.000000
     2   Atom        0.000000     -0.000000      0.000000
 --------------------------------------------------------


 ---------------------------------------------------------------------------------
              Anisotropic Spin Dipole Couplings in Principal Axis System
 ---------------------------------------------------------------------------------

       Atom             a.u.   MegaHertz   Gauss  10(-4) cm-1        Axes

              Baa    -0.6440   -24.838    -8.863    -8.285  1.0000  0.0000  0.0000
     1 N(14)  Bbb    -0.6291   -24.265    -8.658    -8.094  0.0000  0.0000  1.0000
              Bcc     1.2731    49.103    17.521    16.379  0.0000  1.0000  0.0000
 
              Baa    -0.6440   -24.838    -8.863    -8.285  1.0000  0.0000  0.0000
     2 N(14)  Bbb    -0.6291   -24.265    -8.658    -8.094  0.0000  0.0000  1.0000
              Bcc     1.2731    49.103    17.521    16.379  0.0000  1.0000  0.0000
 

 ---------------------------------------------------------------------------------

 No NMR shielding tensors so no spin-rotation constants.
 Leave Link  601 at Wed Feb 26 13:54:03 2025, MaxMem=   536870912 cpu:               4.0 elap:               1.2
 (Enter /home/szhao/Apps/g16/l701.exe)
 ... and contract with generalized density number  0.
 Compute integral first derivatives.
 Leave Link  701 at Wed Feb 26 13:54:05 2025, MaxMem=   536870912 cpu:               0.9 elap:               0.6
 (Enter /home/szhao/Apps/g16/l702.exe)
 L702 exits ... SP integral derivatives will be done elsewhere.
 Leave Link  702 at Wed Feb 26 13:54:06 2025, MaxMem=   536870912 cpu:               0.1 elap:               0.5
 (Enter /home/szhao/Apps/g16/l703.exe)
 Integral derivatives from FoFJK, PRISM(SPDF).
 Compute integral first derivatives, UseDBF=F ICtDFT=           0.
 Calling FoFJK, ICntrl=      2127 FMM=F ISym2X=1 I1Cent= 0 IOpClX= 1 NMat=1 NMatS=1 NMatT=0.
 FoFJK:  IHMeth= 1 ICntrl=    2127 DoSepK=F KAlg= 0 I1Cent=           0 FoldK=F
 IRaf=         0 NMat=       1 IRICut=       1 DoRegI=T DoRafI=F ISym2E= 1 IDoP0=0 IntGTp=1.
 FoFCou: FMM=F IPFlag=           0 FMFlag=      100000 FMFlg1=         800
         NFxFlg=           0 DoJE=F BraDBF=F KetDBF=F FulRan=T
         wScrn=  0.000000 ICntrl=      2127 IOpCl=  1 I1Cent=           0 NGrid=           0
         NMat0=    1 NMatS0=      1 NMatT0=    0 NMatD0=    1 NMtDS0=    0 NMtDT0=    0
 Petite list used in FoFCou.
 Leave Link  703 at Wed Feb 26 13:54:08 2025, MaxMem=   536870912 cpu:               2.2 elap:               1.1
 (Enter /home/szhao/Apps/g16/l716.exe)
 Dipole        = 1.71299525D-16-1.21074330D-35-8.88178420D-16
 ***** Axes restored to original set *****
 -------------------------------------------------------------------
 Center     Atomic                   Forces (Hartrees/Bohr)
 Number     Number              X              Y              Z
 -------------------------------------------------------------------
      1        7          -0.000000000   -0.000000000   -0.000000000
      2        7          -0.000000000   -0.000000000   -0.000000000
 -------------------------------------------------------------------
 Cartesian Forces:  Max     0.000000000 RMS     0.000000000
 Z-matrix is all fixed cartesians, so copy forces.
 Force constants in Cartesian coordinates: 
                1             2             3             4             5 
      1  0.000000D+00
      2  0.000000D+00  0.000000D+00
      3  0.000000D+00  0.000000D+00  0.000000D+00
      4  0.000000D+00  0.000000D+00  0.000000D+00  0.000000D+00
      5  0.000000D+00  0.000000D+00  0.000000D+00  0.000000D+00  0.000000D+00
      6  0.000000D+00  0.000000D+00  0.000000D+00  0.000000D+00  0.000000D+00
                6 
      6  0.000000D+00
 Leave Link  716 at Wed Feb 26 13:54:09 2025, MaxMem=   536870912 cpu:               0.3 elap:               0.2
 (Enter /home/szhao/Apps/g16/l103.exe)

 GradGradGradGradGradGradGradGradGradGradGradGradGradGradGradGradGradGrad
 Berny optimization.
 Search for a local minimum.
 Step number   1 out of a maximum of    2
 All quantities printed in internal units (Hartrees-Bohrs-Radians)
 Second derivative matrix not updated -- first step.
 The second derivative matrix:
                          X1        Y1        Z1        X2        Y2
           X1           0.00000
           Y1           0.00000   0.00000
           Z1           0.00000   0.00000   0.00000
           X2           0.00000   0.00000   0.00000   0.00000
           Y2           0.00000   0.00000   0.00000   0.00000   0.00000
           Z2           0.00000   0.00000   0.00000   0.00000   0.00000
                          Z2
           Z2           0.00000
 ITU=  0
     Eigenvalues --- 
 Angle between quadratic step and forces=  90.00 degrees.
 ClnCor:  largest displacement from symmetrization is 0.00D+00 for atom     0.
 Linear search not attempted -- first point.
 ClnCor:  largest displacement from symmetrization is 0.00D+00 for atom     0.
 Variable       Old X    -DE/DX   Delta X   Delta X   Delta X     New X
                                 (Linear)    (Quad)   (Total)
    X1        2.79753  -0.00000   0.00000   0.00000   0.00000   2.79753
    Y1        0.00000  -0.00000   0.00000   0.00000   0.00000   0.00000
    Z1        0.00000  -0.00000   0.00000   0.00000   0.00000   0.00000
    X2       -2.79753  -0.00000   0.00000   0.00000   0.00000  -2.79753
    Y2        0.00000  -0.00000   0.00000   0.00000   0.00000   0.00000
    Z2       -0.00000  -0.00000   0.00000   0.00000   0.00000  -0.00000
         Item               Value     Threshold  Converged?
 Maximum Force            0.000000     0.000450     YES
 RMS     Force            0.000000     0.000300     YES
 Maximum Displacement     0.000000     0.001800     YES
 RMS     Displacement     0.000000     0.001200     YES
 Predicted change in Energy=-0.000000D+00
 Optimization completed.
    -- Stationary point found.
 GradGradGradGradGradGradGradGradGradGradGradGradGradGradGradGradGradGrad

 Leave Link  103 at Wed Feb 26 13:54:10 2025, MaxMem=   536870912 cpu:               1.8 elap:               1.0
 (Enter /home/szhao/Apps/g16/l9999.exe)
 1\1\GINC-NODE04\Force\UM062X\6-311+G(d,p)\N2(1+,2)\SZHAO\26-Feb-2025\0
 \\#p UM062X/6-311+G** force int=superfine\\Title Card Required\\1,2\N,
 1.480391,0.,0.\N,-1.480391,0.,0.\\Version=ES64L-G16RevA.03\HF=-108.383
 3776\S2=0.750898\S2-1=0.\S2A=0.750001\RMSD=8.575e-09\RMSF=0.000e+00\Di
 pole=0.,0.,0.\Quadrupole=5.719781,-2.3211069,-3.3986741,0.,0.,0.\PG=D*
 H [C*(N1.N1)]\\@


 KEEP CLOSE TO NATURES HEART, YOURSELF;
 AND BREAK CLEAR AWAY, ONCE IN A WHILE, AND
 CLIMB A MOUNTAIN OR SPEND A WEEK IN THE
 WOODS.  WASH YOUR SPIRIT CLEAN...
                                         -- JOHN MUIR
 Job cpu time:       0 days  0 hours  2 minutes  5.0 seconds.
 Elapsed time:       0 days  0 hours  0 minutes 32.8 seconds.
 File lengths (MBytes):  RWF=     17 Int=      0 D2E=      0 Chk=      2 Scr=      2
 Normal termination of Gaussian 16 at Wed Feb 26 13:54:12 2025.
