Title Card Required                                                     
FOpt      UM062X                                                      6-311+G(d,p)        
Number of atoms                            I                4
Info1-9                                    I   N=           9
          13          13           0           0           0         110
           2          18        -502
Full Title                                 C   N=           2
Title Card Required     
Route                                      C   N=           4
#p opt UM062X/6-311+G** nosymm int=superfine    
Charge                                     I                0
Multiplicity                               I                1
Number of electrons                        I               14
Number of alpha electrons                  I                7
Number of beta electrons                   I                7
Number of basis functions                  I               56
Number of independent functions            I               56
Number of point charges in /Mol/           I                0
Number of translation vectors              I                0
Atomic numbers                             I   N=           4
           6           6           1           1
Nuclear charges                            R   N=           4
  6.00000000E+00  6.00000000E+00  1.00000000E+00  1.00000000E+00
Current cartesian coordinates              R   N=          12
 -1.33461584E+00  0.00000000E+00  0.00000000E+00  1.33461584E+00  0.00000000E+00
  0.00000000E+00 -3.35487136E+00  3.16763420E-05 -3.16875146E-05  3.35486470E+00
  3.96074014E-05 -3.96231219E-05
Number of symbols in /Mol/                 I                0
Force Field                                I                0
Atom Types                                 C   N=           4
                                                
Int Atom Types                             I   N=           4
           0           0           0           0
MM charges                                 R   N=           4
  0.00000000E+00  0.00000000E+00  0.00000000E+00  0.00000000E+00
Integer atomic weights                     I   N=           4
          12          12           1           1
Real atomic weights                        R   N=           4
  1.20000000E+01  1.20000000E+01  1.00782504E+00  1.00782504E+00
Atom fragment info                         I   N=           4
           0           0           0           0
Atom residue num                           I   N=           4
           0           0           0           0
Nuclear spins                              I   N=           4
           0           0           1           1
Nuclear ZEff                               R   N=           4
 -3.60000000E+00 -3.60000000E+00 -1.00000000E+00 -1.00000000E+00
Nuclear ZNuc                               R   N=           4
  6.00000000E+00  6.00000000E+00  1.00000000E+00  1.00000000E+00
Nuclear QMom                               R   N=           4
  0.00000000E+00  0.00000000E+00  0.00000000E+00  0.00000000E+00
Nuclear GFac                               R   N=           4
  0.00000000E+00  0.00000000E+00  2.79284600E+00  2.79284600E+00
MicOpt                                     I   N=           4
          -2          -2          -1          -1
Number of residues                         I                0
Number of secondary structures             I                0
Redundant internal dimensions              I   N=           4
          12           8           4           0
Redundant internal coordinate indices      I   N=          48
           1          -1           0           0           1          -2
           0           0           1          -3           0           0
           2          -1           0           0           2          -2
           0           0           2          -3           0           0
           1           3           0           0           2           4
           0           0           2           1           3          -4
           1           2           4          -4           2           1
           3          -8           1           2           4          -8
Redundant internal coordinates             R   N=          12
 -1.33461584E+00  0.00000000E+00  0.00000000E+00  1.33461584E+00  0.00000000E+00
  0.00000000E+00  2.02025551E+00  2.02024886E+00  3.14160834E+00  3.14157304E+00
  3.14160833E+00  3.14157305E+00
ZRed-IntVec                                I   N=          12
          -1          -1          -1          -1          -1          -1
           0           0           0           0           0           0
ZRed-FPVec                                 R   N=          12
  0.00000000E+00  0.00000000E+00  0.00000000E+00  0.00000000E+00  0.00000000E+00
  0.00000000E+00  0.00000000E+00  0.00000000E+00  0.00000000E+00  0.00000000E+00
  0.00000000E+00  0.00000000E+00
ZRed-Constraint1                           R   N=          12
 -1.33461584E+00  0.00000000E+00  0.00000000E+00  1.33461584E+00  0.00000000E+00
  0.00000000E+00  2.37350096E+00  2.37346529E+00  3.14159265E+00  3.14159264E+00
  3.14159265E+00  3.14159264E+00
ZRed-Constraint2                           R   N=          12
 -1.33461584E+00  0.00000000E+00  0.00000000E+00  1.33461584E+00  0.00000000E+00
  0.00000000E+00  0.00000000E+00  0.00000000E+00  0.00000000E+00  0.00000000E+00
  0.00000000E+00  0.00000000E+00
Number of contracted shells                I               20
Number of primitive shells                 I               38
Pure/Cartesian d shells                    I                0
Pure/Cartesian f shells                    I                0
Highest angular momentum                   I                2
Largest degree of contraction              I                6
Shell types                                I   N=          20
           0          -1          -1          -1          -1          -2
           0          -1          -1          -1          -1          -2
           0           0           0           1           0           0
           0           1
Number of primitives per shell             I   N=          20
           6           3           1           1           1           1
           6           3           1           1           1           1
           3           1           1           1           3           1
           1           1
Shell to atom map                          I   N=          20
           1           1           1           1           1           1
           2           2           2           2           2           2
           3           3           3           3           4           4
           4           4
Primitive exponents                        R   N=          38
  4.56324000E+03  6.82024000E+02  1.54973000E+02  4.44553000E+01  1.30290000E+01
  1.82773000E+00  2.09642000E+01  4.80331000E+00  1.45933000E+00  4.83456000E-01
  1.45585000E-01  4.38000000E-02  6.26000000E-01  4.56324000E+03  6.82024000E+02
  1.54973000E+02  4.44553000E+01  1.30290000E+01  1.82773000E+00  2.09642000E+01
  4.80331000E+00  1.45933000E+00  4.83456000E-01  1.45585000E-01  4.38000000E-02
  6.26000000E-01  3.38650000E+01  5.09479000E+00  1.15879000E+00  3.25840000E-01
  1.02741000E-01  7.50000000E-01  3.38650000E+01  5.09479000E+00  1.15879000E+00
  3.25840000E-01  1.02741000E-01  7.50000000E-01
Contraction coefficients                   R   N=          38
  1.96665025E-03  1.52306019E-02  7.61269097E-02  2.60801033E-01  6.16462078E-01
  2.21006028E-01  1.14660081E-01  9.19999648E-01 -3.03068213E-03  1.00000000E+00
  1.00000000E+00  1.00000000E+00  1.00000000E+00  1.96665025E-03  1.52306019E-02
  7.61269097E-02  2.60801033E-01  6.16462078E-01  2.21006028E-01  1.14660081E-01
  9.19999648E-01 -3.03068213E-03  1.00000000E+00  1.00000000E+00  1.00000000E+00
  1.00000000E+00  2.54938145E-02  1.90373109E-01  8.52161486E-01  1.00000000E+00
  1.00000000E+00  1.00000000E+00  2.54938145E-02  1.90373109E-01  8.52161486E-01
  1.00000000E+00  1.00000000E+00  1.00000000E+00
P(S=P) Contraction coefficients            R   N=          38
  0.00000000E+00  0.00000000E+00  0.00000000E+00  0.00000000E+00  0.00000000E+00
  0.00000000E+00  4.02486927E-02  2.37593957E-01  8.15853851E-01  1.00000000E+00
  1.00000000E+00  1.00000000E+00  0.00000000E+00  0.00000000E+00  0.00000000E+00
  0.00000000E+00  0.00000000E+00  0.00000000E+00  0.00000000E+00  4.02486927E-02
  2.37593957E-01  8.15853851E-01  1.00000000E+00  1.00000000E+00  1.00000000E+00
  0.00000000E+00  0.00000000E+00  0.00000000E+00  0.00000000E+00  0.00000000E+00
  0.00000000E+00  0.00000000E+00  0.00000000E+00  0.00000000E+00  0.00000000E+00
  0.00000000E+00  0.00000000E+00  0.00000000E+00
Coordinates of each shell                  R   N=          60
 -1.33461584E+00  0.00000000E+00  0.00000000E+00 -1.33461584E+00  0.00000000E+00
  0.00000000E+00 -1.33461584E+00  0.00000000E+00  0.00000000E+00 -1.33461584E+00
  0.00000000E+00  0.00000000E+00 -1.33461584E+00  0.00000000E+00  0.00000000E+00
 -1.33461584E+00  0.00000000E+00  0.00000000E+00  1.33461584E+00  0.00000000E+00
  0.00000000E+00  1.33461584E+00  0.00000000E+00  0.00000000E+00  1.33461584E+00
  0.00000000E+00  0.00000000E+00  1.33461584E+00  0.00000000E+00  0.00000000E+00
  1.33461584E+00  0.00000000E+00  0.00000000E+00  1.33461584E+00  0.00000000E+00
  0.00000000E+00 -3.35487136E+00  3.16763420E-05 -3.16875146E-05 -3.35487136E+00
  3.16763420E-05 -3.16875146E-05 -3.35487136E+00  3.16763420E-05 -3.16875146E-05
 -3.35487136E+00  3.16763420E-05 -3.16875146E-05  3.35486470E+00  3.96074014E-05
 -3.96231219E-05  3.35486470E+00  3.96074014E-05 -3.96231219E-05  3.35486470E+00
  3.96074014E-05 -3.96231219E-05  3.35486470E+00  3.96074014E-05 -3.96231219E-05
Num ILSW                                   I              100
ILSW                                       I   N=         100
           1           0           0           1           2           0
           0           0           0           0        4336          -1
           7           0           0           0           2           0
           0           0           0           0           1           0
           1           1           0           0           0           0
           0           0      100000           0          -1           0
           0           0           0           0           0           0
           0           0           0           1           0           0
           0 -2000000000           1           0           0           0
           0           0           4          52           0           0
           0           0          55           0           0           0
           0           0           0           4           0           1
           0           0           0           0           0           0
           0           0           0           0           0           0
           0           0           0           0           0           0
           0           0           0           0           0           0
           0           0           0           0
Num RLSW                                   I               52
RLSW                                       R   N=          52
  1.00000000E+00  1.00000000E+00  1.00000000E+00  1.00000000E+00  5.40000000E-01
  0.00000000E+00  0.00000000E+00  1.00000000E+00  0.00000000E+00  0.00000000E+00
  0.00000000E+00  0.00000000E+00  1.00000000E+00  0.00000000E+00  0.00000000E+00
  0.00000000E+00  0.00000000E+00  1.00000000E+00  0.00000000E+00  0.00000000E+00
  0.00000000E+00  0.00000000E+00  1.00000000E+00  0.00000000E+00  0.00000000E+00
  0.00000000E+00  0.00000000E+00  1.00000000E+00  0.00000000E+00  0.00000000E+00
  0.00000000E+00  0.00000000E+00  1.00000000E+00  0.00000000E+00  0.00000000E+00
  0.00000000E+00  0.00000000E+00  0.00000000E+00  1.00000000E+00  1.00000000E+00
  0.00000000E+00  1.00000000E+00  0.00000000E+00  0.00000000E+00  0.00000000E+00
  0.00000000E+00  0.00000000E+00  0.00000000E+00  0.00000000E+00  0.00000000E+00
  0.00000000E+00  0.00000000E+00
MxBond                                     I                2
NBond                                      I   N=           4
           2           2           1           1
IBond                                      I   N=           8
           2           3           1           4           1           0
           2           0
RBond                                      R   N=           8
  1.50000000E+00  1.00000000E+00  1.50000000E+00  1.00000000E+00  1.00000000E+00
  0.00000000E+00  1.00000000E+00  0.00000000E+00
Virial Ratio                               R      2.013059496982003E+00
SCF Energy                                 R     -7.725091893558678E+01
Total Energy                               R     -7.725091893558678E+01
S**2                                       R     -5.329070518200751E-15
S**2 after annihilation                    R     -5.329070518200742E-14
RMS Force                                  R      4.053874261387261E-06
RMS Density                                R      7.220221158611873E-09
Job Status                                 I                1
Nuclear derivative order                   I                1
External E-field                           R   N=          35
  0.00000000E+00  0.00000000E+00  0.00000000E+00  0.00000000E+00  0.00000000E+00
  0.00000000E+00  0.00000000E+00  0.00000000E+00  0.00000000E+00  0.00000000E+00
  0.00000000E+00  0.00000000E+00  0.00000000E+00  0.00000000E+00  0.00000000E+00
  0.00000000E+00  0.00000000E+00  0.00000000E+00  0.00000000E+00  0.00000000E+00
  0.00000000E+00  0.00000000E+00  0.00000000E+00  0.00000000E+00  0.00000000E+00
  0.00000000E+00  0.00000000E+00  0.00000000E+00  0.00000000E+00  0.00000000E+00
  0.00000000E+00  0.00000000E+00  0.00000000E+00  0.00000000E+00  0.00000000E+00
IOpCl                                      I                1
IROHF                                      I                0
Alpha Orbital Energies                     R   N=          56
 -1.06054154E+01 -1.06046377E+01 -8.12150205E-01 -6.72525527E-01 -5.58542832E-01
 -3.28398049E-01 -3.28398049E-01  6.07757849E-03  6.07757869E-03  2.22116534E-02
  2.45248602E-02  8.01293714E-02  8.01293715E-02  9.34221038E-02  1.22998490E-01
  1.22998490E-01  1.27763868E-01  1.85124915E-01  2.36427508E-01  3.38751320E-01
  4.57330541E-01  5.84036641E-01  5.84036641E-01  6.27323011E-01  6.27323011E-01
  7.12505746E-01  7.21771256E-01  8.08647226E-01  8.29789152E-01  1.04692087E+00
  1.04692087E+00  1.05773645E+00  1.24042209E+00  1.24042273E+00  1.42221810E+00
  1.42221811E+00  1.51802923E+00  1.51803005E+00  1.68409595E+00  1.78162948E+00
  1.78162948E+00  1.95722329E+00  2.35521925E+00  2.35521925E+00  2.50259668E+00
  2.70420744E+00  2.75352797E+00  2.75352797E+00  2.86599924E+00  2.91090406E+00
  2.91090406E+00  3.23161815E+00  3.28424825E+00  3.67451522E+00  2.35845986E+01
  2.44015768E+01
Beta Orbital Energies                      R   N=          56
 -1.06054154E+01 -1.06046377E+01 -8.12150205E-01 -6.72525527E-01 -5.58542832E-01
 -3.28398049E-01 -3.28398049E-01  6.07757849E-03  6.07757869E-03  2.22116534E-02
  2.45248602E-02  8.01293714E-02  8.01293715E-02  9.34221038E-02  1.22998490E-01
  1.22998490E-01  1.27763868E-01  1.85124915E-01  2.36427508E-01  3.38751320E-01
  4.57330541E-01  5.84036641E-01  5.84036641E-01  6.27323011E-01  6.27323011E-01
  7.12505746E-01  7.21771256E-01  8.08647226E-01  8.29789152E-01  1.04692087E+00
  1.04692087E+00  1.05773645E+00  1.24042209E+00  1.24042273E+00  1.42221810E+00
  1.42221811E+00  1.51802923E+00  1.51803005E+00  1.68409595E+00  1.78162948E+00
  1.78162948E+00  1.95722329E+00  2.35521925E+00  2.35521925E+00  2.50259668E+00
  2.70420744E+00  2.75352797E+00  2.75352797E+00  2.86599924E+00  2.91090406E+00
  2.91090406E+00  3.23161815E+00  3.28424825E+00  3.67451522E+00  2.35845986E+01
  2.44015768E+01
Alpha MO coefficients                      R   N=        3136
  3.98989235E-01  3.28240910E-01  1.38409930E-04 -2.03216329E-08  2.03296186E-08
  7.74463794E-03 -2.07976582E-03  4.87952524E-08 -4.88131427E-08 -3.08688394E-03
  2.96943391E-04 -1.15264484E-08  1.15308197E-08 -4.37808570E-04  1.55739416E-03
 -4.31905447E-09  4.31979377E-09 -4.47576663E-04  2.71966262E-08 -4.20621558E-13
  7.75225521E-04 -2.71873502E-08  3.98830475E-01  3.28110519E-01 -1.38671604E-04
 -1.72837978E-08  1.72899985E-08  7.74084459E-03  2.08026887E-03  5.41574850E-08
 -5.41784346E-08 -3.08311834E-03 -3.01044973E-04 -1.13830294E-08  1.13873012E-08
 -4.34734630E-04 -1.55827808E-03 -1.33761018E-08  1.33820384E-08 -4.46847845E-04
 -3.72039884E-08 -7.58538375E-13  7.73963172E-04  3.71889778E-08  1.10457002E-04
 -3.07354521E-03  2.92707443E-03 -1.77919157E-03  2.51599870E-08 -2.51689135E-08
  1.10488748E-04 -3.07138028E-03  2.92782349E-03  1.77826450E-03  3.08814814E-08
 -3.08936971E-08 -3.98975112E-01 -3.27671748E-01  6.48868862E-04  1.35841184E-08
 -1.35894982E-08 -9.63373663E-03 -1.15405531E-03 -2.57851687E-08  2.57938986E-08
  9.51224153E-03  1.03840533E-02 -7.32526180E-08  7.32796784E-08  8.14948461E-03
  2.32452741E-03 -2.93300573E-08  2.93409236E-08  1.85576617E-03 -5.74488517E-08
  7.73608337E-13 -3.21428129E-03  5.74281950E-08  3.99133812E-01  3.27802305E-01
  6.48812592E-04 -1.12118501E-08  1.12158239E-08  9.63685706E-03 -1.15318372E-03
  3.60701055E-08 -3.60847117E-08 -9.51342775E-03  1.03839485E-02  7.90842733E-08
 -7.91146854E-08 -8.14966209E-03  2.32391031E-03  3.13631460E-08 -3.13751768E-08
 -1.85595384E-03 -6.77790853E-08 -1.10606146E-12  3.21460635E-03  6.77525147E-08
  1.02931101E-04  5.60784785E-03  1.82600268E-03  2.40176082E-03 -5.53034381E-08
  5.53226256E-08 -1.02903305E-04 -5.60913096E-03 -1.82484717E-03  2.40249309E-03
  7.23953828E-08 -7.24243724E-08 -8.72605761E-02 -1.40305410E-01  3.78703197E-02
  3.97893212E-07 -3.98034355E-07  3.76564862E-01  4.54755207E-02  5.61885631E-07
 -5.62082560E-07  2.32744143E-01  5.13671647E-03  2.37212102E-07 -2.37294828E-07
  2.60371135E-04 -1.54996512E-02  4.23834894E-08 -4.23937037E-08 -1.08254072E-02
  2.25789734E-07 -4.35335760E-12  1.87501552E-02 -2.25710094E-07 -8.72608513E-02
 -1.40305857E-01 -3.78698410E-02  4.88746285E-07 -4.88939644E-07  3.76565995E-01
 -4.54750104E-02  7.12552605E-07 -7.12836482E-07  2.32744902E-01 -5.13659593E-03
  3.06550321E-07 -3.06672738E-07  2.60090047E-04  1.54997308E-02  1.00878686E-07
 -1.00922521E-07 -1.08254664E-02 -2.82723446E-07 -5.15051891E-12  1.87502579E-02
  2.82611313E-07  6.14809637E-02  6.80048774E-02 -7.02817241E-03  6.12009462E-03
 -2.22881922E-08  2.22955234E-08  6.14816907E-02  6.80055573E-02 -7.02816652E-03
 -6.12017412E-03 -3.33590839E-08  3.33727470E-08 -6.36518130E-02 -1.03780262E-01
 -9.00549560E-02  8.59263345E-07 -8.59556638E-07  2.82057173E-01 -1.16667645E-01
  9.95915843E-07 -9.96247177E-07  2.28299791E-01 -4.96569175E-02  5.10457115E-07
 -5.10633035E-07 -2.06220515E-01 -6.20947334E-02  1.83746216E-07 -1.83814358E-07
 -8.37321619E-03  4.35685354E-07 -5.54818448E-12  1.45028359E-02 -4.35527622E-07
  6.36514419E-02  1.03779645E-01 -9.00567453E-02 -1.17302364E-06  1.17349706E-06
 -2.82055310E-01 -1.16669746E-01 -1.44594520E-06  1.44653509E-06 -2.28298225E-01
 -4.96574960E-02 -6.80023440E-07  6.80296636E-07  2.06220544E-01 -6.20945668E-02
 -1.95691034E-07  1.95766040E-07  8.37315143E-03  5.02298503E-07  7.25070528E-12
 -1.45027237E-02 -5.02102497E-07  1.30171678E-01  1.69639251E-01  2.28163465E-02
  1.77567220E-02 -3.22146526E-07  3.22261602E-07 -1.30172798E-01 -1.69640473E-01
 -2.28166726E-02  1.77569223E-02  3.88026432E-07 -3.88179283E-07 -6.14614937E-03
 -1.06032444E-02  1.82270961E-01 -1.70379717E-06  1.70440988E-06  3.55941972E-02
  2.41370312E-01 -2.28508424E-06  2.28591111E-06 -3.48881573E-03  1.13094867E-01
 -1.08209013E-06  1.08247691E-06 -5.47476604E-03  4.65020244E-03 -3.53137795E-08
  3.53227794E-08 -2.54655797E-03  7.18811352E-09  2.18001139E-12  4.41076778E-03
 -7.17650991E-09 -6.14660848E-03 -1.06040141E-02 -1.82270422E-01 -2.00729082E-06
  2.00807819E-06  3.55964625E-02 -2.41369196E-01 -2.63979168E-06  2.64082281E-06
 -3.48651782E-03 -1.13094110E-01 -1.29442557E-06  1.29493538E-06 -5.47754160E-03
 -4.64930651E-03 -7.90536118E-08  7.90877575E-08 -2.54661766E-03  8.24958802E-08
  4.01657565E-12  4.41087117E-03 -8.24558744E-08 -1.31077773E-01 -1.95518066E-01
 -4.30407808E-02 -2.25790546E-02  4.33672329E-07 -4.33823759E-07 -1.31077024E-01
 -1.95516694E-01 -4.30404756E-02  2.25789838E-02  5.58037019E-07 -5.58259731E-07
  2.53636630E-07  4.18333281E-07  3.37083762E-06  1.29252712E-01 -1.28411477E-01
 -9.97768790E-07  5.15557145E-06  2.05356600E-01 -2.04020048E-01 -4.32216333E-06
  3.01058336E-06  1.74905435E-01 -1.73767072E-01 -2.58694806E-06  2.97260619E-07
  1.98634204E-02 -1.97341404E-02  2.81084885E-09 -1.37070722E-02 -2.54118769E-08
 -5.03382613E-09  1.37968684E-02  5.36696447E-07  8.99633647E-07 -3.60430508E-06
  1.29252717E-01 -1.28411482E-01 -2.46551945E-06 -5.67730954E-06  2.05356626E-01
 -2.04020073E-01 -5.06651164E-06 -4.83175237E-06  1.74905449E-01 -1.73767086E-01
  1.29593074E-06 -1.59568267E-06  1.98633918E-02 -1.97341120E-02  3.65164263E-08
  1.37070767E-02 -9.09087858E-08 -6.38038833E-08 -1.37968730E-02  7.14135495E-08
 -2.62378595E-07 -4.74094464E-07  5.00477461E-07  1.18204559E-02 -1.17435231E-02
  3.49992958E-07  5.49711795E-07  2.19940390E-07 -7.11083358E-07  1.18205107E-02
 -1.17435775E-02 -8.61905678E-10 -1.42085649E-09 -1.16296588E-08  1.28411477E-01
  1.29252712E-01  3.37307027E-09 -1.77789528E-08  2.04020048E-01  2.05356600E-01
  1.48874003E-08 -1.03079036E-08  1.73767072E-01  1.74905435E-01  9.11853586E-09
 -9.64525908E-10  1.97341404E-02  1.98634204E-02 -2.23408385E-08  1.37968684E-02
  8.14867180E-11 -1.28793531E-08  1.37070722E-02 -1.86747009E-09 -3.13067661E-09
  1.24586401E-08  1.28411482E-01  1.29252717E-01  8.58722975E-09  1.96318421E-08
  2.04020073E-01  2.05356626E-01  1.75358908E-08  1.67752005E-08  1.73767086E-01
  1.74905449E-01 -4.66010038E-09  5.57268207E-09  1.97341120E-02  1.98633918E-02
 -7.92661707E-08 -1.37968730E-02  2.76343340E-10 -4.54673369E-08 -1.37070767E-02
 -2.32767955E-10  9.46670938E-10  1.67222929E-09 -1.71800850E-09  1.17435231E-02
  1.18204559E-02 -1.22253161E-09 -1.93893496E-09 -7.94480699E-10  2.46605548E-09
  1.17435775E-02  1.18205107E-02 -3.50991113E-06 -5.93707240E-06 -5.85460860E-07
 -1.17457248E-01  1.17505822E-01  1.83992925E-05 -2.66138387E-06 -1.83350685E-01
  1.83426508E-01  1.92769614E-05 -2.25947444E-05 -2.79444641E-01  2.79560203E-01
  4.35034922E-04  1.49213493E-04 -5.21424162E-01  5.21639793E-01  8.09053613E-07
 -2.22577951E-02  1.08420486E-07 -1.40140116E-06  2.22485944E-02  3.55989565E-06
  6.01607545E-06 -1.41985505E-06  1.17457249E-01 -1.17505822E-01 -1.84476143E-05
 -3.80172865E-06  1.83350681E-01 -1.83426504E-01 -2.18058645E-05 -2.49197129E-05
  2.79444688E-01 -2.79560250E-01 -4.40445022E-04  1.45279104E-04  5.21423948E-01
 -5.21639578E-01 -8.80640850E-07 -2.22577927E-02 -1.77032462E-07  1.52546194E-06
  2.22485920E-02 -4.84330340E-06 -1.95465985E-05 -1.37230484E-05  2.68480530E-07
 -2.04994425E-02  2.05079199E-02  5.50297916E-06  2.07944136E-05  1.82072999E-05
  2.03821306E-07  2.04994510E-02 -2.05079283E-02  6.60651813E-11  1.11480109E-10
  5.16252888E-11  1.17505822E-01  1.17457248E-01 -3.35805146E-10  1.04363402E-10
  1.83426509E-01  1.83350686E-01 -4.73672944E-10  5.23864338E-10  2.79560203E-01
  2.79444641E-01 -8.15477907E-09 -2.51114671E-09  5.21639794E-01  5.21424164E-01
 -9.42719367E-08 -2.22485945E-02 -3.94374625E-11 -5.43860026E-08 -2.22577952E-02
 -6.21070653E-11 -1.05224468E-10 -1.52683683E-11 -1.17505822E-01 -1.17457249E-01
  3.32211150E-10  1.28170033E-11 -1.83426504E-01 -1.83350681E-01  2.71174768E-10
  3.37445382E-10 -2.79560251E-01 -2.79444689E-01  7.71907361E-09 -2.82846992E-09
 -5.21639579E-01 -5.21423949E-01  1.53775038E-07 -2.22485920E-02  7.34108018E-11
  8.87532342E-08 -2.22577927E-02  1.20111382E-10  4.15535641E-10  4.69627677E-10
 -1.66471791E-12  2.05079199E-02  2.04994426E-02 -6.74541938E-11 -3.15799916E-10
 -1.09171127E-10 -6.90184657E-12 -2.05079284E-02 -2.04994510E-02  2.77694645E-02
  4.70103070E-02  1.27249622E-02 -5.71146541E-06  5.71360836E-06 -1.49585008E-01
  4.34424630E-02 -9.34552748E-06  9.34903024E-06 -3.37863499E-01 -2.48573261E-01
 -1.17792371E-05  1.17836757E-05 -1.24065294E+01 -4.40564151E+00 -9.99175138E-06
  9.99563128E-06 -5.59333869E-03 -1.05885873E-06  1.48759896E-11  9.68794679E-03
  1.05845623E-06 -2.77686203E-02 -4.70088543E-02  1.27228315E-02  5.82989556E-06
 -5.83210677E-06  1.49580048E-01  4.34384273E-02  9.57632613E-06 -9.57996194E-06
  3.37859835E-01 -2.48575269E-01  1.18323125E-05 -1.18367817E-05  1.24065835E+01
 -4.40558078E+00  8.86169384E-06 -8.86492668E-06  5.59360953E-03 -1.02666782E-06
 -1.93563510E-11 -9.68841590E-03  1.02628382E-06  1.03107437E-02  7.66757908E-02
 -4.42551864E-01 -1.80379620E-02 -7.95355782E-07  7.95661395E-07 -1.03118491E-02
 -7.66704813E-02  4.42518038E-01 -1.80373982E-02  7.38531168E-07 -7.38804237E-07
  1.61347396E-02  2.79409110E-02  3.06857650E-02 -3.83150038E-07  3.83330300E-07
 -9.75716204E-02  6.80046808E-02 -9.95010834E-07  9.95428017E-07 -2.24140109E-02
 -6.08104185E-03 -5.00177297E-09  5.15105811E-09  1.12089842E+00 -1.16455906E+00
  3.87951597E-06 -3.88020478E-06  7.03200005E-03 -3.03205440E-07  7.63404781E-12
 -1.21797814E-02  3.03092361E-07  1.61359815E-02  2.79430276E-02 -3.06864020E-02
 -2.30590268E-08  2.30320052E-08 -9.75785865E-02 -6.80071914E-02 -5.74883638E-07
  5.75058727E-07 -2.24303047E-02  6.09757105E-03  1.48747946E-06 -1.48818810E-06
  1.12031260E+00  1.16477074E+00  1.17653272E-05 -1.17705406E-05  7.03180820E-03
  3.17095506E-07  9.12424666E-12 -1.21794491E-02 -3.16974650E-07 -2.89447340E-02
  8.33577919E-02 -7.54413032E-01 -7.29474026E-03  8.50931788E-08 -8.51143456E-08
 -2.89445064E-02  8.33607099E-02 -7.54440720E-01  7.29545626E-03  1.95796924E-07
 -1.95881727E-07 -7.79332689E-08 -1.47867596E-07 -3.79209714E-07 -5.03029275E-02
  4.99758411E-02  8.56018369E-07 -3.52459061E-07 -4.10811207E-02  4.08139975E-02
 -4.50876785E-06 -5.74358995E-07 -2.20065812E-01  2.18634870E-01 -3.46644464E-05
  9.34363373E-06  4.64977695E-01 -4.61954255E-01  3.20682861E-08  6.48858201E-03
  2.81890342E-08 -5.53672231E-08 -6.53104907E-03 -1.02814892E-07 -1.87462646E-07
  3.75959565E-07 -5.03028074E-02  4.99757217E-02  9.57476780E-07  3.19774284E-07
 -4.10809624E-02  4.08138402E-02 -2.95272919E-06 -2.17190079E-06 -2.20065434E-01
  2.18634495E-01  1.62567344E-05 -2.51066867E-05  4.64977171E-01 -4.61953734E-01
  5.34908280E-08 -6.48858767E-03  5.28001246E-08 -9.23255969E-08  6.53105477E-03
 -6.43884389E-08  1.59579225E-06  6.06025909E-06 -1.01984460E-07  3.20352442E-03
 -3.18269404E-03 -1.92276016E-07  2.56002464E-06  6.94339948E-06  1.12009776E-07
  3.20349351E-03 -3.18266333E-03  2.67647281E-10  5.08202796E-10  1.30858444E-09
 -4.99758411E-02 -5.03029275E-02 -2.94848236E-09  1.21779521E-09 -4.08139975E-02
 -4.10811207E-02  1.56337818E-08  2.11549857E-09 -2.18634870E-01 -2.20065812E-01
  1.22096253E-07 -3.14688182E-08  4.61954255E-01  4.64977695E-01  2.44365230E-08
 -6.53104907E-03 -8.78635052E-11  1.43609066E-08 -6.48858201E-03  3.56003201E-10
  6.48813974E-10 -1.29698609E-09 -4.99757217E-02 -5.03028074E-02 -3.30873986E-09
 -1.10163316E-09 -4.08138402E-02 -4.10809623E-02  1.01110604E-08  7.62778050E-09
 -2.18634495E-01 -2.20065434E-01 -5.85826116E-08  8.73968668E-08  4.61953734E-01
  4.64977171E-01  4.57072933E-08  6.53105478E-03 -1.61029834E-10  2.68166493E-08
  6.48858768E-03  2.15780661E-10 -5.45897366E-09 -2.08693048E-08  3.51392088E-10
  3.18269403E-03  3.20352441E-03  6.69789786E-10 -8.88016590E-09 -2.39984249E-08
 -3.86990795E-10  3.18266332E-03  3.20349351E-03 -7.92428578E-03 -1.21437493E-02
  6.27606357E-02 -5.28435085E-07  5.28614169E-07  1.31517878E-02  3.64247213E-02
 -7.05718092E-08  7.05745776E-08  2.00075553E-01  2.47586433E-01 -2.76695275E-06
  2.76790523E-06 -4.35043967E-01 -1.03876161E+00  2.34759755E-06 -2.34898970E-06
 -2.04193901E-02  5.54382913E-07 -8.02135272E-12  3.53674212E-02 -5.54181809E-07
 -7.92475890E-03 -1.21445619E-02 -6.27608362E-02 -7.36420567E-07  7.36718595E-07
  1.31542974E-02 -3.64247769E-02 -3.15165984E-07  3.15308664E-07  2.00079953E-01
 -2.47579404E-01 -3.70657128E-06  3.70806077E-06 -4.35077121E-01  1.03878341E+00
 -2.77883821E-06  2.78039363E-06 -2.04192113E-02 -6.35469703E-07 -1.07108820E-11
  3.53671115E-02  6.35222093E-07  3.11098687E-02  5.16121986E-02  4.34363028E-01
 -3.09599808E-02  3.07461074E-07 -3.07577207E-07  3.11084584E-02  5.16085563E-02
  4.34343927E-01  3.09601076E-02  3.06197824E-07 -3.06313204E-07  1.49777426E-05
  2.51703712E-05 -9.25225696E-06  9.00946636E-02 -9.01188146E-02 -7.47471836E-05
 -1.81250158E-05  9.93006080E-02 -9.93272269E-02 -1.21053778E-04  2.35649170E-04
  4.40000571E-01 -4.40118519E-01 -2.37182821E-03 -3.74430294E-04 -1.43373620E+00
  1.43412053E+00 -9.65338614E-06  8.90740787E-03 -1.06446498E-07  1.67202184E-05
 -8.90502076E-03 -1.50935402E-05 -2.53541586E-05 -8.92699739E-06 -9.00946691E-02
  9.01188202E-02  7.50453610E-05 -1.76865393E-05 -9.93006211E-02  9.93272400E-02
  1.25240664E-04  2.37225206E-04 -4.40000662E-01  4.40118610E-01  2.37000680E-03
 -3.72559431E-04  1.43373646E+00 -1.43412079E+00  9.61231726E-06  8.90742582E-03
  1.64280199E-07 -1.66491339E-05 -8.90503871E-03  3.42688681E-05  8.11533799E-05
  6.52050685E-04 -5.19178560E-06  2.90920685E-03 -2.90998670E-03 -3.44561041E-05
 -8.13939273E-05 -6.54218089E-04 -5.04536305E-06 -2.90925598E-03  2.91003584E-03
  8.11859973E-10  1.36487941E-09 -5.20970596E-10 -9.01188209E-02 -9.00946698E-02
 -4.06547577E-09 -1.01091025E-09 -9.93272340E-02 -9.93006151E-02 -6.40121707E-09
  1.27855356E-08 -4.40118552E-01 -4.40000604E-01 -1.29557430E-07 -2.05330754E-08
  1.43412059E+00  1.43373626E+00  9.19267492E-08  8.90502137E-03  3.14650790E-11