 Entering Gaussian System, Link 0=g16
 Initial command:
 /home/szhao/Apps/g16/l1.exe "/home/szhao/tmp/Gau-56414.inp" -scrdir="/home/szhao/tmp/"
 Default is to use a total of  16 processors:
                               16 via shared-memory
                                1 via Linda
 Entering Link 1 = /home/szhao/Apps/g16/l1.exe PID=     56416.
  
 Copyright (c) 1988,1990,1992,1993,1995,1998,2003,2009,2016,
            Gaussian, Inc.  All Rights Reserved.
  
 This is part of the Gaussian(R) 16 program.  It is based on
 the Gaussian(R) 09 system (copyright 2009, Gaussian, Inc.),
 the Gaussian(R) 03 system (copyright 2003, Gaussian, Inc.),
 the Gaussian(R) 98 system (copyright 1998, Gaussian, Inc.),
 the Gaussian(R) 94 system (copyright 1995, Gaussian, Inc.),
 the Gaussian 92(TM) system (copyright 1992, Gaussian, Inc.),
 the Gaussian 90(TM) system (copyright 1990, Gaussian, Inc.),
 the Gaussian 88(TM) system (copyright 1988, Gaussian, Inc.),
 the Gaussian 86(TM) system (copyright 1986, Carnegie Mellon
 University), and the Gaussian 82(TM) system (copyright 1983,
 Carnegie Mellon University). Gaussian is a federally registered
 trademark of Gaussian, Inc.
  
 This software contains proprietary and confidential information,
 including trade secrets, belonging to Gaussian, Inc.
  
 This software is provided under written license and may be
 used, copied, transmitted, or stored only in accord with that
 written license.
  
 The following legend is applicable only to US Government
 contracts under FAR:
  
                    RESTRICTED RIGHTS LEGEND
  
 Use, reproduction and disclosure by the US Government is
 subject to restrictions as set forth in subparagraphs (a)
 and (c) of the Commercial Computer Software - Restricted
 Rights clause in FAR 52.227-19.
  
 Gaussian, Inc.
 340 Quinnipiac St., Bldg. 40, Wallingford CT 06492
  
  
 ---------------------------------------------------------------
 Warning -- This program may not be used in any manner that
 competes with the business of Gaussian, Inc. or will provide
 assistance to any competitor of Gaussian, Inc.  The licensee
 of this program is prohibited from giving any competitor of
 Gaussian, Inc. access to this program.  By using this program,
 the user acknowledges that Gaussian, Inc. is engaged in the
 business of creating and licensing software in the field of
 computational chemistry and represents and warrants to the
 licensee that it is not a competitor of Gaussian, Inc. and that
 it will not use this program in any manner prohibited above.
 ---------------------------------------------------------------
  

 Cite this work as:
 Gaussian 16, Revision A.03,
 M. J. Frisch, G. W. Trucks, H. B. Schlegel, G. E. Scuseria, 
 M. A. Robb, J. R. Cheeseman, G. Scalmani, V. Barone, 
 G. A. Petersson, H. Nakatsuji, X. Li, M. Caricato, A. V. Marenich, 
 J. Bloino, B. G. Janesko, R. Gomperts, B. Mennucci, H. P. Hratchian, 
 J. V. Ortiz, A. F. Izmaylov, J. L. Sonnenberg, D. Williams-Young, 
 F. Ding, F. Lipparini, F. Egidi, J. Goings, B. Peng, A. Petrone, 
 T. Henderson, D. Ranasinghe, V. G. Zakrzewski, J. Gao, N. Rega, 
 G. Zheng, W. Liang, M. Hada, M. Ehara, K. Toyota, R. Fukuda, 
 J. Hasegawa, M. Ishida, T. Nakajima, Y. Honda, O. Kitao, H. Nakai, 
 T. Vreven, K. Throssell, J. A. Montgomery, Jr., J. E. Peralta, 
 F. Ogliaro, M. J. Bearpark, J. J. Heyd, E. N. Brothers, K. N. Kudin, 
 V. N. Staroverov, T. A. Keith, R. Kobayashi, J. Normand, 
 K. Raghavachari, A. P. Rendell, J. C. Burant, S. S. Iyengar, 
 J. Tomasi, M. Cossi, J. M. Millam, M. Klene, C. Adamo, R. Cammi, 
 J. W. Ochterski, R. L. Martin, K. Morokuma, O. Farkas, 
 J. B. Foresman, and D. J. Fox, Gaussian, Inc., Wallingford CT, 2016.
 
 ******************************************
 Gaussian 16:  ES64L-G16RevA.03 25-Dec-2016
                19-Nov-2024 
 ******************************************
 %chk=opt.chk
 %mem=8GB
 %nprocshared=24
 Will use up to   24 processors via shared memory.
 ---------------------------------------
 #p UM062X/6-311+G** force int=superfine
 ---------------------------------------
 1/10=7,30=1,38=1/1,3;
 2/12=2,17=6,18=5,40=1/2;
 3/5=4,6=6,7=111,11=2,25=1,30=1,71=1,74=-55,75=-7,116=2/1,2,3;
 4//1;
 5/5=2,38=5/2;
 6/7=2,8=2,9=2,10=2,28=1/1;
 7/29=1/1,2,3,16;
 1/10=7,30=1/3;
 99//99;
 Leave Link    1 at Tue Nov 19 12:41:48 2024, MaxMem=  1073741824 cpu:               2.0 elap:               0.1
 (Enter /home/szhao/Apps/g16/l101.exe)
 -------------------
 Title Card Required
 -------------------
 Symbolic Z-matrix:
 Charge =  0 Multiplicity = 1
 C                    -0.7101    0.        0. 
 C                     0.71017   0.        0. 
 H                     1.12967  -0.87479   0.50621 
 H                    -1.12958  -0.87579  -0.50449 
 H                     1.12966   0.87579   0.50449 
 H                     1.12968  -0.00097  -1.01069 
 H                    -1.1296    0.87478  -0.50621 
 H                    -1.12961   0.00097   1.01069 
 
 ITRead=  0  0  0  0  0  0  0  0
 MicOpt= -1 -1 -1 -1 -1 -1 -1 -1
 NAtoms=      8 NQM=        8 NQMF=       0 NMMI=      0 NMMIF=      0
                NMic=       0 NMicF=      0.
                    Isotopes and Nuclear Properties:
 (Nuclear quadrupole moments (NQMom) in fm**2, nuclear magnetic moments (NMagM)
  in nuclear magnetons)

  Atom         1           2           3           4           5           6           7           8
 IAtWgt=          12          12           1           1           1           1           1           1
 AtmWgt=  12.0000000  12.0000000   1.0078250   1.0078250   1.0078250   1.0078250   1.0078250   1.0078250
 NucSpn=           0           0           1           1           1           1           1           1
 AtZEff=  -0.0000000  -0.0000000  -0.0000000  -0.0000000  -0.0000000  -0.0000000  -0.0000000  -0.0000000
 NQMom=    0.0000000   0.0000000   0.0000000   0.0000000   0.0000000   0.0000000   0.0000000   0.0000000
 NMagM=    0.0000000   0.0000000   2.7928460   2.7928460   2.7928460   2.7928460   2.7928460   2.7928460
 AtZNuc=   6.0000000   6.0000000   1.0000000   1.0000000   1.0000000   1.0000000   1.0000000   1.0000000
 Leave Link  101 at Tue Nov 19 12:41:48 2024, MaxMem=  1073741824 cpu:               3.3 elap:               0.2
 (Enter /home/szhao/Apps/g16/l103.exe)

 GradGradGradGradGradGradGradGradGradGradGradGradGradGradGradGradGradGrad
 Berny optimization.
 Initialization pass.
 Trust Radius=3.00D-01 FncErr=1.00D-07 GrdErr=1.00D-07 EigMax=2.50D+02 EigMin=1.00D-04
 Number of steps in this run=      2 maximum allowed number of steps=      2.
 GradGradGradGradGradGradGradGradGradGradGradGradGradGradGradGradGradGrad

 Leave Link  103 at Tue Nov 19 12:41:49 2024, MaxMem=  1073741824 cpu:               0.8 elap:               0.1
 (Enter /home/szhao/Apps/g16/l202.exe)
                          Input orientation:                          
 ---------------------------------------------------------------------
 Center     Atomic      Atomic             Coordinates (Angstroms)
 Number     Number       Type             X           Y           Z
 ---------------------------------------------------------------------
      1          6           0       -0.710099    0.000000    0.000000
      2          6           0        0.710171    0.000000    0.000000
      3          1           0        1.129668   -0.874785    0.506208
      4          1           0       -1.129582   -0.875785   -0.504494
      5          1           0        1.129655    0.875786    0.504491
      6          1           0        1.129683   -0.000973   -1.010692
      7          1           0       -1.129595    0.874783   -0.506211
      8          1           0       -1.129612    0.000971    1.010691
 ---------------------------------------------------------------------
                    Distance matrix (angstroms):
                    1          2          3          4          5
     1  C    0.000000
     2  C    1.420270   0.000000
     3  H    2.099104   1.094291   0.000000
     4  H    1.094294   2.099096   2.475021   0.000000
     5  H    2.099097   1.094294   1.750572   3.031535   0.000000
     6  H    2.099118   1.094299   1.750581   2.475038   1.750567
     7  H    1.094291   2.099103   3.031542   1.750569   2.475021
     8  H    1.094298   2.099119   2.475035   1.750568   2.475041
                    6          7          8
     6  H    0.000000
     7  H    2.475033   0.000000
     8  H    3.031568   1.750582   0.000000
 Stoichiometry    C2H6
 Framework group  C1[X(C2H6)]
 Deg. of freedom    18
 Full point group                 C1      NOp   1
 Largest Abelian subgroup         C1      NOp   1
 Largest concise Abelian subgroup C1      NOp   1
                         Standard orientation:                         
 ---------------------------------------------------------------------
 Center     Atomic      Atomic             Coordinates (Angstroms)
 Number     Number       Type             X           Y           Z
 ---------------------------------------------------------------------
      1          6           0        0.710135    0.000003   -0.000002
      2          6           0       -0.710135   -0.000003    0.000001
      3          1           0       -1.129627   -0.920599    0.417136
      4          1           0        1.129621   -0.099036    1.005832
      5          1           0       -1.129622    0.099039   -1.005832
      6          1           0       -1.129649    0.821557    0.588675
      7          1           0        1.129626    0.920600   -0.417134
      8          1           0        1.129650   -0.821557   -0.588674
 ---------------------------------------------------------------------
 Rotational constants (GHZ):          81.8166220          22.0614514          22.0613925
 Leave Link  202 at Tue Nov 19 12:41:49 2024, MaxMem=  1073741824 cpu:               0.4 elap:               0.0
 (Enter /home/szhao/Apps/g16/l301.exe)
 Standard basis: 6-311+G(d,p) (5D, 7F)
 Ernie: Thresh=  0.10000D-02 Tol=  0.10000D-05 Strict=F.
 There are    82 symmetry adapted cartesian basis functions of A   symmetry.
 There are    80 symmetry adapted basis functions of A   symmetry.
    80 basis functions,   120 primitive gaussians,    82 cartesian basis functions
     9 alpha electrons        9 beta electrons
       nuclear repulsion energy        43.5177426339 Hartrees.
 IExCor= 4336 DFT=T Ex+Corr=M062X ExCW=0 ScaHFX=  0.540000
 ScaDFX=  1.000000  1.000000  1.000000  1.000000 ScalE2=  1.000000  1.000000
 IRadAn=      7 IRanWt=     -1 IRanGd=            0 ICorTp=0 IEmpDi=  4
 NAtoms=    8 NActive=    8 NUniq=    8 SFac= 1.00D+00 NAtFMM=   60 NAOKFM=F Big=F
 Integral buffers will be    131072 words long.
 Raffenetti 2 integral format.
 Two-electron integral symmetry is turned on.
 Leave Link  301 at Tue Nov 19 12:41:49 2024, MaxMem=  1073741824 cpu:               2.1 elap:               0.1
 (Enter /home/szhao/Apps/g16/l302.exe)
 NPDir=0 NMtPBC=     1 NCelOv=     1 NCel=       1 NClECP=     1 NCelD=      1
         NCelK=      1 NCelE2=     1 NClLst=     1 CellRange=     0.0.
 One-electron integrals computed using PRISM.
 One-electron integral symmetry used in STVInt
 NBasis=    80 RedAO= T EigKep=  1.25D-04  NBF=    80
 NBsUse=    80 1.00D-06 EigRej= -1.00D+00 NBFU=    80
 Precomputing XC quadrature grid using
 IXCGrd= 4 IRadAn=           7 IRanWt=          -1 IRanGd=           0 AccXCQ= 0.00D+00.
 Generated NRdTot=       0 NPtTot=           0 NUsed=           0 NTot=          32
 NSgBfM=    82    82    82    82    82 MxSgAt=     8 MxSgA2=     8.
 Leave Link  302 at Tue Nov 19 12:41:50 2024, MaxMem=  1073741824 cpu:              10.8 elap:               0.6
 (Enter /home/szhao/Apps/g16/l303.exe)
 DipDrv:  MaxL=1.
 Leave Link  303 at Tue Nov 19 12:41:50 2024, MaxMem=  1073741824 cpu:               0.9 elap:               0.1
 (Enter /home/szhao/Apps/g16/l401.exe)
 ExpMin= 4.38D-02 ExpMax= 4.56D+03 ExpMxC= 6.82D+02 IAcc=3 IRadAn=         7 AccDes= 0.00D+00
 Harris functional with IExCor= 1009 and IRadAn=       7 diagonalized for initial guess.
 HarFok:  IExCor= 1009 AccDes= 0.00D+00 IRadAn=         7 IDoV= 1 UseB2=F ITyADJ=14
 ICtDFT=  3500011 ScaDFX=  1.000000  1.000000  1.000000  1.000000
 FoFCou: FMM=F IPFlag=           0 FMFlag=      100000 FMFlg1=           0
         NFxFlg=           0 DoJE=T BraDBF=F KetDBF=T FulRan=T
         wScrn=  0.000000 ICntrl=       500 IOpCl=  0 I1Cent=   200000004 NGrid=           0
         NMat0=    1 NMatS0=      1 NMatT0=    0 NMatD0=    1 NMtDS0=    0 NMtDT0=    0
 Petite list used in FoFCou.
 Harris En= -79.8332462639531    
 JPrj=0 DoOrth=F DoCkMO=F.
 Initial guess <Sx>= 0.0000 <Sy>= 0.0000 <Sz>= 0.0000 <S**2>= 0.0000 S= 0.0000
 Leave Link  401 at Tue Nov 19 12:41:50 2024, MaxMem=  1073741824 cpu:               9.2 elap:               0.5
 (Enter /home/szhao/Apps/g16/l502.exe)
 Keep R1 and R2 ints in memory in canonical form, NReq=32327004.
 FoFCou: FMM=F IPFlag=           0 FMFlag=           0 FMFlg1=           0
         NFxFlg=           0 DoJE=F BraDBF=F KetDBF=F FulRan=T
         wScrn=  0.000000 ICntrl=       600 IOpCl=  0 I1Cent=           0 NGrid=           0
         NMat0=    1 NMatS0=   3240 NMatT0=    0 NMatD0=    1 NMtDS0=    0 NMtDT0=    0
 Symmetry not used in FoFCou.
 Two-electron integral symmetry not used.
 UHF open shell SCF:
 Using DIIS extrapolation, IDIIS=  1040.
 NGot=  1073741824 LenX=  1063224540 LenY=  1063217375
 Requested convergence on RMS density matrix=1.00D-08 within 128 cycles.
 Requested convergence on MAX density matrix=1.00D-06.
 Requested convergence on             energy=1.00D-06.
 No special actions if energy rises.

 Cycle   1  Pass 1  IDiag  1:
 E= -79.6369247663909    
 DIIS: error= 6.21D-02 at cycle   1 NSaved=   1.
 NSaved= 1 IEnMin= 1 EnMin= -79.6369247663909     IErMin= 1 ErrMin= 6.21D-02
 ErrMax= 6.21D-02  0.00D+00 EMaxC= 1.00D-01 BMatC= 6.40D-01 BMatP= 6.40D-01
 IDIUse=3 WtCom= 3.79D-01 WtEn= 6.21D-01
 Coeff-Com:  0.100D+01
 Coeff-En:   0.100D+01
 Coeff:      0.100D+01
 Gap=     0.340 Goal=   None    Shift=    0.000
 Gap=     0.340 Goal=   None    Shift=    0.000
 GapD=    0.340 DampG=1.000 DampE=0.500 DampFc=0.5000 IDamp=-1.
 Damping current iteration by 5.00D-01
 RMSDP=5.75D-03 MaxDP=1.14D-01              OVMax= 1.78D-01

 Cycle   2  Pass 1  IDiag  1:
 E= -79.7146851365243     Delta-E=       -0.077760370133 Rises=F Damp=T
 DIIS: error= 1.18D-02 at cycle   2 NSaved=   2.
 NSaved= 2 IEnMin= 2 EnMin= -79.7146851365243     IErMin= 2 ErrMin= 1.18D-02
 ErrMax= 1.18D-02  0.00D+00 EMaxC= 1.00D-01 BMatC= 1.94D-02 BMatP= 6.40D-01
 IDIUse=3 WtCom= 8.82D-01 WtEn= 1.18D-01
 Coeff-Com: -0.554D-01 0.106D+01
 Coeff-En:   0.000D+00 0.100D+01
 Coeff:     -0.489D-01 0.105D+01
 Gap=     0.478 Goal=   None    Shift=    0.000
 Gap=     0.478 Goal=   None    Shift=    0.000
 RMSDP=1.38D-03 MaxDP=1.81D-02 DE=-7.78D-02 OVMax= 9.53D-02

 Cycle   3  Pass 1  IDiag  1:
 E= -79.7900303128037     Delta-E=       -0.075345176279 Rises=F Damp=F
 DIIS: error= 2.52D-03 at cycle   3 NSaved=   3.
 NSaved= 3 IEnMin= 3 EnMin= -79.7900303128037     IErMin= 3 ErrMin= 2.52D-03
 ErrMax= 2.52D-03  0.00D+00 EMaxC= 1.00D-01 BMatC= 1.02D-03 BMatP= 1.94D-02
 IDIUse=3 WtCom= 9.75D-01 WtEn= 2.52D-02
 Coeff-Com: -0.284D-01 0.135D+00 0.894D+00
 Coeff-En:   0.000D+00 0.000D+00 0.100D+01
 Coeff:     -0.277D-01 0.131D+00 0.896D+00
 Gap=     0.412 Goal=   None    Shift=    0.000
 Gap=     0.412 Goal=   None    Shift=    0.000
 RMSDP=1.26D-04 MaxDP=1.24D-03 DE=-7.53D-02 OVMax= 5.05D-03

 Cycle   4  Pass 1  IDiag  1:
 E= -79.7902606536275     Delta-E=       -0.000230340824 Rises=F Damp=F
 DIIS: error= 6.95D-04 at cycle   4 NSaved=   4.
 NSaved= 4 IEnMin= 4 EnMin= -79.7902606536275     IErMin= 4 ErrMin= 6.95D-04
 ErrMax= 6.95D-04  0.00D+00 EMaxC= 1.00D-01 BMatC= 2.30D-05 BMatP= 1.02D-03
 IDIUse=3 WtCom= 9.93D-01 WtEn= 6.95D-03
 Coeff-Com: -0.128D-02-0.101D-02 0.125D+00 0.878D+00
 Coeff-En:   0.000D+00 0.000D+00 0.000D+00 0.100D+01
 Coeff:     -0.127D-02-0.101D-02 0.124D+00 0.878D+00
 Gap=     0.412 Goal=   None    Shift=    0.000
 Gap=     0.412 Goal=   None    Shift=    0.000
 RMSDP=2.75D-05 MaxDP=4.98D-04 DE=-2.30D-04 OVMax= 1.21D-03

 Cycle   5  Pass 1  IDiag  1:
 E= -79.7902667914283     Delta-E=       -0.000006137801 Rises=F Damp=F
 DIIS: error= 5.78D-05 at cycle   5 NSaved=   5.
 NSaved= 5 IEnMin= 5 EnMin= -79.7902667914283     IErMin= 5 ErrMin= 5.78D-05
 ErrMax= 5.78D-05  0.00D+00 EMaxC= 1.00D-01 BMatC= 4.23D-07 BMatP= 2.30D-05
 IDIUse=1 WtCom= 1.00D+00 WtEn= 0.00D+00
 Coeff-Com:  0.117D-02-0.292D-02-0.323D-01-0.788D-01 0.111D+01
 Coeff:      0.117D-02-0.292D-02-0.323D-01-0.788D-01 0.111D+01
 Gap=     0.412 Goal=   None    Shift=    0.000
 Gap=     0.412 Goal=   None    Shift=    0.000
 RMSDP=6.66D-06 MaxDP=8.72D-05 DE=-6.14D-06 OVMax= 2.61D-04

 Cycle   6  Pass 1  IDiag  1:
 E= -79.7902669643197     Delta-E=       -0.000000172891 Rises=F Damp=F
 DIIS: error= 6.71D-06 at cycle   6 NSaved=   6.
 NSaved= 6 IEnMin= 6 EnMin= -79.7902669643197     IErMin= 6 ErrMin= 6.71D-06
 ErrMax= 6.71D-06  0.00D+00 EMaxC= 1.00D-01 BMatC= 4.13D-09 BMatP= 4.23D-07
 IDIUse=1 WtCom= 1.00D+00 WtEn= 0.00D+00
 Coeff-Com: -0.143D-03 0.250D-03 0.114D-02-0.141D-02-0.885D-01 0.109D+01
 Coeff:     -0.143D-03 0.250D-03 0.114D-02-0.141D-02-0.885D-01 0.109D+01
 Gap=     0.412 Goal=   None    Shift=    0.000
 Gap=     0.412 Goal=   None    Shift=    0.000
 RMSDP=7.55D-07 MaxDP=9.41D-06 DE=-1.73D-07 OVMax= 2.20D-05

 Cycle   7  Pass 1  IDiag  1:
 E= -79.7902669661764     Delta-E=       -0.000000001857 Rises=F Damp=F
 DIIS: error= 3.54D-07 at cycle   7 NSaved=   7.
 NSaved= 7 IEnMin= 7 EnMin= -79.7902669661764     IErMin= 7 ErrMin= 3.54D-07
 ErrMax= 3.54D-07  0.00D+00 EMaxC= 1.00D-01 BMatC= 1.76D-11 BMatP= 4.13D-09
 IDIUse=1 WtCom= 1.00D+00 WtEn= 0.00D+00
 Coeff-Com:  0.165D-04-0.189D-04-0.851D-04-0.118D-03 0.706D-02-0.140D+00
 Coeff-Com:  0.113D+01
 Coeff:      0.165D-04-0.189D-04-0.851D-04-0.118D-03 0.706D-02-0.140D+00
 Coeff:      0.113D+01
 Gap=     0.412 Goal=   None    Shift=    0.000
 Gap=     0.412 Goal=   None    Shift=    0.000
 RMSDP=7.47D-08 MaxDP=8.23D-07 DE=-1.86D-09 OVMax= 2.24D-06

 Cycle   8  Pass 1  IDiag  1:
 E= -79.7902669661867     Delta-E=       -0.000000000010 Rises=F Damp=F
 DIIS: error= 3.22D-08 at cycle   8 NSaved=   8.
 NSaved= 8 IEnMin= 8 EnMin= -79.7902669661867     IErMin= 8 ErrMin= 3.22D-08
 ErrMax= 3.22D-08  0.00D+00 EMaxC= 1.00D-01 BMatC= 1.96D-13 BMatP= 1.76D-11
 IDIUse=1 WtCom= 1.00D+00 WtEn= 0.00D+00
 Coeff-Com:  0.126D-05-0.239D-05-0.307D-05 0.433D-04 0.432D-03-0.643D-02
 Coeff-Com:  0.371D-02 0.100D+01
 Coeff:      0.126D-05-0.239D-05-0.307D-05 0.433D-04 0.432D-03-0.643D-02
 Coeff:      0.371D-02 0.100D+01
 Gap=     0.412 Goal=   None    Shift=    0.000
 Gap=     0.412 Goal=   None    Shift=    0.000
 RMSDP=4.15D-09 MaxDP=8.61D-08 DE=-1.03D-11 OVMax= 1.26D-07

 SCF Done:  E(UM062X) =  -79.7902669662     A.U. after    8 cycles
            NFock=  8  Conv=0.42D-08     -V/T= 2.0026
 <Sx>= 0.0000 <Sy>= 0.0000 <Sz>= 0.0000 <S**2>=-0.0000 S=-0.0000
 <L.S>=  0.00000000000    
 KE= 7.958485881193D+01 PE=-2.713267266783D+02 EE= 6.843385826634D+01
 Annihilation of the first spin contaminant:
 S**2 before annihilation    -0.0000,   after     0.0000
 Leave Link  502 at Tue Nov 19 12:41:56 2024, MaxMem=  1073741824 cpu:             117.9 elap:               6.0
 (Enter /home/szhao/Apps/g16/l601.exe)
 Copying SCF densities to generalized density rwf, IOpCl= 1 IROHF=0.

 **********************************************************************

            Population analysis using the SCF density.

 **********************************************************************

 Orbital symmetries:
 Alpha Orbitals:
       Occupied  (A) (A) (A) (A) (A) (A) (A) (A) (A)
       Virtual   (A) (A) (A) (A) (A) (A) (A) (A) (A) (A) (A) (A)
                 (A) (A) (A) (A) (A) (A) (A) (A) (A) (A) (A) (A)
                 (A) (A) (A) (A) (A) (A) (A) (A) (A) (A) (A) (A)
                 (A) (A) (A) (A) (A) (A) (A) (A) (A) (A) (A) (A)
                 (A) (A) (A) (A) (A) (A) (A) (A) (A) (A) (A) (A)
                 (A) (A) (A) (A) (A) (A) (A) (A) (A) (A) (A)
 Beta  Orbitals:
       Occupied  (A) (A) (A) (A) (A) (A) (A) (A) (A)
       Virtual   (A) (A) (A) (A) (A) (A) (A) (A) (A) (A) (A) (A)
                 (A) (A) (A) (A) (A) (A) (A) (A) (A) (A) (A) (A)
                 (A) (A) (A) (A) (A) (A) (A) (A) (A) (A) (A) (A)
                 (A) (A) (A) (A) (A) (A) (A) (A) (A) (A) (A) (A)
                 (A) (A) (A) (A) (A) (A) (A) (A) (A) (A) (A) (A)
                 (A) (A) (A) (A) (A) (A) (A) (A) (A) (A) (A)
 The electronic state is 1-A.
 Alpha  occ. eigenvalues --  -10.51479 -10.51417  -0.87088  -0.69407  -0.51134
 Alpha  occ. eigenvalues --   -0.51133  -0.45135  -0.39045  -0.39045
 Alpha virt. eigenvalues --    0.02158   0.04165   0.05354   0.05354   0.08826
 Alpha virt. eigenvalues --    0.08834   0.08834   0.14057   0.18988   0.18988
 Alpha virt. eigenvalues --    0.20659   0.20659   0.24108   0.27814   0.32482
 Alpha virt. eigenvalues --    0.43599   0.43600   0.47317   0.47866   0.47866
 Alpha virt. eigenvalues --    0.66134   0.66135   0.66239   0.66240   0.70210
 Alpha virt. eigenvalues --    0.70372   0.78124   0.88935   0.92920   1.02644
 Alpha virt. eigenvalues --    1.02645   1.32214   1.32215   1.52241   1.53216
 Alpha virt. eigenvalues --    1.57585   1.57585   1.58325   1.58326   1.65235
 Alpha virt. eigenvalues --    1.76648   1.76649   1.79053   1.87139   1.87141
 Alpha virt. eigenvalues --    2.12873   2.18350   2.18681   2.18682   2.34851
 Alpha virt. eigenvalues --    2.34853   2.38948   2.50328   2.50329   2.53354
 Alpha virt. eigenvalues --    2.61333   2.61334   2.67136   2.67137   2.76404
 Alpha virt. eigenvalues --    2.76406   2.81487   2.90197   3.41153   3.84900
 Alpha virt. eigenvalues --    3.84903   3.89305   3.89307   4.34443  24.06942
 Alpha virt. eigenvalues --   24.14665
  Beta  occ. eigenvalues --  -10.51479 -10.51417  -0.87088  -0.69407  -0.51134
  Beta  occ. eigenvalues --   -0.51133  -0.45135  -0.39045  -0.39045
  Beta virt. eigenvalues --    0.02158   0.04165   0.05354   0.05354   0.08826
  Beta virt. eigenvalues --    0.08834   0.08834   0.14057   0.18988   0.18988
  Beta virt. eigenvalues --    0.20659   0.20659   0.24108   0.27814   0.32482
  Beta virt. eigenvalues --    0.43599   0.43600   0.47317   0.47866   0.47866
  Beta virt. eigenvalues --    0.66134   0.66135   0.66239   0.66240   0.70210
  Beta virt. eigenvalues --    0.70372   0.78124   0.88935   0.92920   1.02644
  Beta virt. eigenvalues --    1.02645   1.32214   1.32215   1.52241   1.53216
  Beta virt. eigenvalues --    1.57585   1.57585   1.58325   1.58326   1.65235
  Beta virt. eigenvalues --    1.76648   1.76649   1.79053   1.87139   1.87141
  Beta virt. eigenvalues --    2.12873   2.18350   2.18681   2.18682   2.34851
  Beta virt. eigenvalues --    2.34853   2.38948   2.50328   2.50329   2.53354
  Beta virt. eigenvalues --    2.61333   2.61334   2.67136   2.67137   2.76404
  Beta virt. eigenvalues --    2.76406   2.81487   2.90197   3.41153   3.84900
  Beta virt. eigenvalues --    3.84903   3.89305   3.89307   4.34443  24.06942
  Beta virt. eigenvalues --   24.14665
          Condensed to atoms (all electrons):
               1          2          3          4          5          6
     1  C    5.151961   0.193048  -0.050282   0.421760  -0.050287  -0.050280
     2  C    0.193048   5.151961   0.421756  -0.050288   0.421759   0.421756
     3  H   -0.050282   0.421756   0.550745  -0.009316  -0.033474  -0.033473
     4  H    0.421760  -0.050288  -0.009316   0.550752   0.010216  -0.009316
     5  H   -0.050287   0.421759  -0.033474   0.010216   0.550751  -0.033475
     6  H   -0.050280   0.421756  -0.033473  -0.009316  -0.033475   0.550747
     7  H    0.421756  -0.050282   0.010215  -0.033474  -0.009316  -0.009316
     8  H    0.421755  -0.050280  -0.009316  -0.033475  -0.009316   0.010215
               7          8
     1  C    0.421756   0.421755
     2  C   -0.050282  -0.050280
     3  H    0.010215  -0.009316
     4  H   -0.033474  -0.033475
     5  H   -0.009316  -0.009316
     6  H   -0.009316   0.010215
     7  H    0.550745  -0.033473
     8  H   -0.033473   0.550746
          Atomic-Atomic Spin Densities.
               1          2          3          4          5          6
     1  C    0.000000  -0.000000  -0.000000  -0.000000  -0.000000   0.000000
     2  C   -0.000000   0.000000   0.000000   0.000000   0.000000  -0.000000
     3  H   -0.000000   0.000000  -0.000000   0.000000  -0.000000   0.000000
     4  H   -0.000000   0.000000   0.000000   0.000000   0.000000  -0.000000
     5  H   -0.000000   0.000000  -0.000000   0.000000  -0.000000   0.000000
     6  H    0.000000  -0.000000   0.000000  -0.000000   0.000000   0.000000
     7  H   -0.000000   0.000000   0.000000   0.000000   0.000000  -0.000000
     8  H    0.000000  -0.000000   0.000000  -0.000000   0.000000   0.000000
               7          8
     1  C   -0.000000   0.000000
     2  C    0.000000  -0.000000
     3  H    0.000000   0.000000
     4  H    0.000000  -0.000000
     5  H    0.000000   0.000000
     6  H   -0.000000   0.000000
     7  H    0.000000  -0.000000
     8  H   -0.000000  -0.000000
 Mulliken charges and spin densities:
               1          2
     1  C   -0.459430   0.000000
     2  C   -0.459430  -0.000000
     3  H    0.153144  -0.000000
     4  H    0.153142  -0.000000
     5  H    0.153142  -0.000000
     6  H    0.153144  -0.000000
     7  H    0.153144  -0.000000
     8  H    0.153144  -0.000000
 Sum of Mulliken charges =  -0.00000   0.00000
 Mulliken charges and spin densities with hydrogens summed into heavy atoms:
               1          2
     1  C    0.000000   0.000000
     2  C   -0.000000  -0.000000
 Electronic spatial extent (au):  <R**2>=            104.7176
 Charge=              0.0000 electrons
 Dipole moment (field-independent basis, Debye):
    X=              0.0000    Y=              0.0000    Z=              0.0000  Tot=              0.0000
 Quadrupole moment (field-independent basis, Debye-Ang):
   XX=            -15.6322   YY=            -14.9678   ZZ=            -14.9679
   XY=             -0.0000   XZ=             -0.0000   YZ=             -0.0000
 Traceless Quadrupole moment (field-independent basis, Debye-Ang):
   XX=             -0.4429   YY=              0.2215   ZZ=              0.2214
   XY=             -0.0000   XZ=             -0.0000   YZ=             -0.0000
 Octapole moment (field-independent basis, Debye-Ang**2):
  XXX=              0.0000  YYY=              0.0000  ZZZ=              0.0000  XYY=              0.0000
  XXY=              0.0000  XXZ=              0.0000  XZZ=             -0.0000  YZZ=              0.0000
  YYZ=              0.0000  XYZ=              0.0000
 Hexadecapole moment (field-independent basis, Debye-Ang**3):
 XXXX=            -88.8195 YYYY=            -30.2301 ZZZZ=            -30.2301 XXXY=             -0.0001
 XXXZ=             -0.0002 YYYX=              0.4081 YYYZ=             -0.0000 ZZZX=              1.3458
 ZZZY=             -0.0000 XXYY=            -18.8374 XXZZ=            -18.8376 YYZZ=            -10.0768
 XXYZ=              0.0000 YYXZ=             -1.3458 ZZXY=             -0.4081
 N-N= 4.351774263386D+01 E-N=-2.713267280862D+02  KE= 7.958485881193D+01
                          Isotropic Fermi Contact Couplings
        Atom                 a.u.       MegaHertz       Gauss      10(-4) cm-1
     1  C(13)             -0.00000      -0.00000      -0.00000      -0.00000
     2  C(13)             -0.00000      -0.00000      -0.00000      -0.00000
     3  H(1)              -0.00000      -0.00000      -0.00000      -0.00000
     4  H(1)               0.00000       0.00000       0.00000       0.00000
     5  H(1)              -0.00000      -0.00000      -0.00000      -0.00000
     6  H(1)               0.00000       0.00000       0.00000       0.00000
     7  H(1)               0.00000       0.00000       0.00000       0.00000
     8  H(1)               0.00000       0.00000       0.00000       0.00000
 --------------------------------------------------------
       Center         ----  Spin Dipole Couplings  ----
                      3XX-RR        3YY-RR        3ZZ-RR
 --------------------------------------------------------
     1   Atom        0.000000      0.000000      0.000000
     2   Atom        0.000000      0.000000      0.000000
     3   Atom        0.000000      0.000000      0.000000
     4   Atom        0.000000      0.000000      0.000000
     5   Atom        0.000000      0.000000      0.000000
     6   Atom        0.000000      0.000000      0.000000
     7   Atom        0.000000      0.000000      0.000000
     8   Atom        0.000000      0.000000      0.000000
 --------------------------------------------------------
                        XY            XZ            YZ
 --------------------------------------------------------
     1   Atom        0.000000      0.000000      0.000000
     2   Atom        0.000000      0.000000      0.000000
     3   Atom        0.000000      0.000000      0.000000
     4   Atom        0.000000      0.000000      0.000000
     5   Atom        0.000000      0.000000      0.000000
     6   Atom        0.000000      0.000000      0.000000
     7   Atom        0.000000      0.000000      0.000000
     8   Atom        0.000000      0.000000      0.000000
 --------------------------------------------------------


 ---------------------------------------------------------------------------------
              Anisotropic Spin Dipole Couplings in Principal Axis System
 ---------------------------------------------------------------------------------

       Atom             a.u.   MegaHertz   Gauss  10(-4) cm-1        Axes

              Baa     0.0000     0.000     0.000     0.000  1.0000  0.0000  0.0000
     1 C(13)  Bbb     0.0000     0.000     0.000     0.000 -0.0000  1.0000  0.0000
              Bcc     0.0000     0.000     0.000     0.000  0.0000  0.0000  1.0000
 
              Baa     0.0000     0.000     0.000     0.000  1.0000  0.0000  0.0000
     2 C(13)  Bbb     0.0000     0.000     0.000     0.000 -0.0000  1.0000  0.0000
              Bcc     0.0000     0.000     0.000     0.000  0.0000  0.0000  1.0000
 
              Baa     0.0000     0.000     0.000     0.000  1.0000  0.0000  0.0000
     3 H(1)   Bbb     0.0000     0.000     0.000     0.000 -0.0000  1.0000  0.0000
              Bcc     0.0000     0.000     0.000     0.000  0.0000  0.0000  1.0000
 
              Baa     0.0000     0.000     0.000     0.000  1.0000  0.0000  0.0000
     4 H(1)   Bbb     0.0000     0.000     0.000     0.000 -0.0000  1.0000  0.0000
              Bcc     0.0000     0.000     0.000     0.000  0.0000  0.0000  1.0000
 
              Baa     0.0000     0.000     0.000     0.000  1.0000  0.0000  0.0000
     5 H(1)   Bbb     0.0000     0.000     0.000     0.000 -0.0000  1.0000  0.0000
              Bcc     0.0000     0.000     0.000     0.000  0.0000  0.0000  1.0000
 
              Baa     0.0000     0.000     0.000     0.000  1.0000  0.0000  0.0000
     6 H(1)   Bbb     0.0000     0.000     0.000     0.000 -0.0000  1.0000  0.0000
              Bcc     0.0000     0.000     0.000     0.000  0.0000  0.0000  1.0000
 
              Baa     0.0000     0.000     0.000     0.000  1.0000  0.0000  0.0000
     7 H(1)   Bbb     0.0000     0.000     0.000     0.000 -0.0000  1.0000  0.0000
              Bcc     0.0000     0.000     0.000     0.000  0.0000  0.0000  1.0000
 
              Baa     0.0000     0.000     0.000     0.000  1.0000  0.0000  0.0000
     8 H(1)   Bbb     0.0000     0.000     0.000     0.000 -0.0000  1.0000  0.0000
              Bcc     0.0000     0.000     0.000     0.000  0.0000  0.0000  1.0000
 

 ---------------------------------------------------------------------------------

 No NMR shielding tensors so no spin-rotation constants.
 Leave Link  601 at Tue Nov 19 12:41:58 2024, MaxMem=  1073741824 cpu:              15.2 elap:               0.9
 (Enter /home/szhao/Apps/g16/l701.exe)
 ... and contract with generalized density number  0.
 Compute integral first derivatives.
 Leave Link  701 at Tue Nov 19 12:41:59 2024, MaxMem=  1073741824 cpu:              15.9 elap:               0.9
 (Enter /home/szhao/Apps/g16/l702.exe)
 L702 exits ... SP integral derivatives will be done elsewhere.
 Leave Link  702 at Tue Nov 19 12:41:59 2024, MaxMem=  1073741824 cpu:               1.0 elap:               0.1
 (Enter /home/szhao/Apps/g16/l703.exe)
 Integral derivatives from FoFJK, PRISM(SPDF).
 Compute integral first derivatives, UseDBF=F ICtDFT=           0.
 Calling FoFJK, ICntrl=      2127 FMM=F ISym2X=0 I1Cent= 0 IOpClX= 1 NMat=1 NMatS=1 NMatT=0.
 FoFJK:  IHMeth= 1 ICntrl=    2127 DoSepK=F KAlg= 0 I1Cent=           0 FoldK=F
 IRaf=         0 NMat=       1 IRICut=       1 DoRegI=T DoRafI=F ISym2E= 0 IDoP0=0 IntGTp=1.
 FoFCou: FMM=F IPFlag=           0 FMFlag=      100000 FMFlg1=         800
         NFxFlg=           0 DoJE=F BraDBF=F KetDBF=F FulRan=T
         wScrn=  0.000000 ICntrl=      2127 IOpCl=  1 I1Cent=           0 NGrid=           0
         NMat0=    1 NMatS0=      1 NMatT0=    0 NMatD0=    1 NMtDS0=    0 NMtDT0=    0
 Symmetry not used in FoFCou.
 Leave Link  703 at Tue Nov 19 12:42:00 2024, MaxMem=  1073741824 cpu:              25.3 elap:               1.2
 (Enter /home/szhao/Apps/g16/l716.exe)
 Dipole        = 1.57670367D-07 5.67214739D-07 5.93097085D-07
 ***** Axes restored to original set *****
 -------------------------------------------------------------------
 Center     Atomic                   Forces (Hartrees/Bohr)
 Number     Number              X              Y              Z
 -------------------------------------------------------------------
      1        6          -0.073833889   -0.000003782   -0.000002965
      2        6           0.073834174    0.000003190    0.000002271
      3        1           0.000002580   -0.000008259    0.000002918
      4        1           0.000001601   -0.000007994   -0.000004914
      5        1          -0.000001529    0.000007872    0.000005181
      6        1          -0.000002069   -0.000001076   -0.000007212
      7        1          -0.000002765    0.000008789   -0.000002691
      8        1           0.000001896    0.000001259    0.000007412
 -------------------------------------------------------------------
 Cartesian Forces:  Max     0.073834174 RMS     0.021314050
 Z-matrix is all fixed cartesians, so copy forces.
 Force constants in Cartesian coordinates: 
                1             2             3             4             5 
      1  0.789894D+00
      2 -0.219926D-05  0.676428D+00
      3 -0.126661D-05 -0.673970D-05  0.676425D+00
      4 -0.424197D+00  0.000000D+00  0.000000D+00  0.789894D+00
      5  0.000000D+00 -0.119549D+00  0.103236D-05 -0.202058D-05  0.676429D+00
      6  0.000000D+00  0.103236D-05 -0.119550D+00 -0.105246D-05 -0.590640D-05
      7  0.000000D+00  0.231718D-01 -0.134087D-01 -0.121900D+00  0.906254D-01
      8  0.000000D+00  0.956721D-02 -0.266935D-02  0.795065D-01 -0.246526D+00
      9  0.000000D+00 -0.266932D-02  0.649889D-02 -0.460074D-01  0.919862D-01
     10 -0.121895D+00 -0.907248D-01 -0.522619D-01  0.000000D+00 -0.231981D-01
     11 -0.795938D-01 -0.246887D+00 -0.917775D-01  0.000000D+00  0.957726D-02
     12 -0.458500D-01 -0.917777D-01 -0.140433D+00  0.000000D+00  0.266322D-02
     13  0.000000D+00 -0.231981D-01 -0.133631D-01 -0.121896D+00 -0.907251D-01
     14  0.000000D+00  0.957729D-02  0.266330D-02 -0.795941D-01 -0.246888D+00
     15  0.000000D+00  0.266324D-02  0.648801D-02 -0.458500D-01 -0.917772D-01
     16  0.000000D+00  0.258048D-04  0.267713D-01 -0.121900D+00  0.101649D-03
     17  0.000000D+00  0.495428D-02  0.591063D-05  0.889931D-04 -0.875648D-01
     18  0.000000D+00  0.594137D-05  0.111121D-01  0.918579D-01 -0.203915D-03
     19 -0.121900D+00  0.906254D-01 -0.524412D-01  0.000000D+00  0.231717D-01
     20  0.795065D-01 -0.246526D+00  0.919861D-01  0.000000D+00  0.956719D-02
     21 -0.460075D-01  0.919870D-01 -0.140796D+00  0.000000D+00 -0.266930D-02
     22 -0.121901D+00  0.101531D-03  0.104704D+00  0.000000D+00  0.257547D-04
     23  0.888795D-04 -0.875649D-01 -0.202773D-03  0.000000D+00  0.495429D-02
     24  0.918582D-01 -0.203459D-03 -0.299746D+00  0.000000D+00  0.593042D-05
                6             7             8             9            10 
      6  0.676423D+00
      7 -0.524411D-01  0.102101D+00
      8  0.919854D-01 -0.866195D-01  0.242961D+00
      9 -0.140795D+00  0.501232D-01 -0.101466D+00  0.126332D+00
     10 -0.133632D-01  0.000000D+00  0.000000D+00  0.000000D+00  0.102097D+00
     11  0.266330D-02  0.000000D+00  0.124775D-02  0.215625D-02  0.867143D-01
     12  0.648800D-02  0.000000D+00 -0.216605D-02 -0.374318D-02  0.499514D-01
     13 -0.522618D-01  0.989935D-02  0.114480D-01  0.115799D-01  0.000000D+00
     14 -0.917771D-01 -0.114249D-01 -0.135231D-01 -0.139016D-01  0.000000D+00
     15 -0.140432D+00  0.116021D-01  0.139568D-01  0.145043D-01  0.000000D+00
     16  0.104704D+00  0.990009D-02 -0.433506D-02 -0.156957D-01  0.000000D+00
     17 -0.203273D-03 -0.157528D-01  0.752071D-02  0.260510D-01  0.000000D+00
     18 -0.299745D+00  0.412443D-02 -0.180661D-02 -0.653997D-02  0.000000D+00
     19 -0.134088D-01  0.000000D+00  0.000000D+00  0.000000D+00  0.989922D-02
     20 -0.266936D-02  0.000000D+00  0.125202D-02  0.216363D-02  0.114480D-01
     21  0.649888D-02  0.000000D+00  0.216361D-02  0.373896D-02  0.115798D-01
     22  0.267714D-01  0.000000D+00  0.000000D+00  0.000000D+00  0.989926D-02
     23  0.591161D-05  0.000000D+00 -0.249975D-02 -0.431985D-02  0.157606D-01
     24  0.111121D-01  0.000000D+00  0.240158D-05  0.415020D-05  0.409380D-02
               11            12            13            14            15 
     11  0.243359D+00
     12  0.101236D+00  0.125933D+00
     13  0.000000D+00  0.000000D+00  0.102097D+00
     14  0.124349D-02 -0.215867D-02  0.867146D-01  0.243360D+00
     15 -0.215868D-02  0.374740D-02  0.499513D-01  0.101236D+00  0.125933D+00
     16  0.000000D+00  0.000000D+00  0.989923D-02  0.430436D-02 -0.157035D-01
     17 -0.249124D-02  0.432470D-02  0.157605D-01  0.747361D-02 -0.260789D-01
     18  0.239833D-05 -0.416342D-05  0.409374D-02  0.177943D-02 -0.649300D-02
     19 -0.114249D-01  0.116021D-01  0.000000D+00  0.000000D+00  0.000000D+00
     20 -0.135232D-01  0.139569D-01  0.000000D+00  0.124775D-02 -0.216607D-02
     21 -0.139017D-01  0.145043D-01  0.000000D+00  0.215624D-02 -0.374318D-02
     22  0.430440D-02 -0.157035D-01  0.000000D+00  0.000000D+00  0.000000D+00
     23  0.747368D-02 -0.260788D-01  0.000000D+00 -0.249123D-02  0.432472D-02
     24  0.177947D-02 -0.649306D-02  0.000000D+00  0.239339D-05 -0.415488D-05
               16            17            18            19            20 
     16  0.102101D+00
     17 -0.967560D-04  0.676162D-01
     18 -0.100076D+00  0.225151D-03  0.301666D+00
     19  0.000000D+00  0.000000D+00  0.000000D+00  0.102101D+00
     20  0.000000D+00 -0.249976D-02  0.240654D-05 -0.866195D-01  0.242961D+00
     21  0.000000D+00 -0.431983D-02  0.415873D-05  0.501235D-01 -0.101467D+00
     22  0.000000D+00  0.000000D+00  0.000000D+00  0.990019D-02 -0.433510D-02
     23  0.000000D+00  0.499096D-02 -0.480483D-05 -0.157528D-01  0.752075D-02
     24  0.000000D+00 -0.479496D-05  0.000000D+00  0.412446D-02 -0.180662D-02
               21            22            23            24 
     21  0.126333D+00
     22 -0.156957D-01  0.102102D+00
     23  0.260510D-01 -0.965899D-04  0.676162D-01
     24 -0.653995D-02 -0.100076D+00  0.224675D-03  0.301667D+00
 Leave Link  716 at Tue Nov 19 12:42:00 2024, MaxMem=  1073741824 cpu:               2.4 elap:               0.2
 (Enter /home/szhao/Apps/g16/l103.exe)

 GradGradGradGradGradGradGradGradGradGradGradGradGradGradGradGradGradGrad
 Berny optimization.
 Search for a local minimum.
 Step number   1 out of a maximum of    2
 All quantities printed in internal units (Hartrees-Bohrs-Radians)
 Second derivative matrix not updated -- first step.
 ITU=  0
     Eigenvalues ---    0.02995   0.04219   0.04219   0.06511   0.08890
     Eigenvalues ---    0.08891   0.13615   0.13615   0.15825   0.15825
     Eigenvalues ---    0.17987   0.29173   0.52744   0.73464   0.73465
     Eigenvalues ---    0.93438   0.93440   1.28424
 Angle between quadratic step and forces=  59.99 degrees.
 Linear search not attempted -- first point.
 B after Tr=     0.000000   -0.000000   -0.000000
         Rot=    1.000000    0.000000    0.000000    0.000000 Ang=   0.00 deg.
 Variable       Old X    -DE/DX   Delta X   Delta X   Delta X     New X
                                 (Linear)    (Quad)   (Total)
    X1       -1.34189  -0.07383   0.00000  -0.08703  -0.08703  -1.42892
    Y1        0.00000  -0.00000   0.00000   0.00000   0.00000   0.00000
    Z1        0.00000  -0.00000   0.00000  -0.00001  -0.00001  -0.00001
    X2        1.34203   0.07383   0.00000   0.08703   0.08703   1.42906
    Y2       -0.00000   0.00000   0.00000  -0.00000  -0.00000  -0.00000
    Z2        0.00000   0.00000   0.00000   0.00001   0.00001   0.00001
    X3        2.13476   0.00000   0.00000   0.08702   0.08702   2.22178
    Y3       -1.65310  -0.00001   0.00000  -0.00004  -0.00004  -1.65314
    Z3        0.95659   0.00000   0.00000   0.00001   0.00001   0.95661
    X4       -2.13460   0.00000   0.00000  -0.08699  -0.08699  -2.22159
    Y4       -1.65499  -0.00001   0.00000  -0.00004  -0.00004  -1.65503
    Z4       -0.95336  -0.00000   0.00000  -0.00003  -0.00003  -0.95339
    X5        2.13474  -0.00000   0.00000   0.08699   0.08699   2.22173
    Y5        1.65500   0.00001   0.00000   0.00003   0.00003   1.65503
    Z5        0.95335   0.00001   0.00000   0.00003   0.00003   0.95338
    X6        2.13479  -0.00000   0.00000   0.08698   0.08698   2.22177
    Y6       -0.00184  -0.00000   0.00000  -0.00002  -0.00002  -0.00186
    Z6       -1.90993  -0.00001   0.00000  -0.00003  -0.00003  -1.90996
    X7       -2.13463  -0.00000   0.00000  -0.08702  -0.08702  -2.22165
    Y7        1.65310   0.00001   0.00000   0.00004   0.00004   1.65314
    Z7       -0.95660  -0.00000   0.00000  -0.00001  -0.00001  -0.95661
    X8       -2.13466   0.00000   0.00000  -0.08698  -0.08698  -2.22164
    Y8        0.00183   0.00000   0.00000   0.00002   0.00002   0.00185
    Z8        1.90993   0.00001   0.00000   0.00003   0.00003   1.90996
         Item               Value     Threshold  Converged?
 Maximum Force            0.073834     0.000450     NO 
 RMS     Force            0.021314     0.000300     NO 
 Maximum Displacement     0.087027     0.001800     NO 
 RMS     Displacement     0.050232     0.001200     NO 
 Predicted change in Energy=-6.425474D-03
 GradGradGradGradGradGradGradGradGradGradGradGradGradGradGradGradGradGrad

 Leave Link  103 at Tue Nov 19 12:42:01 2024, MaxMem=  1073741824 cpu:               3.6 elap:               0.3
 (Enter /home/szhao/Apps/g16/l9999.exe)
 1\1\GINC-NODE02\Force\UM062X\6-311+G(d,p)\C2H6\SZHAO\19-Nov-2024\0\\#p
  UM062X/6-311+G** force int=superfine\\Title Card Required\\0,1\C,-0.7
 10099,0.,0.\C,0.710171,0.,0.\H,1.129668,-0.874785,0.506208\H,-1.129582
 ,-0.875785,-0.504494\H,1.129655,0.875786,0.504491\H,1.129683,-0.000973
 ,-1.010692\H,-1.129595,0.874783,-0.506211\H,-1.129612,0.000971,1.01069
 1\\Version=ES64L-G16RevA.03\State=1-A\HF=-79.790267\S2=0.\S2-1=0.\S2A=
 0.\RMSD=4.152e-09\RMSF=2.131e-02\Dipole=-0.0000002,-0.0000002,-0.00000
 08\Quadrupole=-0.3292771,0.1646334,0.1646438,-0.0000155,-0.0000364,-0.
 0000434\PG=C01 [X(C2H6)]\\@


 WE STILL HAVE JUDGEMENT HERE,
 THAT WE TEACH BUT BLOODY INSTRUCTIONS,
 WHICH, BEING TAUGHT,
 RETURN TO PLAGUE THE INVENTOR.
           MACBETH ACT I, SCENE VII
 Job cpu time:       0 days  0 hours  3 minutes 33.2 seconds.
 Elapsed time:       0 days  0 hours  0 minutes 11.5 seconds.
 File lengths (MBytes):  RWF=     22 Int=      0 D2E=      0 Chk=      2 Scr=      2
 Normal termination of Gaussian 16 at Tue Nov 19 12:42:01 2024.
