 Entering Gaussian System, Link 0=g16
 Initial command:
 /home/szhao/Apps/g16/l1.exe "/home/szhao/tmp/Gau-99326.inp" -scrdir="/home/szhao/tmp/"
 Default is to use a total of  16 processors:
                               16 via shared-memory
                                1 via Linda
 Entering Link 1 = /home/szhao/Apps/g16/l1.exe PID=     99327.
  
 Copyright (c) 1988,1990,1992,1993,1995,1998,2003,2009,2016,
            Gaussian, Inc.  All Rights Reserved.
  
 This is part of the Gaussian(R) 16 program.  It is based on
 the Gaussian(R) 09 system (copyright 2009, Gaussian, Inc.),
 the Gaussian(R) 03 system (copyright 2003, Gaussian, Inc.),
 the Gaussian(R) 98 system (copyright 1998, Gaussian, Inc.),
 the Gaussian(R) 94 system (copyright 1995, Gaussian, Inc.),
 the Gaussian 92(TM) system (copyright 1992, Gaussian, Inc.),
 the Gaussian 90(TM) system (copyright 1990, Gaussian, Inc.),
 the Gaussian 88(TM) system (copyright 1988, Gaussian, Inc.),
 the Gaussian 86(TM) system (copyright 1986, Carnegie Mellon
 University), and the Gaussian 82(TM) system (copyright 1983,
 Carnegie Mellon University). Gaussian is a federally registered
 trademark of Gaussian, Inc.
  
 This software contains proprietary and confidential information,
 including trade secrets, belonging to Gaussian, Inc.
  
 This software is provided under written license and may be
 used, copied, transmitted, or stored only in accord with that
 written license.
  
 The following legend is applicable only to US Government
 contracts under FAR:
  
                    RESTRICTED RIGHTS LEGEND
  
 Use, reproduction and disclosure by the US Government is
 subject to restrictions as set forth in subparagraphs (a)
 and (c) of the Commercial Computer Software - Restricted
 Rights clause in FAR 52.227-19.
  
 Gaussian, Inc.
 340 Quinnipiac St., Bldg. 40, Wallingford CT 06492
  
  
 ---------------------------------------------------------------
 Warning -- This program may not be used in any manner that
 competes with the business of Gaussian, Inc. or will provide
 assistance to any competitor of Gaussian, Inc.  The licensee
 of this program is prohibited from giving any competitor of
 Gaussian, Inc. access to this program.  By using this program,
 the user acknowledges that Gaussian, Inc. is engaged in the
 business of creating and licensing software in the field of
 computational chemistry and represents and warrants to the
 licensee that it is not a competitor of Gaussian, Inc. and that
 it will not use this program in any manner prohibited above.
 ---------------------------------------------------------------
  

 Cite this work as:
 Gaussian 16, Revision A.03,
 M. J. Frisch, G. W. Trucks, H. B. Schlegel, G. E. Scuseria, 
 M. A. Robb, J. R. Cheeseman, G. Scalmani, V. Barone, 
 G. A. Petersson, H. Nakatsuji, X. Li, M. Caricato, A. V. Marenich, 
 J. Bloino, B. G. Janesko, R. Gomperts, B. Mennucci, H. P. Hratchian, 
 J. V. Ortiz, A. F. Izmaylov, J. L. Sonnenberg, D. Williams-Young, 
 F. Ding, F. Lipparini, F. Egidi, J. Goings, B. Peng, A. Petrone, 
 T. Henderson, D. Ranasinghe, V. G. Zakrzewski, J. Gao, N. Rega, 
 G. Zheng, W. Liang, M. Hada, M. Ehara, K. Toyota, R. Fukuda, 
 J. Hasegawa, M. Ishida, T. Nakajima, Y. Honda, O. Kitao, H. Nakai, 
 T. Vreven, K. Throssell, J. A. Montgomery, Jr., J. E. Peralta, 
 F. Ogliaro, M. J. Bearpark, J. J. Heyd, E. N. Brothers, K. N. Kudin, 
 V. N. Staroverov, T. A. Keith, R. Kobayashi, J. Normand, 
 K. Raghavachari, A. P. Rendell, J. C. Burant, S. S. Iyengar, 
 J. Tomasi, M. Cossi, J. M. Millam, M. Klene, C. Adamo, R. Cammi, 
 J. W. Ochterski, R. L. Martin, K. Morokuma, O. Farkas, 
 J. B. Foresman, and D. J. Fox, Gaussian, Inc., Wallingford CT, 2016.
 
 ******************************************
 Gaussian 16:  ES64L-G16RevA.03 25-Dec-2016
                21-Apr-2025 
 ******************************************
 %chk=opt.chk
 %mem=4GB
 %nprocshared=8
 Will use up to    8 processors via shared memory.
 --------------------------------------------
 #p opt UM062X/6-311+G** nosymm int=superfine
 --------------------------------------------
 1/18=20,19=15,26=5,38=1/1,3;
 2/9=110,12=2,15=1,17=6,18=5,40=1/2;
 3/5=4,6=6,7=111,11=2,25=1,30=1,71=1,74=-55,75=-7,116=2/1,2,3;
 4//1;
 5/5=2,38=5/2;
 6/7=2,8=2,9=2,10=2,28=1/1;
 7/30=1/1,2,3,16;
 1/18=20,19=15,26=5/3(2);
 2/9=110,15=1/2;
 99//99;
 2/9=110,15=1/2;
 3/5=4,6=6,7=111,11=2,25=1,30=1,71=1,74=-55,75=-7,116=2/1,2,3;
 4/5=5,16=3,69=1/1;
 5/5=2,38=5/2;
 7/30=1/1,2,3,16;
 1/18=20,19=15,26=5/3(-5);
 2/9=110,15=1/2;
 6/7=2,8=2,9=2,10=2,19=2,28=1/1;
 99/9=1/99;
 Leave Link    1 at Mon Apr 21 21:03:28 2025, MaxMem=   536870912 cpu:               1.3 elap:               0.2
 (Enter /home/szhao/Apps/g16/l101.exe)
 -------------------
 Title Card Required
 -------------------
 Symbolic Z-matrix:
 Charge =  0 Multiplicity = 1
 B                    -1   -1.01722  -0.00038   0. 
 N                    -1    1.01696   0.00022   0. 
 H                    0    -2.15156   0.30438  -0.1556 
 H                    0     1.00601   1.0401   -0.00219 
 
 Add virtual bond connecting atoms N2         and B1         Dist= 3.84D+00.
 ITRead=  2  2  0  0
 MicOpt= -2 -2 -1 -1
 NAtoms=      4 NQM=        2 NQMF=       2 NMMI=      0 NMMIF=      0
                NMic=       0 NMicF=      0.
                    Isotopes and Nuclear Properties:
 (Nuclear quadrupole moments (NQMom) in fm**2, nuclear magnetic moments (NMagM)
  in nuclear magnetons)

  Atom         1           2           3           4
 IAtWgt=          11          14           1           1
 AtmWgt=  11.0093053  14.0030740   1.0078250   1.0078250
 NucSpn=           3           2           1           1
 AtZEff=  -0.0000000  -0.0000000  -0.0000000  -0.0000000
 NQMom=    4.0590000   2.0440000   0.0000000   0.0000000
 NMagM=    2.6886370   0.4037610   2.7928460   2.7928460
 AtZNuc=   5.0000000   7.0000000   1.0000000   1.0000000
 Leave Link  101 at Mon Apr 21 21:03:29 2025, MaxMem=   536870912 cpu:               2.4 elap:               0.3
 (Enter /home/szhao/Apps/g16/l103.exe)

 GradGradGradGradGradGradGradGradGradGradGradGradGradGradGradGradGradGrad
 Berny optimization.
 Initialization pass.
                           ----------------------------
                           !    Initial Parameters    !
                           ! (Angstroms and Degrees)  !
 --------------------------                            --------------------------
 ! Name  Definition              Value          Derivative Info.                !
 --------------------------------------------------------------------------------
 ! X1    R(1,-1)                -1.0172         Frozen                          !
 ! Y1    R(1,-2)                -0.0004         Frozen                          !
 ! Z1    R(1,-3)                 0.0            Frozen                          !
 ! X2    R(2,-1)                 1.017          Frozen                          !
 ! Y2    R(2,-2)                 0.0002         Frozen                          !
 ! Z2    R(2,-3)                 0.0            Frozen                          !
 ! R1    R(1,3)                  1.1848         estimate D2E/DX2                !
 ! R2    R(2,4)                  1.0399         estimate D2E/DX2                !
 ! A1    A(2,1,3)              163.1987         estimate D2E/DX2                !
 ! A2    A(1,2,4)               89.4132         estimate D2E/DX2                !
 ! D1    D(3,1,2,4)             26.9004         estimate D2E/DX2                !
 --------------------------------------------------------------------------------
 Trust Radius=3.00D-01 FncErr=1.00D-07 GrdErr=1.00D-07 EigMax=2.50D+02 EigMin=1.00D-04
 Number of steps in this run=     21 maximum allowed number of steps=    100.
 GradGradGradGradGradGradGradGradGradGradGradGradGradGradGradGradGradGrad

 Leave Link  103 at Mon Apr 21 21:03:30 2025, MaxMem=   536870912 cpu:               0.5 elap:               0.6
 (Enter /home/szhao/Apps/g16/l202.exe)
                          Input orientation:                          
 ---------------------------------------------------------------------
 Center     Atomic      Atomic             Coordinates (Angstroms)
 Number     Number       Type             X           Y           Z
 ---------------------------------------------------------------------
      1          5           0       -1.017220   -0.000379    0.000000
      2          7           0        1.016962    0.000220    0.000000
      3          1           0       -2.151562    0.304380   -0.155595
      4          1           0        1.006005    1.040104   -0.002192
 ---------------------------------------------------------------------
                    Distance matrix (angstroms):
                    1          2          3          4
     1  B    0.000000
     2  N    2.034182   0.000000
     3  H    1.184829   3.186890   0.000000
     4  H    2.275093   1.039944   3.245774   0.000000
 Symmetry turned off by external request.
 Stoichiometry    BH2N
 Framework group  C1[X(BH2N)]
 Deg. of freedom     6
 Full point group                 C1      NOp   1
 Rotational constants (GHZ):         446.2984081          16.0681607          15.5266898
 Leave Link  202 at Mon Apr 21 21:03:31 2025, MaxMem=   536870912 cpu:               0.4 elap:               0.6
 (Enter /home/szhao/Apps/g16/l301.exe)
 Standard basis: 6-311+G(d,p) (5D, 7F)
 Ernie: Thresh=  0.10000D-02 Tol=  0.10000D-05 Strict=F.
    56 basis functions,    88 primitive gaussians,    58 cartesian basis functions
     7 alpha electrons        7 beta electrons
       nuclear repulsion energy        17.3884384593 Hartrees.
 IExCor= 4336 DFT=T Ex+Corr=M062X ExCW=0 ScaHFX=  0.540000
 ScaDFX=  1.000000  1.000000  1.000000  1.000000 ScalE2=  1.000000  1.000000
 IRadAn=      7 IRanWt=     -1 IRanGd=            0 ICorTp=0 IEmpDi=  4
 NAtoms=    4 NActive=    4 NUniq=    4 SFac= 1.00D+00 NAtFMM=   60 NAOKFM=F Big=F
 Integral buffers will be    131072 words long.
 Raffenetti 2 integral format.
 Two-electron integral symmetry is turned off.
 Leave Link  301 at Mon Apr 21 21:03:32 2025, MaxMem=   536870912 cpu:               1.5 elap:               0.3
 (Enter /home/szhao/Apps/g16/l302.exe)
 NPDir=0 NMtPBC=     1 NCelOv=     1 NCel=       1 NClECP=     1 NCelD=      1
         NCelK=      1 NCelE2=     1 NClLst=     1 CellRange=     0.0.
 One-electron integrals computed using PRISM.
 NBasis=    56 RedAO= T EigKep=  4.77D-03  NBF=    56
 NBsUse=    56 1.00D-06 EigRej= -1.00D+00 NBFU=    56
 Precomputing XC quadrature grid using
 IXCGrd= 4 IRadAn=           7 IRanWt=          -1 IRanGd=           0 AccXCQ= 0.00D+00.
 Generated NRdTot=       0 NPtTot=           0 NUsed=           0 NTot=          32
 NSgBfM=    58    58    58    58    58 MxSgAt=     4 MxSgA2=     4.
 Leave Link  302 at Mon Apr 21 21:03:33 2025, MaxMem=   536870912 cpu:               2.0 elap:               0.4
 (Enter /home/szhao/Apps/g16/l303.exe)
 DipDrv:  MaxL=1.
 Leave Link  303 at Mon Apr 21 21:03:33 2025, MaxMem=   536870912 cpu:               0.8 elap:               0.3
 (Enter /home/szhao/Apps/g16/l401.exe)
 ExpMin= 3.15D-02 ExpMax= 6.29D+03 ExpMxC= 9.49D+02 IAcc=3 IRadAn=         7 AccDes= 0.00D+00
 Harris functional with IExCor= 1009 and IRadAn=       7 diagonalized for initial guess.
 HarFok:  IExCor= 1009 AccDes= 0.00D+00 IRadAn=         7 IDoV= 1 UseB2=F ITyADJ=14
 ICtDFT=  3500011 ScaDFX=  1.000000  1.000000  1.000000  1.000000
 FoFCou: FMM=F IPFlag=           0 FMFlag=      100000 FMFlg1=           0
         NFxFlg=           0 DoJE=T BraDBF=F KetDBF=T FulRan=T
         wScrn=  0.000000 ICntrl=       500 IOpCl=  0 I1Cent=   200000004 NGrid=           0
         NMat0=    1 NMatS0=      1 NMatT0=    0 NMatD0=    1 NMtDS0=    0 NMtDT0=    0
 Symmetry not used in FoFCou.
 Harris En= -80.5446544418903    
 JPrj=0 DoOrth=F DoCkMO=F.
 Initial guess <Sx>= 0.0000 <Sy>= 0.0000 <Sz>= 0.0000 <S**2>=-0.0000 S=-0.0000
 Leave Link  401 at Mon Apr 21 21:03:34 2025, MaxMem=   536870912 cpu:               2.2 elap:               0.4
 (Enter /home/szhao/Apps/g16/l502.exe)
 Keep R1 and R2 ints in memory in canonical form, NReq=9624198.
 FoFCou: FMM=F IPFlag=           0 FMFlag=           0 FMFlg1=           0
         NFxFlg=           0 DoJE=F BraDBF=F KetDBF=F FulRan=T
         wScrn=  0.000000 ICntrl=       600 IOpCl=  0 I1Cent=           0 NGrid=           0
         NMat0=    1 NMatS0=   1596 NMatT0=    0 NMatD0=    1 NMtDS0=    0 NMtDT0=    0
 Symmetry not used in FoFCou.
 Two-electron integral symmetry not used.
 UHF open shell SCF:
 Using DIIS extrapolation, IDIIS=  1040.
 NGot=   536870912 LenX=   534314338 LenY=   534310533
 Requested convergence on RMS density matrix=1.00D-08 within 128 cycles.
 Requested convergence on MAX density matrix=1.00D-06.
 Requested convergence on             energy=1.00D-06.
 No special actions if energy rises.

 Cycle   1  Pass 1  IDiag  1:
 E= -80.3282935395841    
 DIIS: error= 6.15D-02 at cycle   1 NSaved=   1.
 NSaved= 1 IEnMin= 1 EnMin= -80.3282935395841     IErMin= 1 ErrMin= 6.15D-02
 ErrMax= 6.15D-02  0.00D+00 EMaxC= 1.00D-01 BMatC= 7.55D-01 BMatP= 7.55D-01
 IDIUse=3 WtCom= 3.85D-01 WtEn= 6.15D-01
 Coeff-Com:  0.100D+01
 Coeff-En:   0.100D+01
 Coeff:      0.100D+01
 Gap=    -0.138 Goal=   None    Shift=    0.000
 Gap=    -0.138 Goal=   None    Shift=    0.000
 GapD=   -0.138 DampG=0.250 DampE=0.500 DampFc=0.2500 IDamp=-1.
 Damping current iteration by 2.50D-01
 RMSDP=1.90D-02 MaxDP=2.09D-01              OVMax= 8.49D-01

 Cycle   2  Pass 1  IDiag  1:
 E= -80.2992944422612     Delta-E=        0.028999097323 Rises=F Damp=T
 DIIS: error= 1.31D-02 at cycle   2 NSaved=   2.
 NSaved= 2 IEnMin= 1 EnMin= -80.3282935395841     IErMin= 2 ErrMin= 1.31D-02
 ErrMax= 1.31D-02  0.00D+00 EMaxC= 1.00D-01 BMatC= 6.71D-02 BMatP= 7.55D-01
 IDIUse=3 WtCom= 8.69D-01 WtEn= 1.31D-01
 Coeff-Com:  0.103D+00 0.897D+00
 Coeff-En:   0.555D+00 0.445D+00
 Coeff:      0.162D+00 0.838D+00
 Gap=    -0.075 Goal=   None    Shift=    0.000
 Gap=    -0.075 Goal=   None    Shift=    0.000
 RMSDP=4.01D-03 MaxDP=3.90D-02 DE= 2.90D-02 OVMax= 7.97D-01

 Cycle   3  Pass 1  IDiag  1:
 E= -80.5018894444406     Delta-E=       -0.202595002179 Rises=F Damp=F
 DIIS: error= 3.04D-02 at cycle   3 NSaved=   3.
 NSaved= 3 IEnMin= 3 EnMin= -80.5018894444406     IErMin= 2 ErrMin= 1.31D-02
 ErrMax= 3.04D-02  0.00D+00 EMaxC= 1.00D-01 BMatC= 9.39D-02 BMatP= 6.71D-02
 IDIUse=2 WtCom= 0.00D+00 WtEn= 1.00D+00
 Coeff-En:   0.000D+00 0.000D+00 0.100D+01
 Coeff:      0.000D+00 0.000D+00 0.100D+01
 Gap=     0.067 Goal=   None    Shift=    0.000
 Gap=     0.067 Goal=   None    Shift=    0.000
 RMSDP=8.45D-03 MaxDP=1.20D-01 DE=-2.03D-01 OVMax= 4.65D-01

 Cycle   4  Pass 1  IDiag  1:
 E= -80.1343199948053     Delta-E=        0.367569449635 Rises=F Damp=F
 DIIS: error= 1.37D-01 at cycle   4 NSaved=   4.
 NSaved= 4 IEnMin= 3 EnMin= -80.5018894444406     IErMin= 2 ErrMin= 1.31D-02
 ErrMax= 1.37D-01  0.00D+00 EMaxC= 1.00D-01 BMatC= 1.38D+00 BMatP= 6.71D-02
 IDIUse=2 WtCom= 0.00D+00 WtEn= 1.00D+00
 Coeff-En:   0.000D+00 0.000D+00 0.857D+00 0.143D+00
 Coeff:      0.000D+00 0.000D+00 0.857D+00 0.143D+00
 Gap=     0.136 Goal=   None    Shift=    0.000
 Gap=     0.136 Goal=   None    Shift=    0.000
 RMSDP=4.39D-03 MaxDP=5.20D-02 DE= 3.68D-01 OVMax= 2.56D-01

 Cycle   5  Pass 1  IDiag  1:
 E= -80.5081485554654     Delta-E=       -0.373828560660 Rises=F Damp=F
 DIIS: error= 3.81D-02 at cycle   5 NSaved=   5.
 NSaved= 5 IEnMin= 5 EnMin= -80.5081485554654     IErMin= 2 ErrMin= 1.31D-02
 ErrMax= 3.81D-02  0.00D+00 EMaxC= 1.00D-01 BMatC= 1.20D-01 BMatP= 6.71D-02
 IDIUse=2 WtCom= 0.00D+00 WtEn= 1.00D+00
 Coeff-En:   0.000D+00 0.000D+00 0.469D+00 0.000D+00 0.531D+00
 Coeff:      0.000D+00 0.000D+00 0.469D+00 0.000D+00 0.531D+00
 Gap=     0.195 Goal=   None    Shift=    0.000
 Gap=     0.195 Goal=   None    Shift=    0.000
 RMSDP=2.33D-03 MaxDP=2.97D-02 DE=-3.74D-01 OVMax= 1.21D-01

 Cycle   6  Pass 1  IDiag  1:
 E= -80.5407628083788     Delta-E=       -0.032614252913 Rises=F Damp=F
 DIIS: error= 8.19D-03 at cycle   6 NSaved=   6.
 NSaved= 6 IEnMin= 6 EnMin= -80.5407628083788     IErMin= 6 ErrMin= 8.19D-03
 ErrMax= 8.19D-03  0.00D+00 EMaxC= 1.00D-01 BMatC= 8.41D-03 BMatP= 6.71D-02
 IDIUse=3 WtCom= 9.18D-01 WtEn= 8.19D-02
 Coeff-Com: -0.276D-01 0.359D-01 0.105D+00-0.629D-01 0.366D+00 0.584D+00
 Coeff-En:   0.000D+00 0.000D+00 0.000D+00 0.000D+00 0.806D-01 0.919D+00
 Coeff:     -0.254D-01 0.330D-01 0.961D-01-0.578D-01 0.342D+00 0.612D+00
 Gap=     0.193 Goal=   None    Shift=    0.000
 Gap=     0.193 Goal=   None    Shift=    0.000
 RMSDP=5.70D-04 MaxDP=9.28D-03 DE=-3.26D-02 OVMax= 2.31D-02

 Cycle   7  Pass 1  IDiag  1:
 E= -80.5428827841711     Delta-E=       -0.002119975792 Rises=F Damp=F
 DIIS: error= 1.06D-03 at cycle   7 NSaved=   7.
 NSaved= 7 IEnMin= 7 EnMin= -80.5428827841711     IErMin= 7 ErrMin= 1.06D-03
 ErrMax= 1.06D-03  0.00D+00 EMaxC= 1.00D-01 BMatC= 1.94D-04 BMatP= 8.41D-03
 IDIUse=3 WtCom= 9.89D-01 WtEn= 1.06D-02
 Coeff-Com:  0.499D-02-0.772D-02-0.472D-01-0.945D-02 0.104D-01 0.124D+00
 Coeff-Com:  0.925D+00
 Coeff-En:   0.000D+00 0.000D+00 0.000D+00 0.000D+00 0.000D+00 0.000D+00
 Coeff-En:   0.100D+01
 Coeff:      0.494D-02-0.764D-02-0.467D-01-0.935D-02 0.103D-01 0.122D+00
 Coeff:      0.926D+00
 Gap=     0.196 Goal=   None    Shift=    0.000
 Gap=     0.196 Goal=   None    Shift=    0.000
 RMSDP=1.59D-04 MaxDP=2.34D-03 DE=-2.12D-03 OVMax= 7.27D-03

 Cycle   8  Pass 1  IDiag  1:
 E= -80.5429709505921     Delta-E=       -0.000088166421 Rises=F Damp=F
 DIIS: error= 4.75D-04 at cycle   8 NSaved=   8.
 NSaved= 8 IEnMin= 8 EnMin= -80.5429709505921     IErMin= 8 ErrMin= 4.75D-04
 ErrMax= 4.75D-04  0.00D+00 EMaxC= 1.00D-01 BMatC= 2.19D-05 BMatP= 1.94D-04
 IDIUse=3 WtCom= 9.95D-01 WtEn= 4.75D-03
 Coeff-Com:  0.103D-02-0.221D-04-0.338D-02 0.554D-03-0.271D-01-0.495D-01
 Coeff-Com: -0.710D-02 0.109D+01
 Coeff-En:   0.000D+00 0.000D+00 0.000D+00 0.000D+00 0.000D+00 0.000D+00
 Coeff-En:   0.000D+00 0.100D+01
 Coeff:      0.103D-02-0.220D-04-0.336D-02 0.551D-03-0.270D-01-0.493D-01
 Coeff:     -0.707D-02 0.109D+01
 Gap=     0.196 Goal=   None    Shift=    0.000
 Gap=     0.196 Goal=   None    Shift=    0.000
 RMSDP=6.70D-05 MaxDP=5.23D-04 DE=-8.82D-05 OVMax= 2.92D-03

 Cycle   9  Pass 1  IDiag  1:
 E= -80.5429862433519     Delta-E=       -0.000015292760 Rises=F Damp=F
 DIIS: error= 7.06D-05 at cycle   9 NSaved=   9.
 NSaved= 9 IEnMin= 9 EnMin= -80.5429862433519     IErMin= 9 ErrMin= 7.06D-05
 ErrMax= 7.06D-05  0.00D+00 EMaxC= 1.00D-01 BMatC= 6.88D-07 BMatP= 2.19D-05
 IDIUse=1 WtCom= 1.00D+00 WtEn= 0.00D+00
 Coeff-Com: -0.594D-03 0.833D-03 0.522D-03-0.325D-03 0.506D-02-0.184D-02
 Coeff-Com: -0.509D-01-0.233D+00 0.128D+01
 Coeff:     -0.594D-03 0.833D-03 0.522D-03-0.325D-03 0.506D-02-0.184D-02
 Coeff:     -0.509D-01-0.233D+00 0.128D+01
 Gap=     0.196 Goal=   None    Shift=    0.000
 Gap=     0.196 Goal=   None    Shift=    0.000
 RMSDP=3.05D-05 MaxDP=3.13D-04 DE=-1.53D-05 OVMax= 1.31D-03

 Cycle  10  Pass 1  IDiag  1:
 E= -80.5429875468701     Delta-E=       -0.000001303518 Rises=F Damp=F
 DIIS: error= 5.09D-05 at cycle  10 NSaved=  10.
 NSaved=10 IEnMin=10 EnMin= -80.5429875468701     IErMin=10 ErrMin= 5.09D-05
 ErrMax= 5.09D-05  0.00D+00 EMaxC= 1.00D-01 BMatC= 3.92D-07 BMatP= 6.88D-07
 IDIUse=1 WtCom= 1.00D+00 WtEn= 0.00D+00
 Coeff-Com: -0.778D-04-0.356D-04-0.190D-02 0.449D-03-0.134D-02 0.238D-02
 Coeff-Com:  0.280D-01-0.206D-01-0.412D+00 0.140D+01
 Coeff:     -0.778D-04-0.356D-04-0.190D-02 0.449D-03-0.134D-02 0.238D-02
 Coeff:      0.280D-01-0.206D-01-0.412D+00 0.140D+01
 Gap=     0.196 Goal=   None    Shift=    0.000
 Gap=     0.196 Goal=   None    Shift=    0.000
 RMSDP=1.28D-05 MaxDP=1.36D-04 DE=-1.30D-06 OVMax= 5.13D-04

 Cycle  11  Pass 1  IDiag  1:
 E= -80.5429878137242     Delta-E=       -0.000000266854 Rises=F Damp=F
 DIIS: error= 1.59D-05 at cycle  11 NSaved=  11.
 NSaved=11 IEnMin=11 EnMin= -80.5429878137242     IErMin=11 ErrMin= 1.59D-05
 ErrMax= 1.59D-05  0.00D+00 EMaxC= 1.00D-01 BMatC= 4.60D-08 BMatP= 3.92D-07
 IDIUse=1 WtCom= 1.00D+00 WtEn= 0.00D+00
 Coeff-Com: -0.482D-04 0.488D-04 0.158D-03 0.327D-04-0.904D-03-0.883D-03
 Coeff-Com:  0.694D-02 0.512D-01-0.143D+00-0.207D+00 0.129D+01
 Coeff:     -0.482D-04 0.488D-04 0.158D-03 0.327D-04-0.904D-03-0.883D-03
 Coeff:      0.694D-02 0.512D-01-0.143D+00-0.207D+00 0.129D+01
 Gap=     0.196 Goal=   None    Shift=    0.000
 Gap=     0.196 Goal=   None    Shift=    0.000
 RMSDP=4.32D-06 MaxDP=4.62D-05 DE=-2.67D-07 OVMax= 2.32D-04

 Cycle  12  Pass 1  IDiag  1:
 E= -80.5429878497421     Delta-E=       -0.000000036018 Rises=F Damp=F
 DIIS: error= 4.57D-06 at cycle  12 NSaved=  12.
 NSaved=12 IEnMin=12 EnMin= -80.5429878497421     IErMin=12 ErrMin= 4.57D-06
 ErrMax= 4.57D-06  0.00D+00 EMaxC= 1.00D-01 BMatC= 3.43D-09 BMatP= 4.60D-08
 IDIUse=1 WtCom= 1.00D+00 WtEn= 0.00D+00
 Coeff-Com: -0.141D-04 0.257D-04 0.158D-04-0.262D-04 0.155D-03-0.136D-03
 Coeff-Com: -0.316D-02-0.421D-02 0.379D-01-0.577D-01-0.265D+00 0.129D+01
 Coeff:     -0.141D-04 0.257D-04 0.158D-04-0.262D-04 0.155D-03-0.136D-03
 Coeff:     -0.316D-02-0.421D-02 0.379D-01-0.577D-01-0.265D+00 0.129D+01
 Gap=     0.196 Goal=   None    Shift=    0.000
 Gap=     0.196 Goal=   None    Shift=    0.000
 RMSDP=1.52D-06 MaxDP=1.45D-05 DE=-3.60D-08 OVMax= 9.76D-05

 Cycle  13  Pass 1  IDiag  1:
 E= -80.5429878539951     Delta-E=       -0.000000004253 Rises=F Damp=F
 DIIS: error= 1.59D-06 at cycle  13 NSaved=  13.
 NSaved=13 IEnMin=13 EnMin= -80.5429878539951     IErMin=13 ErrMin= 1.59D-06
 ErrMax= 1.59D-06  0.00D+00 EMaxC= 1.00D-01 BMatC= 3.03D-10 BMatP= 3.43D-09
 IDIUse=1 WtCom= 1.00D+00 WtEn= 0.00D+00
 Coeff-Com:  0.147D-04-0.184D-04-0.807D-04 0.541D-05 0.680D-04 0.117D-03
 Coeff-Com:  0.354D-03-0.513D-02 0.948D-03 0.559D-01-0.805D-01-0.478D+00
 Coeff-Com:  0.151D+01
 Coeff:      0.147D-04-0.184D-04-0.807D-04 0.541D-05 0.680D-04 0.117D-03
 Coeff:      0.354D-03-0.513D-02 0.948D-03 0.559D-01-0.805D-01-0.478D+00
 Coeff:      0.151D+01
 Gap=     0.196 Goal=   None    Shift=    0.000
 Gap=     0.196 Goal=   None    Shift=    0.000
 RMSDP=6.45D-07 MaxDP=7.75D-06 DE=-4.25D-09 OVMax= 4.77D-05

 Cycle  14  Pass 1  IDiag  1:
 E= -80.5429878546463     Delta-E=       -0.000000000651 Rises=F Damp=F
 DIIS: error= 1.03D-06 at cycle  14 NSaved=  14.
 NSaved=14 IEnMin=14 EnMin= -80.5429878546463     IErMin=14 ErrMin= 1.03D-06
 ErrMax= 1.03D-06  0.00D+00 EMaxC= 1.00D-01 BMatC= 1.27D-10 BMatP= 3.03D-10
 IDIUse=1 WtCom= 1.00D+00 WtEn= 0.00D+00
 Coeff-Com:  0.237D-05-0.436D-05 0.290D-04 0.483D-06-0.166D-04 0.482D-04
 Coeff-Com:  0.348D-03 0.454D-03-0.138D-02 0.588D-03 0.300D-01-0.998D-01
 Coeff-Com: -0.179D+00 0.125D+01
 Coeff:      0.237D-05-0.436D-05 0.290D-04 0.483D-06-0.166D-04 0.482D-04
 Coeff:      0.348D-03 0.454D-03-0.138D-02 0.588D-03 0.300D-01-0.998D-01
 Coeff:     -0.179D+00 0.125D+01
 Gap=     0.196 Goal=   None    Shift=    0.000
 Gap=     0.196 Goal=   None    Shift=    0.000
 RMSDP=2.07D-07 MaxDP=2.53D-06 DE=-6.51D-10 OVMax= 1.52D-05

 Cycle  15  Pass 1  IDiag  1:
 E= -80.5429878547463     Delta-E=       -0.000000000100 Rises=F Damp=F
 DIIS: error= 3.99D-07 at cycle  15 NSaved=  15.
 NSaved=15 IEnMin=15 EnMin= -80.5429878547463     IErMin=15 ErrMin= 3.99D-07
 ErrMax= 3.99D-07  0.00D+00 EMaxC= 1.00D-01 BMatC= 2.37D-11 BMatP= 1.27D-10
 IDIUse=1 WtCom= 1.00D+00 WtEn= 0.00D+00
 Coeff-Com:  0.211D-06-0.390D-06 0.108D-04 0.286D-06-0.560D-05-0.119D-04
 Coeff-Com: -0.146D-03 0.977D-04 0.114D-02-0.620D-02 0.958D-03 0.775D-01
 Coeff-Com: -0.156D+00-0.172D+00 0.125D+01
 Coeff:      0.211D-06-0.390D-06 0.108D-04 0.286D-06-0.560D-05-0.119D-04
 Coeff:     -0.146D-03 0.977D-04 0.114D-02-0.620D-02 0.958D-03 0.775D-01
 Coeff:     -0.156D+00-0.172D+00 0.125D+01
 Gap=     0.196 Goal=   None    Shift=    0.000
 Gap=     0.196 Goal=   None    Shift=    0.000
 RMSDP=7.24D-08 MaxDP=7.38D-07 DE=-1.00D-10 OVMax= 4.50D-06

 Cycle  16  Pass 1  IDiag  1:
 E= -80.5429878547605     Delta-E=       -0.000000000014 Rises=F Damp=F
 DIIS: error= 1.04D-07 at cycle  16 NSaved=  16.
 NSaved=16 IEnMin=16 EnMin= -80.5429878547605     IErMin=16 ErrMin= 1.04D-07
 ErrMax= 1.04D-07  0.00D+00 EMaxC= 1.00D-01 BMatC= 1.43D-12 BMatP= 2.37D-11
 IDIUse=1 WtCom= 1.00D+00 WtEn= 0.00D+00
 Coeff-Com:  0.956D-06-0.719D-06-0.255D-05-0.597D-06 0.104D-04-0.233D-05
 Coeff-Com: -0.824D-04-0.233D-03 0.572D-03 0.136D-02-0.862D-02 0.214D-02
 Coeff-Com:  0.503D-01-0.108D+00-0.316D+00 0.138D+01
 Coeff:      0.956D-06-0.719D-06-0.255D-05-0.597D-06 0.104D-04-0.233D-05
 Coeff:     -0.824D-04-0.233D-03 0.572D-03 0.136D-02-0.862D-02 0.214D-02
 Coeff:      0.503D-01-0.108D+00-0.316D+00 0.138D+01
 Gap=     0.196 Goal=   None    Shift=    0.000
 Gap=     0.196 Goal=   None    Shift=    0.000
 RMSDP=3.00D-08 MaxDP=3.07D-07 DE=-1.42D-11 OVMax= 2.10D-06

 Cycle  17  Pass 1  IDiag  1:
 E= -80.5429878547619     Delta-E=       -0.000000000001 Rises=F Damp=F
 DIIS: error= 8.07D-08 at cycle  17 NSaved=  17.
 NSaved=17 IEnMin=17 EnMin= -80.5429878547619     IErMin=17 ErrMin= 8.07D-08
 ErrMax= 8.07D-08  0.00D+00 EMaxC= 1.00D-01 BMatC= 7.97D-13 BMatP= 1.43D-12
 IDIUse=1 WtCom= 1.00D+00 WtEn= 0.00D+00
 Coeff-Com: -0.504D-07-0.274D-07 0.168D-05-0.460D-08-0.622D-06 0.486D-05
 Coeff-Com:  0.642D-05 0.659D-05-0.128D-04 0.573D-03-0.755D-04-0.459D-02
 Coeff-Com:  0.111D-02 0.425D-01-0.302D-01-0.403D+00 0.139D+01
 Coeff:     -0.504D-07-0.274D-07 0.168D-05-0.460D-08-0.622D-06 0.486D-05
 Coeff:      0.642D-05 0.659D-05-0.128D-04 0.573D-03-0.755D-04-0.459D-02
 Coeff:      0.111D-02 0.425D-01-0.302D-01-0.403D+00 0.139D+01
 Gap=     0.196 Goal=   None    Shift=    0.000
 Gap=     0.196 Goal=   None    Shift=    0.000
 RMSDP=1.33D-08 MaxDP=2.29D-07 DE=-1.42D-12 OVMax= 5.05D-07

 Cycle  18  Pass 1  IDiag  1:
 E= -80.5429878547620     Delta-E=       -0.000000000000 Rises=F Damp=F
 DIIS: error= 1.16D-08 at cycle  18 NSaved=  18.
 NSaved=18 IEnMin=18 EnMin= -80.5429878547620     IErMin=18 ErrMin= 1.16D-08
 ErrMax= 1.16D-08  0.00D+00 EMaxC= 1.00D-01 BMatC= 1.60D-14 BMatP= 7.97D-13
 IDIUse=1 WtCom= 1.00D+00 WtEn= 0.00D+00
 Large coefficients: NSaved= 18 BigCof=    0.00 CofMax=   10.00 Det=-3.24D-15
 Inversion failed.  Reducing to 17 matrices.
 Large coefficients: NSaved= 17 BigCof=    0.00 CofMax=   10.00 Det=-3.26D-15
 Inversion failed.  Reducing to 16 matrices.
 Large coefficients: NSaved= 16 BigCof=    0.00 CofMax=   10.00 Det=-3.34D-15
 Inversion failed.  Reducing to 15 matrices.
 Coeff-Com:  0.119D-06-0.104D-06-0.104D-05 0.933D-06 0.350D-05 0.143D-04
 Coeff-Com: -0.316D-03 0.761D-03 0.910D-03-0.511D-02-0.261D-03 0.401D-01
 Coeff-Com: -0.107D-01-0.487D+00 0.146D+01
 Coeff:      0.119D-06-0.104D-06-0.104D-05 0.933D-06 0.350D-05 0.143D-04
 Coeff:     -0.316D-03 0.761D-03 0.910D-03-0.511D-02-0.261D-03 0.401D-01
 Coeff:     -0.107D-01-0.487D+00 0.146D+01
 Gap=     0.196 Goal=   None    Shift=    0.000
 Gap=     0.196 Goal=   None    Shift=    0.000
 RMSDP=3.88D-09 MaxDP=5.31D-08 DE=-1.14D-13 OVMax= 1.63D-07

 SCF Done:  E(UM062X) =  -80.5429878548     A.U. after   18 cycles
            NFock= 18  Conv=0.39D-08     -V/T= 2.0100
 <Sx>= 0.0000 <Sy>= 0.0000 <Sz>= 0.0000 <S**2>= 0.0000 S= 0.0000
 <L.S>=  0.00000000000    
 KE= 7.974922811380D+01 PE=-2.221011689397D+02 EE= 4.442051451176D+01
 Annihilation of the first spin contaminant:
 S**2 before annihilation     0.0000,   after    -0.0000
 Leave Link  502 at Mon Apr 21 21:03:42 2025, MaxMem=   536870912 cpu:              57.5 elap:               7.5
 (Enter /home/szhao/Apps/g16/l601.exe)
 Copying SCF densities to generalized density rwf, IOpCl= 1 IROHF=0.

 **********************************************************************

            Population analysis using the SCF density.

 **********************************************************************

 Alpha  occ. eigenvalues --  -14.77604  -7.20446  -0.85323  -0.60704  -0.42420
 Alpha  occ. eigenvalues --   -0.35875  -0.27928
 Alpha virt. eigenvalues --   -0.08353  -0.06841  -0.01381   0.00647   0.04488
 Alpha virt. eigenvalues --    0.04771   0.05912   0.14103   0.15464   0.18535
 Alpha virt. eigenvalues --    0.19780   0.22124   0.25919   0.35798   0.38138
 Alpha virt. eigenvalues --    0.38395   0.48960   0.55637   0.60585   0.75682
 Alpha virt. eigenvalues --    0.79024   0.81080   0.82236   0.87312   0.92776
 Alpha virt. eigenvalues --    0.94703   1.12681   1.24470   1.35702   1.42054
 Alpha virt. eigenvalues --    1.61970   1.66251   1.79520   1.80549   1.84120
 Alpha virt. eigenvalues --    1.97932   2.12914   2.30593   2.42726   2.46600
 Alpha virt. eigenvalues --    2.50626   2.56893   2.60097   3.03603   3.91738
 Alpha virt. eigenvalues --    3.96487   4.43663  14.19895  35.45553
  Beta  occ. eigenvalues --  -14.77604  -7.20446  -0.85323  -0.60704  -0.42420
  Beta  occ. eigenvalues --   -0.35875  -0.27928
  Beta virt. eigenvalues --   -0.08353  -0.06841  -0.01381   0.00647   0.04488
  Beta virt. eigenvalues --    0.04771   0.05912   0.14103   0.15464   0.18535
  Beta virt. eigenvalues --    0.19780   0.22124   0.25919   0.35798   0.38138
  Beta virt. eigenvalues --    0.38395   0.48960   0.55637   0.60585   0.75682
  Beta virt. eigenvalues --    0.79024   0.81080   0.82236   0.87312   0.92776
  Beta virt. eigenvalues --    0.94703   1.12681   1.24470   1.35702   1.42054
  Beta virt. eigenvalues --    1.61970   1.66251   1.79520   1.80549   1.84120
  Beta virt. eigenvalues --    1.97932   2.12914   2.30593   2.42726   2.46600
  Beta virt. eigenvalues --    2.50626   2.56893   2.60097   3.03603   3.91738
  Beta virt. eigenvalues --    3.96487   4.43663  14.19895  35.45553
          Condensed to atoms (all electrons):
               1          2          3          4
     1  B    4.267467   0.223287   0.319818   0.016999
     2  N    0.223287   7.002147   0.005997   0.202274
     3  H    0.319818   0.005997   0.594088  -0.003283
     4  H    0.016999   0.202274  -0.003283   0.606115
          Atomic-Atomic Spin Densities.
               1          2          3          4
     1  B    0.000000   0.000000  -0.000000  -0.000000
     2  N    0.000000  -0.000000   0.000000  -0.000000
     3  H   -0.000000   0.000000  -0.000000  -0.000000
     4  H   -0.000000  -0.000000  -0.000000  -0.000000
 Mulliken charges and spin densities:
               1          2
     1  B    0.172429   0.000000
     2  N   -0.433705  -0.000000
     3  H    0.083380   0.000000
     4  H    0.177896  -0.000000
 Sum of Mulliken charges =   0.00000  -0.00000
 Mulliken charges and spin densities with hydrogens summed into heavy atoms:
               1          2
     1  B    0.255809   0.000000
     2  N   -0.255809  -0.000000
 Electronic spatial extent (au):  <R**2>=             97.7379
 Charge=             -0.0000 electrons
 Dipole moment (field-independent basis, Debye):
    X=             -4.1718    Y=              1.2786    Z=             -0.1494  Tot=              4.3659
 Quadrupole moment (field-independent basis, Debye-Ang):
   XX=            -11.6198   YY=            -11.8401   ZZ=            -15.5242
   XY=              2.0539   XZ=              0.0055   YZ=              0.0012
 Traceless Quadrupole moment (field-independent basis, Debye-Ang):
   XX=              1.3749   YY=              1.1546   ZZ=             -2.5295
   XY=              2.0539   XZ=              0.0055   YZ=              0.0012
 Octapole moment (field-independent basis, Debye-Ang**2):
  XXX=             -6.3917  YYY=             -1.3403  ZZZ=              0.1227  XYY=             -0.4337
  XXY=              1.1957  XXZ=             -0.3746  XZZ=             -1.4372  YZZ=             -0.8264
  YYZ=              0.0109  XYZ=              0.0111
 Hexadecapole moment (field-independent basis, Debye-Ang**3):
 XXXX=           -107.6094 YYYY=            -18.0671 ZZZZ=            -23.3773 XXXY=              2.1520
 XXXZ=             -0.5954 YYYX=              2.2285 YYYZ=              0.1575 ZZZX=             -0.8271
 ZZZY=              0.1720 XXYY=            -20.0217 XXZZ=            -24.1347 YYZZ=             -7.1919
 XXYZ=             -0.1327 YYXZ=             -0.2476 ZZXY=              0.3384
 N-N= 1.738843845932D+01 E-N=-2.221011689911D+02  KE= 7.974922811380D+01
                          Isotropic Fermi Contact Couplings
        Atom                 a.u.       MegaHertz       Gauss      10(-4) cm-1
     1  B(11)              0.00000       0.00000       0.00000       0.00000
     2  N(14)              0.00000       0.00000       0.00000       0.00000
     3  H(1)               0.00000       0.00000       0.00000       0.00000
     4  H(1)               0.00000       0.00000       0.00000       0.00000
 --------------------------------------------------------
       Center         ----  Spin Dipole Couplings  ----
                      3XX-RR        3YY-RR        3ZZ-RR
 --------------------------------------------------------
     1   Atom        0.000000      0.000000      0.000000
     2   Atom        0.000000      0.000000      0.000000
     3   Atom        0.000000      0.000000      0.000000
     4   Atom        0.000000      0.000000      0.000000
 --------------------------------------------------------
                        XY            XZ            YZ
 --------------------------------------------------------
     1   Atom        0.000000      0.000000      0.000000
     2   Atom        0.000000      0.000000      0.000000
     3   Atom        0.000000      0.000000      0.000000
     4   Atom        0.000000      0.000000      0.000000
 --------------------------------------------------------


 ---------------------------------------------------------------------------------
              Anisotropic Spin Dipole Couplings in Principal Axis System
 ---------------------------------------------------------------------------------

       Atom             a.u.   MegaHertz   Gauss  10(-4) cm-1        Axes

              Baa     0.0000     0.000     0.000     0.000  1.0000  0.0000  0.0000
     1 B(11)  Bbb     0.0000     0.000     0.000     0.000 -0.0000  1.0000  0.0000
              Bcc     0.0000     0.000     0.000     0.000  0.0000  0.0000  1.0000
 
              Baa     0.0000     0.000     0.000     0.000  1.0000  0.0000  0.0000
     2 N(14)  Bbb     0.0000     0.000     0.000     0.000 -0.0000  1.0000  0.0000
              Bcc     0.0000     0.000     0.000     0.000  0.0000  0.0000  1.0000
 
              Baa     0.0000     0.000     0.000     0.000  1.0000  0.0000  0.0000
     3 H(1)   Bbb     0.0000     0.000     0.000     0.000 -0.0000  1.0000  0.0000
              Bcc     0.0000     0.000     0.000     0.000  0.0000  0.0000  1.0000
 
              Baa     0.0000     0.000     0.000     0.000  1.0000  0.0000  0.0000
     4 H(1)   Bbb     0.0000     0.000     0.000     0.000 -0.0000  1.0000  0.0000
              Bcc     0.0000     0.000     0.000     0.000  0.0000  0.0000  1.0000
 

 ---------------------------------------------------------------------------------

 No NMR shielding tensors so no spin-rotation constants.
 Leave Link  601 at Mon Apr 21 21:03:42 2025, MaxMem=   536870912 cpu:               1.2 elap:               0.3
 (Enter /home/szhao/Apps/g16/l701.exe)
 ... and contract with generalized density number  0.
 Compute integral first derivatives.
 Leave Link  701 at Mon Apr 21 21:03:43 2025, MaxMem=   536870912 cpu:               1.4 elap:               0.3
 (Enter /home/szhao/Apps/g16/l702.exe)
 L702 exits ... SP integral derivatives will be done elsewhere.
 Leave Link  702 at Mon Apr 21 21:03:43 2025, MaxMem=   536870912 cpu:               0.5 elap:               0.1
 (Enter /home/szhao/Apps/g16/l703.exe)
 Integral derivatives from FoFJK, PRISM(SPDF).
 Compute integral first derivatives, UseDBF=F ICtDFT=           0.
 Calling FoFJK, ICntrl=      2127 FMM=F ISym2X=0 I1Cent= 0 IOpClX= 1 NMat=1 NMatS=1 NMatT=0.
 FoFJK:  IHMeth= 1 ICntrl=    2127 DoSepK=F KAlg= 0 I1Cent=           0 FoldK=F
 IRaf=         0 NMat=       1 IRICut=       1 DoRegI=T DoRafI=F ISym2E= 0 IDoP0=0 IntGTp=1.
 FoFCou: FMM=F IPFlag=           0 FMFlag=      100000 FMFlg1=         800
         NFxFlg=           0 DoJE=F BraDBF=F KetDBF=F FulRan=T
         wScrn=  0.000000 ICntrl=      2127 IOpCl=  1 I1Cent=           0 NGrid=           0
         NMat0=    1 NMatS0=      1 NMatT0=    0 NMatD0=    1 NMtDS0=    0 NMtDT0=    0
 Symmetry not used in FoFCou.
 Leave Link  703 at Mon Apr 21 21:03:44 2025, MaxMem=   536870912 cpu:               6.1 elap:               0.8
 (Enter /home/szhao/Apps/g16/l716.exe)
 Dipole        =-1.64132987D+00 5.03048516D-01-5.87683378D-02
 -------------------------------------------------------------------
 Center     Atomic                   Forces (Hartrees/Bohr)
 Number     Number              X              Y              Z
 -------------------------------------------------------------------
      1        5          -0.000000000   -0.000000000   -0.000000000
      2        7          -0.000000000   -0.000000000   -0.000000000
      3        1          -0.003597795   -0.008717800    0.000812683
      4        1          -0.002528291   -0.000978417    0.001066817
 -------------------------------------------------------------------
 Cartesian Forces:  Max     0.008717800 RMS     0.002859083
 Leave Link  716 at Mon Apr 21 21:03:45 2025, MaxMem=   536870912 cpu:               2.4 elap:               0.5
 (Enter /home/szhao/Apps/g16/l103.exe)

 GradGradGradGradGradGradGradGradGradGradGradGradGradGradGradGradGradGrad
 Berny optimization.
 FormGI is forming the generalized inverse of G from B-inverse, IUseBI=4.
 Internal  Forces:  Max     0.019765658 RMS     0.008058125
 Search for a local minimum.
 Step number   1 out of a maximum of   21
 All quantities printed in internal units (Hartrees-Bohrs-Radians)
 RMS Force = .91876D-02 SwitMx=.10000D-02 MixMth= 1
 Mixed Optimization -- RFO/linear search
 Second derivative matrix not updated -- first step.
 The second derivative matrix:
                          X1        Y1        Z1        X2        Y2
           X1           0.50000
           Y1           0.00000   0.50000
           Z1           0.00000   0.00000   0.50000
           X2           0.00000   0.00000   0.00000   0.50000
           Y2           0.00000   0.00000   0.00000   0.00000   0.50000
           Z2           0.00000   0.00000   0.00000   0.00000   0.00000
           R1           0.00000   0.00000   0.00000   0.00000   0.00000
           R2           0.00000   0.00000   0.00000   0.00000   0.00000
           A1           0.00000   0.00000   0.00000   0.00000   0.00000
           A2           0.00000   0.00000   0.00000   0.00000   0.00000
           D1           0.00000   0.00000   0.00000   0.00000   0.00000
                          Z2        R1        R2        A1        A2
           Z2           0.50000
           R1           0.00000   0.25807
           R2           0.00000   0.00000   0.41303
           A1           0.00000   0.00000   0.00000   0.16000
           A2           0.00000   0.00000   0.00000   0.00000   0.16000
           D1           0.00000   0.00000   0.00000   0.00000   0.00000
                          D1
           D1           0.00230
 ITU=  0
     Eigenvalues ---    0.00230   0.16000   0.16000   0.25807   0.41303
     Eigenvalues --- 1000.000001000.000001000.000001000.000001000.00000
     Eigenvalues --- 1000.00000
 RFO step:  Lambda=-3.33011926D-03 EMin= 2.30000000D-03
 Linear search not attempted -- first point.
 Iteration  1 RMS(Cart)=  0.06513826 RMS(Int)=  0.05717762
 Iteration  2 RMS(Cart)=  0.03115601 RMS(Int)=  0.00305508
 Iteration  3 RMS(Cart)=  0.00667408 RMS(Int)=  0.00012620
 Iteration  4 RMS(Cart)=  0.00010664 RMS(Int)=  0.00000004
 Iteration  5 RMS(Cart)=  0.00000005 RMS(Int)=  0.00000000
 ITry= 1 IFail=0 DXMaxC= 3.14D-01 DCOld= 1.00D+10 DXMaxT= 3.00D-01 DXLimC= 3.00D+00 Rises=F
 Variable       Old X    -DE/DX   Delta X   Delta X   Delta X     New X
                                 (Linear)    (Quad)   (Total)
    X1       -1.92227  -0.00360   0.00000   0.00000   0.00000  -1.92227
    Y1       -0.00072  -0.01542   0.00000   0.00000   0.00000  -0.00072
    Z1        0.00000   0.00155   0.00000   0.00000   0.00000   0.00000
    X2        1.92178  -0.00253   0.00000   0.00000   0.00000   1.92178
    Y2        0.00042   0.00572   0.00000   0.00000   0.00000   0.00042
    Z2        0.00000   0.00033   0.00000   0.00000   0.00000   0.00000
    R1        2.23900   0.00110   0.00000   0.00419   0.00419   2.24319
    R2        1.96521  -0.00095   0.00000  -0.00229  -0.00229   1.96292
    A1        2.84836   0.01977   0.00000   0.12102   0.12102   2.96937
    A2        1.56055  -0.00499   0.00000  -0.03054  -0.03054   1.53001
    D1        0.46950   0.00209   0.00000   0.37197   0.37197   0.84147
         Item               Value     Threshold  Converged?
 Maximum Force            0.019766     0.000450     NO 
 RMS     Force            0.009188     0.000300     NO 
 Maximum Displacement     0.313737     0.001800     NO 
 RMS     Displacement     0.099619     0.001200     NO 
 Predicted change in Energy=-1.921420D-03
 Lowest energy point so far.  Saving SCF results.
 GradGradGradGradGradGradGradGradGradGradGradGradGradGradGradGradGradGrad

 Leave Link  103 at Mon Apr 21 21:03:46 2025, MaxMem=   536870912 cpu:               1.0 elap:               0.2
 (Enter /home/szhao/Apps/g16/l202.exe)
                          Input orientation:                          
 ---------------------------------------------------------------------
 Center     Atomic      Atomic             Coordinates (Angstroms)
 Number     Number       Type             X           Y           Z
 ---------------------------------------------------------------------
      1          5           0       -1.017220   -0.000379    0.000000
      2          7           0        1.016962    0.000220    0.000000
      3          1           0       -2.186747    0.138357   -0.148453
      4          1           0        0.974303    1.037789    0.024379
 ---------------------------------------------------------------------
                    Distance matrix (angstroms):
                    1          2          3          4
     1  B    0.000000
     2  N    2.034182   0.000000
     3  H    1.187046   3.210120   0.000000
     4  H    2.246008   1.038732   3.291062   0.000000
 Symmetry turned off by external request.
 Stoichiometry    BH2N
 Framework group  C1[X(BH2N)]
 Deg. of freedom     6
 Full point group                 C1      NOp   1
 Rotational constants (GHZ):         477.9188082          16.0117256          15.5099054
 Leave Link  202 at Mon Apr 21 21:03:46 2025, MaxMem=   536870912 cpu:               0.1 elap:               0.1
 (Enter /home/szhao/Apps/g16/l301.exe)
 Standard basis: 6-311+G(d,p) (5D, 7F)
 Ernie: Thresh=  0.10000D-02 Tol=  0.10000D-05 Strict=F.
    56 basis functions,    88 primitive gaussians,    58 cartesian basis functions
     7 alpha electrons        7 beta electrons
       nuclear repulsion energy        17.3928299397 Hartrees.
 IExCor= 4336 DFT=T Ex+Corr=M062X ExCW=0 ScaHFX=  0.540000
 ScaDFX=  1.000000  1.000000  1.000000  1.000000 ScalE2=  1.000000  1.000000
 IRadAn=      7 IRanWt=     -1 IRanGd=            0 ICorTp=0 IEmpDi=  4
 NAtoms=    4 NActive=    4 NUniq=    4 SFac= 1.00D+00 NAtFMM=   60 NAOKFM=F Big=F
 Integral buffers will be    131072 words long.
 Raffenetti 2 integral format.
 Two-electron integral symmetry is turned off.
 Leave Link  301 at Mon Apr 21 21:03:47 2025, MaxMem=   536870912 cpu:               1.8 elap:               0.3
 (Enter /home/szhao/Apps/g16/l302.exe)
 NPDir=0 NMtPBC=     1 NCelOv=     1 NCel=       1 NClECP=     1 NCelD=      1
         NCelK=      1 NCelE2=     1 NClLst=     1 CellRange=     0.0.
 One-electron integrals computed using PRISM.
 NBasis=    56 RedAO= T EigKep=  4.39D-03  NBF=    56
 NBsUse=    56 1.00D-06 EigRej= -1.00D+00 NBFU=    56
 Precomputing XC quadrature grid using
 IXCGrd= 4 IRadAn=           7 IRanWt=          -1 IRanGd=           0 AccXCQ= 0.00D+00.
 Generated NRdTot=       0 NPtTot=           0 NUsed=           0 NTot=          32
 NSgBfM=    58    58    58    58    58 MxSgAt=     4 MxSgA2=     4.
 Leave Link  302 at Mon Apr 21 21:03:47 2025, MaxMem=   536870912 cpu:               2.1 elap:               0.4
 (Enter /home/szhao/Apps/g16/l303.exe)
 DipDrv:  MaxL=1.
 Leave Link  303 at Mon Apr 21 21:03:48 2025, MaxMem=   536870912 cpu:               0.7 elap:               0.2
 (Enter /home/szhao/Apps/g16/l401.exe)
 Initial guess from the checkpoint file:  "opt.chk"
 B after Tr=    -0.005132   -0.025432    0.002765
         Rot=    0.999931   -0.004884    0.000000   -0.010657 Ang=  -1.34 deg.
 Guess basis will be translated and rotated to current coordinates.
 JPrj=2 DoOrth=T DoCkMO=T.
 Initial guess <Sx>= 0.0000 <Sy>= 0.0000 <Sz>= 0.0000 <S**2>=-0.0000 S=-0.0000
 Generating alternative initial guess.
 ExpMin= 3.15D-02 ExpMax= 6.29D+03 ExpMxC= 9.49D+02 IAcc=3 IRadAn=         5 AccDes= 0.00D+00
 Harris functional with IExCor= 1009 and IRadAn=       5 diagonalized for initial guess.
 HarFok:  IExCor= 1009 AccDes= 0.00D+00 IRadAn=         5 IDoV= 1 UseB2=F ITyADJ=14
 ICtDFT=  3500011 ScaDFX=  1.000000  1.000000  1.000000  1.000000
 FoFCou: FMM=F IPFlag=           0 FMFlag=      100000 FMFlg1=           0
         NFxFlg=           0 DoJE=T BraDBF=F KetDBF=T FulRan=T
         wScrn=  0.000000 ICntrl=       500 IOpCl=  0 I1Cent=   200000004 NGrid=           0
         NMat0=    1 NMatS0=      1 NMatT0=    0 NMatD0=    1 NMtDS0=    0 NMtDT0=    0
 Symmetry not used in FoFCou.
 Harris En= -80.5454164128138    
 Leave Link  401 at Mon Apr 21 21:03:49 2025, MaxMem=   536870912 cpu:               2.7 elap:               0.5
 (Enter /home/szhao/Apps/g16/l502.exe)
 Keep R1 and R2 ints in memory in canonical form, NReq=9624198.
 FoFCou: FMM=F IPFlag=           0 FMFlag=           0 FMFlg1=           0
         NFxFlg=           0 DoJE=F BraDBF=F KetDBF=F FulRan=T
         wScrn=  0.000000 ICntrl=       600 IOpCl=  0 I1Cent=           0 NGrid=           0
         NMat0=    1 NMatS0=   1596 NMatT0=    0 NMatD0=    1 NMtDS0=    0 NMtDT0=    0
 Symmetry not used in FoFCou.
 Two-electron integral symmetry not used.
 UHF open shell SCF:
 Using DIIS extrapolation, IDIIS=  1040.
 NGot=   536870912 LenX=   534314338 LenY=   534310533
 Requested convergence on RMS density matrix=1.00D-08 within 128 cycles.
 Requested convergence on MAX density matrix=1.00D-06.
 Requested convergence on             energy=1.00D-06.
 No special actions if energy rises.

 Cycle   1  Pass 1  IDiag  1:
 E= -80.5444661015453    
 DIIS: error= 2.66D-03 at cycle   1 NSaved=   1.
 NSaved= 1 IEnMin= 1 EnMin= -80.5444661015453     IErMin= 1 ErrMin= 2.66D-03
 ErrMax= 2.66D-03  0.00D+00 EMaxC= 1.00D-01 BMatC= 1.37D-03 BMatP= 1.37D-03
 IDIUse=3 WtCom= 9.73D-01 WtEn= 2.66D-02
 Coeff-Com:  0.100D+01
 Coeff-En:   0.100D+01
 Coeff:      0.100D+01
 Gap=     0.477 Goal=   None    Shift=    0.000
 Gap=     0.477 Goal=   None    Shift=    0.000
 GapD=    0.477 DampG=2.000 DampE=1.000 DampFc=2.0000 IDamp=-1.
 RMSDP=7.47D-04 MaxDP=7.19D-03              OVMax= 1.65D-02

 Cycle   2  Pass 1  IDiag  1:
 E= -80.5453072353117     Delta-E=       -0.000841133766 Rises=F Damp=F
 DIIS: error= 8.53D-04 at cycle   2 NSaved=   2.
 NSaved= 2 IEnMin= 2 EnMin= -80.5453072353117     IErMin= 2 ErrMin= 8.53D-04
 ErrMax= 8.53D-04  0.00D+00 EMaxC= 1.00D-01 BMatC= 1.00D-04 BMatP= 1.37D-03
 IDIUse=3 WtCom= 9.91D-01 WtEn= 8.53D-03
 Coeff-Com: -0.131D+00 0.113D+01
 Coeff-En:   0.000D+00 0.100D+01
 Coeff:     -0.130D+00 0.113D+01
 Gap=     0.202 Goal=   None    Shift=    0.000
 Gap=     0.202 Goal=   None    Shift=    0.000
 RMSDP=2.03D-04 MaxDP=1.58D-03 DE=-8.41D-04 OVMax= 1.07D-02

 Cycle   3  Pass 1  IDiag  1:
 E= -80.5453905902204     Delta-E=       -0.000083354909 Rises=F Damp=F
 DIIS: error= 1.18D-03 at cycle   3 NSaved=   3.
 NSaved= 3 IEnMin= 3 EnMin= -80.5453905902204     IErMin= 2 ErrMin= 8.53D-04
 ErrMax= 1.18D-03  0.00D+00 EMaxC= 1.00D-01 BMatC= 1.50D-04 BMatP= 1.00D-04
 IDIUse=3 WtCom= 2.25D-01 WtEn= 7.75D-01
 Coeff-Com: -0.122D+00 0.712D+00 0.410D+00
 Coeff-En:   0.000D+00 0.000D+00 0.100D+01
 Coeff:     -0.275D-01 0.160D+00 0.867D+00
 Gap=     0.206 Goal=   None    Shift=    0.000
 Gap=     0.206 Goal=   None    Shift=    0.000
 RMSDP=2.10D-04 MaxDP=2.25D-03 DE=-8.34D-05 OVMax= 1.03D-02

 Cycle   4  Pass 1  IDiag  1:
 E= -80.5452594133723     Delta-E=        0.000131176848 Rises=F Damp=F
 DIIS: error= 2.48D-03 at cycle   4 NSaved=   4.
 NSaved= 4 IEnMin= 3 EnMin= -80.5453905902204     IErMin= 2 ErrMin= 8.53D-04
 ErrMax= 2.48D-03  0.00D+00 EMaxC= 1.00D-01 BMatC= 6.89D-04 BMatP= 1.00D-04
 IDIUse=3 WtCom= 1.67D-01 WtEn= 8.33D-01
 Coeff-Com: -0.241D-01-0.939D-01 0.759D+00 0.359D+00
 Coeff-En:   0.000D+00 0.000D+00 0.737D+00 0.263D+00
 Coeff:     -0.402D-02-0.157D-01 0.741D+00 0.279D+00
 Gap=     0.204 Goal=   None    Shift=    0.000
 Gap=     0.204 Goal=   None    Shift=    0.000
 RMSDP=1.23D-04 MaxDP=1.36D-03 DE= 1.31D-04 OVMax= 5.53D-03

 Cycle   5  Pass 1  IDiag  1:
 E= -80.5454403711322     Delta-E=       -0.000180957760 Rises=F Damp=F
 DIIS: error= 3.43D-04 at cycle   5 NSaved=   5.
 NSaved= 5 IEnMin= 5 EnMin= -80.5454403711322     IErMin= 5 ErrMin= 3.43D-04
 ErrMax= 3.43D-04  0.00D+00 EMaxC= 1.00D-01 BMatC= 1.76D-05 BMatP= 1.00D-04
 IDIUse=3 WtCom= 9.97D-01 WtEn= 3.43D-03
 Coeff-Com:  0.810D-02-0.104D+00-0.123D+00-0.268D+00 0.149D+01
 Coeff-En:   0.000D+00 0.000D+00 0.000D+00 0.000D+00 0.100D+01
 Coeff:      0.808D-02-0.103D+00-0.123D+00-0.267D+00 0.148D+01
 Gap=     0.203 Goal=   None    Shift=    0.000
 Gap=     0.203 Goal=   None    Shift=    0.000
 RMSDP=4.31D-05 MaxDP=3.96D-04 DE=-1.81D-04 OVMax= 2.65D-03

 Cycle   6  Pass 1  IDiag  1:
 E= -80.5454476896932     Delta-E=       -0.000007318561 Rises=F Damp=F
 DIIS: error= 3.69D-05 at cycle   6 NSaved=   6.
 NSaved= 6 IEnMin= 6 EnMin= -80.5454476896932     IErMin= 6 ErrMin= 3.69D-05
 ErrMax= 3.69D-05  0.00D+00 EMaxC= 1.00D-01 BMatC= 1.90D-07 BMatP= 1.76D-05
 IDIUse=1 WtCom= 1.00D+00 WtEn= 0.00D+00
 Coeff-Com:  0.111D-02 0.865D-02-0.113D+00-0.101D+00 0.253D+00 0.951D+00
 Coeff:      0.111D-02 0.865D-02-0.113D+00-0.101D+00 0.253D+00 0.951D+00
 Gap=     0.203 Goal=   None    Shift=    0.000
 Gap=     0.203 Goal=   None    Shift=    0.000
 RMSDP=7.96D-06 MaxDP=8.72D-05 DE=-7.32D-06 OVMax= 4.14D-04

 Cycle   7  Pass 1  IDiag  1:
 E= -80.5454478410935     Delta-E=       -0.000000151400 Rises=F Damp=F
 DIIS: error= 7.53D-06 at cycle   7 NSaved=   7.
 NSaved= 7 IEnMin= 7 EnMin= -80.5454478410935     IErMin= 7 ErrMin= 7.53D-06
 ErrMax= 7.53D-06  0.00D+00 EMaxC= 1.00D-01 BMatC= 1.20D-08 BMatP= 1.90D-07
 IDIUse=1 WtCom= 1.00D+00 WtEn= 0.00D+00
 Coeff-Com: -0.821D-03 0.119D-01 0.288D-02 0.158D-01-0.118D+00-0.642D-01
 Coeff-Com:  0.115D+01
 Coeff:     -0.821D-03 0.119D-01 0.288D-02 0.158D-01-0.118D+00-0.642D-01
 Coeff:      0.115D+01
 Gap=     0.203 Goal=   None    Shift=    0.000
 Gap=     0.203 Goal=   None    Shift=    0.000
 RMSDP=3.06D-06 MaxDP=3.39D-05 DE=-1.51D-07 OVMax= 1.48D-04

 Cycle   8  Pass 1  IDiag  1:
 E= -80.5454478587639     Delta-E=       -0.000000017670 Rises=F Damp=F
 DIIS: error= 5.79D-06 at cycle   8 NSaved=   8.
 NSaved= 8 IEnMin= 8 EnMin= -80.5454478587639     IErMin= 8 ErrMin= 5.79D-06
 ErrMax= 5.79D-06  0.00D+00 EMaxC= 1.00D-01 BMatC= 3.67D-09 BMatP= 1.20D-08
 IDIUse=1 WtCom= 1.00D+00 WtEn= 0.00D+00
 Coeff-Com: -0.131D-04-0.267D-02 0.131D-01 0.628D-02-0.527D-02-0.104D+00
 Coeff-Com: -0.105D+00 0.120D+01
 Coeff:     -0.131D-04-0.267D-02 0.131D-01 0.628D-02-0.527D-02-0.104D+00
 Coeff:     -0.105D+00 0.120D+01
 Gap=     0.203 Goal=   None    Shift=    0.000
 Gap=     0.203 Goal=   None    Shift=    0.000
 RMSDP=1.47D-06 MaxDP=1.88D-05 DE=-1.77D-08 OVMax= 6.45D-05

 Cycle   9  Pass 1  IDiag  1:
 E= -80.5454478631383     Delta-E=       -0.000000004374 Rises=F Damp=F
 DIIS: error= 2.10D-06 at cycle   9 NSaved=   9.
 NSaved= 9 IEnMin= 9 EnMin= -80.5454478631383     IErMin= 9 ErrMin= 2.10D-06
 ErrMax= 2.10D-06  0.00D+00 EMaxC= 1.00D-01 BMatC= 5.37D-10 BMatP= 3.67D-09
 IDIUse=1 WtCom= 1.00D+00 WtEn= 0.00D+00
 Coeff-Com:  0.282D-03-0.338D-02-0.672D-03-0.416D-02 0.281D-01 0.158D-01
 Coeff-Com: -0.264D+00-0.240D+00 0.147D+01
 Coeff:      0.282D-03-0.338D-02-0.672D-03-0.416D-02 0.281D-01 0.158D-01
 Coeff:     -0.264D+00-0.240D+00 0.147D+01
 Gap=     0.203 Goal=   None    Shift=    0.000
 Gap=     0.203 Goal=   None    Shift=    0.000
 RMSDP=1.08D-06 MaxDP=1.52D-05 DE=-4.37D-09 OVMax= 5.31D-05

 Cycle  10  Pass 1  IDiag  1:
 E= -80.5454478642200     Delta-E=       -0.000000001082 Rises=F Damp=F
 DIIS: error= 1.83D-07 at cycle  10 NSaved=  10.
 NSaved=10 IEnMin=10 EnMin= -80.5454478642200     IErMin=10 ErrMin= 1.83D-07
 ErrMax= 1.83D-07  0.00D+00 EMaxC= 1.00D-01 BMatC= 6.38D-12 BMatP= 5.37D-10
 IDIUse=1 WtCom= 1.00D+00 WtEn= 0.00D+00
 Coeff-Com: -0.311D-04 0.522D-03-0.387D-03 0.291D-03-0.347D-02 0.126D-02
 Coeff-Com:  0.468D-01-0.197D-01-0.224D+00 0.120D+01
 Coeff:     -0.311D-04 0.522D-03-0.387D-03 0.291D-03-0.347D-02 0.126D-02
 Coeff:      0.468D-01-0.197D-01-0.224D+00 0.120D+01
 Gap=     0.203 Goal=   None    Shift=    0.000
 Gap=     0.203 Goal=   None    Shift=    0.000
 RMSDP=1.07D-07 MaxDP=1.55D-06 DE=-1.08D-09 OVMax= 5.67D-06

 Cycle  11  Pass 1  IDiag  1:
 E= -80.5454478642348     Delta-E=       -0.000000000015 Rises=F Damp=F
 DIIS: error= 8.44D-08 at cycle  11 NSaved=  11.
 NSaved=11 IEnMin=11 EnMin= -80.5454478642348     IErMin=11 ErrMin= 8.44D-08
 ErrMax= 8.44D-08  0.00D+00 EMaxC= 1.00D-01 BMatC= 8.63D-13 BMatP= 6.38D-12
 IDIUse=1 WtCom= 1.00D+00 WtEn= 0.00D+00
 Coeff-Com: -0.728D-06-0.207D-04 0.787D-04-0.499D-05 0.866D-04-0.662D-03
 Coeff-Com: -0.420D-02 0.969D-02 0.144D-01-0.309D+00 0.129D+01
 Coeff:     -0.728D-06-0.207D-04 0.787D-04-0.499D-05 0.866D-04-0.662D-03
 Coeff:     -0.420D-02 0.969D-02 0.144D-01-0.309D+00 0.129D+01
 Gap=     0.203 Goal=   None    Shift=    0.000
 Gap=     0.203 Goal=   None    Shift=    0.000
 RMSDP=2.78D-08 MaxDP=3.25D-07 DE=-1.48D-11 OVMax= 1.65D-06

 Cycle  12  Pass 1  IDiag  1:
 E= -80.5454478642365     Delta-E=       -0.000000000002 Rises=F Damp=F
 DIIS: error= 3.89D-08 at cycle  12 NSaved=  12.
 NSaved=12 IEnMin=12 EnMin= -80.5454478642365     IErMin=12 ErrMin= 3.89D-08
 ErrMax= 3.89D-08  0.00D+00 EMaxC= 1.00D-01 BMatC= 1.52D-13 BMatP= 8.63D-13
 IDIUse=1 WtCom= 1.00D+00 WtEn= 0.00D+00
 Coeff-Com:  0.396D-05-0.630D-04 0.138D-04-0.481D-04 0.513D-03 0.149D-03
 Coeff-Com: -0.592D-02 0.147D-02 0.285D-01-0.102D+00-0.263D+00 0.134D+01
 Coeff:      0.396D-05-0.630D-04 0.138D-04-0.481D-04 0.513D-03 0.149D-03
 Coeff:     -0.592D-02 0.147D-02 0.285D-01-0.102D+00-0.263D+00 0.134D+01
 Gap=     0.203 Goal=   None    Shift=    0.000
 Gap=     0.203 Goal=   None    Shift=    0.000
 RMSDP=1.43D-08 MaxDP=1.44D-07 DE=-1.65D-12 OVMax= 9.37D-07

 Cycle  13  Pass 1  IDiag  1:
 E= -80.5454478642368     Delta-E=       -0.000000000000 Rises=F Damp=F
 DIIS: error= 1.56D-08 at cycle  13 NSaved=  13.
 NSaved=13 IEnMin=13 EnMin= -80.5454478642368     IErMin=13 ErrMin= 1.56D-08
 ErrMax= 1.56D-08  0.00D+00 EMaxC= 1.00D-01 BMatC= 1.38D-14 BMatP= 1.52D-13
 IDIUse=1 WtCom= 1.00D+00 WtEn= 0.00D+00
 Coeff-Com: -0.444D-06 0.112D-04-0.170D-04-0.195D-05-0.594D-04 0.926D-04
 Coeff-Com:  0.111D-02-0.103D-02-0.712D-02 0.560D-01-0.118D+00-0.283D+00
 Coeff-Com:  0.135D+01
 Coeff:     -0.444D-06 0.112D-04-0.170D-04-0.195D-05-0.594D-04 0.926D-04
 Coeff:      0.111D-02-0.103D-02-0.712D-02 0.560D-01-0.118D+00-0.283D+00
 Coeff:      0.135D+01
 Gap=     0.203 Goal=   None    Shift=    0.000
 Gap=     0.203 Goal=   None    Shift=    0.000
 RMSDP=5.81D-09 MaxDP=6.85D-08 DE=-3.69D-13 OVMax= 4.14D-07

 SCF Done:  E(UM062X) =  -80.5454478642     A.U. after   13 cycles
            NFock= 13  Conv=0.58D-08     -V/T= 2.0100
 <Sx>= 0.0000 <Sy>= 0.0000 <Sz>= 0.0000 <S**2>=-0.0000 S=-0.0000
 <L.S>=  0.00000000000    
 KE= 7.975102142353D+01 PE=-2.221109232193D+02 EE= 4.442162399177D+01
 Annihilation of the first spin contaminant:
 S**2 before annihilation    -0.0000,   after     0.0000
 Leave Link  502 at Mon Apr 21 21:03:58 2025, MaxMem=   536870912 cpu:              67.7 elap:               9.4
 (Enter /home/szhao/Apps/g16/l701.exe)
 ... and contract with generalized density number  0.
 Compute integral first derivatives.
 Leave Link  701 at Mon Apr 21 21:03:59 2025, MaxMem=   536870912 cpu:               1.1 elap:               0.2
 (Enter /home/szhao/Apps/g16/l702.exe)
 L702 exits ... SP integral derivatives will be done elsewhere.
 Leave Link  702 at Mon Apr 21 21:03:59 2025, MaxMem=   536870912 cpu:               0.5 elap:               0.2
 (Enter /home/szhao/Apps/g16/l703.exe)
 Integral derivatives from FoFJK, PRISM(SPDF).
 Compute integral first derivatives, UseDBF=F ICtDFT=           0.
 Calling FoFJK, ICntrl=      2127 FMM=F ISym2X=0 I1Cent= 0 IOpClX= 1 NMat=1 NMatS=1 NMatT=0.
 FoFJK:  IHMeth= 1 ICntrl=    2127 DoSepK=F KAlg= 0 I1Cent=           0 FoldK=F
 IRaf=         0 NMat=       1 IRICut=       1 DoRegI=T DoRafI=F ISym2E= 0 IDoP0=0 IntGTp=1.
 FoFCou: FMM=F IPFlag=           0 FMFlag=      100000 FMFlg1=         800
         NFxFlg=           0 DoJE=F BraDBF=F KetDBF=F FulRan=T
         wScrn=  0.000000 ICntrl=      2127 IOpCl=  1 I1Cent=           0 NGrid=           0
         NMat0=    1 NMatS0=      1 NMatT0=    0 NMatD0=    1 NMtDS0=    0 NMtDT0=    0
 Symmetry not used in FoFCou.
 Leave Link  703 at Mon Apr 21 21:04:00 2025, MaxMem=   536870912 cpu:               5.2 elap:               0.7
 (Enter /home/szhao/Apps/g16/l716.exe)
 Dipole        =-1.64075500D+00 5.01556840D-01-4.24856854D-02
 -------------------------------------------------------------------
 Center     Atomic                   Forces (Hartrees/Bohr)
 Number     Number              X              Y              Z
 -------------------------------------------------------------------
      1        5          -0.000000000   -0.000000000   -0.000000000
      2        7          -0.000000000   -0.000000000   -0.000000000
      3        1          -0.000591571   -0.005408932    0.001064323
      4        1           0.001601579    0.000055993    0.000639285
 -------------------------------------------------------------------
 Cartesian Forces:  Max     0.005408932 RMS     0.001676210
 Leave Link  716 at Mon Apr 21 21:04:00 2025, MaxMem=   536870912 cpu:               0.5 elap:               0.2
 (Enter /home/szhao/Apps/g16/l103.exe)

 GradGradGradGradGradGradGradGradGradGradGradGradGradGradGradGradGradGrad
 Berny optimization.
 Using GEDIIS/GDIIS optimizer.
 FormGI is forming the generalized inverse of G from B-inverse, IUseBI=4.
 Internal  Forces:  Max     0.010117037 RMS     0.004106028
 Search for a local minimum.
 Step number   2 out of a maximum of   21
 All quantities printed in internal units (Hartrees-Bohrs-Radians)
 RMS Force = .47712D-02 SwitMx=.10000D-02 MixMth= 1
 Mixed Optimization -- RFO/linear search
 Update second derivatives using D2CorX and points    1    2
 DE= -2.46D-03 DEPred=-1.92D-03 R= 1.28D+00
 TightC=F SS=  1.41D+00  RLast= 3.92D-01 DXNew= 5.0454D-01 1.1771D+00
 Trust test= 1.28D+00 RLast= 3.92D-01 DXMaxT set to 5.05D-01
 The second derivative matrix:
                          X1        Y1        Z1        X2        Y2
           X1           0.50518
           Y1           0.01324   0.53380
           Z1           0.00035   0.00088   0.50002
           X2           0.00713   0.01820   0.00048   0.50980
           Y2          -0.00575  -0.01467  -0.00038  -0.00790   0.50637
           Z2          -0.00066  -0.00170  -0.00004  -0.00091   0.00074
           R1          -0.00220  -0.00563  -0.00015  -0.00303   0.00244
           R2           0.00165   0.00422   0.00011   0.00227  -0.00183
           A1          -0.01664  -0.04250  -0.00111  -0.02288   0.01845
           A2           0.01403   0.03583   0.00094   0.01929  -0.01555
           D1          -0.00148  -0.00377  -0.00010  -0.00203   0.00164
                          Z2        R1        R2        A1        A2
           Z2           0.50009
           R1           0.00028   0.25859
           R2          -0.00021  -0.00034   0.41324
           A1           0.00213  -0.00036   0.00119   0.08037
           A2          -0.00180  -0.00409   0.00284  -0.01147   0.18951
           D1           0.00019   0.00030  -0.00018  -0.00114  -0.00251
                          D1
           D1           0.00246
 ITU=  1  0
 Use linear search instead of GDIIS.
     Eigenvalues ---    0.00241   0.07919   0.19047   0.25883   0.41328
     Eigenvalues --- 1000.000001000.000001000.000001000.000001000.00000
     Eigenvalues --- 1000.00000
 RFO step:  Lambda=-7.55229455D-04 EMin= 2.40529240D-03
 Quartic linear search produced a step of  0.90581.
 Iteration  1 RMS(Cart)=  0.04045015 RMS(Int)=  0.13451917
 Iteration  2 RMS(Cart)=  0.02310873 RMS(Int)=  0.10446817
 Iteration  3 RMS(Cart)=  0.01692780 RMS(Int)=  0.06948863
 Iteration  4 RMS(Cart)=  0.01445597 RMS(Int)=  0.02601179
 Iteration  5 RMS(Cart)=  0.00788075 RMS(Int)=  0.00335555
 Iteration  6 RMS(Cart)=  0.00451348 RMS(Int)=  0.00008345
 Iteration  7 RMS(Cart)=  0.00029426 RMS(Int)=  0.00000101
 Iteration  8 RMS(Cart)=  0.00000090 RMS(Int)=  0.00000000
 ITry= 1 IFail=0 DXMaxC= 2.43D-01 DCOld= 1.00D+10 DXMaxT= 5.05D-01 DXLimC= 3.00D+00 Rises=F
 Variable       Old X    -DE/DX   Delta X   Delta X   Delta X     New X
                                 (Linear)    (Quad)   (Total)
    X1       -1.92227  -0.00059   0.00000   0.00000   0.00000  -1.92227
    Y1       -0.00072  -0.00774   0.00000   0.00000   0.00000  -0.00072
    Z1        0.00000   0.00175   0.00000   0.00000   0.00000   0.00000
    X2        1.92178   0.00160   0.00000   0.00000   0.00000   1.92178
    Y2        0.00042   0.00239   0.00000   0.00000   0.00000   0.00042
    Z2        0.00000  -0.00005   0.00000   0.00000   0.00000   0.00000
    R1        2.24319  -0.00018   0.00380  -0.00441  -0.00062   2.24258
    R2        1.96292   0.00001  -0.00208   0.00171  -0.00037   1.96255
    A1        2.96937   0.01012   0.10962   0.02795   0.13756   3.10694
    A2        1.53001   0.00315  -0.02767   0.05940   0.03173   1.56174
    D1        0.84147   0.00124   0.33694   0.19321   0.53014   1.37161
         Item               Value     Threshold  Converged?
 Maximum Force            0.010117     0.000450     NO 
 RMS     Force            0.004771     0.000300     NO 
 Maximum Displacement     0.243275     0.001800     NO 
 RMS     Displacement     0.100036     0.001200     NO 
 Predicted change in Energy=-1.121749D-03
 Lowest energy point so far.  Saving SCF results.
 GradGradGradGradGradGradGradGradGradGradGradGradGradGradGradGradGradGrad

 Leave Link  103 at Mon Apr 21 21:04:01 2025, MaxMem=   536870912 cpu:               0.6 elap:               0.2
 (Enter /home/szhao/Apps/g16/l202.exe)
                          Input orientation:                          
 ---------------------------------------------------------------------
 Center     Atomic      Atomic             Coordinates (Angstroms)
 Number     Number       Type             X           Y           Z
 ---------------------------------------------------------------------
      1          5           0       -1.017220   -0.000379    0.000000
      2          7           0        1.016962    0.000220    0.000000
      3          1           0       -2.203230    0.009622   -0.039795
      4          1           0        1.007253    1.037125    0.057369
 ---------------------------------------------------------------------
                    Distance matrix (angstroms):
                    1          2          3          4
     1  B    0.000000
     2  N    2.034182   0.000000
     3  H    1.186720   3.220452   0.000000
     4  H    2.275565   1.038536   3.372300   0.000000
 Symmetry turned off by external request.
 Stoichiometry    BH2N
 Framework group  C1[X(BH2N)]
 Deg. of freedom     6
 Full point group                 C1      NOp   1
 Rotational constants (GHZ):         497.0553204          15.9444064          15.4500754
 Leave Link  202 at Mon Apr 21 21:04:01 2025, MaxMem=   536870912 cpu:               0.1 elap:               0.1
 (Enter /home/szhao/Apps/g16/l301.exe)
 Standard basis: 6-311+G(d,p) (5D, 7F)
 Ernie: Thresh=  0.10000D-02 Tol=  0.10000D-05 Strict=F.
    56 basis functions,    88 primitive gaussians,    58 cartesian basis functions
     7 alpha electrons        7 beta electrons
       nuclear repulsion energy        17.3712378432 Hartrees.
 IExCor= 4336 DFT=T Ex+Corr=M062X ExCW=0 ScaHFX=  0.540000
 ScaDFX=  1.000000  1.000000  1.000000  1.000000 ScalE2=  1.000000  1.000000
 IRadAn=      7 IRanWt=     -1 IRanGd=            0 ICorTp=0 IEmpDi=  4
 NAtoms=    4 NActive=    4 NUniq=    4 SFac= 1.00D+00 NAtFMM=   60 NAOKFM=F Big=F
 Integral buffers will be    131072 words long.
 Raffenetti 2 integral format.
 Two-electron integral symmetry is turned off.
 Leave Link  301 at Mon Apr 21 21:04:01 2025, MaxMem=   536870912 cpu:               0.9 elap:               0.2
 (Enter /home/szhao/Apps/g16/l302.exe)
 NPDir=0 NMtPBC=     1 NCelOv=     1 NCel=       1 NClECP=     1 NCelD=      1
         NCelK=      1 NCelE2=     1 NClLst=     1 CellRange=     0.0.
 One-electron integrals computed using PRISM.
 NBasis=    56 RedAO= T EigKep=  4.15D-03  NBF=    56
 NBsUse=    56 1.00D-06 EigRej= -1.00D+00 NBFU=    56
 Precomputing XC quadrature grid using
 IXCGrd= 4 IRadAn=           7 IRanWt=          -1 IRanGd=           0 AccXCQ= 0.00D+00.
 Generated NRdTot=       0 NPtTot=           0 NUsed=           0 NTot=          32
 NSgBfM=    58    58    58    58    58 MxSgAt=     4 MxSgA2=     4.
 Leave Link  302 at Mon Apr 21 21:04:02 2025, MaxMem=   536870912 cpu:               1.5 elap:               0.3
 (Enter /home/szhao/Apps/g16/l303.exe)
 DipDrv:  MaxL=1.
 Leave Link  303 at Mon Apr 21 21:04:02 2025, MaxMem=   536870912 cpu:               0.6 elap:               0.1
 (Enter /home/szhao/Apps/g16/l401.exe)
 Initial guess from the checkpoint file:  "opt.chk"
 B after Tr=     0.004648   -0.019492    0.015202
         Rot=    0.999811   -0.016879   -0.006736   -0.006967 Ang=  -2.23 deg.
 Guess basis will be translated and rotated to current coordinates.
 JPrj=2 DoOrth=T DoCkMO=T.
 Initial guess <Sx>= 0.0000 <Sy>= 0.0000 <Sz>= 0.0000 <S**2>=-0.0000 S=-0.0000
 Generating alternative initial guess.
 ExpMin= 3.15D-02 ExpMax= 6.29D+03 ExpMxC= 9.49D+02 IAcc=3 IRadAn=         5 AccDes= 0.00D+00
 Harris functional with IExCor= 1009 and IRadAn=       5 diagonalized for initial guess.
 HarFok:  IExCor= 1009 AccDes= 0.00D+00 IRadAn=         5 IDoV= 1 UseB2=F ITyADJ=14
 ICtDFT=  3500011 ScaDFX=  1.000000  1.000000  1.000000  1.000000
 FoFCou: FMM=F IPFlag=           0 FMFlag=      100000 FMFlg1=           0
         NFxFlg=           0 DoJE=T BraDBF=F KetDBF=T FulRan=T
         wScrn=  0.000000 ICntrl=       500 IOpCl=  0 I1Cent=   200000004 NGrid=           0
         NMat0=    1 NMatS0=      1 NMatT0=    0 NMatD0=    1 NMtDS0=    0 NMtDT0=    0
 Symmetry not used in FoFCou.
 Harris En= -80.5464014862691    
 Leave Link  401 at Mon Apr 21 21:04:02 2025, MaxMem=   536870912 cpu:               2.7 elap:               0.4
 (Enter /home/szhao/Apps/g16/l502.exe)
 Keep R1 and R2 ints in memory in canonical form, NReq=9624198.
 FoFCou: FMM=F IPFlag=           0 FMFlag=           0 FMFlg1=           0
         NFxFlg=           0 DoJE=F BraDBF=F KetDBF=F FulRan=T
         wScrn=  0.000000 ICntrl=       600 IOpCl=  0 I1Cent=           0 NGrid=           0
         NMat0=    1 NMatS0=   1596 NMatT0=    0 NMatD0=    1 NMtDS0=    0 NMtDT0=    0
 Symmetry not used in FoFCou.
 Two-electron integral symmetry not used.
 UHF open shell SCF:
 Using DIIS extrapolation, IDIIS=  1040.
 NGot=   536870912 LenX=   534314338 LenY=   534310533
 Requested convergence on RMS density matrix=1.00D-08 within 128 cycles.
 Requested convergence on MAX density matrix=1.00D-06.
 Requested convergence on             energy=1.00D-06.
 No special actions if energy rises.

 Cycle   1  Pass 1  IDiag  1:
 E= -80.5452326787060    
 DIIS: error= 2.17D-03 at cycle   1 NSaved=   1.
 NSaved= 1 IEnMin= 1 EnMin= -80.5452326787060     IErMin= 1 ErrMin= 2.17D-03
 ErrMax= 2.17D-03  0.00D+00 EMaxC= 1.00D-01 BMatC= 1.97D-03 BMatP= 1.97D-03
 IDIUse=3 WtCom= 9.78D-01 WtEn= 2.17D-02
 Coeff-Com:  0.100D+01
 Coeff-En:   0.100D+01
 Coeff:      0.100D+01
 Gap=     0.480 Goal=   None    Shift=    0.000
 Gap=     0.480 Goal=   None    Shift=    0.000
 GapD=    0.480 DampG=2.000 DampE=1.000 DampFc=2.0000 IDamp=-1.
 RMSDP=8.29D-04 MaxDP=6.03D-03              OVMax= 1.64D-02

 Cycle   2  Pass 1  IDiag  1:
 E= -80.5464853008588     Delta-E=       -0.001252622153 Rises=F Damp=F
 DIIS: error= 7.14D-04 at cycle   2 NSaved=   2.
 NSaved= 2 IEnMin= 2 EnMin= -80.5464853008588     IErMin= 2 ErrMin= 7.14D-04
 ErrMax= 7.14D-04  0.00D+00 EMaxC= 1.00D-01 BMatC= 1.31D-04 BMatP= 1.97D-03
 IDIUse=3 WtCom= 9.93D-01 WtEn= 7.14D-03
 Coeff-Com: -0.175D+00 0.118D+01
 Coeff-En:   0.000D+00 0.100D+01
 Coeff:     -0.174D+00 0.117D+01
 Gap=     0.204 Goal=   None    Shift=    0.000
 Gap=     0.204 Goal=   None    Shift=    0.000
 RMSDP=2.65D-04 MaxDP=2.13D-03 DE=-1.25D-03 OVMax= 1.12D-02

 Cycle   3  Pass 1  IDiag  1:
 E= -80.5466933877323     Delta-E=       -0.000208086873 Rises=F Damp=F
 DIIS: error= 6.37D-04 at cycle   3 NSaved=   3.
 NSaved= 3 IEnMin= 3 EnMin= -80.5466933877323     IErMin= 3 ErrMin= 6.37D-04
 ErrMax= 6.37D-04  0.00D+00 EMaxC= 1.00D-01 BMatC= 5.58D-05 BMatP= 1.31D-04
 IDIUse=3 WtCom= 9.94D-01 WtEn= 6.37D-03
 Coeff-Com: -0.924D-01 0.423D+00 0.669D+00
 Coeff-En:   0.000D+00 0.000D+00 0.100D+01
 Coeff:     -0.919D-01 0.421D+00 0.671D+00
 Gap=     0.205 Goal=   None    Shift=    0.000
 Gap=     0.205 Goal=   None    Shift=    0.000
 RMSDP=1.14D-04 MaxDP=9.09D-04 DE=-2.08D-04 OVMax= 5.26D-03

 Cycle   4  Pass 1  IDiag  1:
 E= -80.5467104543097     Delta-E=       -0.000017066577 Rises=F Damp=F
 DIIS: error= 8.10D-04 at cycle   4 NSaved=   4.
 NSaved= 4 IEnMin= 4 EnMin= -80.5467104543097     IErMin= 3 ErrMin= 6.37D-04
 ErrMax= 8.10D-04  0.00D+00 EMaxC= 1.00D-01 BMatC= 8.52D-05 BMatP= 5.58D-05
 IDIUse=3 WtCom= 2.60D-01 WtEn= 7.40D-01
 Coeff-Com:  0.268D-02-0.248D+00 0.693D+00 0.552D+00
 Coeff-En:   0.000D+00 0.000D+00 0.260D+00 0.740D+00
 Coeff:      0.696D-03-0.645D-01 0.373D+00 0.691D+00
 Gap=     0.203 Goal=   None    Shift=    0.000
 Gap=     0.203 Goal=   None    Shift=    0.000
 RMSDP=1.26D-04 MaxDP=1.20D-03 DE=-1.71D-05 OVMax= 5.08D-03

 Cycle   5  Pass 1  IDiag  1:
 E= -80.5467167598610     Delta-E=       -0.000006305551 Rises=F Damp=F
 DIIS: error= 1.06D-03 at cycle   5 NSaved=   5.
 NSaved= 5 IEnMin= 5 EnMin= -80.5467167598610     IErMin= 3 ErrMin= 6.37D-04
 ErrMax= 1.06D-03  0.00D+00 EMaxC= 1.00D-01 BMatC= 1.07D-04 BMatP= 5.58D-05
 IDIUse=3 WtCom= 2.35D-01 WtEn= 7.65D-01
 Coeff-Com:  0.121D-01-0.815D-01-0.612D+00 0.722D+00 0.959D+00
 Coeff-En:   0.000D+00 0.000D+00 0.000D+00 0.453D+00 0.547D+00
 Coeff:      0.284D-02-0.192D-01-0.144D+00 0.516D+00 0.644D+00
 Gap=     0.205 Goal=   None    Shift=    0.000
 Gap=     0.205 Goal=   None    Shift=    0.000
 RMSDP=8.32D-05 MaxDP=8.39D-04 DE=-6.31D-06 OVMax= 4.26D-03

 Cycle   6  Pass 1  IDiag  1:
 E= -80.5467463721997     Delta-E=       -0.000029612339 Rises=F Damp=F
 DIIS: error= 3.27D-04 at cycle   6 NSaved=   6.
 NSaved= 6 IEnMin= 6 EnMin= -80.5467463721997     IErMin= 6 ErrMin= 3.27D-04
 ErrMax= 3.27D-04  0.00D+00 EMaxC= 1.00D-01 BMatC= 1.39D-05 BMatP= 5.58D-05
 IDIUse=3 WtCom= 9.97D-01 WtEn= 3.27D-03
 Coeff-Com: -0.226D-02 0.198D-01 0.114D+00-0.727D+00-0.917D-01 0.169D+01
 Coeff-En:   0.000D+00 0.000D+00 0.000D+00 0.000D+00 0.954D-01 0.905D+00
 Coeff:     -0.226D-02 0.197D-01 0.113D+00-0.725D+00-0.911D-01 0.169D+01
 Gap=     0.204 Goal=   None    Shift=    0.000
 Gap=     0.204 Goal=   None    Shift=    0.000
 RMSDP=6.14D-05 MaxDP=6.50D-04 DE=-2.96D-05 OVMax= 2.32D-03

 Cycle   7  Pass 1  IDiag  1:
 E= -80.5467524692465     Delta-E=       -0.000006097047 Rises=F Damp=F
 DIIS: error= 9.07D-06 at cycle   7 NSaved=   7.
 NSaved= 7 IEnMin= 7 EnMin= -80.5467524692465     IErMin= 7 ErrMin= 9.07D-06
 ErrMax= 9.07D-06  0.00D+00 EMaxC= 1.00D-01 BMatC= 1.83D-08 BMatP= 1.39D-05
 IDIUse=1 WtCom= 1.00D+00 WtEn= 0.00D+00
 Coeff-Com: -0.973D-03 0.863D-02 0.516D-01-0.214D-01-0.939D-01-0.142D+00
 Coeff-Com:  0.120D+01
 Coeff:     -0.973D-03 0.863D-02 0.516D-01-0.214D-01-0.939D-01-0.142D+00
 Coeff:      0.120D+01
 Gap=     0.204 Goal=   None    Shift=    0.000
 Gap=     0.204 Goal=   None    Shift=    0.000
 RMSDP=6.22D-06 MaxDP=7.05D-05 DE=-6.10D-06 OVMax= 2.95D-04

 Cycle   8  Pass 1  IDiag  1:
 E= -80.5467525114107     Delta-E=       -0.000000042164 Rises=F Damp=F
 DIIS: error= 7.60D-06 at cycle   8 NSaved=   8.
 NSaved= 8 IEnMin= 8 EnMin= -80.5467525114107     IErMin= 8 ErrMin= 7.60D-06
 ErrMax= 7.60D-06  0.00D+00 EMaxC= 1.00D-01 BMatC= 7.12D-09 BMatP= 1.83D-08
 IDIUse=1 WtCom= 1.00D+00 WtEn= 0.00D+00
 Coeff-Com:  0.381D-03-0.386D-02-0.134D-02 0.824D-01 0.282D-02-0.214D+00
 Coeff-Com:  0.306D-01 0.110D+01
 Coeff:      0.381D-03-0.386D-02-0.134D-02 0.824D-01 0.282D-02-0.214D+00
 Coeff:      0.306D-01 0.110D+01
 Gap=     0.204 Goal=   None    Shift=    0.000
 Gap=     0.204 Goal=   None    Shift=    0.000
 RMSDP=1.74D-06 MaxDP=2.06D-05 DE=-4.22D-08 OVMax= 6.27D-05

 Cycle   9  Pass 1  IDiag  1:
 E= -80.5467525171007     Delta-E=       -0.000000005690 Rises=F Damp=F
 DIIS: error= 1.22D-06 at cycle   9 NSaved=   9.
 NSaved= 9 IEnMin= 9 EnMin= -80.5467525171007     IErMin= 9 ErrMin= 1.22D-06
 ErrMax= 1.22D-06  0.00D+00 EMaxC= 1.00D-01 BMatC= 3.06D-10 BMatP= 7.12D-09
 IDIUse=1 WtCom= 1.00D+00 WtEn= 0.00D+00
 Coeff-Com:  0.233D-03-0.232D-02-0.361D-02 0.105D-01 0.997D-02-0.536D-02
 Coeff-Com: -0.147D+00 0.158D+00 0.979D+00
 Coeff:      0.233D-03-0.232D-02-0.361D-02 0.105D-01 0.997D-02-0.536D-02
 Coeff:     -0.147D+00 0.158D+00 0.979D+00
 Gap=     0.204 Goal=   None    Shift=    0.000
 Gap=     0.204 Goal=   None    Shift=    0.000
 RMSDP=4.64D-07 MaxDP=7.12D-06 DE=-5.69D-09 OVMax= 2.29D-05

 Cycle  10  Pass 1  IDiag  1:
 E= -80.5467525175418     Delta-E=       -0.000000000441 Rises=F Damp=F
 DIIS: error= 6.52D-07 at cycle  10 NSaved=  10.
 NSaved=10 IEnMin=10 EnMin= -80.5467525175418     IErMin=10 ErrMin= 6.52D-07
 ErrMax= 6.52D-07  0.00D+00 EMaxC= 1.00D-01 BMatC= 4.21D-11 BMatP= 3.06D-10
 IDIUse=1 WtCom= 1.00D+00 WtEn= 0.00D+00
 Coeff-Com: -0.990D-04 0.102D-02 0.148D-02-0.925D-02-0.342D-02 0.157D-01
 Coeff-Com:  0.453D-01-0.123D+00-0.361D+00 0.143D+01
 Coeff:     -0.990D-04 0.102D-02 0.148D-02-0.925D-02-0.342D-02 0.157D-01
 Coeff:      0.453D-01-0.123D+00-0.361D+00 0.143D+01
 Gap=     0.204 Goal=   None    Shift=    0.000
 Gap=     0.204 Goal=   None    Shift=    0.000
 RMSDP=2.45D-07 MaxDP=3.85D-06 DE=-4.41D-10 OVMax= 1.20D-05

 Cycle  11  Pass 1  IDiag  1:
 E= -80.5467525176344     Delta-E=       -0.000000000093 Rises=F Damp=F
 DIIS: error= 2.72D-07 at cycle  11 NSaved=  11.
 NSaved=11 IEnMin=11 EnMin= -80.5467525176344     IErMin=11 ErrMin= 2.72D-07
 ErrMax= 2.72D-07  0.00D+00 EMaxC= 1.00D-01 BMatC= 9.21D-12 BMatP= 4.21D-11
 IDIUse=1 WtCom= 1.00D+00 WtEn= 0.00D+00
 Coeff-Com: -0.118D-04 0.121D-03-0.288D-03 0.139D-02 0.210D-04-0.446D-02
 Coeff-Com:  0.121D-01 0.738D-02-0.639D-01-0.352D+00 0.140D+01
 Coeff:     -0.118D-04 0.121D-03-0.288D-03 0.139D-02 0.210D-04-0.446D-02
 Coeff:      0.121D-01 0.738D-02-0.639D-01-0.352D+00 0.140D+01
 Gap=     0.204 Goal=   None    Shift=    0.000
 Gap=     0.204 Goal=   None    Shift=    0.000
 RMSDP=1.13D-07 MaxDP=1.54D-06 DE=-9.26D-11 OVMax= 5.64D-06

 Cycle  12  Pass 1  IDiag  1:
 E= -80.5467525176507     Delta-E=       -0.000000000016 Rises=F Damp=F
 DIIS: error= 4.97D-08 at cycle  12 NSaved=  12.
 NSaved=12 IEnMin=12 EnMin= -80.5467525176507     IErMin=12 ErrMin= 4.97D-08
 ErrMax= 4.97D-08  0.00D+00 EMaxC= 1.00D-01 BMatC= 3.98D-13 BMatP= 9.21D-12
 IDIUse=1 WtCom= 1.00D+00 WtEn= 0.00D+00
 Coeff-Com:  0.118D-04-0.115D-03-0.400D-03 0.172D-02 0.647D-03-0.310D-02
 Coeff-Com: -0.477D-02 0.160D-01 0.429D-01-0.189D+00 0.255D-01 0.111D+01
 Coeff:      0.118D-04-0.115D-03-0.400D-03 0.172D-02 0.647D-03-0.310D-02
 Coeff:     -0.477D-02 0.160D-01 0.429D-01-0.189D+00 0.255D-01 0.111D+01
 Gap=     0.204 Goal=   None    Shift=    0.000
 Gap=     0.204 Goal=   None    Shift=    0.000
 RMSDP=2.81D-08 MaxDP=2.90D-07 DE=-1.63D-11 OVMax= 1.73D-06

 Cycle  13  Pass 1  IDiag  1:
 E= -80.5467525176518     Delta-E=       -0.000000000001 Rises=F Damp=F
 DIIS: error= 1.70D-08 at cycle  13 NSaved=  13.
 NSaved=13 IEnMin=13 EnMin= -80.5467525176518     IErMin=13 ErrMin= 1.70D-08
 ErrMax= 1.70D-08  0.00D+00 EMaxC= 1.00D-01 BMatC= 3.79D-14 BMatP= 3.98D-13
 IDIUse=1 WtCom= 1.00D+00 WtEn= 0.00D+00
 Coeff-Com: -0.217D-05 0.239D-04 0.583D-04-0.382D-03-0.108D-03 0.747D-03
 Coeff-Com:  0.853D-03-0.482D-02-0.660D-02 0.717D-01-0.934D-01-0.314D+00
 Coeff-Com:  0.135D+01
 Coeff:     -0.217D-05 0.239D-04 0.583D-04-0.382D-03-0.108D-03 0.747D-03
 Coeff:      0.853D-03-0.482D-02-0.660D-02 0.717D-01-0.934D-01-0.314D+00
 Coeff:      0.135D+01
 Gap=     0.204 Goal=   None    Shift=    0.000
 Gap=     0.204 Goal=   None    Shift=    0.000
 RMSDP=6.12D-09 MaxDP=5.61D-08 DE=-1.08D-12 OVMax= 3.63D-07

 SCF Done:  E(UM062X) =  -80.5467525177     A.U. after   13 cycles
            NFock= 13  Conv=0.61D-08     -V/T= 2.0100
 <Sx>= 0.0000 <Sy>= 0.0000 <Sz>= 0.0000 <S**2>=-0.0000 S=-0.0000
 <L.S>=  0.00000000000    
 KE= 7.974818644611D+01 PE=-2.220727131878D+02 EE= 4.440653638085D+01
 Annihilation of the first spin contaminant:
 S**2 before annihilation    -0.0000,   after     0.0000
 Leave Link  502 at Mon Apr 21 21:04:08 2025, MaxMem=   536870912 cpu:              37.8 elap:               5.0
 (Enter /home/szhao/Apps/g16/l701.exe)
 ... and contract with generalized density number  0.
 Compute integral first derivatives.
 Leave Link  701 at Mon Apr 21 21:04:08 2025, MaxMem=   536870912 cpu:               1.2 elap:               0.2
 (Enter /home/szhao/Apps/g16/l702.exe)
 L702 exits ... SP integral derivatives will be done elsewhere.
 Leave Link  702 at Mon Apr 21 21:04:08 2025, MaxMem=   536870912 cpu:               0.5 elap:               0.2
 (Enter /home/szhao/Apps/g16/l703.exe)
 Integral derivatives from FoFJK, PRISM(SPDF).
 Compute integral first derivatives, UseDBF=F ICtDFT=           0.
 Calling FoFJK, ICntrl=      2127 FMM=F ISym2X=0 I1Cent= 0 IOpClX= 1 NMat=1 NMatS=1 NMatT=0.
 FoFJK:  IHMeth= 1 ICntrl=    2127 DoSepK=F KAlg= 0 I1Cent=           0 FoldK=F
 IRaf=         0 NMat=       1 IRICut=       1 DoRegI=T DoRafI=F ISym2E= 0 IDoP0=0 IntGTp=1.
 FoFCou: FMM=F IPFlag=           0 FMFlag=      100000 FMFlg1=         800
         NFxFlg=           0 DoJE=F BraDBF=F KetDBF=F FulRan=T
         wScrn=  0.000000 ICntrl=      2127 IOpCl=  1 I1Cent=           0 NGrid=           0
         NMat0=    1 NMatS0=      1 NMatT0=    0 NMatD0=    1 NMtDS0=    0 NMtDT0=    0
 Symmetry not used in FoFCou.
 Leave Link  703 at Mon Apr 21 21:04:09 2025, MaxMem=   536870912 cpu:               5.7 elap:               0.8
 (Enter /home/szhao/Apps/g16/l716.exe)
 Dipole        =-1.63230957D+00 4.94221710D-01 1.29061296D-02
 -------------------------------------------------------------------
 Center     Atomic                   Forces (Hartrees/Bohr)
 Number     Number              X              Y              Z
 -------------------------------------------------------------------
      1        5          -0.000000000   -0.000000000   -0.000000000
      2        7          -0.000000000   -0.000000000   -0.000000000
      3        1           0.000115266   -0.003310039    0.000154008
      4        1           0.001191874   -0.000703546    0.000083649
 -------------------------------------------------------------------
 Cartesian Forces:  Max     0.003310039 RMS     0.001037461
 Leave Link  716 at Mon Apr 21 21:04:10 2025, MaxMem=   536870912 cpu:               0.6 elap:               0.3
 (Enter /home/szhao/Apps/g16/l103.exe)

[...]
 Gap=     0.201 Goal=   None    Shift=    0.000
 RMSDP=1.74D-08 MaxDP=1.77D-07 DE=-6.00D-12 OVMax= 1.23D-06

 Cycle  10  Pass 1  IDiag  1:
 E= -80.5474770675731     Delta-E=       -0.000000000001 Rises=F Damp=F
 DIIS: error= 2.51D-08 at cycle  10 NSaved=  10.
 NSaved=10 IEnMin=10 EnMin= -80.5474770675731     IErMin=10 ErrMin= 2.51D-08
 ErrMax= 2.51D-08  0.00D+00 EMaxC= 1.00D-01 BMatC= 3.33D-14 BMatP= 1.83D-13
 IDIUse=1 WtCom= 1.00D+00 WtEn= 0.00D+00
 Coeff-Com: -0.115D-03 0.116D-02-0.186D-02-0.252D-02-0.201D-02 0.167D-01
 Coeff-Com:  0.228D-01-0.816D-01-0.237D+00 0.128D+01
 Coeff:     -0.115D-03 0.116D-02-0.186D-02-0.252D-02-0.201D-02 0.167D-01
 Coeff:      0.228D-01-0.816D-01-0.237D+00 0.128D+01
 Gap=     0.201 Goal=   None    Shift=    0.000
 Gap=     0.201 Goal=   None    Shift=    0.000
 RMSDP=6.36D-09 MaxDP=6.19D-08 DE=-5.54D-13 OVMax= 5.17D-07

 SCF Done:  E(UM062X) =  -80.5474770676     A.U. after   10 cycles
            NFock= 10  Conv=0.64D-08     -V/T= 2.0100
 <Sx>= 0.0000 <Sy>= 0.0000 <Sz>= 0.0000 <S**2>= 0.0000 S= 0.0000
 <L.S>=  0.00000000000    
 KE= 7.974835032879D+01 PE=-2.220432009536D+02 EE= 4.439459140758D+01
 Annihilation of the first spin contaminant:
 S**2 before annihilation     0.0000,   after    -0.0000
 Leave Link  502 at Mon Apr 21 21:06:11 2025, MaxMem=   536870912 cpu:              31.0 elap:               4.1
 (Enter /home/szhao/Apps/g16/l701.exe)
 ... and contract with generalized density number  0.
 Compute integral first derivatives.
 Leave Link  701 at Mon Apr 21 21:06:11 2025, MaxMem=   536870912 cpu:               1.0 elap:               0.2
 (Enter /home/szhao/Apps/g16/l702.exe)
 L702 exits ... SP integral derivatives will be done elsewhere.
 Leave Link  702 at Mon Apr 21 21:06:11 2025, MaxMem=   536870912 cpu:               0.4 elap:               0.1
 (Enter /home/szhao/Apps/g16/l703.exe)
 Integral derivatives from FoFJK, PRISM(SPDF).
 Compute integral first derivatives, UseDBF=F ICtDFT=           0.
 Calling FoFJK, ICntrl=      2127 FMM=F ISym2X=0 I1Cent= 0 IOpClX= 1 NMat=1 NMatS=1 NMatT=0.
 FoFJK:  IHMeth= 1 ICntrl=    2127 DoSepK=F KAlg= 0 I1Cent=           0 FoldK=F
 IRaf=         0 NMat=       1 IRICut=       1 DoRegI=T DoRafI=F ISym2E= 0 IDoP0=0 IntGTp=1.
 FoFCou: FMM=F IPFlag=           0 FMFlag=      100000 FMFlg1=         800
         NFxFlg=           0 DoJE=F BraDBF=F KetDBF=F FulRan=T
         wScrn=  0.000000 ICntrl=      2127 IOpCl=  1 I1Cent=           0 NGrid=           0
         NMat0=    1 NMatS0=      1 NMatT0=    0 NMatD0=    1 NMtDS0=    0 NMtDT0=    0
 Symmetry not used in FoFCou.
 Leave Link  703 at Mon Apr 21 21:06:12 2025, MaxMem=   536870912 cpu:               5.4 elap:               0.7
 (Enter /home/szhao/Apps/g16/l716.exe)
 Dipole        =-1.59882877D+00 2.77726441D-01 3.92392053D-01
 -------------------------------------------------------------------
 Center     Atomic                   Forces (Hartrees/Bohr)
 Number     Number              X              Y              Z
 -------------------------------------------------------------------
      1        5          -0.000000000   -0.000000000   -0.000000000
      2        7          -0.000000000   -0.000000000   -0.000000000
      3        1          -0.000000368    0.000001947    0.000000161
      4        1           0.000007474    0.000001670   -0.000004608
 -------------------------------------------------------------------
 Cartesian Forces:  Max     0.000007474 RMS     0.000002643
 Leave Link  716 at Mon Apr 21 21:06:12 2025, MaxMem=   536870912 cpu:               0.6 elap:               0.3
 (Enter /home/szhao/Apps/g16/l103.exe)

 GradGradGradGradGradGradGradGradGradGradGradGradGradGradGradGradGradGrad
 Berny optimization.
 Using GEDIIS/GDIIS optimizer.
 FormGI is forming the generalized inverse of G from B-inverse, IUseBI=4.
 Internal  Forces:  Max     0.000014895 RMS     0.000005993
 Search for a local minimum.
 Step number  13 out of a maximum of   21
 All quantities printed in internal units (Hartrees-Bohrs-Radians)
 RMS Force = .68820D-05 SwitMx=.10000D-02 MixMth= 2
 Mixed Optimization -- En-DIIS/RFO-DIIS
 Swapping is turned off.
 Update second derivatives using D2CorX and points    8    9   10   11   12
                                                     13
 DE= -1.78D-07 DEPred=-1.63D-07 R= 1.09D+00
 Trust test= 1.09D+00 RLast= 4.78D-03 DXMaxT set to 8.49D-01
 The second derivative matrix:
                          X1        Y1        Z1        X2        Y2
           X1           0.50102
           Y1          -0.00370   0.52304
           Z1          -0.00531   0.01825   0.53573
           X2          -0.00391   0.02142   0.03117   0.54264
           Y2           0.00285  -0.01509  -0.01662  -0.01855   0.51123
           Z2           0.00433  -0.01915  -0.02705  -0.02739   0.01541
           R1          -0.00330  -0.00602  -0.00051  -0.00415   0.00495
           R2           0.00250   0.00140  -0.00369  -0.00763   0.00891
           A1          -0.00700   0.02322   0.03903   0.02451  -0.01868
           A2          -0.00503   0.02980   0.04734   0.07107  -0.02704
           D1           0.00019  -0.00268   0.00037  -0.00066   0.00120
                          Z2        R1        R2        A1        A2
           Z2           0.52285
           R1           0.00038   0.25806
           R2           0.00750  -0.00157   0.41104
           A1          -0.02955   0.00062  -0.00368   0.05239
           A2          -0.04116   0.00097   0.01187   0.03019   0.12424
           D1           0.00084   0.00000   0.00015  -0.00044  -0.00030
                          D1
           D1           0.00061
 ITU=  0  1  1  1  1  1  0  1  1  1  1  1
     Eigenvalues ---    0.00061   0.04124   0.13487   0.25806   0.41157
     Eigenvalues --- 1000.000001000.000001000.000001000.000001000.00000
     Eigenvalues --- 1000.00000
 En-DIIS/RFO-DIIS/Sim-DIIS IScMMF=       -3 using points:    13   12   11   10    9
 RFO step:  Lambda=-1.31627687D-09.
 NNeg= 0 NGDIIS= 5 SimSw=  2.50D-01 Rises=F DC= -1.78D-07 SmlDif=  1.00D-05
 NRisDI= 0 DoIntr=F SqrtH=F CThrHd= 10.0 CDAdj=  3.0
 RMS Error=  0.3842223792D-03 NUsed= 5 OKEnD=F EnDIS=F
 InvSVX:  RCond= 2.68D-10 Info=           0 Equed=N FErr=  4.13D-11 BErr=  5.91D-17
 DIIS inversion failure, remove point   5.
 InvSVX:  RCond= 3.10D-07 Info=           0 Equed=N FErr=  2.68D-14 BErr=  2.34D-17
 RFO-DIIS uses    4 points instead of    5
 DidBck=F Rises=F RFO-DIIS coefs:    1.02491   -0.04914    0.02390    0.00033    0.00000
 Iteration  1 RMS(Cart)=  0.00019440 RMS(Int)=  0.00000004
 Iteration  2 RMS(Cart)=  0.00000006 RMS(Int)=  0.00000000
 ITry= 1 IFail=0 DXMaxC= 3.70D-04 DCOld= 1.00D+10 DXMaxT= 8.49D-01 DXLimC= 3.00D+00 Rises=F
 Variable       Old X    -DE/DX   Delta X   Delta X   Delta X     New X
                                 (Linear)    (Quad)   (Total)
    X1       -1.92227  -0.00000  -0.00000   0.00000   0.00000  -1.92227
    Y1       -0.00072   0.00001  -0.00000   0.00000   0.00000  -0.00072
    Z1       -0.00000   0.00000   0.00000   0.00000   0.00000  -0.00000
    X2        1.92178   0.00001   0.00000   0.00000   0.00000   1.92178
    Y2        0.00042  -0.00000   0.00000   0.00000   0.00000   0.00042
    Z2        0.00000  -0.00001   0.00000   0.00000   0.00000   0.00000
    R1        2.24186   0.00000  -0.00000   0.00000   0.00000   2.24186
    R2        1.95742  -0.00000  -0.00001  -0.00000  -0.00001   1.95741
    A1        2.97614   0.00000  -0.00002  -0.00000  -0.00002   2.97612
    A2        1.62266   0.00001   0.00012  -0.00000   0.00012   1.62278
    D1       -3.14083  -0.00000  -0.00123   0.00000  -0.00123   3.14112
         Item               Value     Threshold  Converged?
 Maximum Force            0.000015     0.000450     YES
 RMS     Force            0.000007     0.000300     YES
 Maximum Displacement     0.000370     0.001800     YES
 RMS     Displacement     0.000194     0.001200     YES
 Predicted change in Energy=-1.403850D-09
 Optimization completed.
    -- Stationary point found.
                           ----------------------------
                           !   Optimized Parameters   !
                           ! (Angstroms and Degrees)  !
 --------------------------                            --------------------------
 ! Name  Definition              Value          Derivative Info.                !
 --------------------------------------------------------------------------------
 ! X1    R(1,-1)                -1.0172         -DE/DX =    0.0                 !
 ! Y1    R(1,-2)                -0.0004         -DE/DX =    0.0                 !
 ! Z1    R(1,-3)                 0.0            -DE/DX =    0.0                 !
 ! X2    R(2,-1)                 1.017          -DE/DX =    0.0                 !
 ! Y2    R(2,-2)                 0.0002         -DE/DX =    0.0                 !
 ! Z2    R(2,-3)                 0.0            -DE/DX =    0.0                 !
 ! R1    R(1,3)                  1.1863         -DE/DX =    0.0                 !
 ! R2    R(2,4)                  1.0358         -DE/DX =    0.0                 !
 ! A1    A(2,1,3)              170.5202         -DE/DX =    0.0                 !
 ! A2    A(1,2,4)               92.9715         -DE/DX =    0.0                 !
 ! D1    D(3,1,2,4)            180.0434         -DE/DX =    0.0                 !
 --------------------------------------------------------------------------------
 Lowest energy point so far.  Saving SCF results.
 Largest change from initial coordinates is atom    4       0.956 Angstoms.
 GradGradGradGradGradGradGradGradGradGradGradGradGradGradGradGradGradGrad

 Leave Link  103 at Mon Apr 21 21:06:13 2025, MaxMem=   536870912 cpu:               0.4 elap:               0.1
 (Enter /home/szhao/Apps/g16/l202.exe)
                          Input orientation:                          
 ---------------------------------------------------------------------
 Center     Atomic      Atomic             Coordinates (Angstroms)
 Number     Number       Type             X           Y           Z
 ---------------------------------------------------------------------
      1          5           0       -1.017220   -0.000379   -0.000000
      2          7           0        1.016962    0.000220    0.000000
      3          1           0       -2.187326   -0.113870   -0.159297
      4          1           0        1.070482    0.598609    0.843795
 ---------------------------------------------------------------------
                    Distance matrix (angstroms):
                    1          2          3          4
     1  B    0.000000
     2  N    2.034182   0.000000
     3  H    1.186341   3.210273   0.000000
     4  H    2.330081   1.035821   3.482404   0.000000
 Symmetry turned off by external request.
 Stoichiometry    BH2N
 Framework group  C1[X(BH2N)]
 Deg. of freedom     6
 Full point group                 C1      NOp   1
 Rotational constants (GHZ):         496.2452241          15.8987694          15.4052151
 Leave Link  202 at Mon Apr 21 21:06:13 2025, MaxMem=   536870912 cpu:               0.1 elap:               0.5
 (Enter /home/szhao/Apps/g16/l601.exe)
 Copying SCF densities to generalized density rwf, IOpCl= 1 IROHF=0.

 **********************************************************************

            Population analysis using the SCF density.

 **********************************************************************

 Alpha  occ. eigenvalues --  -14.77478  -7.20356  -0.85198  -0.60684  -0.42622
 Alpha  occ. eigenvalues --   -0.35788  -0.27930
 Alpha virt. eigenvalues --   -0.07785  -0.06691  -0.01535   0.00756   0.04123
 Alpha virt. eigenvalues --    0.04813   0.05981   0.13450   0.16049   0.18555
 Alpha virt. eigenvalues --    0.20197   0.22524   0.25595   0.36626   0.38486
 Alpha virt. eigenvalues --    0.38545   0.50079   0.56033   0.60251   0.76730
 Alpha virt. eigenvalues --    0.76973   0.81475   0.82322   0.89293   0.92526
 Alpha virt. eigenvalues --    0.92996   1.13065   1.25363   1.36280   1.41252
 Alpha virt. eigenvalues --    1.61743   1.65697   1.80051   1.80747   1.85396
 Alpha virt. eigenvalues --    1.98735   2.13719   2.32095   2.43200   2.44287
 Alpha virt. eigenvalues --    2.52763   2.58243   2.60801   3.03880   3.92006
 Alpha virt. eigenvalues --    3.97665   4.44346  14.20144  35.46027
  Beta  occ. eigenvalues --  -14.77478  -7.20356  -0.85198  -0.60684  -0.42622
  Beta  occ. eigenvalues --   -0.35788  -0.27930
  Beta virt. eigenvalues --   -0.07785  -0.06691  -0.01535   0.00756   0.04123
  Beta virt. eigenvalues --    0.04813   0.05981   0.13450   0.16049   0.18555
  Beta virt. eigenvalues --    0.20197   0.22524   0.25595   0.36626   0.38486
  Beta virt. eigenvalues --    0.38545   0.50079   0.56033   0.60251   0.76730
  Beta virt. eigenvalues --    0.76973   0.81475   0.82322   0.89293   0.92526
  Beta virt. eigenvalues --    0.92996   1.13065   1.25363   1.36280   1.41252
  Beta virt. eigenvalues --    1.61743   1.65697   1.80051   1.80747   1.85396
  Beta virt. eigenvalues --    1.98735   2.13719   2.32095   2.43200   2.44287
  Beta virt. eigenvalues --    2.52763   2.58243   2.60801   3.03880   3.92006
  Beta virt. eigenvalues --    3.97665   4.44346  14.20144  35.46027
          Condensed to atoms (all electrons):
               1          2          3          4
     1  B    4.281492   0.153886   0.363658   0.032460
     2  N    0.153886   7.076460   0.004053   0.193975
     3  H    0.363658   0.004053   0.557795   0.000643
     4  H    0.032460   0.193975   0.000643   0.586903
          Atomic-Atomic Spin Densities.
               1          2          3          4
     1  B    0.000004   0.000000  -0.000000  -0.000000
     2  N    0.000000  -0.000005   0.000000  -0.000000
     3  H   -0.000000   0.000000   0.000000  -0.000000
     4  H   -0.000000  -0.000000  -0.000000   0.000000
 Mulliken charges and spin densities:
               1          2
     1  B    0.168504   0.000004
     2  N   -0.428374  -0.000005
     3  H    0.073851   0.000000
     4  H    0.186019   0.000000
 Sum of Mulliken charges =  -0.00000   0.00000
 Mulliken charges and spin densities with hydrogens summed into heavy atoms:
               1          2
     1  B    0.242355   0.000004
     2  N   -0.242355  -0.000004
 Electronic spatial extent (au):  <R**2>=             98.2621
 Charge=             -0.0000 electrons
 Dipole moment (field-independent basis, Debye):
    X=             -4.0638    Y=              0.7059    Z=              0.9974  Tot=              4.2435
 Quadrupole moment (field-independent basis, Debye-Ang):
   XX=            -11.2392   YY=            -14.3278   ZZ=            -13.1661
   XY=              1.1241   XZ=              1.5829   YZ=              1.6584
 Traceless Quadrupole moment (field-independent basis, Debye-Ang):
   XX=              1.6718   YY=             -1.4168   ZZ=             -0.2550
   XY=              1.1241   XZ=              1.5829   YZ=              1.6584
 Octapole moment (field-independent basis, Debye-Ang**2):
  XXX=             -6.2259  YYY=             -0.5780  ZZZ=             -0.5093  XYY=             -1.0974
  XXY=              0.9763  XXZ=              1.3774  XZZ=             -0.6356  YZZ=              0.1747
  YYZ=             -0.0641  XYZ=              0.6600
 Hexadecapole moment (field-independent basis, Debye-Ang**3):
 XXXX=           -105.8082 YYYY=            -21.8168 ZZZZ=            -20.1733 XXXY=              0.2300
 XXXZ=              0.3381 YYYX=             -1.0357 YYYZ=              1.0353 ZZZX=             -1.0613
 ZZZY=              1.3064 XXYY=            -23.0139 XXZZ=            -21.7297 YYZZ=             -6.7719
 XXYZ=              1.8331 YYXZ=             -0.2237 ZZXY=              0.1049
 N-N= 1.735278214962D+01 E-N=-2.220432008172D+02  KE= 7.974835032879D+01
                          Isotropic Fermi Contact Couplings
        Atom                 a.u.       MegaHertz       Gauss      10(-4) cm-1
     1  B(11)              0.00000       0.00084       0.00030       0.00028
     2  N(14)             -0.00000      -0.00008      -0.00003      -0.00003
     3  H(1)               0.00000       0.00009       0.00003       0.00003
     4  H(1)               0.00000       0.00011       0.00004       0.00004
 --------------------------------------------------------
       Center         ----  Spin Dipole Couplings  ----
                      3XX-RR        3YY-RR        3ZZ-RR
 --------------------------------------------------------
     1   Atom       -0.000001      0.000001     -0.000000
     2   Atom        0.000003     -0.000004      0.000001
     3   Atom        0.000000     -0.000000     -0.000000
     4   Atom        0.000000     -0.000000     -0.000000
 --------------------------------------------------------
                        XY            XZ            YZ
 --------------------------------------------------------
     1   Atom        0.000000      0.000000     -0.000001
     2   Atom        0.000000      0.000000      0.000006
     3   Atom        0.000000      0.000000     -0.000000
     4   Atom        0.000000      0.000000     -0.000000
 --------------------------------------------------------


 ---------------------------------------------------------------------------------
              Anisotropic Spin Dipole Couplings in Principal Axis System
 ---------------------------------------------------------------------------------

       Atom             a.u.   MegaHertz   Gauss  10(-4) cm-1        Axes

              Baa    -0.0000    -0.000    -0.000    -0.000  0.6828 -0.4225 -0.5961
     1 B(11)  Bbb    -0.0000    -0.000    -0.000    -0.000  0.7306  0.3950  0.5569
              Bcc     0.0000     0.000     0.000     0.000 -0.0002  0.8158 -0.5784
 
              Baa    -0.0000    -0.000    -0.000    -0.000 -0.0005  0.8157 -0.5784
     2 N(14)  Bbb     0.0000     0.000     0.000     0.000  0.9897 -0.0823 -0.1169
              Bcc     0.0000     0.000     0.000     0.000  0.1429  0.5725  0.8073
 
              Baa    -0.0000    -0.000    -0.000    -0.000 -0.1929  0.5675  0.8004
     3 H(1)   Bbb     0.0000     0.000     0.000     0.000 -0.0004  0.8157 -0.5784
              Bcc     0.0000     0.000     0.000     0.000  0.9812  0.1119  0.1572
 
              Baa    -0.0000    -0.000    -0.000    -0.000 -0.0019  0.5785  0.8157
     4 H(1)   Bbb     0.0000     0.000     0.000     0.000 -0.0004  0.8157 -0.5785
              Bcc     0.0000     0.000     0.000     0.000  1.0000  0.0014  0.0013
 

 ---------------------------------------------------------------------------------

 No NMR shielding tensors so no spin-rotation constants.
 Leave Link  601 at Mon Apr 21 21:06:14 2025, MaxMem=   536870912 cpu:               2.9 elap:               0.7
 (Enter /home/szhao/Apps/g16/l9999.exe)
 1\1\GINC-NODE05\FOpt\UM062X\6-311+G(d,p)\B1H2N1\SZHAO\21-Apr-2025\0\\#
 p opt UM062X/6-311+G** nosymm int=superfine\\Title Card Required\\0,1\
 B,-1.01722,-0.000379,0.\N,1.016962,0.00022,0.\H,-2.187326146,-0.113869
 9594,-0.1592971935\H,1.0704823863,0.5986092638,0.843795189\\Version=ES
 64L-G16RevA.03\HF=-80.5474771\S2=0.\S2-1=0.\S2A=0.\RMSD=6.355e-09\RMSF
 =2.643e-06\Dipole=-1.5988288,0.2777264,0.3923921\Quadrupole=1.2429787,
 -1.0533564,-0.1896222,0.8357596,1.1768832,1.2329431\PG=C01 [X(B1H2N1)]
 \\@


 IF YOU WISH TO UNDERSTAND THE FRAGRANCE OF THE ROSE, 
 OR THE TENACITY OF THE OAK; 
 IF YOU ARE NOT SATISFIED UNTIL YOU KNOW THE SECRET PATHS 
 BY WHICH THE SUNSHINE AND THE AIR ACHIEVE THESE WONDERS; 
 IF YOU WISH TO SEE THE PATTERN WHICH UNDERLIES ONE LARGE FIELD OF 
 HUMAN EXPERIENCE AND HUMAN MEASUREMENT, THEN TAKE UP CHEMISTRY.

                                         -- C. A. COULSON, 1973.
 Job cpu time:       0 days  0 hours 13 minutes 51.0 seconds.
 Elapsed time:       0 days  0 hours  2 minutes  8.2 seconds.
 File lengths (MBytes):  RWF=     17 Int=      0 D2E=      0 Chk=      2 Scr=      2
 Normal termination of Gaussian 16 at Mon Apr 21 21:06:15 2025.
