 Entering Gaussian System, Link 0=g16
 Initial command:
 /home/szhao/Apps/g16/l1.exe "/home/szhao/tmp/Gau-68247.inp" -scrdir="/home/szhao/tmp/"
 Default is to use a total of  16 processors:
                               16 via shared-memory
                                1 via Linda
 Entering Link 1 = /home/szhao/Apps/g16/l1.exe PID=     68249.
  
 Copyright (c) 1988,1990,1992,1993,1995,1998,2003,2009,2016,
            Gaussian, Inc.  All Rights Reserved.
  
 This is part of the Gaussian(R) 16 program.  It is based on
 the Gaussian(R) 09 system (copyright 2009, Gaussian, Inc.),
 the Gaussian(R) 03 system (copyright 2003, Gaussian, Inc.),
 the Gaussian(R) 98 system (copyright 1998, Gaussian, Inc.),
 the Gaussian(R) 94 system (copyright 1995, Gaussian, Inc.),
 the Gaussian 92(TM) system (copyright 1992, Gaussian, Inc.),
 the Gaussian 90(TM) system (copyright 1990, Gaussian, Inc.),
 the Gaussian 88(TM) system (copyright 1988, Gaussian, Inc.),
 the Gaussian 86(TM) system (copyright 1986, Carnegie Mellon
 University), and the Gaussian 82(TM) system (copyright 1983,
 Carnegie Mellon University). Gaussian is a federally registered
 trademark of Gaussian, Inc.
  
 This software contains proprietary and confidential information,
 including trade secrets, belonging to Gaussian, Inc.
  
 This software is provided under written license and may be
 used, copied, transmitted, or stored only in accord with that
 written license.
  
 The following legend is applicable only to US Government
 contracts under FAR:
  
                    RESTRICTED RIGHTS LEGEND
  
 Use, reproduction and disclosure by the US Government is
 subject to restrictions as set forth in subparagraphs (a)
 and (c) of the Commercial Computer Software - Restricted
 Rights clause in FAR 52.227-19.
  
 Gaussian, Inc.
 340 Quinnipiac St., Bldg. 40, Wallingford CT 06492
  
  
 ---------------------------------------------------------------
 Warning -- This program may not be used in any manner that
 competes with the business of Gaussian, Inc. or will provide
 assistance to any competitor of Gaussian, Inc.  The licensee
 of this program is prohibited from giving any competitor of
 Gaussian, Inc. access to this program.  By using this program,
 the user acknowledges that Gaussian, Inc. is engaged in the
 business of creating and licensing software in the field of
 computational chemistry and represents and warrants to the
 licensee that it is not a competitor of Gaussian, Inc. and that
 it will not use this program in any manner prohibited above.
 ---------------------------------------------------------------
  

 Cite this work as:
 Gaussian 16, Revision A.03,
 M. J. Frisch, G. W. Trucks, H. B. Schlegel, G. E. Scuseria, 
 M. A. Robb, J. R. Cheeseman, G. Scalmani, V. Barone, 
 G. A. Petersson, H. Nakatsuji, X. Li, M. Caricato, A. V. Marenich, 
 J. Bloino, B. G. Janesko, R. Gomperts, B. Mennucci, H. P. Hratchian, 
 J. V. Ortiz, A. F. Izmaylov, J. L. Sonnenberg, D. Williams-Young, 
 F. Ding, F. Lipparini, F. Egidi, J. Goings, B. Peng, A. Petrone, 
 T. Henderson, D. Ranasinghe, V. G. Zakrzewski, J. Gao, N. Rega, 
 G. Zheng, W. Liang, M. Hada, M. Ehara, K. Toyota, R. Fukuda, 
 J. Hasegawa, M. Ishida, T. Nakajima, Y. Honda, O. Kitao, H. Nakai, 
 T. Vreven, K. Throssell, J. A. Montgomery, Jr., J. E. Peralta, 
 F. Ogliaro, M. J. Bearpark, J. J. Heyd, E. N. Brothers, K. N. Kudin, 
 V. N. Staroverov, T. A. Keith, R. Kobayashi, J. Normand, 
 K. Raghavachari, A. P. Rendell, J. C. Burant, S. S. Iyengar, 
 J. Tomasi, M. Cossi, J. M. Millam, M. Klene, C. Adamo, R. Cammi, 
 J. W. Ochterski, R. L. Martin, K. Morokuma, O. Farkas, 
 J. B. Foresman, and D. J. Fox, Gaussian, Inc., Wallingford CT, 2016.
 
 ******************************************
 Gaussian 16:  ES64L-G16RevA.03 25-Dec-2016
                19-Nov-2024 
 ******************************************
 %chk=opt.chk
 %mem=4GB
 %nprocshared=8
 Will use up to    8 processors via shared memory.
 ---------------------------------------
 #p UM062X/6-311+G** force int=superfine
 ---------------------------------------
 1/10=7,30=1,38=1/1,3;
 2/12=2,17=6,18=5,40=1/2;
 3/5=4,6=6,7=111,11=2,25=1,30=1,71=1,74=-55,75=-7,116=2/1,2,3;
 4//1;
 5/5=2,38=5/2;
 6/7=2,8=2,9=2,10=2,28=1/1;
 7/29=1/1,2,3,16;
 1/10=7,30=1/3;
 99//99;
 Leave Link    1 at Tue Nov 19 11:53:56 2024, MaxMem=   536870912 cpu:               0.3 elap:               0.0
 (Enter /home/szhao/Apps/g16/l101.exe)
 -------------------
 Title Card Required
 -------------------
 Symbolic Z-matrix:
 Charge =  1 Multiplicity = 2
 C                    -0.69275   0.        0. 
 C                     0.69275   0.        0. 
 H                    -1.2511   -0.93259   0. 
 H                    -1.25124   0.93243   0. 
 H                     1.2511    0.93259   0. 
 H                     1.25124  -0.93243   0. 
 
 ITRead=  0  0  0  0  0  0
 MicOpt= -1 -1 -1 -1 -1 -1
 NAtoms=      6 NQM=        6 NQMF=       0 NMMI=      0 NMMIF=      0
                NMic=       0 NMicF=      0.
                    Isotopes and Nuclear Properties:
 (Nuclear quadrupole moments (NQMom) in fm**2, nuclear magnetic moments (NMagM)
  in nuclear magnetons)

  Atom         1           2           3           4           5           6
 IAtWgt=          12          12           1           1           1           1
 AtmWgt=  12.0000000  12.0000000   1.0078250   1.0078250   1.0078250   1.0078250
 NucSpn=           0           0           1           1           1           1
 AtZEff=  -0.0000000  -0.0000000  -0.0000000  -0.0000000  -0.0000000  -0.0000000
 NQMom=    0.0000000   0.0000000   0.0000000   0.0000000   0.0000000   0.0000000
 NMagM=    0.0000000   0.0000000   2.7928460   2.7928460   2.7928460   2.7928460
 AtZNuc=   6.0000000   6.0000000   1.0000000   1.0000000   1.0000000   1.0000000
 Leave Link  101 at Tue Nov 19 11:53:56 2024, MaxMem=   536870912 cpu:               1.5 elap:               0.2
 (Enter /home/szhao/Apps/g16/l103.exe)

 GradGradGradGradGradGradGradGradGradGradGradGradGradGradGradGradGradGrad
 Berny optimization.
 Initialization pass.
 Trust Radius=3.00D-01 FncErr=1.00D-07 GrdErr=1.00D-07 EigMax=2.50D+02 EigMin=1.00D-04
 Number of steps in this run=      2 maximum allowed number of steps=      2.
 GradGradGradGradGradGradGradGradGradGradGradGradGradGradGradGradGradGrad

 Leave Link  103 at Tue Nov 19 11:53:56 2024, MaxMem=   536870912 cpu:               0.2 elap:               0.0
 (Enter /home/szhao/Apps/g16/l202.exe)
                          Input orientation:                          
 ---------------------------------------------------------------------
 Center     Atomic      Atomic             Coordinates (Angstroms)
 Number     Number       Type             X           Y           Z
 ---------------------------------------------------------------------
      1          6           0       -0.692754    0.000000    0.000000
      2          6           0        0.692754    0.000000    0.000000
      3          1           0       -1.251095   -0.932590    0.000000
      4          1           0       -1.251240    0.932425    0.000000
      5          1           0        1.251095    0.932590    0.000000
      6          1           0        1.251240   -0.932425    0.000000
 ---------------------------------------------------------------------
                    Distance matrix (angstroms):
                    1          2          3          4          5
     1  C    0.000000
     2  C    1.385508   0.000000
     3  H    1.086954   2.155985   0.000000
     4  H    1.086887   2.156045   1.865015   0.000000
     5  H    2.155985   1.086954   3.120873   2.502335   0.000000
     6  H    2.156045   1.086887   2.502335   3.120909   1.865015
                    6
     6  H    0.000000
 Stoichiometry    C2H4(1+,2)
 Framework group  C2H[SGH(C2H4)]
 Deg. of freedom     5
 Full point group                 C2H     NOp   4
 Largest Abelian subgroup         C2H     NOp   4
 Largest concise Abelian subgroup C2      NOp   2
                         Standard orientation:                         
 ---------------------------------------------------------------------
 Center     Atomic      Atomic             Coordinates (Angstroms)
 Number     Number       Type             X           Y           Z
 ---------------------------------------------------------------------
      1          6           0       -0.000000    0.692754    0.000000
      2          6           0       -0.000000   -0.692754    0.000000
      3          1           0        0.932590    1.251095   -0.000000
      4          1           0       -0.932425    1.251240    0.000000
      5          1           0       -0.932590   -1.251095   -0.000000
      6          1           0        0.932425   -1.251240    0.000000
 ---------------------------------------------------------------------
 Rotational constants (GHZ):         144.1675092          28.3467358          23.6889324
 Leave Link  202 at Tue Nov 19 11:53:56 2024, MaxMem=   536870912 cpu:               0.0 elap:               0.0
 (Enter /home/szhao/Apps/g16/l301.exe)
 Standard basis: 6-311+G(d,p) (5D, 7F)
 Ernie: Thresh=  0.10000D-02 Tol=  0.10000D-05 Strict=F.
 There are    27 symmetry adapted cartesian basis functions of AG  symmetry.
 There are     8 symmetry adapted cartesian basis functions of BG  symmetry.
 There are     8 symmetry adapted cartesian basis functions of AU  symmetry.
 There are    27 symmetry adapted cartesian basis functions of BU  symmetry.
 There are    26 symmetry adapted basis functions of AG  symmetry.
 There are     8 symmetry adapted basis functions of BG  symmetry.
 There are     8 symmetry adapted basis functions of AU  symmetry.
 There are    26 symmetry adapted basis functions of BU  symmetry.
    68 basis functions,   104 primitive gaussians,    70 cartesian basis functions
     8 alpha electrons        7 beta electrons
       nuclear repulsion energy        32.6545228930 Hartrees.
 IExCor= 4336 DFT=T Ex+Corr=M062X ExCW=0 ScaHFX=  0.540000
 ScaDFX=  1.000000  1.000000  1.000000  1.000000 ScalE2=  1.000000  1.000000
 IRadAn=      7 IRanWt=     -1 IRanGd=            0 ICorTp=0 IEmpDi=  4
 NAtoms=    6 NActive=    6 NUniq=    3 SFac= 4.00D+00 NAtFMM=   60 NAOKFM=F Big=F
 Integral buffers will be    131072 words long.
 Raffenetti 2 integral format.
 Two-electron integral symmetry is turned on.
 Leave Link  301 at Tue Nov 19 11:53:56 2024, MaxMem=   536870912 cpu:               0.3 elap:               0.0
 (Enter /home/szhao/Apps/g16/l302.exe)
 NPDir=0 NMtPBC=     1 NCelOv=     1 NCel=       1 NClECP=     1 NCelD=      1
         NCelK=      1 NCelE2=     1 NClLst=     1 CellRange=     0.0.
 One-electron integrals computed using PRISM.
 One-electron integral symmetry used in STVInt
 NBasis=    68 RedAO= T EigKep=  1.83D-04  NBF=    26     8     8    26
 NBsUse=    68 1.00D-06 EigRej= -1.00D+00 NBFU=    26     8     8    26
 Precomputing XC quadrature grid using
 IXCGrd= 4 IRadAn=           7 IRanWt=          -1 IRanGd=           0 AccXCQ= 0.00D+00.
 Generated NRdTot=       0 NPtTot=           0 NUsed=           0 NTot=          32
 NSgBfM=    70    70    70    70    70 MxSgAt=     6 MxSgA2=     6.
 Leave Link  302 at Tue Nov 19 11:53:56 2024, MaxMem=   536870912 cpu:               1.1 elap:               0.1
 (Enter /home/szhao/Apps/g16/l303.exe)
 DipDrv:  MaxL=1.
 Leave Link  303 at Tue Nov 19 11:53:56 2024, MaxMem=   536870912 cpu:               0.3 elap:               0.0
 (Enter /home/szhao/Apps/g16/l401.exe)
 ExpMin= 4.38D-02 ExpMax= 4.56D+03 ExpMxC= 6.82D+02 IAcc=3 IRadAn=         7 AccDes= 0.00D+00
 Harris functional with IExCor= 1009 and IRadAn=       7 diagonalized for initial guess.
 HarFok:  IExCor= 1009 AccDes= 0.00D+00 IRadAn=         7 IDoV= 1 UseB2=F ITyADJ=14
 ICtDFT=  3500011 ScaDFX=  1.000000  1.000000  1.000000  1.000000
 FoFCou: FMM=F IPFlag=           0 FMFlag=      100000 FMFlg1=           0
         NFxFlg=           0 DoJE=T BraDBF=F KetDBF=T FulRan=T
         wScrn=  0.000000 ICntrl=       500 IOpCl=  0 I1Cent=   200000004 NGrid=           0
         NMat0=    1 NMatS0=      1 NMatT0=    0 NMatD0=    1 NMtDS0=    0 NMtDT0=    0
 Petite list used in FoFCou.
 Harris En= -78.1941525844634    
 JPrj=0 DoOrth=F DoCkMO=F.
 Initial guess orbital symmetries:
 Alpha Orbitals:
       Occupied  (AG) (BU) (AG) (BU) (BU) (AG) (AG) (AU)
       Virtual   (BG) (AG) (BU) (BU) (AU) (AG) (AG) (AG) (BG) (BU)
                 (BU) (BU) (BU) (AG) (BU) (AG) (AG) (BU) (AU) (BG)
                 (BU) (BU) (AG) (AG) (AG) (BU) (BG) (AU) (AU) (AG)
                 (BU) (AG) (BU) (AG) (BU) (BG) (AU) (BG) (BU) (AG)
                 (BG) (AG) (AU) (BU) (AG) (BU) (BU) (AG) (AG) (AU)
                 (BU) (BU) (BG) (AG) (AG) (BU) (AG) (BU) (AG) (BU)
 Beta  Orbitals:
       Occupied  (AG) (BU) (AG) (BU) (BU) (AG) (AG)
       Virtual   (AU) (BG) (AG) (BU) (BU) (AU) (AG) (AG) (AG) (BG)
                 (BU) (BU) (BU) (BU) (AG) (BU) (AG) (AG) (BU) (AU)
                 (BG) (BU) (BU) (AG) (AG) (AG) (BU) (BG) (AU) (AU)
                 (AG) (BU) (AG) (BU) (AG) (BU) (BG) (AU) (BG) (BU)
                 (AG) (BG) (AG) (AU) (BU) (AG) (BU) (BU) (AG) (AG)
                 (AU) (BU) (BU) (BG) (AG) (AG) (BU) (AG) (BU) (AG)
                 (BU)
 The electronic state of the initial guess is 2-AU.
 Initial guess <Sx>= 0.0000 <Sy>= 0.0000 <Sz>= 0.5000 <S**2>= 0.7500 S= 0.5000
 Leave Link  401 at Tue Nov 19 11:53:57 2024, MaxMem=   536870912 cpu:               1.5 elap:               0.2
 (Enter /home/szhao/Apps/g16/l502.exe)
 Keep R1 and R2 ints in memory in symmetry-blocked form, NReq=9935231.
 FoFCou: FMM=F IPFlag=           0 FMFlag=           0 FMFlg1=           0
         NFxFlg=           0 DoJE=F BraDBF=F KetDBF=F FulRan=T
         wScrn=  0.000000 ICntrl=       600 IOpCl=  0 I1Cent=           0 NGrid=           0
         NMat0=    1 NMatS0=   2346 NMatT0=    0 NMatD0=    1 NMtDS0=    0 NMtDT0=    0
 Petite list used in FoFCou.
 UHF open shell SCF:
 Using DIIS extrapolation, IDIIS=  1040.
 NGot=   536870912 LenX=   535358062 LenY=   535352721
 Requested convergence on RMS density matrix=1.00D-08 within 128 cycles.
 Requested convergence on MAX density matrix=1.00D-06.
 Requested convergence on             energy=1.00D-06.
 No special actions if energy rises.

 Cycle   1  Pass 1  IDiag  1:
 E= -78.1737472241755    
 DIIS: error= 2.54D-02 at cycle   1 NSaved=   1.
 NSaved= 1 IEnMin= 1 EnMin= -78.1737472241755     IErMin= 1 ErrMin= 2.54D-02
 ErrMax= 2.54D-02  0.00D+00 EMaxC= 1.00D-01 BMatC= 7.47D-02 BMatP= 7.47D-02
 IDIUse=3 WtCom= 7.46D-01 WtEn= 2.54D-01
 Coeff-Com:  0.100D+01
 Coeff-En:   0.100D+01
 Coeff:      0.100D+01
 Gap=     0.386 Goal=   None    Shift=    0.000
 Gap=     0.305 Goal=   None    Shift=    0.000
 GapD=    0.305 DampG=1.000 DampE=0.500 DampFc=0.5000 IDamp=-1.
 Damping current iteration by 5.00D-01
 RMSDP=2.23D-03 MaxDP=3.39D-02              OVMax= 3.05D-02

 Cycle   2  Pass 1  IDiag  1:
 E= -78.1786721688019     Delta-E=       -0.004924944626 Rises=F Damp=T
 DIIS: error= 1.14D-02 at cycle   2 NSaved=   2.
 NSaved= 2 IEnMin= 2 EnMin= -78.1786721688019     IErMin= 2 ErrMin= 1.14D-02
 ErrMax= 1.14D-02  0.00D+00 EMaxC= 1.00D-01 BMatC= 1.60D-02 BMatP= 7.47D-02
 IDIUse=3 WtCom= 8.86D-01 WtEn= 1.14D-01
 Coeff-Com: -0.756D+00 0.176D+01
 Coeff-En:   0.000D+00 0.100D+01
 Coeff:     -0.670D+00 0.167D+01
 Gap=     0.386 Goal=   None    Shift=    0.000
 Gap=     0.292 Goal=   None    Shift=    0.000
 RMSDP=1.14D-03 MaxDP=1.66D-02 DE=-4.92D-03 OVMax= 1.32D-02

 Cycle   3  Pass 1  IDiag  1:
 E= -78.1833367352568     Delta-E=       -0.004664566455 Rises=F Damp=F
 DIIS: error= 2.47D-03 at cycle   3 NSaved=   3.
 NSaved= 3 IEnMin= 3 EnMin= -78.1833367352568     IErMin= 3 ErrMin= 2.47D-03
 ErrMax= 2.47D-03  0.00D+00 EMaxC= 1.00D-01 BMatC= 4.67D-04 BMatP= 1.60D-02
 IDIUse=3 WtCom= 9.75D-01 WtEn= 2.47D-02
 Coeff-Com: -0.235D+00 0.463D+00 0.772D+00
 Coeff-En:   0.000D+00 0.000D+00 0.100D+01
 Coeff:     -0.229D+00 0.451D+00 0.778D+00
 Gap=     0.385 Goal=   None    Shift=    0.000
 Gap=     0.296 Goal=   None    Shift=    0.000
 RMSDP=1.14D-04 MaxDP=3.36D-03 DE=-4.66D-03 OVMax= 4.75D-03

 Cycle   4  Pass 1  IDiag  1:
 E= -78.1834615661861     Delta-E=       -0.000124830929 Rises=F Damp=F
 DIIS: error= 4.38D-04 at cycle   4 NSaved=   4.
 NSaved= 4 IEnMin= 4 EnMin= -78.1834615661861     IErMin= 4 ErrMin= 4.38D-04
 ErrMax= 4.38D-04  0.00D+00 EMaxC= 1.00D-01 BMatC= 1.23D-05 BMatP= 4.67D-04
 IDIUse=3 WtCom= 9.96D-01 WtEn= 4.38D-03
 Coeff-Com:  0.276D-01-0.607D-01 0.510D-03 0.103D+01
 Coeff-En:   0.000D+00 0.000D+00 0.000D+00 0.100D+01
 Coeff:      0.275D-01-0.605D-01 0.507D-03 0.103D+01
 Gap=     0.385 Goal=   None    Shift=    0.000
 Gap=     0.296 Goal=   None    Shift=    0.000
 RMSDP=3.04D-05 MaxDP=4.79D-04 DE=-1.25D-04 OVMax= 9.65D-04

 Cycle   5  Pass 1  IDiag  1:
 E= -78.1834676713558     Delta-E=       -0.000006105170 Rises=F Damp=F
 DIIS: error= 1.26D-04 at cycle   5 NSaved=   5.
 NSaved= 5 IEnMin= 5 EnMin= -78.1834676713558     IErMin= 5 ErrMin= 1.26D-04
 ErrMax= 1.26D-04  0.00D+00 EMaxC= 1.00D-01 BMatC= 1.41D-06 BMatP= 1.23D-05
 IDIUse=3 WtCom= 9.99D-01 WtEn= 1.26D-03
 Coeff-Com:  0.210D-01-0.406D-01-0.805D-01-0.149D+00 0.125D+01
 Coeff-En:   0.000D+00 0.000D+00 0.000D+00 0.000D+00 0.100D+01
 Coeff:      0.209D-01-0.406D-01-0.804D-01-0.148D+00 0.125D+01
 Gap=     0.385 Goal=   None    Shift=    0.000
 Gap=     0.296 Goal=   None    Shift=    0.000
 RMSDP=1.46D-05 MaxDP=2.51D-04 DE=-6.11D-06 OVMax= 5.10D-04

 Cycle   6  Pass 1  IDiag  1:
 E= -78.1834686115560     Delta-E=       -0.000000940200 Rises=F Damp=F
 DIIS: error= 2.57D-05 at cycle   6 NSaved=   6.
 NSaved= 6 IEnMin= 6 EnMin= -78.1834686115560     IErMin= 6 ErrMin= 2.57D-05
 ErrMax= 2.57D-05  0.00D+00 EMaxC= 1.00D-01 BMatC= 3.53D-08 BMatP= 1.41D-06
 IDIUse=1 WtCom= 1.00D+00 WtEn= 0.00D+00
 Coeff-Com: -0.532D-02 0.107D-01 0.148D-01-0.175D-01-0.240D+00 0.124D+01
 Coeff:     -0.532D-02 0.107D-01 0.148D-01-0.175D-01-0.240D+00 0.124D+01
 Gap=     0.385 Goal=   None    Shift=    0.000
 Gap=     0.296 Goal=   None    Shift=    0.000
 RMSDP=2.44D-06 MaxDP=3.36D-05 DE=-9.40D-07 OVMax= 8.03D-05

 Cycle   7  Pass 1  IDiag  1:
 E= -78.1834686336129     Delta-E=       -0.000000022057 Rises=F Damp=F
 DIIS: error= 1.96D-06 at cycle   7 NSaved=   7.
 NSaved= 7 IEnMin= 7 EnMin= -78.1834686336129     IErMin= 7 ErrMin= 1.96D-06
 ErrMax= 1.96D-06  0.00D+00 EMaxC= 1.00D-01 BMatC= 1.69D-10 BMatP= 3.53D-08
 IDIUse=1 WtCom= 1.00D+00 WtEn= 0.00D+00
 Coeff-Com:  0.178D-03-0.351D-03-0.453D-03 0.233D-02 0.802D-02-0.111D+00
 Coeff-Com:  0.110D+01
 Coeff:      0.178D-03-0.351D-03-0.453D-03 0.233D-02 0.802D-02-0.111D+00
 Coeff:      0.110D+01
 Gap=     0.385 Goal=   None    Shift=    0.000
 Gap=     0.296 Goal=   None    Shift=    0.000
 RMSDP=1.28D-07 MaxDP=2.15D-06 DE=-2.21D-08 OVMax= 5.50D-06

 Cycle   8  Pass 1  IDiag  1:
 E= -78.1834686337023     Delta-E=       -0.000000000089 Rises=F Damp=F
 DIIS: error= 1.51D-07 at cycle   8 NSaved=   8.
 NSaved= 8 IEnMin= 8 EnMin= -78.1834686337023     IErMin= 8 ErrMin= 1.51D-07
 ErrMax= 1.51D-07  0.00D+00 EMaxC= 1.00D-01 BMatC= 1.82D-12 BMatP= 1.69D-10
 IDIUse=1 WtCom= 1.00D+00 WtEn= 0.00D+00
 Coeff-Com:  0.258D-04-0.530D-04-0.552D-04-0.141D-03 0.106D-02 0.170D-02
 Coeff-Com: -0.133D+00 0.113D+01
 Coeff:      0.258D-04-0.530D-04-0.552D-04-0.141D-03 0.106D-02 0.170D-02
 Coeff:     -0.133D+00 0.113D+01
 Gap=     0.385 Goal=   None    Shift=    0.000
 Gap=     0.296 Goal=   None    Shift=    0.000
 RMSDP=2.05D-08 MaxDP=2.74D-07 DE=-8.94D-11 OVMax= 4.83D-07

 Cycle   9  Pass 1  IDiag  1:
 E= -78.1834686337031     Delta-E=       -0.000000000001 Rises=F Damp=F
 DIIS: error= 1.32D-08 at cycle   9 NSaved=   9.
 NSaved= 9 IEnMin= 9 EnMin= -78.1834686337031     IErMin= 9 ErrMin= 1.32D-08
 ErrMax= 1.32D-08  0.00D+00 EMaxC= 1.00D-01 BMatC= 1.74D-14 BMatP= 1.82D-12
 IDIUse=1 WtCom= 1.00D+00 WtEn= 0.00D+00
 Coeff-Com: -0.453D-05 0.899D-05 0.751D-05-0.345D-05-0.176D-03 0.604D-03
 Coeff-Com:  0.513D-02-0.123D+00 0.112D+01
 Coeff:     -0.453D-05 0.899D-05 0.751D-05-0.345D-05-0.176D-03 0.604D-03
 Coeff:      0.513D-02-0.123D+00 0.112D+01
 Gap=     0.385 Goal=   None    Shift=    0.000
 Gap=     0.296 Goal=   None    Shift=    0.000
 RMSDP=1.64D-09 MaxDP=2.48D-08 DE=-8.24D-13 OVMax= 4.83D-08

 SCF Done:  E(UM062X) =  -78.1834686337     A.U. after    9 cycles
            NFock=  9  Conv=0.16D-08     -V/T= 2.0033
 <Sx>= 0.0000 <Sy>= 0.0000 <Sz>= 0.5000 <S**2>= 0.7525 S= 0.5013
 <L.S>=  0.00000000000    
 KE= 7.792998745063D+01 PE=-2.416317064128D+02 EE= 5.286372743547D+01
 Annihilation of the first spin contaminant:
 S**2 before annihilation     0.7525,   after     0.7500
 Leave Link  502 at Tue Nov 19 11:53:58 2024, MaxMem=   536870912 cpu:              13.4 elap:               1.7
 (Enter /home/szhao/Apps/g16/l601.exe)
 Copying SCF densities to generalized density rwf, IOpCl= 1 IROHF=0.

 **********************************************************************

            Population analysis using the SCF density.

 **********************************************************************

 Orbital symmetries:
 Alpha Orbitals:
       Occupied  (AG) (BU) (AG) (BU) (BU) (AG) (AG) (AU)
       Virtual   (BG) (AG) (BU) (BU) (AU) (AG) (AG) (AG) (BG) (BU)
                 (BU) (BU) (BU) (AG) (BU) (AG) (AG) (BU) (AU) (BG)
                 (BU) (AG) (BU) (AG) (AG) (BU) (BG) (AU) (AU) (AG)
                 (BU) (AG) (AG) (BU) (BU) (BG) (AU) (BG) (BU) (BG)
                 (AG) (AU) (AG) (BU) (AG) (BU) (BU) (AG) (AG) (BU)
                 (AU) (BU) (BG) (AG) (AG) (BU) (AG) (BU) (AG) (BU)
 Beta  Orbitals:
       Occupied  (AG) (BU) (AG) (BU) (BU) (AG) (AG)
       Virtual   (AU) (BG) (AG) (BU) (BU) (AU) (AG) (AG) (AG) (BG)
                 (BU) (BU) (BU) (BU) (AG) (BU) (AG) (AG) (AU) (BU)
                 (BG) (BU) (AG) (BU) (AG) (AG) (BU) (BG) (AU) (AU)
                 (AG) (BU) (AG) (AG) (BU) (BU) (BG) (AU) (BG) (BU)
                 (AG) (BG) (AU) (AG) (BU) (AG) (BU) (BU) (AG) (AG)
                 (BU) (AU) (BU) (BG) (AG) (AG) (BU) (AG) (BU) (AG)
                 (BU)
 The electronic state is 2-AU.
 Alpha  occ. eigenvalues --  -10.89400 -10.89310  -1.19388  -0.97593  -0.85098
 Alpha  occ. eigenvalues --   -0.80052  -0.72490  -0.67433
 Alpha virt. eigenvalues --   -0.28948  -0.14713  -0.12599  -0.12575  -0.09807
 Alpha virt. eigenvalues --   -0.07809  -0.06843  -0.04845  -0.04437  -0.02601
 Alpha virt. eigenvalues --   -0.00466   0.02213   0.08601   0.10921   0.20520
 Alpha virt. eigenvalues --    0.22717   0.27845   0.29806   0.31141   0.37905
 Alpha virt. eigenvalues --    0.39769   0.46055   0.46094   0.48872   0.56444
 Alpha virt. eigenvalues --    0.60545   0.74114   0.80285   0.86311   1.12315
 Alpha virt. eigenvalues --    1.16411   1.19636   1.31319   1.31848   1.36083
 Alpha virt. eigenvalues --    1.37098   1.50016   1.54189   1.69830   1.76739
 Alpha virt. eigenvalues --    1.76818   1.85712   1.87731   1.93171   2.12297
 Alpha virt. eigenvalues --    2.17901   2.28367   2.32139   2.40272   2.42960
 Alpha virt. eigenvalues --    2.43235   2.52993   2.57863   2.80136   3.03771
 Alpha virt. eigenvalues --    3.39306   3.54615   3.84109  23.50714  23.81630
  Beta  occ. eigenvalues --  -10.89167 -10.89092  -1.15343  -0.95680  -0.83950
  Beta  occ. eigenvalues --   -0.79119  -0.72177
  Beta virt. eigenvalues --   -0.42575  -0.21982  -0.16461  -0.12692  -0.12537
  Beta virt. eigenvalues --   -0.10339  -0.08692  -0.06904  -0.04790  -0.03596
  Beta virt. eigenvalues --   -0.02123  -0.00764   0.02407   0.09931   0.11377
  Beta virt. eigenvalues --    0.19824   0.22122   0.29337   0.29627   0.30682
  Beta virt. eigenvalues --    0.37131   0.40886   0.47073   0.47908   0.50229
  Beta virt. eigenvalues --    0.53404   0.59697   0.77631   0.84037   0.88677
  Beta virt. eigenvalues --    1.16412   1.18082   1.20496   1.34269   1.34777
  Beta virt. eigenvalues --    1.37422   1.37926   1.51579   1.56350   1.72306
  Beta virt. eigenvalues --    1.78312   1.79853   1.87866   1.89356   1.97078
  Beta virt. eigenvalues --    2.15587   2.20906   2.29300   2.32726   2.41364
  Beta virt. eigenvalues --    2.44585   2.47045   2.55384   2.62515   2.83961
  Beta virt. eigenvalues --    3.06726   3.44000   3.59280   3.89504  23.51936
  Beta virt. eigenvalues --   23.83276
          Condensed to atoms (all electrons):
               1          2          3          4          5          6
     1  C    4.867913   0.457133   0.385719   0.385722  -0.022761  -0.022744
     2  C    0.457133   4.867913  -0.022761  -0.022744   0.385719   0.385722
     3  H    0.385719  -0.022761   0.368071  -0.006379   0.001660  -0.001795
     4  H    0.385722  -0.022744  -0.006379   0.368043  -0.001795   0.001658
     5  H   -0.022761   0.385719   0.001660  -0.001795   0.368071  -0.006379
     6  H   -0.022744   0.385722  -0.001795   0.001658  -0.006379   0.368043
          Atomic-Atomic Spin Densities.
               1          2          3          4          5          6
     1  C    0.417755   0.130335  -0.006367  -0.006366   0.001096   0.001096
     2  C    0.130335   0.417755   0.001096   0.001096  -0.006367  -0.006366
     3  H   -0.006367   0.001096  -0.012697  -0.000596   0.000040  -0.000252
     4  H   -0.006366   0.001096  -0.000596  -0.012694  -0.000252   0.000040
     5  H    0.001096  -0.006367   0.000040  -0.000252  -0.012697  -0.000596
     6  H    0.001096  -0.006366  -0.000252   0.000040  -0.000596  -0.012694
 Mulliken charges and spin densities:
               1          2
     1  C   -0.050981   0.537548
     2  C   -0.050981   0.537548
     3  H    0.275485  -0.018776
     4  H    0.275496  -0.018772
     5  H    0.275485  -0.018776
     6  H    0.275496  -0.018772
 Sum of Mulliken charges =   1.00000   1.00000
 Mulliken charges and spin densities with hydrogens summed into heavy atoms:
               1          2
     1  C    0.500000   0.500000
     2  C    0.500000   0.500000
 Electronic spatial extent (au):  <R**2>=             74.3566
 Charge=              1.0000 electrons
 Dipole moment (field-independent basis, Debye):
    X=             -0.0000    Y=              0.0000    Z=             -0.0000  Tot=              0.0000
 Quadrupole moment (field-independent basis, Debye-Ang):
   XX=             -8.4694   YY=             -5.6641   ZZ=            -11.4345
   XY=             -0.0002   XZ=              0.0000   YZ=             -0.0000
 Traceless Quadrupole moment (field-independent basis, Debye-Ang):
   XX=              0.0532   YY=              2.8586   ZZ=             -2.9119
   XY=             -0.0002   XZ=              0.0000   YZ=             -0.0000
 Octapole moment (field-independent basis, Debye-Ang**2):
  XXX=              0.0000  YYY=             -0.0000  ZZZ=              0.0000  XYY=              0.0000
  XXY=             -0.0000  XXZ=             -0.0000  XZZ=              0.0000  YZZ=              0.0000
  YYZ=              0.0000  XYZ=             -0.0000
 Hexadecapole moment (field-independent basis, Debye-Ang**3):
 XXXX=            -18.0082 YYYY=            -50.7674 ZZZZ=            -10.2780 XXXY=              0.0005
 XXXZ=             -0.0000 YYYX=             -0.0024 YYYZ=             -0.0000 ZZZX=             -0.0000
 ZZZY=             -0.0000 XXYY=             -6.3712 XXZZ=             -5.7927 YYZZ=            -11.6800
 XXYZ=              0.0000 YYXZ=              0.0000 ZZXY=             -0.0003
 N-N= 3.265452289300D+01 E-N=-2.416317061629D+02  KE= 7.792998745063D+01
 Symmetry AG   KE= 4.002814620390D+01
 Symmetry BG   KE= 2.354243182951D-32
 Symmetry AU   KE= 1.134795569966D+00
 Symmetry BU   KE= 3.676704567676D+01
 Symmetry AG   SP= 4.546996913008D-15
 Symmetry BG   SP= 1.992628857950D-33
 Symmetry AU   SP= 1.000000000000D+00
 Symmetry BU   SP= 7.906670964663D-15
                          Isotropic Fermi Contact Couplings
        Atom                 a.u.       MegaHertz       Gauss      10(-4) cm-1
     1  C(13)              0.08438      94.86212      33.84916      31.64260
     2  C(13)              0.08438      94.86212      33.84916      31.64260
     3  H(1)              -0.00912     -40.74812     -14.53994     -13.59211
     4  H(1)              -0.00912     -40.74619     -14.53925     -13.59147
     5  H(1)              -0.00912     -40.74812     -14.53994     -13.59211
     6  H(1)              -0.00912     -40.74619     -14.53925     -13.59147
 --------------------------------------------------------
       Center         ----  Spin Dipole Couplings  ----
                      3XX-RR        3YY-RR        3ZZ-RR
 --------------------------------------------------------
     1   Atom       -0.304128     -0.280364      0.584492
     2   Atom       -0.304128     -0.280364      0.584492
     3   Atom        0.013363     -0.001519     -0.011845
     4   Atom        0.013349     -0.001505     -0.011843
     5   Atom        0.013363     -0.001519     -0.011845
     6   Atom        0.013349     -0.001505     -0.011843
 --------------------------------------------------------
                        XY            XZ            YZ
 --------------------------------------------------------
     1   Atom        0.000002     -0.000000      0.000000
     2   Atom        0.000002      0.000000     -0.000000
     3   Atom        0.044998      0.000000      0.000000
     4   Atom       -0.045004      0.000000     -0.000000
     5   Atom        0.044998     -0.000000     -0.000000
     6   Atom       -0.045004     -0.000000      0.000000
 --------------------------------------------------------


 ---------------------------------------------------------------------------------
              Anisotropic Spin Dipole Couplings in Principal Axis System
 ---------------------------------------------------------------------------------

       Atom             a.u.   MegaHertz   Gauss  10(-4) cm-1        Axes

              Baa    -0.3041   -40.811   -14.562   -13.613  1.0000 -0.0001  0.0000
     1 C(13)  Bbb    -0.2804   -37.622   -13.425   -12.549  0.0001  1.0000  0.0000
              Bcc     0.5845    78.433    27.987    26.163  0.0000  0.0000  1.0000
 
              Baa    -0.3041   -40.811   -14.562   -13.613  1.0000 -0.0001  0.0000
     2 C(13)  Bbb    -0.2804   -37.622   -13.425   -12.549  0.0001  1.0000 -0.0000
              Bcc     0.5845    78.433    27.987    26.163  0.0000  0.0000  1.0000
 
              Baa    -0.0397   -21.175    -7.556    -7.063 -0.6469  0.7626  0.0000
     3 H(1)   Bbb    -0.0118    -6.320    -2.255    -2.108  0.0000  0.0000  1.0000
              Bcc     0.0515    27.495     9.811     9.171  0.7626  0.6469 -0.0000
 
              Baa    -0.0397   -21.177    -7.557    -7.064  0.6470  0.7625  0.0000
     4 H(1)   Bbb    -0.0118    -6.319    -2.255    -2.108  0.0000  0.0000  1.0000
              Bcc     0.0515    27.496     9.811     9.172  0.7625 -0.6470  0.0000
 
              Baa    -0.0397   -21.175    -7.556    -7.063 -0.6469  0.7626  0.0000
     5 H(1)   Bbb    -0.0118    -6.320    -2.255    -2.108  0.0000  0.0000  1.0000
              Bcc     0.0515    27.495     9.811     9.171  0.7626  0.6469 -0.0000
 
              Baa    -0.0397   -21.177    -7.557    -7.064  0.6470  0.7625  0.0000
     6 H(1)   Bbb    -0.0118    -6.319    -2.255    -2.108  0.0000  0.0000  1.0000
              Bcc     0.0515    27.496     9.811     9.172  0.7625 -0.6470  0.0000
 

 ---------------------------------------------------------------------------------

 No NMR shielding tensors so no spin-rotation constants.
 Leave Link  601 at Tue Nov 19 11:53:58 2024, MaxMem=   536870912 cpu:               1.3 elap:               0.2
 (Enter /home/szhao/Apps/g16/l701.exe)
 ... and contract with generalized density number  0.
 Compute integral first derivatives.
 Leave Link  701 at Tue Nov 19 11:53:59 2024, MaxMem=   536870912 cpu:               0.8 elap:               0.1
 (Enter /home/szhao/Apps/g16/l702.exe)
 L702 exits ... SP integral derivatives will be done elsewhere.
 Leave Link  702 at Tue Nov 19 11:53:59 2024, MaxMem=   536870912 cpu:               0.2 elap:               0.0
 (Enter /home/szhao/Apps/g16/l703.exe)
 Integral derivatives from FoFJK, PRISM(SPDF).
 Compute integral first derivatives, UseDBF=F ICtDFT=           0.
 Calling FoFJK, ICntrl=      2127 FMM=F ISym2X=1 I1Cent= 0 IOpClX= 1 NMat=1 NMatS=1 NMatT=0.
 FoFJK:  IHMeth= 1 ICntrl=    2127 DoSepK=F KAlg= 0 I1Cent=           0 FoldK=F
 IRaf=         0 NMat=       1 IRICut=       1 DoRegI=T DoRafI=F ISym2E= 1 IDoP0=0 IntGTp=1.
 FoFCou: FMM=F IPFlag=           0 FMFlag=      100000 FMFlg1=         800
         NFxFlg=           0 DoJE=F BraDBF=F KetDBF=F FulRan=T
         wScrn=  0.000000 ICntrl=      2127 IOpCl=  1 I1Cent=           0 NGrid=           0
         NMat0=    1 NMatS0=      1 NMatT0=    0 NMatD0=    1 NMtDS0=    0 NMtDT0=    0
 Petite list used in FoFCou.
 Leave Link  703 at Tue Nov 19 11:53:59 2024, MaxMem=   536870912 cpu:               3.4 elap:               0.4
 (Enter /home/szhao/Apps/g16/l716.exe)
 Dipole        =-2.22044605D-16 0.00000000D+00-1.98536807D-41
 ***** Axes restored to original set *****
 -------------------------------------------------------------------
 Center     Atomic                   Forces (Hartrees/Bohr)
 Number     Number              X              Y              Z
 -------------------------------------------------------------------
      1        6          -0.027016027   -0.000065613   -0.000000000
      2        6           0.027016027    0.000065613    0.000000000
      3        1           0.000009744    0.000121985    0.000000000
      4        1          -0.000000797   -0.000077805   -0.000000000
      5        1          -0.000009744   -0.000121985   -0.000000000
      6        1           0.000000797    0.000077805    0.000000000
 -------------------------------------------------------------------
 Cartesian Forces:  Max     0.027016027 RMS     0.009005499
 Z-matrix is all fixed cartesians, so copy forces.
 Force constants in Cartesian coordinates: 
                1             2             3             4             5 
      1  0.834245D+00
      2 -0.496356D-04  0.692276D+00
      3  0.000000D+00  0.000000D+00  0.151863D+00
      4 -0.481090D+00  0.136661D-05  0.000000D+00  0.834245D+00
      5  0.136661D-05 -0.154502D+00  0.000000D+00 -0.496356D-04  0.692276D+00
      6  0.000000D+00  0.000000D+00 -0.798218D-01  0.000000D+00  0.000000D+00
      7 -0.176540D+00 -0.112757D+00  0.000000D+00  0.000000D+00 -0.255259D-01
      8 -0.104850D+00 -0.284163D+00  0.000000D+00  0.000000D+00  0.152824D-01
      9  0.000000D+00  0.000000D+00 -0.503038D-01  0.000000D+00  0.000000D+00
     10 -0.176615D+00  0.112807D+00  0.000000D+00  0.000000D+00  0.255246D-01
     11  0.104899D+00 -0.284182D+00  0.000000D+00  0.000000D+00  0.152882D-01
     12  0.000000D+00  0.000000D+00 -0.503119D-01  0.000000D+00  0.000000D+00
     13  0.000000D+00 -0.255259D-01  0.000000D+00 -0.176540D+00 -0.112757D+00
     14  0.000000D+00  0.152824D-01  0.000000D+00 -0.104850D+00 -0.284163D+00
     15  0.000000D+00  0.000000D+00  0.142879D-01  0.000000D+00  0.000000D+00
     16  0.000000D+00  0.255246D-01  0.000000D+00 -0.176615D+00  0.112807D+00
     17  0.000000D+00  0.152882D-01  0.000000D+00  0.104899D+00 -0.284182D+00
     18  0.000000D+00  0.000000D+00  0.142869D-01  0.000000D+00  0.000000D+00
                6             7             8             9            10 
      6  0.151863D+00
      7  0.000000D+00  0.148625D+00
      8  0.000000D+00  0.121563D+00  0.278891D+00
      9  0.142879D-01  0.000000D+00  0.000000D+00  0.253507D-01
     10  0.000000D+00  0.279149D-01 -0.167126D-01  0.000000D+00  0.148700D+00
     11  0.000000D+00  0.167199D-01 -0.100102D-01  0.000000D+00 -0.121619D+00
     12  0.142869D-01  0.000000D+00  0.000000D+00  0.106664D-01  0.000000D+00
     13  0.000000D+00  0.000000D+00  0.000000D+00  0.000000D+00  0.000000D+00
     14  0.000000D+00  0.000000D+00  0.000000D+00  0.000000D+00  0.000000D+00
     15 -0.503038D-01  0.000000D+00  0.000000D+00  0.734248D-02  0.000000D+00
     16  0.000000D+00  0.000000D+00  0.000000D+00  0.000000D+00  0.000000D+00
     17  0.000000D+00  0.000000D+00  0.000000D+00  0.000000D+00  0.000000D+00
     18 -0.503119D-01  0.000000D+00  0.000000D+00 -0.734378D-02  0.000000D+00
               11            12            13            14            15 
     11  0.278904D+00
     12  0.000000D+00  0.253572D-01
     13  0.000000D+00  0.000000D+00  0.148625D+00
     14  0.000000D+00  0.000000D+00  0.121563D+00  0.278891D+00
     15  0.000000D+00 -0.734378D-02  0.000000D+00  0.000000D+00  0.253507D-01
     16  0.000000D+00  0.000000D+00  0.279149D-01 -0.167126D-01  0.000000D+00
     17  0.000000D+00  0.000000D+00  0.167199D-01 -0.100102D-01  0.000000D+00
     18  0.000000D+00  0.734508D-02  0.000000D+00  0.000000D+00  0.106664D-01
               16            17            18 
     16  0.148700D+00
     17 -0.121619D+00  0.278904D+00
     18  0.000000D+00  0.000000D+00  0.253572D-01
 Leave Link  716 at Tue Nov 19 11:53:59 2024, MaxMem=   536870912 cpu:               0.3 elap:               0.0
 (Enter /home/szhao/Apps/g16/l103.exe)

 GradGradGradGradGradGradGradGradGradGradGradGradGradGradGradGradGradGrad
 Berny optimization.
 Search for a local minimum.
 Step number   1 out of a maximum of    2
 All quantities printed in internal units (Hartrees-Bohrs-Radians)
 Second derivative matrix not updated -- first step.
 The second derivative matrix:
                          X1        Y1        Z1        X2        Y2
           X1           0.83424
           Y1          -0.00005   0.69228
           Z1           0.00000  -0.00000   0.15186
           X2          -0.48109   0.00000  -0.00000   0.83424
           Y2           0.00000  -0.15450   0.00000  -0.00005   0.69228
           Z2          -0.00000   0.00000  -0.07982   0.00000  -0.00000
           X3          -0.17654  -0.11276  -0.00000  -0.00000  -0.02553
           Y3          -0.10485  -0.28416  -0.00000   0.00000   0.01528
           Z3          -0.00000  -0.00000  -0.05030  -0.00000  -0.00000
           X4          -0.17661   0.11281  -0.00000   0.00000   0.02552
           Y4           0.10490  -0.28418   0.00000   0.00000   0.01529
           Z4          -0.00000   0.00000  -0.05031  -0.00000   0.00000
           X5          -0.00000  -0.02553  -0.00000  -0.17654  -0.11276
           Y5           0.00000   0.01528   0.00000  -0.10485  -0.28416
           Z5          -0.00000  -0.00000   0.01429  -0.00000  -0.00000
           X6           0.00000   0.02552  -0.00000  -0.17661   0.11281
           Y6           0.00000   0.01529   0.00000   0.10490  -0.28418
           Z6          -0.00000   0.00000   0.01429  -0.00000   0.00000
                          Z2        X3        Y3        Z3        X4
           Z2           0.15186
           X3          -0.00000   0.14863
           Y3           0.00000   0.12156   0.27889
           Z3           0.01429   0.00000   0.00000   0.02535
           X4          -0.00000   0.02791  -0.01671   0.00000   0.14870
           Y4           0.00000   0.01672  -0.01001   0.00000  -0.12162
           Z4           0.01429   0.00000  -0.00000   0.01067   0.00000
           X5          -0.00000   0.00000   0.00000  -0.00000  -0.00000
           Y5          -0.00000   0.00000   0.00000  -0.00000  -0.00000
           Z5          -0.05030  -0.00000  -0.00000   0.00734   0.00000
           X6          -0.00000  -0.00000  -0.00000   0.00000   0.00000
           Y6           0.00000  -0.00000  -0.00000   0.00000   0.00000
           Z6          -0.05031   0.00000   0.00000  -0.00734  -0.00000
                          Y4        Z4        X5        Y5        Z5
           Y4           0.27890
           Z4          -0.00000   0.02536
           X5          -0.00000   0.00000   0.14863
           Y5          -0.00000   0.00000   0.12156   0.27889
           Z5           0.00000  -0.00734   0.00000   0.00000   0.02535
           X6           0.00000  -0.00000   0.02791  -0.01671   0.00000
           Y6           0.00000  -0.00000   0.01672  -0.01001   0.00000
           Z6          -0.00000   0.00735   0.00000  -0.00000   0.01067
                          X6        Y6        Z6
           X6           0.14870
           Y6          -0.12162   0.27890
           Z6           0.00000  -0.00000   0.02536
 ITU=  0
     Eigenvalues ---    0.02938   0.04451   0.08914   0.09408   0.13182
     Eigenvalues ---    0.18211   0.22922   0.29379   0.54378   0.74167
     Eigenvalues ---    0.99442   1.39295
 Angle between quadratic step and forces=  54.97 degrees.
 ClnCor:  largest displacement from symmetrization is 8.52D-14 for atom     6.
 Linear search not attempted -- first point.
 ClnCor:  largest displacement from symmetrization is 1.36D-20 for atom     1.
 B after Tr=    -0.000000   -0.000000    0.000000
         Rot=    1.000000   -0.000000   -0.000000   -0.000003 Ang=  -0.00 deg.
 Variable       Old X    -DE/DX   Delta X   Delta X   Delta X     New X
                                 (Linear)    (Quad)   (Total)
    X1       -1.30912  -0.02702   0.00000  -0.02807  -0.02807  -1.33718
    Y1        0.00000  -0.00007   0.00000  -0.00007  -0.00008  -0.00008
    Z1       -0.00000  -0.00000   0.00000  -0.00000   0.00000   0.00000
    X2        1.30912   0.02702   0.00000   0.02807   0.02807   1.33718
    Y2        0.00000   0.00007   0.00000   0.00007   0.00008   0.00008
    Z2        0.00000   0.00000   0.00000   0.00000  -0.00000  -0.00000
    X3       -2.36423   0.00001   0.00000  -0.02833  -0.02832  -2.39254
    Y3       -1.76234   0.00012   0.00000   0.00045   0.00043  -1.76191
    Z3       -0.00000   0.00000   0.00000  -0.00000   0.00000   0.00000
    X4       -2.36450  -0.00000   0.00000  -0.02827  -0.02828  -2.39278
    Y4        1.76203  -0.00008   0.00000  -0.00041  -0.00042   1.76160
    Z4       -0.00000  -0.00000   0.00000  -0.00000   0.00000   0.00000
    X5        2.36423  -0.00001   0.00000   0.02833   0.02832   2.39254
    Y5        1.76234  -0.00012   0.00000  -0.00045  -0.00043   1.76191
    Z5        0.00000  -0.00000   0.00000   0.00000  -0.00000  -0.00000
    X6        2.36450   0.00000   0.00000   0.02827   0.02828   2.39278
    Y6       -1.76203   0.00008   0.00000   0.00041   0.00042  -1.76160
    Z6        0.00000   0.00000   0.00000   0.00000  -0.00000  -0.00000
         Item               Value     Threshold  Converged?
 Maximum Force            0.027016     0.000450     NO 
 RMS     Force            0.009005     0.000300     NO 
 Maximum Displacement     0.028317     0.001800     NO 
 RMS     Displacement     0.016295     0.001200     NO 
 Predicted change in Energy=-7.581402D-04
 GradGradGradGradGradGradGradGradGradGradGradGradGradGradGradGradGradGrad

 Leave Link  103 at Tue Nov 19 11:53:59 2024, MaxMem=   536870912 cpu:               0.1 elap:               0.0
 (Enter /home/szhao/Apps/g16/l9999.exe)
 1\1\GINC-NODE01\Force\UM062X\6-311+G(d,p)\C2H4(1+,2)\SZHAO\19-Nov-2024
 \0\\#p UM062X/6-311+G** force int=superfine\\Title Card Required\\1,2\
 C,-0.692754,0.,0.\C,0.692754,0.,0.\H,-1.251095,-0.93259,0.\H,-1.25124,
 0.932425,0.\H,1.251095,0.93259,0.\H,1.25124,-0.932425,0.\\Version=ES64
 L-G16RevA.03\State=2-AU\HF=-78.1834686\S2=0.752537\S2-1=0.\S2A=0.75000
 5\RMSD=1.635e-09\RMSF=9.005e-03\Dipole=0.,0.,0.\Quadrupole=2.1253079,0
 .0395825,-2.1648904,-0.0001239,0.,0.\PG=C02H [SGH(C2H4)]\\@


 WHAT, THEN, IS TIME?  IF NO ONE ASKS ME, I KNOW WHAT IT IS.
 IF I WISH TO EXPLAIN WHAT IT IS TO HIM WHO ASKS ME, I DO NOT KNOW.
                                   -- ST. AUGUSTINE (FIFTH CENTURY)
 Job cpu time:       0 days  0 hours  0 minutes 25.1 seconds.
 Elapsed time:       0 days  0 hours  0 minutes  3.2 seconds.
 File lengths (MBytes):  RWF=      6 Int=      0 D2E=      0 Chk=      1 Scr=      1
 Normal termination of Gaussian 16 at Tue Nov 19 11:53:59 2024.
