 Entering Gaussian System, Link 0=g16
 Initial command:
 /home/szhao/Apps/g16/l1.exe "/home/szhao/tmp/Gau-111417.inp" -scrdir="/home/szhao/tmp/"
 Default is to use a total of  16 processors:
                               16 via shared-memory
                                1 via Linda
 Entering Link 1 = /home/szhao/Apps/g16/l1.exe PID=    111419.
  
 Copyright (c) 1988,1990,1992,1993,1995,1998,2003,2009,2016,
            Gaussian, Inc.  All Rights Reserved.
  
 This is part of the Gaussian(R) 16 program.  It is based on
 the Gaussian(R) 09 system (copyright 2009, Gaussian, Inc.),
 the Gaussian(R) 03 system (copyright 2003, Gaussian, Inc.),
 the Gaussian(R) 98 system (copyright 1998, Gaussian, Inc.),
 the Gaussian(R) 94 system (copyright 1995, Gaussian, Inc.),
 the Gaussian 92(TM) system (copyright 1992, Gaussian, Inc.),
 the Gaussian 90(TM) system (copyright 1990, Gaussian, Inc.),
 the Gaussian 88(TM) system (copyright 1988, Gaussian, Inc.),
 the Gaussian 86(TM) system (copyright 1986, Carnegie Mellon
 University), and the Gaussian 82(TM) system (copyright 1983,
 Carnegie Mellon University). Gaussian is a federally registered
 trademark of Gaussian, Inc.
  
 This software contains proprietary and confidential information,
 including trade secrets, belonging to Gaussian, Inc.
  
 This software is provided under written license and may be
 used, copied, transmitted, or stored only in accord with that
 written license.
  
 The following legend is applicable only to US Government
 contracts under FAR:
  
                    RESTRICTED RIGHTS LEGEND
  
 Use, reproduction and disclosure by the US Government is
 subject to restrictions as set forth in subparagraphs (a)
 and (c) of the Commercial Computer Software - Restricted
 Rights clause in FAR 52.227-19.
  
 Gaussian, Inc.
 340 Quinnipiac St., Bldg. 40, Wallingford CT 06492
  
  
 ---------------------------------------------------------------
 Warning -- This program may not be used in any manner that
 competes with the business of Gaussian, Inc. or will provide
 assistance to any competitor of Gaussian, Inc.  The licensee
 of this program is prohibited from giving any competitor of
 Gaussian, Inc. access to this program.  By using this program,
 the user acknowledges that Gaussian, Inc. is engaged in the
 business of creating and licensing software in the field of
 computational chemistry and represents and warrants to the
 licensee that it is not a competitor of Gaussian, Inc. and that
 it will not use this program in any manner prohibited above.
 ---------------------------------------------------------------
  

 Cite this work as:
 Gaussian 16, Revision A.03,
 M. J. Frisch, G. W. Trucks, H. B. Schlegel, G. E. Scuseria, 
 M. A. Robb, J. R. Cheeseman, G. Scalmani, V. Barone, 
 G. A. Petersson, H. Nakatsuji, X. Li, M. Caricato, A. V. Marenich, 
 J. Bloino, B. G. Janesko, R. Gomperts, B. Mennucci, H. P. Hratchian, 
 J. V. Ortiz, A. F. Izmaylov, J. L. Sonnenberg, D. Williams-Young, 
 F. Ding, F. Lipparini, F. Egidi, J. Goings, B. Peng, A. Petrone, 
 T. Henderson, D. Ranasinghe, V. G. Zakrzewski, J. Gao, N. Rega, 
 G. Zheng, W. Liang, M. Hada, M. Ehara, K. Toyota, R. Fukuda, 
 J. Hasegawa, M. Ishida, T. Nakajima, Y. Honda, O. Kitao, H. Nakai, 
 T. Vreven, K. Throssell, J. A. Montgomery, Jr., J. E. Peralta, 
 F. Ogliaro, M. J. Bearpark, J. J. Heyd, E. N. Brothers, K. N. Kudin, 
 V. N. Staroverov, T. A. Keith, R. Kobayashi, J. Normand, 
 K. Raghavachari, A. P. Rendell, J. C. Burant, S. S. Iyengar, 
 J. Tomasi, M. Cossi, J. M. Millam, M. Klene, C. Adamo, R. Cammi, 
 J. W. Ochterski, R. L. Martin, K. Morokuma, O. Farkas, 
 J. B. Foresman, and D. J. Fox, Gaussian, Inc., Wallingford CT, 2016.
 
 ******************************************
 Gaussian 16:  ES64L-G16RevA.03 25-Dec-2016
                16-Apr-2025 
 ******************************************
 %chk=force.chk
 %mem=4GB
 %nprocshared=8
 Will use up to    8 processors via shared memory.
 ---------------------------------------------------
 #p UM062X/6-311+G** force int=superfine pop=saveNBO
 ---------------------------------------------------
 1/10=7,30=1,38=1/1,3;
 2/12=2,17=6,18=5,40=1/2;
 3/5=4,6=6,7=111,11=2,25=1,30=1,71=1,74=-55,75=-7,116=2/1,2,3;
 4//1;
 5/5=2,38=5/2;
 6/7=2,8=2,9=2,10=2,28=1,40=1,73=1/1,7;
 7/29=1/1,2,3,16;
 1/10=7,30=1/3;
 99//99;
 Leave Link    1 at Wed Apr 16 03:10:58 2025, MaxMem=   536870912 cpu:               0.4 elap:               0.1
 (Enter /home/szhao/Apps/g16/l101.exe)
 -------------------
 Title Card Required
 -------------------
 Symbolic Z-matrix:
 Charge =  0 Multiplicity = 1
 C                    -0.56108   0.        0. 
 O                     0.56108   0.        0. 
 
 ITRead=  0  0
 MicOpt= -1 -1
 NAtoms=      2 NQM=        2 NQMF=       0 NMMI=      0 NMMIF=      0
                NMic=       0 NMicF=      0.
                    Isotopes and Nuclear Properties:
 (Nuclear quadrupole moments (NQMom) in fm**2, nuclear magnetic moments (NMagM)
  in nuclear magnetons)

  Atom         1           2
 IAtWgt=          12          16
 AtmWgt=  12.0000000  15.9949146
 NucSpn=           0           0
 AtZEff=  -0.0000000  -0.0000000
 NQMom=    0.0000000   0.0000000
 NMagM=    0.0000000   0.0000000
 AtZNuc=   6.0000000   8.0000000
 Leave Link  101 at Wed Apr 16 03:10:59 2025, MaxMem=   536870912 cpu:               1.8 elap:               0.4
 (Enter /home/szhao/Apps/g16/l103.exe)

 GradGradGradGradGradGradGradGradGradGradGradGradGradGradGradGradGradGrad
 Berny optimization.
 Initialization pass.
 Trust Radius=3.00D-01 FncErr=1.00D-07 GrdErr=1.00D-07 EigMax=2.50D+02 EigMin=1.00D-04
 Number of steps in this run=      2 maximum allowed number of steps=      2.
 GradGradGradGradGradGradGradGradGradGradGradGradGradGradGradGradGradGrad

 Leave Link  103 at Wed Apr 16 03:10:59 2025, MaxMem=   536870912 cpu:               0.1 elap:               0.0
 (Enter /home/szhao/Apps/g16/l202.exe)
                          Input orientation:                          
 ---------------------------------------------------------------------
 Center     Atomic      Atomic             Coordinates (Angstroms)
 Number     Number       Type             X           Y           Z
 ---------------------------------------------------------------------
      1          6           0       -0.561082    0.000000    0.000000
      2          8           0        0.561082    0.000000    0.000000
 ---------------------------------------------------------------------
 Stoichiometry    CO
 Framework group  C*V[C*(CO)]
 Deg. of freedom     1
 Full point group                 C*V     NOp   4
 Largest Abelian subgroup         C2V     NOp   4
 Largest concise Abelian subgroup C1      NOp   1
                         Standard orientation:                         
 ---------------------------------------------------------------------
 Center     Atomic      Atomic             Coordinates (Angstroms)
 Number     Number       Type             X           Y           Z
 ---------------------------------------------------------------------
      1          6           0        0.000000    0.000000   -0.641237
      2          8           0        0.000000    0.000000    0.480927
 ---------------------------------------------------------------------
 Rotational constants (GHZ):           0.0000000          58.5356588          58.5356588
 Leave Link  202 at Wed Apr 16 03:10:59 2025, MaxMem=   536870912 cpu:               0.0 elap:               0.0
 (Enter /home/szhao/Apps/g16/l301.exe)
 Standard basis: 6-311+G(d,p) (5D, 7F)
 Ernie: Thresh=  0.10000D-02 Tol=  0.10000D-05 Strict=F.
 There are    24 symmetry adapted cartesian basis functions of A1  symmetry.
 There are     2 symmetry adapted cartesian basis functions of A2  symmetry.
 There are    10 symmetry adapted cartesian basis functions of B1  symmetry.
 There are    10 symmetry adapted cartesian basis functions of B2  symmetry.
 There are    22 symmetry adapted basis functions of A1  symmetry.
 There are     2 symmetry adapted basis functions of A2  symmetry.
 There are    10 symmetry adapted basis functions of B1  symmetry.
 There are    10 symmetry adapted basis functions of B2  symmetry.
    44 basis functions,    72 primitive gaussians,    46 cartesian basis functions
     7 alpha electrons        7 beta electrons
       nuclear repulsion energy        22.6352887137 Hartrees.
 IExCor= 4336 DFT=T Ex+Corr=M062X ExCW=0 ScaHFX=  0.540000
 ScaDFX=  1.000000  1.000000  1.000000  1.000000 ScalE2=  1.000000  1.000000
 IRadAn=      7 IRanWt=     -1 IRanGd=            0 ICorTp=0 IEmpDi=  4
 NAtoms=    2 NActive=    2 NUniq=    2 SFac= 1.00D+00 NAtFMM=   60 NAOKFM=F Big=F
 Integral buffers will be    131072 words long.
 Raffenetti 2 integral format.
 Two-electron integral symmetry is turned on.
 Leave Link  301 at Wed Apr 16 03:10:59 2025, MaxMem=   536870912 cpu:               0.3 elap:               0.1
 (Enter /home/szhao/Apps/g16/l302.exe)
 NPDir=0 NMtPBC=     1 NCelOv=     1 NCel=       1 NClECP=     1 NCelD=      1
         NCelK=      1 NCelE2=     1 NClLst=     1 CellRange=     0.0.
 One-electron integrals computed using PRISM.
 One-electron integral symmetry used in STVInt
 NBasis=    44 RedAO= T EigKep=  3.59D-03  NBF=    22     2    10    10
 NBsUse=    44 1.00D-06 EigRej= -1.00D+00 NBFU=    22     2    10    10
 Precomputing XC quadrature grid using
 IXCGrd= 4 IRadAn=           7 IRanWt=          -1 IRanGd=           0 AccXCQ= 0.00D+00.
 Generated NRdTot=       0 NPtTot=           0 NUsed=           0 NTot=          32
 NSgBfM=    46    46    46    46    46 MxSgAt=     2 MxSgA2=     2.
 Leave Link  302 at Wed Apr 16 03:10:59 2025, MaxMem=   536870912 cpu:               1.7 elap:               0.4
 (Enter /home/szhao/Apps/g16/l303.exe)
 DipDrv:  MaxL=1.
 Leave Link  303 at Wed Apr 16 03:11:00 2025, MaxMem=   536870912 cpu:               0.8 elap:               0.2
 (Enter /home/szhao/Apps/g16/l401.exe)
 ExpMin= 4.38D-02 ExpMax= 8.59D+03 ExpMxC= 1.30D+03 IAcc=3 IRadAn=         7 AccDes= 0.00D+00
 Harris functional with IExCor= 1009 and IRadAn=       7 diagonalized for initial guess.
 HarFok:  IExCor= 1009 AccDes= 0.00D+00 IRadAn=         7 IDoV= 1 UseB2=F ITyADJ=14
 ICtDFT=  3500011 ScaDFX=  1.000000  1.000000  1.000000  1.000000
 FoFCou: FMM=F IPFlag=           0 FMFlag=      100000 FMFlg1=           0
         NFxFlg=           0 DoJE=T BraDBF=F KetDBF=T FulRan=T
         wScrn=  0.000000 ICntrl=       500 IOpCl=  0 I1Cent=   200000004 NGrid=           0
         NMat0=    1 NMatS0=      1 NMatT0=    0 NMatD0=    1 NMtDS0=    0 NMtDT0=    0
 Petite list used in FoFCou.
 Harris En= -113.220494984909    
 JPrj=0 DoOrth=F DoCkMO=F.
 Initial guess orbital symmetries:
 Alpha Orbitals:
       Occupied  (SG) (SG) (SG) (SG) (PI) (PI) (SG)
       Virtual   (PI) (PI) (SG) (SG) (PI) (PI) (SG) (PI) (PI) (SG)
                 (SG) (PI) (PI) (SG) (SG) (SG) (PI) (PI) (DLTA)
                 (DLTA) (SG) (PI) (PI) (SG) (PI) (PI) (DLTA) (DLTA)
                 (SG) (PI) (PI) (SG) (PI) (PI) (SG) (SG) (SG)
 Beta  Orbitals:
       Occupied  (SG) (SG) (SG) (SG) (PI) (PI) (SG)
       Virtual   (PI) (PI) (SG) (SG) (PI) (PI) (SG) (PI) (PI) (SG)
                 (SG) (PI) (PI) (SG) (SG) (SG) (PI) (PI) (DLTA)
                 (DLTA) (SG) (PI) (PI) (SG) (PI) (PI) (DLTA) (DLTA)
                 (SG) (PI) (PI) (SG) (PI) (PI) (SG) (SG) (SG)
 The electronic state of the initial guess is 1-SG.
 Initial guess <Sx>= 0.0000 <Sy>= 0.0000 <Sz>= 0.0000 <S**2>=-0.0000 S=-0.0000
 Leave Link  401 at Wed Apr 16 03:11:00 2025, MaxMem=   536870912 cpu:               1.7 elap:               0.4
 (Enter /home/szhao/Apps/g16/l502.exe)
 Keep R1 and R2 ints in memory in symmetry-blocked form, NReq=7469717.
 FoFCou: FMM=F IPFlag=           0 FMFlag=           0 FMFlg1=           0
         NFxFlg=           0 DoJE=F BraDBF=F KetDBF=F FulRan=T
         wScrn=  0.000000 ICntrl=       600 IOpCl=  0 I1Cent=           0 NGrid=           0
         NMat0=    1 NMatS0=    990 NMatT0=    0 NMatD0=    1 NMtDS0=    0 NMtDT0=    0
 Petite list used in FoFCou.
 UHF open shell SCF:
 Using DIIS extrapolation, IDIIS=  1040.
 NGot=   536870912 LenX=   536591038 LenY=   536588481
 Requested convergence on RMS density matrix=1.00D-08 within 128 cycles.
 Requested convergence on MAX density matrix=1.00D-06.
 Requested convergence on             energy=1.00D-06.
 No special actions if energy rises.

 Cycle   1  Pass 1  IDiag  1:
 E= -113.290007968332    
 DIIS: error= 2.71D-02 at cycle   1 NSaved=   1.
 NSaved= 1 IEnMin= 1 EnMin= -113.290007968332     IErMin= 1 ErrMin= 2.71D-02
 ErrMax= 2.71D-02  0.00D+00 EMaxC= 1.00D-01 BMatC= 1.83D-01 BMatP= 1.83D-01
 IDIUse=3 WtCom= 7.29D-01 WtEn= 2.71D-01
 Coeff-Com:  0.100D+01
 Coeff-En:   0.100D+01
 Coeff:      0.100D+01
 Gap=     0.488 Goal=   None    Shift=    0.000
 Gap=     0.488 Goal=   None    Shift=    0.000
 GapD=    0.488 DampG=2.000 DampE=0.500 DampFc=1.0000 IDamp=-1.
 RMSDP=3.25D-03 MaxDP=5.47D-02              OVMax= 9.02D-02

 Cycle   2  Pass 1  IDiag  1:
 E= -113.276582011685     Delta-E=        0.013425956647 Rises=F Damp=F
 DIIS: error= 4.47D-02 at cycle   2 NSaved=   2.
 NSaved= 2 IEnMin= 1 EnMin= -113.290007968332     IErMin= 1 ErrMin= 2.71D-02
 ErrMax= 4.47D-02  0.00D+00 EMaxC= 1.00D-01 BMatC= 2.04D-01 BMatP= 1.83D-01
 IDIUse=2 WtCom= 0.00D+00 WtEn= 1.00D+00
 Coeff-En:   0.623D+00 0.377D+00
 Coeff:      0.623D+00 0.377D+00
 Gap=     0.460 Goal=   None    Shift=    0.000
 Gap=     0.460 Goal=   None    Shift=    0.000
 RMSDP=2.06D-03 MaxDP=2.96D-02 DE= 1.34D-02 OVMax= 5.77D-02

 Cycle   3  Pass 1  IDiag  1:
 E= -113.309623556915     Delta-E=       -0.033041545229 Rises=F Damp=F
 DIIS: error= 2.60D-03 at cycle   3 NSaved=   3.
 NSaved= 3 IEnMin= 3 EnMin= -113.309623556915     IErMin= 3 ErrMin= 2.60D-03
 ErrMax= 2.60D-03  0.00D+00 EMaxC= 1.00D-01 BMatC= 1.27D-03 BMatP= 1.83D-01
 IDIUse=3 WtCom= 9.74D-01 WtEn= 2.60D-02
 Coeff-Com:  0.599D-01 0.422D-01 0.898D+00
 Coeff-En:   0.000D+00 0.000D+00 0.100D+01
 Coeff:      0.584D-01 0.411D-01 0.901D+00
 Gap=     0.465 Goal=   None    Shift=    0.000
 Gap=     0.465 Goal=   None    Shift=    0.000
 RMSDP=5.11D-04 MaxDP=1.12D-02 DE=-3.30D-02 OVMax= 8.62D-03

 Cycle   4  Pass 1  IDiag  1:
 E= -113.309854100807     Delta-E=       -0.000230543893 Rises=F Damp=F
 DIIS: error= 1.46D-03 at cycle   4 NSaved=   4.
 NSaved= 4 IEnMin= 4 EnMin= -113.309854100807     IErMin= 4 ErrMin= 1.46D-03
 ErrMax= 1.46D-03  0.00D+00 EMaxC= 1.00D-01 BMatC= 2.54D-04 BMatP= 1.27D-03
 IDIUse=3 WtCom= 9.85D-01 WtEn= 1.46D-02
 Coeff-Com: -0.258D-02-0.163D-01 0.273D+00 0.746D+00
 Coeff-En:   0.000D+00 0.000D+00 0.000D+00 0.100D+01
 Coeff:     -0.254D-02-0.160D-01 0.269D+00 0.749D+00
 Gap=     0.463 Goal=   None    Shift=    0.000
 Gap=     0.463 Goal=   None    Shift=    0.000
 RMSDP=1.38D-04 MaxDP=2.87D-03 DE=-2.31D-04 OVMax= 2.23D-03

 Cycle   5  Pass 1  IDiag  1:
 E= -113.309908225544     Delta-E=       -0.000054124737 Rises=F Damp=F
 DIIS: error= 1.42D-04 at cycle   5 NSaved=   5.
 NSaved= 5 IEnMin= 5 EnMin= -113.309908225544     IErMin= 5 ErrMin= 1.42D-04
 ErrMax= 1.42D-04  0.00D+00 EMaxC= 1.00D-01 BMatC= 1.43D-06 BMatP= 2.54D-04
 IDIUse=3 WtCom= 9.99D-01 WtEn= 1.42D-03
 Coeff-Com: -0.556D-03-0.321D-02 0.121D-01 0.446D-01 0.947D+00
 Coeff-En:   0.000D+00 0.000D+00 0.000D+00 0.000D+00 0.100D+01
 Coeff:     -0.555D-03-0.321D-02 0.121D-01 0.445D-01 0.947D+00
 Gap=     0.463 Goal=   None    Shift=    0.000
 Gap=     0.463 Goal=   None    Shift=    0.000
 RMSDP=8.19D-06 MaxDP=1.22D-04 DE=-5.41D-05 OVMax= 1.45D-04

 Cycle   6  Pass 1  IDiag  1:
 E= -113.309908475057     Delta-E=       -0.000000249513 Rises=F Damp=F
 DIIS: error= 2.21D-05 at cycle   6 NSaved=   6.
 NSaved= 6 IEnMin= 6 EnMin= -113.309908475057     IErMin= 6 ErrMin= 2.21D-05
 ErrMax= 2.21D-05  0.00D+00 EMaxC= 1.00D-01 BMatC= 2.65D-08 BMatP= 1.43D-06
 IDIUse=1 WtCom= 1.00D+00 WtEn= 0.00D+00
 Coeff-Com:  0.876D-04 0.206D-03-0.705D-02-0.204D-01-0.834D-02 0.104D+01
 Coeff:      0.876D-04 0.206D-03-0.705D-02-0.204D-01-0.834D-02 0.104D+01
 Gap=     0.463 Goal=   None    Shift=    0.000
 Gap=     0.463 Goal=   None    Shift=    0.000
 RMSDP=2.40D-06 MaxDP=2.21D-05 DE=-2.50D-07 OVMax= 3.52D-05

 Cycle   7  Pass 1  IDiag  1:
 E= -113.309908482401     Delta-E=       -0.000000007343 Rises=F Damp=F
 DIIS: error= 2.87D-06 at cycle   7 NSaved=   7.
 NSaved= 7 IEnMin= 7 EnMin= -113.309908482401     IErMin= 7 ErrMin= 2.87D-06
 ErrMax= 2.87D-06  0.00D+00 EMaxC= 1.00D-01 BMatC= 3.25D-10 BMatP= 2.65D-08
 IDIUse=1 WtCom= 1.00D+00 WtEn= 0.00D+00
 Coeff-Com:  0.312D-05 0.275D-04-0.115D-03-0.648D-03-0.147D-01-0.310D-01
 Coeff-Com:  0.105D+01
 Coeff:      0.312D-05 0.275D-04-0.115D-03-0.648D-03-0.147D-01-0.310D-01
 Coeff:      0.105D+01
 Gap=     0.463 Goal=   None    Shift=    0.000
 Gap=     0.463 Goal=   None    Shift=    0.000
 RMSDP=3.17D-07 MaxDP=6.49D-06 DE=-7.34D-09 OVMax= 3.90D-06

 Cycle   8  Pass 1  IDiag  1:
 E= -113.309908482494     Delta-E=       -0.000000000094 Rises=F Damp=F
 DIIS: error= 5.32D-07 at cycle   8 NSaved=   8.
 NSaved= 8 IEnMin= 8 EnMin= -113.309908482494     IErMin= 8 ErrMin= 5.32D-07
 ErrMax= 5.32D-07  0.00D+00 EMaxC= 1.00D-01 BMatC= 1.34D-11 BMatP= 3.25D-10
 IDIUse=1 WtCom= 1.00D+00 WtEn= 0.00D+00
 Coeff-Com: -0.109D-05-0.115D-04 0.967D-04 0.216D-03 0.172D-02-0.113D-01
 Coeff-Com: -0.743D-01 0.108D+01
 Coeff:     -0.109D-05-0.115D-04 0.967D-04 0.216D-03 0.172D-02-0.113D-01
 Coeff:     -0.743D-01 0.108D+01
 Gap=     0.463 Goal=   None    Shift=    0.000
 Gap=     0.463 Goal=   None    Shift=    0.000
 RMSDP=4.83D-08 MaxDP=1.05D-06 DE=-9.36D-11 OVMax= 4.93D-07

 Cycle   9  Pass 1  IDiag  1:
 E= -113.309908482497     Delta-E=       -0.000000000003 Rises=F Damp=F
 DIIS: error= 2.69D-08 at cycle   9 NSaved=   9.
 NSaved= 9 IEnMin= 9 EnMin= -113.309908482497     IErMin= 9 ErrMin= 2.69D-08
 ErrMax= 2.69D-08  0.00D+00 EMaxC= 1.00D-01 BMatC= 4.68D-14 BMatP= 1.34D-11
 IDIUse=1 WtCom= 1.00D+00 WtEn= 0.00D+00
 Coeff-Com:  0.891D-07 0.311D-06-0.261D-05-0.601D-05 0.777D-04 0.472D-03
 Coeff-Com: -0.217D-02-0.941D-01 0.110D+01
 Coeff:      0.891D-07 0.311D-06-0.261D-05-0.601D-05 0.777D-04 0.472D-03
 Coeff:     -0.217D-02-0.941D-01 0.110D+01
 Gap=     0.463 Goal=   None    Shift=    0.000
 Gap=     0.463 Goal=   None    Shift=    0.000
 RMSDP=4.21D-09 MaxDP=6.87D-08 DE=-2.61D-12 OVMax= 6.17D-08

 SCF Done:  E(UM062X) =  -113.309908482     A.U. after    9 cycles
            NFock=  9  Conv=0.42D-08     -V/T= 2.0028
 <Sx>= 0.0000 <Sy>= 0.0000 <Sz>= 0.0000 <S**2>= 0.0000 S= 0.0000
 <L.S>=  0.00000000000    
 KE= 1.129988461783D+02 PE=-3.114796653056D+02 EE= 6.253562193105D+01
 Annihilation of the first spin contaminant:
 S**2 before annihilation     0.0000,   after     0.0000
 Leave Link  502 at Wed Apr 16 03:11:02 2025, MaxMem=   536870912 cpu:               6.3 elap:               1.5
 (Enter /home/szhao/Apps/g16/l601.exe)
 Copying SCF densities to generalized density rwf, IOpCl= 1 IROHF=0.

 **********************************************************************

            Population analysis using the SCF density.

 **********************************************************************

 Orbital symmetries:
 Alpha Orbitals:
       Occupied  (SG) (SG) (SG) (SG) (PI) (PI) (SG)
       Virtual   (PI) (PI) (SG) (SG) (PI) (PI) (SG) (PI) (PI) (SG)
                 (SG) (PI) (PI) (SG) (SG) (SG) (PI) (PI) (DLTA)
                 (DLTA) (SG) (PI) (PI) (SG) (PI) (PI) (DLTA) (DLTA)
                 (SG) (PI) (PI) (SG) (PI) (PI) (SG) (SG) (SG)
 Beta  Orbitals:
       Occupied  (SG) (SG) (SG) (SG) (PI) (PI) (SG)
       Virtual   (PI) (PI) (SG) (SG) (PI) (PI) (SG) (PI) (PI) (SG)
                 (SG) (PI) (PI) (SG) (SG) (SG) (PI) (PI) (DLTA)
                 (DLTA) (SG) (PI) (PI) (SG) (PI) (PI) (DLTA) (DLTA)
                 (SG) (PI) (PI) (SG) (PI) (PI) (SG) (SG) (SG)
 The electronic state is 1-SG.
 Alpha  occ. eigenvalues --  -19.73665 -10.66058  -1.30094  -0.67604  -0.56022
 Alpha  occ. eigenvalues --   -0.56022  -0.45189
 Alpha virt. eigenvalues --    0.01075   0.01075   0.03415   0.06563   0.08036
 Alpha virt. eigenvalues --    0.08036   0.19451   0.22578   0.22578   0.28768
 Alpha virt. eigenvalues --    0.42748   0.56598   0.56598   0.70870   0.90001
 Alpha virt. eigenvalues --    1.06949   1.07358   1.07358   1.29679   1.29679
 Alpha virt. eigenvalues --    1.43631   1.47164   1.47164   2.10003   2.68634
 Alpha virt. eigenvalues --    2.68634   2.84413   2.84413   3.05674   3.40791
 Alpha virt. eigenvalues --    3.40791   3.72551   5.02107   5.02107   5.67278
 Alpha virt. eigenvalues --   23.89238  49.95274
  Beta  occ. eigenvalues --  -19.73665 -10.66058  -1.30094  -0.67604  -0.56022
  Beta  occ. eigenvalues --   -0.56022  -0.45189
  Beta virt. eigenvalues --    0.01075   0.01075   0.03415   0.06563   0.08036
  Beta virt. eigenvalues --    0.08036   0.19451   0.22578   0.22578   0.28768
  Beta virt. eigenvalues --    0.42748   0.56598   0.56598   0.70870   0.90001
  Beta virt. eigenvalues --    1.06949   1.07358   1.07358   1.29679   1.29679
  Beta virt. eigenvalues --    1.43631   1.47164   1.47164   2.10003   2.68634
  Beta virt. eigenvalues --    2.68634   2.84413   2.84413   3.05674   3.40791
  Beta virt. eigenvalues --    3.40791   3.72551   5.02107   5.02107   5.67278
  Beta virt. eigenvalues --   23.89238  49.95274
          Condensed to atoms (all electrons):
               1          2
     1  C    5.609790   0.371947
     2  O    0.371947   7.646316
          Atomic-Atomic Spin Densities.
               1          2
     1  C    0.000000  -0.000000
     2  O   -0.000000   0.000000
 Mulliken charges and spin densities:
               1          2
     1  C    0.018263   0.000000
     2  O   -0.018263  -0.000000
 Sum of Mulliken charges =   0.00000   0.00000
 Mulliken charges and spin densities with hydrogens summed into heavy atoms:
               1          2
     1  C    0.018263   0.000000
     2  O   -0.018263  -0.000000
 Electronic spatial extent (au):  <R**2>=             39.8783
 Charge=              0.0000 electrons
 Dipole moment (field-independent basis, Debye):
    X=              0.0000    Y=              0.0000    Z=              0.0157  Tot=              0.0157
 Quadrupole moment (field-independent basis, Debye-Ang):
   XX=            -10.2723   YY=            -10.2723   ZZ=            -12.3556
   XY=              0.0000   XZ=              0.0000   YZ=              0.0000
 Traceless Quadrupole moment (field-independent basis, Debye-Ang):
   XX=              0.6945   YY=              0.6945   ZZ=             -1.3889
   XY=              0.0000   XZ=              0.0000   YZ=              0.0000
 Octapole moment (field-independent basis, Debye-Ang**2):
  XXX=              0.0000  YYY=              0.0000  ZZZ=              6.0961  XYY=              0.0000
  XXY=              0.0000  XXZ=              1.2325  XZZ=              0.0000  YZZ=              0.0000
  YYZ=              1.2325  XYZ=              0.0000
 Hexadecapole moment (field-independent basis, Debye-Ang**3):
 XXXX=             -9.3475 YYYY=             -9.3475 ZZZZ=            -37.1712 XXXY=              0.0000
 XXXZ=              0.0000 YYYX=              0.0000 YYYZ=              0.0000 ZZZX=              0.0000
 ZZZY=              0.0000 XXYY=             -3.1158 XXZZ=             -7.2451 YYZZ=             -7.2451
 XXYZ=              0.0000 YYXZ=              0.0000 ZZXY=              0.0000
 N-N= 2.263528871374D+01 E-N=-3.114796652395D+02  KE= 1.129988461783D+02
 Symmetry A1   KE= 1.048779179282D+02
 Symmetry A2   KE= 5.856897894931D-52
 Symmetry B1   KE= 4.060464125037D+00
 Symmetry B2   KE= 4.060464125037D+00
 Symmetry A1   SP= 1.105456170378D-14
 Symmetry A2   SP= 2.985906697180D-52
 Symmetry B1   SP= 1.823361598706D-15
 Symmetry B2   SP= 3.662821813702D-15
                          Isotropic Fermi Contact Couplings
        Atom                 a.u.       MegaHertz       Gauss      10(-4) cm-1
     1  C(13)             -0.00000      -0.00000      -0.00000      -0.00000
     2  O(17)              0.00000      -0.00000      -0.00000      -0.00000
 --------------------------------------------------------
       Center         ----  Spin Dipole Couplings  ----
                      3XX-RR        3YY-RR        3ZZ-RR
 --------------------------------------------------------
     1   Atom        0.000000      0.000000      0.000000
     2   Atom        0.000000      0.000000      0.000000
 --------------------------------------------------------
                        XY            XZ            YZ
 --------------------------------------------------------
     1   Atom        0.000000      0.000000      0.000000
     2   Atom        0.000000      0.000000      0.000000
 --------------------------------------------------------


 ---------------------------------------------------------------------------------
              Anisotropic Spin Dipole Couplings in Principal Axis System
 ---------------------------------------------------------------------------------

       Atom             a.u.   MegaHertz   Gauss  10(-4) cm-1        Axes

              Baa     0.0000     0.000     0.000     0.000  1.0000  0.0000  0.0000
     1 C(13)  Bbb     0.0000     0.000     0.000     0.000 -0.0000  1.0000  0.0000
              Bcc     0.0000     0.000     0.000     0.000  0.0000  0.0000  1.0000
 
              Baa     0.0000    -0.000    -0.000    -0.000  1.0000  0.0000  0.0000
     2 O(17)  Bbb     0.0000    -0.000    -0.000    -0.000 -0.0000  1.0000  0.0000
              Bcc     0.0000    -0.000    -0.000    -0.000  0.0000  0.0000  1.0000
 

 ---------------------------------------------------------------------------------

 No NMR shielding tensors so no spin-rotation constants.
 Leave Link  601 at Wed Apr 16 03:11:02 2025, MaxMem=   536870912 cpu:               1.6 elap:               0.5
 (Enter /home/szhao/Apps/g16/l607.exe)
 ******************************Gaussian NBO Version 3.1******************************
             N A T U R A L   A T O M I C   O R B I T A L   A N D
          N A T U R A L   B O N D   O R B I T A L   A N A L Y S I S
 ******************************Gaussian NBO Version 3.1******************************
       /RESON  / : Allow strongly delocalized NBO set

 Analyzing the SCF density

 Job title: Title Card Required                                             

 Storage needed:      6104 in NPA,      7902 in NBO ( 536870884 available)
 GSVD:  LWork=         376 too small for GESVD, short by        2510 words or        2510 for optimal perf.


 NATURAL POPULATIONS:  Natural atomic orbital occupancies 
                                                          
   NAO  Atom  No  lang   Type(AO)    Occupancy
 --------------------------------------------
     1    C    1  S      Cor( 1S)     1.99981
     2    C    1  S      Val( 2S)     1.64131
     3    C    1  S      Ryd( 3S)     0.02890
     4    C    1  S      Ryd( 4S)     0.00006
     5    C    1  S      Ryd( 5S)     0.00000
     6    C    1  px     Val( 2p)     0.45478
     7    C    1  px     Ryd( 3p)     0.00004
     8    C    1  px     Ryd( 4p)     0.00003
     9    C    1  px     Ryd( 5p)     0.00001
    10    C    1  py     Val( 2p)     0.45478
    11    C    1  py     Ryd( 3p)     0.00004
    12    C    1  py     Ryd( 4p)     0.00003
    13    C    1  py     Ryd( 5p)     0.00001
    14    C    1  pz     Val( 2p)     0.90776
    15    C    1  pz     Ryd( 3p)     0.01138
    16    C    1  pz     Ryd( 4p)     0.00034
    17    C    1  pz     Ryd( 5p)     0.00003
    18    C    1  dxy    Ryd( 3d)     0.00000
    19    C    1  dxz    Ryd( 3d)     0.00582
    20    C    1  dyz    Ryd( 3d)     0.00582
    21    C    1  dx2y2  Ryd( 3d)     0.00000
    22    C    1  dz2    Ryd( 3d)     0.00183
 
    23    O    2  S      Cor( 1S)     1.99976
    24    O    2  S      Val( 2S)     1.72336
    25    O    2  S      Ryd( 3S)     0.00733
    26    O    2  S      Ryd( 4S)     0.00016
    27    O    2  S      Ryd( 5S)     0.00000
    28    O    2  px     Val( 2p)     1.53664
    29    O    2  px     Ryd( 3p)     0.00008
    30    O    2  px     Ryd( 4p)     0.00001
    31    O    2  px     Ryd( 5p)     0.00000
    32    O    2  py     Val( 2p)     1.53664
    33    O    2  py     Ryd( 3p)     0.00008
    34    O    2  py     Ryd( 4p)     0.00001
    35    O    2  py     Ryd( 5p)     0.00000
    36    O    2  pz     Val( 2p)     1.67368
    37    O    2  pz     Ryd( 3p)     0.00157
    38    O    2  pz     Ryd( 4p)     0.00009
    39    O    2  pz     Ryd( 5p)     0.00002
    40    O    2  dxy    Ryd( 3d)     0.00000
    41    O    2  dxz    Ryd( 3d)     0.00259
    42    O    2  dyz    Ryd( 3d)     0.00259
    43    O    2  dx2y2  Ryd( 3d)     0.00000
    44    O    2  dz2    Ryd( 3d)     0.00263


 Summary of Natural Population Analysis:                  
                                                          
                                       Natural Population 
                Natural  -----------------------------------------------
    Atom  No    Charge         Core      Valence    Rydberg      Total
 -----------------------------------------------------------------------
      C    1    0.48724      1.99981     3.45863    0.05433     5.51276
      O    2   -0.48724      1.99976     6.47032    0.01716     8.48724
 =======================================================================
   * Total *    0.00000      3.99957     9.92895    0.07148    14.00000

                                 Natural Population      
 --------------------------------------------------------
   Core                       3.99957 ( 99.9893% of   4)
   Valence                    9.92895 ( 99.2895% of  10)
   Natural Minimal Basis     13.92852 ( 99.4894% of  14)
   Natural Rydberg Basis      0.07148 (  0.5106% of  14)
 --------------------------------------------------------

    Atom  No          Natural Electron Configuration
 ----------------------------------------------------------------------------
      C    1      [core]2S( 1.64)2p( 1.82)3S( 0.03)3p( 0.01)3d( 0.01)
      O    2      [core]2S( 1.72)2p( 4.75)3S( 0.01)3d( 0.01)


 ***************************************************
 *******         Alpha spin orbitals         *******
 ***************************************************


 NATURAL POPULATIONS:  Natural atomic orbital occupancies 
                                                          
   NAO  Atom  No  lang   Type(AO)    Occupancy      Energy
 ----------------------------------------------------------
     1    C    1  S      Cor( 1S)     0.99990     -10.51742
     2    C    1  S      Val( 2S)     0.82065      -0.50130
     3    C    1  S      Ryd( 3S)     0.01445       0.65761
     4    C    1  S      Ryd( 4S)     0.00003       4.24705
     5    C    1  S      Ryd( 5S)     0.00000      19.35397
     6    C    1  px     Val( 2p)     0.22739      -0.06390
     7    C    1  px     Ryd( 4p)     0.00002       1.06687
     8    C    1  px     Ryd( 5p)     0.00001       1.98643
     9    C    1  px     Ryd( 3p)     0.00000       0.28279
    10    C    1  py     Val( 2p)     0.22739      -0.06390
    11    C    1  py     Ryd( 4p)     0.00002       1.06687
    12    C    1  py     Ryd( 5p)     0.00001       1.98643
    13    C    1  py     Ryd( 3p)     0.00000       0.28279
    14    C    1  pz     Val( 2p)     0.45388       0.05223
    15    C    1  pz     Ryd( 4p)     0.00569       1.17495
    16    C    1  pz     Ryd( 5p)     0.00017       1.93090
    17    C    1  pz     Ryd( 3p)     0.00002       0.35411
    18    C    1  dxy    Ryd( 3d)     0.00000       1.33262
    19    C    1  dxz    Ryd( 3d)     0.00291       1.67070
    20    C    1  dyz    Ryd( 3d)     0.00291       1.67070
    21    C    1  dx2y2  Ryd( 3d)     0.00000       1.33262
    22    C    1  dz2    Ryd( 3d)     0.00092       2.56115
 
    23    O    2  S      Cor( 1S)     0.99988     -19.45442
    24    O    2  S      Val( 2S)     0.86168      -1.12706
    25    O    2  S      Ryd( 3S)     0.00366       0.84936
    26    O    2  S      Ryd( 4S)     0.00008       1.30378
    27    O    2  S      Ryd( 5S)     0.00000      49.69023
    28    O    2  px     Val( 2p)     0.76832      -0.40789
    29    O    2  px     Ryd( 4p)     0.00004       0.95739
    30    O    2  px     Ryd( 5p)     0.00001       4.65916
    31    O    2  px     Ryd( 3p)     0.00000       0.68399
    32    O    2  py     Val( 2p)     0.76832      -0.40789
    33    O    2  py     Ryd( 4p)     0.00004       0.95739
    34    O    2  py     Ryd( 5p)     0.00001       4.65916
    35    O    2  py     Ryd( 3p)     0.00000       0.68399
    36    O    2  pz     Val( 2p)     0.83684      -0.49742
    37    O    2  pz     Ryd( 4p)     0.00078       0.98516
    38    O    2  pz     Ryd( 5p)     0.00004       5.26075
    39    O    2  pz     Ryd( 3p)     0.00001       0.62647
    40    O    2  dxy    Ryd( 3d)     0.00000       2.80830
    41    O    2  dxz    Ryd( 3d)     0.00130       3.14765
    42    O    2  dyz    Ryd( 3d)     0.00130       3.14765
    43    O    2  dx2y2  Ryd( 3d)     0.00000       2.80830
    44    O    2  dz2    Ryd( 3d)     0.00131       3.74794

 WARNING:  Population inversion found on atom  C    1
           Population inversion found on atom  O    2


 Summary of Natural Population Analysis:                  
                                                          
                                       Natural Population 
                Natural  -----------------------------------------------
    Atom  No    Charge         Core      Valence    Rydberg      Total
 -----------------------------------------------------------------------
      C    1    0.24362      0.99990     1.72931    0.02716     2.75638
      O    2   -0.24362      0.99988     3.23516    0.00858     4.24362
 =======================================================================
   * Total *   -0.00000      1.99979     4.96447    0.03574     7.00000

                                 Natural Population      
 --------------------------------------------------------
   Core                       1.99979 ( 99.9893% of   2)
   Valence                    4.96447 ( 99.2895% of   5)
   Natural Minimal Basis      6.96426 ( 99.4894% of   7)
   Natural Rydberg Basis      0.03574 (  0.5106% of   7)
 --------------------------------------------------------

    Atom  No          Natural Electron Configuration
 ----------------------------------------------------------------------------
      C    1      [core]2S( 0.82)2p( 0.91)3S( 0.01)3d( 0.01)4p( 0.01)
      O    2      [core]2S( 0.86)2p( 2.37)


 NATURAL BOND ORBITAL ANALYSIS, alpha spin orbitals:

                       Occupancies       Lewis Structure    Low   High
           Occ.    -------------------  -----------------   occ   occ
  Cycle   Thresh.   Lewis   Non-Lewis     CR  BD  3C  LP    (L)   (NL)   Dev
 =============================================================================
   1(1)    0.90     6.99455   0.00545      2   3   0   2     0      0    0.00
 -----------------------------------------------------------------------------

 Structure accepted: No low occupancy Lewis orbitals

 --------------------------------------------------------
   Core                      1.99978 ( 99.989% of   2)
   Valence Lewis             4.99477 ( 99.895% of   5)
  ==================       ============================
   Total Lewis               6.99455 ( 99.922% of   7)
  -----------------------------------------------------
   Valence non-Lewis         0.00000 (  0.000% of   7)
   Rydberg non-Lewis         0.00545 (  0.078% of   7)
  ==================       ============================
   Total non-Lewis           0.00545 (  0.078% of   7)
 --------------------------------------------------------


       (Occupancy)   Bond orbital/ Coefficients/ Hybrids
 ---------------------------------------------------------------------------------
     1. (1.00000) BD ( 1) C   1 - O   2  
                ( 29.16%)   0.5400* C   1 s( 27.74%)p 2.60( 72.04%)d 0.01(  0.22%)
                                           -0.0000  0.4880  0.1981  0.0032 -0.0002
                                            0.0000  0.0000  0.0000  0.0000  0.0000
                                            0.0000  0.0000  0.0000  0.8445 -0.0853
                                            0.0044 -0.0051  0.0000  0.0000  0.0000
                                            0.0000  0.0464
                ( 70.84%)   0.8416* O   2 s( 46.65%)p 1.14( 53.20%)d 0.00(  0.15%)
                                            0.0000  0.6807 -0.0555 -0.0015 -0.0000
                                            0.0000  0.0000  0.0000  0.0000  0.0000
                                            0.0000  0.0000  0.0000 -0.7290  0.0234
                                            0.0000 -0.0006  0.0000  0.0000  0.0000
                                            0.0000  0.0388
     2. (1.00000) BD ( 2) C   1 - O   2  
                ( 23.03%)   0.4799* C   1 s(  0.00%)p 1.00( 98.74%)d 0.01(  1.26%)
                                            0.0000  0.0000  0.0000  0.0000  0.0000
                                            0.9936  0.0091  0.0079  0.0038  0.0000
                                            0.0000  0.0000  0.0000  0.0000  0.0000
                                            0.0000  0.0000  0.0000  0.1124  0.0000
                                            0.0000  0.0000
                ( 76.97%)   0.8773* O   2 s(  0.00%)p 1.00( 99.83%)d 0.00(  0.17%)
                                            0.0000  0.0000  0.0000  0.0000  0.0000
                                            0.9991  0.0073 -0.0028 -0.0001  0.0000
                                            0.0000  0.0000  0.0000  0.0000  0.0000
                                            0.0000  0.0000  0.0000 -0.0410  0.0000
                                            0.0000  0.0000
     3. (1.00000) BD ( 3) C   1 - O   2  
                ( 23.03%)   0.4799* C   1 s(  0.00%)p 1.00( 98.74%)d 0.01(  1.26%)
                                            0.0000  0.0000  0.0000  0.0000  0.0000
                                            0.0000  0.0000  0.0000  0.0000  0.9936
                                            0.0091  0.0079  0.0038  0.0000  0.0000
                                            0.0000  0.0000  0.0000  0.0000  0.1124
                                            0.0000  0.0000
                ( 76.97%)   0.8773* O   2 s(  0.00%)p 1.00( 99.83%)d 0.00(  0.17%)
                                            0.0000  0.0000  0.0000  0.0000  0.0000
                                            0.0000  0.0000  0.0000  0.0000  0.9991
                                            0.0073 -0.0028 -0.0001  0.0000  0.0000
                                            0.0000  0.0000  0.0000  0.0000 -0.0410
                                            0.0000  0.0000
     4. (0.99990) CR ( 1) C   1           s(100.00%)
                                            1.0000  0.0001 -0.0000 -0.0000  0.0000
                                            0.0000  0.0000  0.0000  0.0000  0.0000
                                            0.0000  0.0000  0.0000 -0.0000 -0.0000
                                            0.0000  0.0000  0.0000  0.0000  0.0000
                                            0.0000 -0.0000
     5. (0.99988) CR ( 1) O   2           s(100.00%)p 0.00(  0.00%)
                                            1.0000  0.0002  0.0000  0.0000  0.0000
                                            0.0000  0.0000  0.0000  0.0000  0.0000
                                            0.0000  0.0000  0.0000  0.0002  0.0000
                                            0.0000 -0.0000  0.0000  0.0000  0.0000
                                            0.0000 -0.0000
     6. (0.99940) LP ( 1) C   1           s( 75.26%)p 0.33( 24.71%)d 0.00(  0.03%)
                                           -0.0001  0.8670 -0.0322 -0.0006  0.0000
                                            0.0000  0.0000  0.0000  0.0000  0.0000
                                            0.0000  0.0000  0.0000 -0.4959 -0.0328
                                            0.0097  0.0009  0.0000  0.0000  0.0000
                                            0.0000 -0.0163
     7. (0.99537) LP ( 1) O   2           s( 53.73%)p 0.86( 46.25%)d 0.00(  0.02%)
                                           -0.0003  0.7321  0.0367  0.0010  0.0000
                                            0.0000  0.0000  0.0000  0.0000  0.0000
                                            0.0000  0.0000  0.0000  0.6801  0.0013
                                            0.0065 -0.0002  0.0000  0.0000  0.0000
                                            0.0000 -0.0138
     8. (0.00473) RY*( 1) C   1           s( 42.68%)p 1.33( 56.89%)d 0.01(  0.43%)
                                            0.0000 -0.0982  0.6424 -0.0663  0.0036
                                           -0.0000 -0.0000 -0.0000 -0.0000 -0.0000
                                           -0.0000 -0.0000 -0.0000 -0.1698 -0.7249
                                           -0.1166  0.0325 -0.0000 -0.0000 -0.0000
                                           -0.0000  0.0659
     9. (0.00003) RY*( 2) C   1           s( 40.14%)p 1.39( 55.89%)d 0.10(  3.97%)
    10. (0.00000) RY*( 3) C   1           s( 99.40%)p 0.01(  0.60%)d 0.00(  0.00%)
    11. (0.00000) RY*( 4) C   1           s(  0.00%)p 1.00(100.00%)d 0.00(  0.00%)
    12. (0.00000) RY*( 5) C   1           s(  0.00%)p 1.00(100.00%)d 0.00(  0.00%)
    13. (0.00000) RY*( 6) C   1           s(  0.00%)p 1.00(100.00%)d 0.00(  0.00%)
    14. (0.00000) RY*( 7) C   1           s(  0.00%)p 1.00(100.00%)d 0.00(  0.00%)
    15. (0.00000) RY*( 8) C   1           s(  0.00%)p 1.00(100.00%)d 0.00(  0.00%)
    16. (0.00000) RY*( 9) C   1           s(  0.00%)p 1.00(100.00%)d 0.00(  0.00%)
    17. (0.00000) RY*(10) C   1           s( 92.40%)p 0.08(  7.60%)d 0.00(  0.00%)
    18. (0.00000) RY*(11) C   1           s( 21.01%)p 3.76( 78.99%)d 0.00(  0.00%)
    19. (0.00000) RY*(12) C   1           s(  0.60%)p99.99( 99.40%)d 0.00(  0.00%)
    20. (0.00000) RY*(13) C   1           s(  0.00%)p 0.00(  0.00%)d 1.00(100.00%)
    21. (0.00000) RY*(14) C   1           s(  0.00%)p 1.00(  1.26%)d78.15( 98.74%)
    22. (0.00000) RY*(15) C   1           s(  0.00%)p 1.00(  1.26%)d78.15( 98.74%)
    23. (0.00000) RY*(16) C   1           s(  0.00%)p 0.00(  0.00%)d 1.00(100.00%)
    24. (0.00000) RY*(17) C   1           s(  0.77%)p 5.01(  3.87%)d99.99( 95.35%)
    25. (0.00066) RY*( 1) O   2           s( 31.61%)p 1.89( 59.89%)d 0.27(  8.50%)
                                            0.0000  0.0230  0.4659 -0.3138 -0.0008
                                           -0.0000 -0.0000 -0.0000 -0.0000 -0.0000
                                           -0.0000 -0.0000 -0.0000 -0.0535 -0.7702
                                           -0.0457 -0.0269 -0.0000 -0.0000 -0.0000
                                           -0.0000 -0.2915
    26. (0.00001) RY*( 2) O   2           s( 99.84%)p 0.00(  0.16%)d 0.00(  0.00%)
    27. (0.00000) RY*( 3) O   2           s(100.00%)p 0.00(  0.00%)d 0.00(  0.00%)
    28. (0.00000) RY*( 4) O   2           s(  0.00%)p 1.00(100.00%)d 0.00(  0.00%)
    29. (0.00000) RY*( 5) O   2           s(  0.00%)p 1.00(100.00%)d 0.00(  0.00%)
    30. (0.00000) RY*( 6) O   2           s(  0.00%)p 1.00(100.00%)
    31. (0.00000) RY*( 7) O   2           s(  0.00%)p 1.00(100.00%)d 0.00(  0.00%)
    32. (0.00000) RY*( 8) O   2           s(  0.00%)p 1.00(100.00%)d 0.00(  0.00%)
    33. (0.00000) RY*( 9) O   2           s(  0.00%)p 1.00(100.00%)
    34. (0.00000) RY*(10) O   2           s( 65.08%)p 0.54( 34.92%)d 0.00(  0.00%)
    35. (0.00000) RY*(11) O   2           s(  0.08%)p99.99( 99.92%)
    36. (0.00001) RY*(12) O   2           s(  0.03%)p99.99( 99.97%)d 0.00(  0.00%)
    37. (0.00000) RY*(13) O   2           s(  0.00%)p 0.00(  0.00%)d 1.00(100.00%)
    38. (0.00000) RY*(14) O   2           s(  0.00%)p 1.00(  0.17%)d99.99( 99.83%)
    39. (0.00000) RY*(15) O   2           s(  0.00%)p 1.00(  0.17%)d99.99( 99.83%)
    40. (0.00000) RY*(16) O   2           s(  0.00%)p 0.00(  0.00%)d 1.00(100.00%)
    41. (0.00000) RY*(17) O   2           s(  2.99%)p 1.90(  5.68%)d30.51( 91.33%)
    42. (0.00000) BD*( 1) C   1 - O   2  
                ( 70.84%)   0.8416* C   1 s( 27.74%)p 2.60( 72.04%)d 0.01(  0.22%)
                ( 29.16%)  -0.5400* O   2 s( 46.65%)p 1.14( 53.20%)d 0.00(  0.15%)
    43. (0.00000) BD*( 2) C   1 - O   2  
                ( 76.97%)   0.8773* C   1 s(  0.00%)p 1.00( 98.74%)d 0.01(  1.26%)
                ( 23.03%)  -0.4799* O   2 s(  0.00%)p 1.00( 99.83%)d 0.00(  0.17%)
    44. (0.00000) BD*( 3) C   1 - O   2  
                ( 76.97%)   0.8773* C   1 s(  0.00%)p 1.00( 98.74%)d 0.01(  1.26%)
                ( 23.03%)  -0.4799* O   2 s(  0.00%)p 1.00( 99.83%)d 0.00(  0.17%)


 NHO Directionality and "Bond Bending" (deviations from line of nuclear centers)

         [Thresholds for printing:  angular deviation  >  1.0 degree]
                                    hybrid p-character > 25.0%
                                    orbital occupancy  >  0.10e

                                Line of Centers        Hybrid 1              Hybrid 2
                                ---------------  -------------------   ------------------
                NBO               Theta   Phi    Theta   Phi    Dev    Theta   Phi    Dev
 ========================================================================================
     2. BD (   2) C   1 - O   2     0.0    0.0    90.0    0.0  90.0     90.0    0.0  90.0
     3. BD (   3) C   1 - O   2     0.0    0.0    90.0   90.0  90.0     90.0   90.0  90.0
     7. LP (   1) O   2             --     --      0.0    0.0   --       --     --    --


 Second Order Perturbation Theory Analysis of Fock Matrix in NBO Basis

     Threshold for printing:   0.25 kcal/mol
                                                                              E(2)  E(j)-E(i) F(i,j)
         Donor NBO (i)                     Acceptor NBO (j)                 kcal/mol   a.u.    a.u. 
 ===================================================================================================

 within unit  1
   1. BD (   1) C   1 - O   2        /  8. RY*(   1) C   1                    0.42    2.59    0.042
   4. CR (   1) C   1                / 25. RY*(   1) O   2                    0.64   11.78    0.110
   5. CR (   1) O   2                /  8. RY*(   1) C   1                    2.91   20.67    0.310
   6. LP (   1) C   1                / 25. RY*(   1) O   2                    0.91    1.83    0.052
   7. LP (   1) O   2                /  8. RY*(   1) C   1                    7.61    2.11    0.160
   7. LP (   1) O   2                / 18. RY*(  11) C   1                    0.77    2.66    0.057
   7. LP (   1) O   2                / 25. RY*(   1) O   2                    0.31    2.15    0.033


 Natural Bond Orbitals (Summary):

                                                            Principal Delocalizations
           NBO                        Occupancy    Energy   (geminal,vicinal,remote)
 ====================================================================================
 Molecular unit  1  (CO)
     1. BD (   1) C   1 - O   2          1.00000    -1.37646  8(g)
     2. BD (   2) C   1 - O   2          1.00000    -0.56022   
     3. BD (   3) C   1 - O   2          1.00000    -0.56022   
     4. CR (   1) C   1                  0.99990   -10.51758  25(v)
     5. CR (   1) O   2                  0.99988   -19.45548  8(v)
     6. LP (   1) C   1                  0.99940    -0.56720  25(v)
     7. LP (   1) O   2                  0.99537    -0.89248  8(v),18(v),25(g)
     8. RY*(   1) C   1                  0.00473     1.21369   
     9. RY*(   2) C   1                  0.00003     0.72848   
    10. RY*(   3) C   1                  0.00000    19.94788   
    11. RY*(   4) C   1                  0.00000     1.06944   
    12. RY*(   5) C   1                  0.00000     1.98649   
    13. RY*(   6) C   1                  0.00000     0.28277   
    14. RY*(   7) C   1                  0.00000     1.06944   
    15. RY*(   8) C   1                  0.00000     1.98649   
    16. RY*(   9) C   1                  0.00000     0.28277   
    17. RY*(  10) C   1                  0.00000     3.79061   
    18. RY*(  11) C   1                  0.00000     1.76526   
    19. RY*(  12) C   1                  0.00000     0.35676   
    20. RY*(  13) C   1                  0.00000     1.33262   
    21. RY*(  14) C   1                  0.00000     1.65781   
    22. RY*(  15) C   1                  0.00000     1.65781   
    23. RY*(  16) C   1                  0.00000     1.33262   
    24. RY*(  17) C   1                  0.00000     2.37688   
    25. RY*(   1) O   2                  0.00066     1.26026   
    26. RY*(   2) O   2                  0.00001     1.57184   
    27. RY*(   3) O   2                  0.00000    49.69189   
    28. RY*(   4) O   2                  0.00000     0.95800   
    29. RY*(   5) O   2                  0.00000     4.65920   
    30. RY*(   6) O   2                  0.00000     0.68399   
    31. RY*(   7) O   2                  0.00000     0.95800   
    32. RY*(   8) O   2                  0.00000     4.65920   
    33. RY*(   9) O   2                  0.00000     0.68399   
    34. RY*(  10) O   2                  0.00000     0.55532   
    35. RY*(  11) O   2                  0.00000     5.24588   
    36. RY*(  12) O   2                  0.00001     0.61489   
    37. RY*(  13) O   2                  0.00000     2.80830   
    38. RY*(  14) O   2                  0.00000     3.14771   
    39. RY*(  15) O   2                  0.00000     3.14771   
    40. RY*(  16) O   2                  0.00000     2.80830   
    41. RY*(  17) O   2                  0.00000     3.51522   
    42. BD*(   1) C   1 - O   2          0.00000     0.87237   
    43. BD*(   2) C   1 - O   2          0.00000     0.09800   
    44. BD*(   3) C   1 - O   2          0.00000     0.09800   
       -------------------------------
              Total Lewis    6.99455  ( 99.9221%)
        Valence non-Lewis    0.00000  (  0.0000%)
        Rydberg non-Lewis    0.00545  (  0.0778%)
       -------------------------------
            Total unit  1    7.00000  (100.0000%)
           Charge unit  1    0.00000
 Sorting of NBOs:                    5    4    1    7    6    2    3   44   43   13
 Sorting of NBOs:                   16   19   34   36   30   33    9   42   31   28
 Sorting of NBOs:                   11   14    8   25   20   23   26   22   21   18
 Sorting of NBOs:                   12   15   24   37   40   39   38   41   17   32
 Sorting of NBOs:                   29   35   10   27
 Reordering of NBOs for storage:     5    4    1    7    6    2    3   44   43   42
 Reordering of NBOs for storage:    13   16   19   34   36   30   33    9   31   28
 Reordering of NBOs for storage:    11   14    8   25   20   23   26   22   21   18
 Reordering of NBOs for storage:    12   15   24   37   40   39   38   41   17   32
 Reordering of NBOs for storage:    29   35   10   27
 Labels of output orbitals:  CR  CR  BD  LP  LP  BD  BD  BD* BD* BD* RY* RY* RY* RY* RY* RY* RY* RY* RY* RY* 
 Labels of output orbitals:  RY* RY* RY* RY* RY* RY* RY* RY* RY* RY* RY* RY* RY* RY* RY* RY* RY* RY* RY* RY* 
 Labels of output orbitals:  RY* RY* RY* RY* 
 GSVD:  LWork=       -1665 too small for GESVD, short by        7400 words or        7400 for optimal perf.


 ***************************************************
 *******         Beta  spin orbitals         *******
 ***************************************************


 NATURAL POPULATIONS:  Natural atomic orbital occupancies 
                                                          
   NAO  Atom  No  lang   Type(AO)    Occupancy      Energy
 ----------------------------------------------------------
     1    C    1  S      Cor( 1S)     0.99990     -10.51742
     2    C    1  S      Val( 2S)     0.82065      -0.50130
     3    C    1  S      Ryd( 3S)     0.01445       0.65761
     4    C    1  S      Ryd( 4S)     0.00003       4.24705
     5    C    1  S      Ryd( 5S)     0.00000      19.35397
     6    C    1  px     Val( 2p)     0.22739      -0.06390
     7    C    1  px     Ryd( 4p)     0.00002       1.06687
     8    C    1  px     Ryd( 5p)     0.00001       1.98643
     9    C    1  px     Ryd( 3p)     0.00000       0.28279
    10    C    1  py     Val( 2p)     0.22739      -0.06390
    11    C    1  py     Ryd( 4p)     0.00002       1.06687
    12    C    1  py     Ryd( 5p)     0.00001       1.98643
    13    C    1  py     Ryd( 3p)     0.00000       0.28279
    14    C    1  pz     Val( 2p)     0.45388       0.05223
    15    C    1  pz     Ryd( 4p)     0.00569       1.17495
    16    C    1  pz     Ryd( 5p)     0.00017       1.93090
    17    C    1  pz     Ryd( 3p)     0.00002       0.35411
    18    C    1  dxy    Ryd( 3d)     0.00000       1.33262
    19    C    1  dxz    Ryd( 3d)     0.00291       1.67070
    20    C    1  dyz    Ryd( 3d)     0.00291       1.67070
    21    C    1  dx2y2  Ryd( 3d)     0.00000       1.33262
    22    C    1  dz2    Ryd( 3d)     0.00092       2.56115
 
    23    O    2  S      Cor( 1S)     0.99988     -19.45442
    24    O    2  S      Val( 2S)     0.86168      -1.12706
    25    O    2  S      Ryd( 3S)     0.00366       0.84936
    26    O    2  S      Ryd( 4S)     0.00008       1.30378
    27    O    2  S      Ryd( 5S)     0.00000      49.69023
    28    O    2  px     Val( 2p)     0.76832      -0.40789
    29    O    2  px     Ryd( 4p)     0.00004       0.95739
    30    O    2  px     Ryd( 5p)     0.00001       4.65916
    31    O    2  px     Ryd( 3p)     0.00000       0.68399
    32    O    2  py     Val( 2p)     0.76832      -0.40789
    33    O    2  py     Ryd( 4p)     0.00004       0.95739
    34    O    2  py     Ryd( 5p)     0.00001       4.65916
    35    O    2  py     Ryd( 3p)     0.00000       0.68399
    36    O    2  pz     Val( 2p)     0.83684      -0.49742
    37    O    2  pz     Ryd( 4p)     0.00078       0.98516
    38    O    2  pz     Ryd( 5p)     0.00004       5.26075
    39    O    2  pz     Ryd( 3p)     0.00001       0.62647
    40    O    2  dxy    Ryd( 3d)     0.00000       2.80830
    41    O    2  dxz    Ryd( 3d)     0.00130       3.14765
    42    O    2  dyz    Ryd( 3d)     0.00130       3.14765
    43    O    2  dx2y2  Ryd( 3d)     0.00000       2.80830
    44    O    2  dz2    Ryd( 3d)     0.00131       3.74794

 WARNING:  Population inversion found on atom  C    1
           Population inversion found on atom  O    2


 Summary of Natural Population Analysis:                  
                                                          
                                       Natural Population 
                Natural  -----------------------------------------------
    Atom  No    Charge         Core      Valence    Rydberg      Total
 -----------------------------------------------------------------------
      C    1    0.24362      0.99990     1.72931    0.02716     2.75638
      O    2   -0.24362      0.99988     3.23516    0.00858     4.24362
 =======================================================================
   * Total *    0.00000      1.99979     4.96447    0.03574     7.00000

                                 Natural Population      
 --------------------------------------------------------
   Core                       1.99979 ( 99.9893% of   2)
   Valence                    4.96447 ( 99.2895% of   5)
   Natural Minimal Basis      6.96426 ( 99.4894% of   7)
   Natural Rydberg Basis      0.03574 (  0.5106% of   7)
 --------------------------------------------------------

    Atom  No          Natural Electron Configuration
 ----------------------------------------------------------------------------
      C    1      [core]2S( 0.82)2p( 0.91)3S( 0.01)3d( 0.01)4p( 0.01)
      O    2      [core]2S( 0.86)2p( 2.37)


 NATURAL BOND ORBITAL ANALYSIS, beta spin orbitals:

                       Occupancies       Lewis Structure    Low   High
           Occ.    -------------------  -----------------   occ   occ
  Cycle   Thresh.   Lewis   Non-Lewis     CR  BD  3C  LP    (L)   (NL)   Dev
 =============================================================================
   1(1)    0.90     6.99455   0.00545      2   3   0   2     0      0    0.00
 -----------------------------------------------------------------------------

 Structure accepted: No low occupancy Lewis orbitals

 --------------------------------------------------------
   Core                      1.99978 ( 99.989% of   2)
   Valence Lewis             4.99477 ( 99.895% of   5)
  ==================       ============================
   Total Lewis               6.99455 ( 99.922% of   7)
  -----------------------------------------------------
   Valence non-Lewis         0.00000 (  0.000% of   7)
   Rydberg non-Lewis         0.00545 (  0.078% of   7)
  ==================       ============================
   Total non-Lewis           0.00545 (  0.078% of   7)
 --------------------------------------------------------


       (Occupancy)   Bond orbital/ Coefficients/ Hybrids
 ---------------------------------------------------------------------------------
     1. (1.00000) BD ( 1) C   1 - O   2  
                ( 29.16%)   0.5400* C   1 s( 27.74%)p 2.60( 72.04%)d 0.01(  0.22%)
                                            0.0000  0.4880  0.1981  0.0032 -0.0002
                                            0.0000  0.0000  0.0000  0.0000  0.0000
                                            0.0000  0.0000  0.0000  0.8445 -0.0853
                                            0.0044 -0.0051  0.0000  0.0000  0.0000
                                            0.0000  0.0464
                ( 70.84%)   0.8416* O   2 s( 46.65%)p 1.14( 53.20%)d 0.00(  0.15%)
                                            0.0000  0.6807 -0.0555 -0.0015 -0.0000
                                            0.0000  0.0000  0.0000  0.0000  0.0000
                                            0.0000  0.0000  0.0000 -0.7290  0.0234
                                            0.0000 -0.0006  0.0000  0.0000  0.0000
                                            0.0000  0.0388
     2. (1.00000) BD ( 2) C   1 - O   2  
                ( 23.03%)   0.4799* C   1 s(  0.00%)p 1.00( 98.74%)d 0.01(  1.26%)
                                            0.0000  0.0000  0.0000  0.0000  0.0000
                                            0.9936  0.0091  0.0079  0.0038  0.0000
                                            0.0000  0.0000  0.0000  0.0000  0.0000
                                            0.0000  0.0000  0.0000  0.1124  0.0000
                                            0.0000  0.0000
                ( 76.97%)   0.8773* O   2 s(  0.00%)p 1.00( 99.83%)d 0.00(  0.17%)
                                            0.0000  0.0000  0.0000  0.0000  0.0000
                                            0.9991  0.0073 -0.0028 -0.0001  0.0000
                                            0.0000  0.0000  0.0000  0.0000  0.0000
                                            0.0000  0.0000  0.0000 -0.0410  0.0000
                                            0.0000  0.0000
     3. (1.00000) BD ( 3) C   1 - O   2  
                ( 23.03%)   0.4799* C   1 s(  0.00%)p 1.00( 98.74%)d 0.01(  1.26%)
                                            0.0000  0.0000  0.0000  0.0000  0.0000
                                            0.0000  0.0000  0.0000  0.0000  0.9936
                                            0.0091  0.0079  0.0038  0.0000  0.0000
                                            0.0000  0.0000  0.0000  0.0000  0.1124
                                            0.0000  0.0000
                ( 76.97%)   0.8773* O   2 s(  0.00%)p 1.00( 99.83%)d 0.00(  0.17%)
                                            0.0000  0.0000  0.0000  0.0000  0.0000
                                            0.0000  0.0000  0.0000  0.0000  0.9991
                                            0.0073 -0.0028 -0.0001  0.0000  0.0000
                                            0.0000  0.0000  0.0000  0.0000 -0.0410
                                            0.0000  0.0000
     4. (0.99990) CR ( 1) C   1           s(100.00%)
                                            1.0000  0.0001 -0.0000 -0.0000  0.0000
                                            0.0000  0.0000  0.0000  0.0000  0.0000
                                            0.0000  0.0000  0.0000 -0.0000 -0.0000
                                            0.0000  0.0000  0.0000  0.0000  0.0000
                                            0.0000 -0.0000
     5. (0.99988) CR ( 1) O   2           s(100.00%)p 0.00(  0.00%)
                                            1.0000  0.0002  0.0000  0.0000  0.0000
                                            0.0000  0.0000  0.0000  0.0000  0.0000
                                            0.0000  0.0000  0.0000  0.0002  0.0000
                                            0.0000 -0.0000  0.0000  0.0000  0.0000
                                            0.0000 -0.0000
     6. (0.99940) LP ( 1) C   1           s( 75.26%)p 0.33( 24.71%)d 0.00(  0.03%)
                                           -0.0001  0.8670 -0.0322 -0.0006  0.0000
                                            0.0000  0.0000  0.0000  0.0000  0.0000
                                            0.0000  0.0000  0.0000 -0.4959 -0.0328
                                            0.0097  0.0009  0.0000  0.0000  0.0000
                                            0.0000 -0.0163
     7. (0.99537) LP ( 1) O   2           s( 53.73%)p 0.86( 46.25%)d 0.00(  0.02%)
                                           -0.0003  0.7321  0.0367  0.0010  0.0000
                                            0.0000  0.0000  0.0000  0.0000  0.0000
                                            0.0000  0.0000  0.0000  0.6801  0.0013
                                            0.0065 -0.0002  0.0000  0.0000  0.0000
                                            0.0000 -0.0138
     8. (0.00473) RY*( 1) C   1           s( 42.68%)p 1.33( 56.89%)d 0.01(  0.43%)
                                           -0.0000 -0.0982  0.6424 -0.0663  0.0036
                                           -0.0000 -0.0000 -0.0000 -0.0000 -0.0000
                                           -0.0000 -0.0000 -0.0000 -0.1698 -0.7249
                                           -0.1166  0.0325 -0.0000 -0.0000 -0.0000
                                           -0.0000  0.0659
     9. (0.00003) RY*( 2) C   1           s( 40.14%)p 1.39( 55.89%)d 0.10(  3.97%)
    10. (0.00000) RY*( 3) C   1           s( 99.40%)p 0.01(  0.60%)d 0.00(  0.00%)
    11. (0.00000) RY*( 4) C   1           s(  0.00%)p 1.00(100.00%)d 0.00(  0.00%)
    12. (0.00000) RY*( 5) C   1           s(  0.00%)p 1.00(100.00%)d 0.00(  0.00%)
    13. (0.00000) RY*( 6) C   1           s(  0.00%)p 1.00(100.00%)d 0.00(  0.00%)
    14. (0.00000) RY*( 7) C   1           s(  0.00%)p 1.00(100.00%)d 0.00(  0.00%)
    15. (0.00000) RY*( 8) C   1           s(  0.00%)p 1.00(100.00%)d 0.00(  0.00%)
    16. (0.00000) RY*( 9) C   1           s(  0.00%)p 1.00(100.00%)d 0.00(  0.00%)
    17. (0.00000) RY*(10) C   1           s( 92.40%)p 0.08(  7.60%)d 0.00(  0.00%)
    18. (0.00000) RY*(11) C   1           s( 21.01%)p 3.76( 78.99%)d 0.00(  0.00%)
    19. (0.00000) RY*(12) C   1           s(  0.60%)p99.99( 99.40%)d 0.00(  0.00%)
    20. (0.00000) RY*(13) C   1           s(  0.00%)p 0.00(  0.00%)d 1.00(100.00%)
    21. (0.00000) RY*(14) C   1           s(  0.00%)p 1.00(  1.26%)d78.15( 98.74%)
    22. (0.00000) RY*(15) C   1           s(  0.00%)p 1.00(  1.26%)d78.15( 98.74%)
    23. (0.00000) RY*(16) C   1           s(  0.00%)p 0.00(  0.00%)d 1.00(100.00%)
    24. (0.00000) RY*(17) C   1           s(  0.77%)p 5.01(  3.87%)d99.99( 95.35%)
    25. (0.00066) RY*( 1) O   2           s( 31.61%)p 1.89( 59.89%)d 0.27(  8.50%)
                                            0.0000  0.0230  0.4659 -0.3138 -0.0008
                                           -0.0000 -0.0000 -0.0000 -0.0000 -0.0000
                                           -0.0000 -0.0000 -0.0000 -0.0535 -0.7702
                                           -0.0457 -0.0269 -0.0000 -0.0000 -0.0000
                                           -0.0000 -0.2915
    26. (0.00001) RY*( 2) O   2           s( 99.84%)p 0.00(  0.16%)d 0.00(  0.00%)
    27. (0.00000) RY*( 3) O   2           s(100.00%)p 0.00(  0.00%)d 0.00(  0.00%)
    28. (0.00000) RY*( 4) O   2           s(  0.00%)p 1.00(100.00%)d 0.00(  0.00%)
    29. (0.00000) RY*( 5) O   2           s(  0.00%)p 1.00(100.00%)d 0.00(  0.00%)
    30. (0.00000) RY*( 6) O   2           s(  0.00%)p 1.00(100.00%)
    31. (0.00000) RY*( 7) O   2           s(  0.00%)p 1.00(100.00%)d 0.00(  0.00%)
    32. (0.00000) RY*( 8) O   2           s(  0.00%)p 1.00(100.00%)d 0.00(  0.00%)
    33. (0.00000) RY*( 9) O   2           s(  0.00%)p 1.00(100.00%)
    34. (0.00000) RY*(10) O   2           s( 65.08%)p 0.54( 34.92%)d 0.00(  0.00%)
    35. (0.00000) RY*(11) O   2           s(  0.08%)p99.99( 99.92%)
    36. (0.00001) RY*(12) O   2           s(  0.03%)p99.99( 99.97%)d 0.00(  0.00%)
    37. (0.00000) RY*(13) O   2           s(  0.00%)p 0.00(  0.00%)d 1.00(100.00%)
    38. (0.00000) RY*(14) O   2           s(  0.00%)p 1.00(  0.17%)d99.99( 99.83%)
    39. (0.00000) RY*(15) O   2           s(  0.00%)p 1.00(  0.17%)d99.99( 99.83%)
    40. (0.00000) RY*(16) O   2           s(  0.00%)p 0.00(  0.00%)d 1.00(100.00%)
    41. (0.00000) RY*(17) O   2           s(  2.99%)p 1.90(  5.68%)d30.51( 91.33%)
    42. (0.00000) BD*( 1) C   1 - O   2  
                ( 70.84%)   0.8416* C   1 s( 27.74%)p 2.60( 72.04%)d 0.01(  0.22%)
                ( 29.16%)  -0.5400* O   2 s( 46.65%)p 1.14( 53.20%)d 0.00(  0.15%)
    43. (0.00000) BD*( 2) C   1 - O   2  
                ( 76.97%)   0.8773* C   1 s(  0.00%)p 1.00( 98.74%)d 0.01(  1.26%)
                ( 23.03%)  -0.4799* O   2 s(  0.00%)p 1.00( 99.83%)d 0.00(  0.17%)
    44. (0.00000) BD*( 3) C   1 - O   2  
                ( 76.97%)   0.8773* C   1 s(  0.00%)p 1.00( 98.74%)d 0.01(  1.26%)
                ( 23.03%)  -0.4799* O   2 s(  0.00%)p 1.00( 99.83%)d 0.00(  0.17%)


 NHO Directionality and "Bond Bending" (deviations from line of nuclear centers)

         [Thresholds for printing:  angular deviation  >  1.0 degree]
                                    hybrid p-character > 25.0%
                                    orbital occupancy  >  0.10e

                                Line of Centers        Hybrid 1              Hybrid 2
                                ---------------  -------------------   ------------------
                NBO               Theta   Phi    Theta   Phi    Dev    Theta   Phi    Dev
 ========================================================================================
     2. BD (   2) C   1 - O   2     0.0    0.0    90.0    0.0  90.0     90.0    0.0  90.0
     3. BD (   3) C   1 - O   2     0.0    0.0    90.0   90.0  90.0     90.0   90.0  90.0
     7. LP (   1) O   2             --     --      0.0    0.0   --       --     --    --


 Second Order Perturbation Theory Analysis of Fock Matrix in NBO Basis

     Threshold for printing:   0.25 kcal/mol
                                                                              E(2)  E(j)-E(i) F(i,j)
         Donor NBO (i)                     Acceptor NBO (j)                 kcal/mol   a.u.    a.u. 
 ===================================================================================================

 within unit  1
   1. BD (   1) C   1 - O   2        /  8. RY*(   1) C   1                    0.42    2.59    0.042
   4. CR (   1) C   1                / 25. RY*(   1) O   2                    0.64   11.78    0.110
   5. CR (   1) O   2                /  8. RY*(   1) C   1                    2.91   20.67    0.310
   6. LP (   1) C   1                / 25. RY*(   1) O   2                    0.91    1.83    0.052
   7. LP (   1) O   2                /  8. RY*(   1) C   1                    7.61    2.11    0.160
   7. LP (   1) O   2                / 18. RY*(  11) C   1                    0.77    2.66    0.057
   7. LP (   1) O   2                / 25. RY*(   1) O   2                    0.31    2.15    0.033


 Natural Bond Orbitals (Summary):

                                                            Principal Delocalizations
           NBO                        Occupancy    Energy   (geminal,vicinal,remote)
 ====================================================================================
 Molecular unit  1  (CO)
     1. BD (   1) C   1 - O   2          1.00000    -1.37646  8(g)
     2. BD (   2) C   1 - O   2          1.00000    -0.56022   
     3. BD (   3) C   1 - O   2          1.00000    -0.56022   
     4. CR (   1) C   1                  0.99990   -10.51758  25(v)
     5. CR (   1) O   2                  0.99988   -19.45548  8(v)
     6. LP (   1) C   1                  0.99940    -0.56720  25(v)
     7. LP (   1) O   2                  0.99537    -0.89248  8(v),18(v),25(g)
     8. RY*(   1) C   1                  0.00473     1.21369   
     9. RY*(   2) C   1                  0.00003     0.72848   
    10. RY*(   3) C   1                  0.00000    19.94788   
    11. RY*(   4) C   1                  0.00000     1.06944   
    12. RY*(   5) C   1                  0.00000     1.98649   
    13. RY*(   6) C   1                  0.00000     0.28277   
    14. RY*(   7) C   1                  0.00000     1.06944   
    15. RY*(   8) C   1                  0.00000     1.98649   
    16. RY*(   9) C   1                  0.00000     0.28277   
    17. RY*(  10) C   1                  0.00000     3.79061   
    18. RY*(  11) C   1                  0.00000     1.76526   
    19. RY*(  12) C   1                  0.00000     0.35676   
    20. RY*(  13) C   1                  0.00000     1.33262   
    21. RY*(  14) C   1                  0.00000     1.65781   
    22. RY*(  15) C   1                  0.00000     1.65781   
    23. RY*(  16) C   1                  0.00000     1.33262   
    24. RY*(  17) C   1                  0.00000     2.37688   
    25. RY*(   1) O   2                  0.00066     1.26026   
    26. RY*(   2) O   2                  0.00001     1.57184   
    27. RY*(   3) O   2                  0.00000    49.69189   
    28. RY*(   4) O   2                  0.00000     0.95800   
    29. RY*(   5) O   2                  0.00000     4.65920   
    30. RY*(   6) O   2                  0.00000     0.68399   
    31. RY*(   7) O   2                  0.00000     0.95800   
    32. RY*(   8) O   2                  0.00000     4.65920   
    33. RY*(   9) O   2                  0.00000     0.68399   
    34. RY*(  10) O   2                  0.00000     0.55532   
    35. RY*(  11) O   2                  0.00000     5.24588   
    36. RY*(  12) O   2                  0.00001     0.61489   
    37. RY*(  13) O   2                  0.00000     2.80830   
    38. RY*(  14) O   2                  0.00000     3.14771   
    39. RY*(  15) O   2                  0.00000     3.14771   
    40. RY*(  16) O   2                  0.00000     2.80830   
    41. RY*(  17) O   2                  0.00000     3.51522   
    42. BD*(   1) C   1 - O   2          0.00000     0.87237   
    43. BD*(   2) C   1 - O   2          0.00000     0.09800   
    44. BD*(   3) C   1 - O   2          0.00000     0.09800   
       -------------------------------
              Total Lewis    6.99455  ( 99.9221%)
        Valence non-Lewis    0.00000  (  0.0000%)
        Rydberg non-Lewis    0.00545  (  0.0778%)
       -------------------------------
            Total unit  1    7.00000  (100.0000%)
           Charge unit  1    0.00000
 Sorting of NBOs:                    5    4    1    7    6    2    3   44   43   13
 Sorting of NBOs:                   16   19   34   36   30   33    9   42   31   28
 Sorting of NBOs:                   14   11    8   25   20   23   26   22   21   18
 Sorting of NBOs:                   12   15   24   37   40   39   38   41   17   32
 Sorting of NBOs:                   29   35   10   27
 Reordering of NBOs for storage:     5    4    1    7    6    2    3   44   43   42
 Reordering of NBOs for storage:    13   16   19   34   36   30   33    9   31   28
 Reordering of NBOs for storage:    14   11    8   25   20   23   26   22   21   18
 Reordering of NBOs for storage:    12   15   24   37   40   39   38   41   17   32
 Reordering of NBOs for storage:    29   35   10   27
 Labels of output orbitals:  CR  CR  BD  LP  LP  BD  BD  BD* BD* BD* RY* RY* RY* RY* RY* RY* RY* RY* RY* RY* 
 Labels of output orbitals:  RY* RY* RY* RY* RY* RY* RY* RY* RY* RY* RY* RY* RY* RY* RY* RY* RY* RY* RY* RY* 
 Labels of output orbitals:  RY* RY* RY* RY* 
 GSVD:  LWork=       -1665 too small for GESVD, short by        7400 words or        7400 for optimal perf.
 Leave Link  607 at Wed Apr 16 03:11:04 2025, MaxMem=   536870912 cpu:               6.3 elap:               1.4
 (Enter /home/szhao/Apps/g16/l701.exe)
 ... and contract with generalized density number  0.
 Compute integral first derivatives.
 Leave Link  701 at Wed Apr 16 03:11:05 2025, MaxMem=   536870912 cpu:               3.7 elap:               0.9
 (Enter /home/szhao/Apps/g16/l702.exe)
 L702 exits ... SP integral derivatives will be done elsewhere.
 Leave Link  702 at Wed Apr 16 03:11:05 2025, MaxMem=   536870912 cpu:               0.4 elap:               0.1
 (Enter /home/szhao/Apps/g16/l703.exe)
 Integral derivatives from FoFJK, PRISM(SPDF).
 Compute integral first derivatives, UseDBF=F ICtDFT=           0.
 Calling FoFJK, ICntrl=      2127 FMM=F ISym2X=1 I1Cent= 0 IOpClX= 1 NMat=1 NMatS=1 NMatT=0.
 FoFJK:  IHMeth= 1 ICntrl=    2127 DoSepK=F KAlg= 0 I1Cent=           0 FoldK=F
 IRaf=         0 NMat=       1 IRICut=       1 DoRegI=T DoRafI=F ISym2E= 1 IDoP0=0 IntGTp=1.
 FoFCou: FMM=F IPFlag=           0 FMFlag=      100000 FMFlg1=         800
         NFxFlg=           0 DoJE=F BraDBF=F KetDBF=F FulRan=T
         wScrn=  0.000000 ICntrl=      2127 IOpCl=  1 I1Cent=           0 NGrid=           0
         NMat0=    1 NMatS0=      1 NMatT0=    0 NMatD0=    1 NMtDS0=    0 NMtDT0=    0
 Petite list used in FoFCou.
 Leave Link  703 at Wed Apr 16 03:11:06 2025, MaxMem=   536870912 cpu:               5.2 elap:               1.2
 (Enter /home/szhao/Apps/g16/l716.exe)
 Dipole        = 0.00000000D+00 0.00000000D+00 6.16213113D-03
 ***** Axes restored to original set *****
 -------------------------------------------------------------------
 Center     Atomic                   Forces (Hartrees/Bohr)
 Number     Number              X              Y              Z
 -------------------------------------------------------------------
      1        6          -0.000000945   -0.000000000   -0.000000000
      2        8           0.000000945   -0.000000000   -0.000000000
 -------------------------------------------------------------------
 Cartesian Forces:  Max     0.000000945 RMS     0.000000545
 Z-matrix is all fixed cartesians, so copy forces.
 Force constants in Cartesian coordinates: 
                1             2             3             4             5 
      1  0.156133D+01
      2  0.000000D+00  0.100000D+01
      3  0.000000D+00  0.000000D+00  0.100000D+01
      4 -0.156133D+01  0.000000D+00  0.000000D+00  0.156133D+01
      5  0.000000D+00  0.000000D+00  0.000000D+00  0.000000D+00  0.100000D+01
      6  0.000000D+00  0.000000D+00  0.000000D+00  0.000000D+00  0.000000D+00
                6 
      6  0.100000D+01
 Leave Link  716 at Wed Apr 16 03:11:06 2025, MaxMem=   536870912 cpu:               0.4 elap:               0.1
 (Enter /home/szhao/Apps/g16/l103.exe)

 GradGradGradGradGradGradGradGradGradGradGradGradGradGradGradGradGradGrad
 Berny optimization.
 Search for a local minimum.
 Step number   1 out of a maximum of    2
 All quantities printed in internal units (Hartrees-Bohrs-Radians)
 Second derivative matrix not updated -- first step.
 The second derivative matrix:
                          X1        Y1        Z1        X2        Y2
           X1           1.56133
           Y1           0.00000   1.00000
           Z1           0.00000   0.00000   1.00000
           X2          -1.56133   0.00000   0.00000   1.56133
           Y2           0.00000   0.00000   0.00000   0.00000   1.00000
           Z2           0.00000   0.00000   0.00000   0.00000   0.00000
                          Z2
           Z2           1.00000
 ITU=  0
     Eigenvalues ---    3.10665
 Angle between quadratic step and forces=  90.00 degrees.
 ClnCor:  largest displacement from symmetrization is 0.00D+00 for atom     0.
 Linear search not attempted -- first point.
 ClnCor:  largest displacement from symmetrization is 0.00D+00 for atom     0.
 B after Tr=     0.000000    0.000000    0.000000
         Rot=    1.000000    0.000000    0.000000    0.000000 Ang=   0.00 deg.
 Variable       Old X    -DE/DX   Delta X   Delta X   Delta X     New X
                                 (Linear)    (Quad)   (Total)
    X1       -1.06029  -0.00000   0.00000  -0.00000  -0.00000  -1.06029
    Y1        0.00000  -0.00000   0.00000   0.00000   0.00000   0.00000
    Z1        0.00000  -0.00000   0.00000   0.00000   0.00000   0.00000
    X2        1.06029   0.00000   0.00000   0.00000   0.00000   1.06029
    Y2        0.00000  -0.00000   0.00000   0.00000   0.00000   0.00000
    Z2        0.00000  -0.00000   0.00000   0.00000   0.00000   0.00000
         Item               Value     Threshold  Converged?
 Maximum Force            0.000001     0.000450     YES
 RMS     Force            0.000001     0.000300     YES
 Maximum Displacement     0.000000     0.001800     YES
 RMS     Displacement     0.000000     0.001200     YES
 Predicted change in Energy=-2.857676D-13
 Optimization completed.
    -- Stationary point found.
 GradGradGradGradGradGradGradGradGradGradGradGradGradGradGradGradGradGrad

 Leave Link  103 at Wed Apr 16 03:11:07 2025, MaxMem=   536870912 cpu:               0.2 elap:               0.1
 (Enter /home/szhao/Apps/g16/l9999.exe)
 1\1\GINC-NODE01\Force\UM062X\6-311+G(d,p)\C1O1\SZHAO\16-Apr-2025\0\\#p
  UM062X/6-311+G** force int=superfine pop=saveNBO\\Title Card Required
 \\0,1\C,-0.561082,0.,0.\O,0.561082,0.,0.\\Version=ES64L-G16RevA.03\Sta
 te=1-SG\HF=-113.3099085\S2=0.\S2-1=0.\S2A=0.\RMSD=4.208e-09\RMSF=5.454
 e-07\Dipole=0.0061621,0.,0.\Quadrupole=-1.0326295,0.5163147,0.5163147,
 0.,0.,0.\PG=C*V [C*(C1O1)]\\@


 The impersonal hand of government can
 never replace the helping hand of a neighbor.
                        -- Hubert H. Humphrey
 Job cpu time:       0 days  0 hours  0 minutes 31.9 seconds.
 Elapsed time:       0 days  0 hours  0 minutes  7.6 seconds.
 File lengths (MBytes):  RWF=      6 Int=      0 D2E=      0 Chk=      1 Scr=      1
 Normal termination of Gaussian 16 at Wed Apr 16 03:11:07 2025.
