Title Card Required                                                     
FOpt      UM062X                                                      6-311+G(d,p)        
Number of atoms                            I                6
Info1-9                                    I   N=           9
          15          15           0           0           0         110
           2          18        -502
Full Title                                 C   N=           2
Title Card Required     
Route                                      C   N=           5
#p opt UM062X/6-311+G** nosymm int=superfine SCF=NoVarAcc   
Charge                                     I                0
Multiplicity                               I                1
Number of electrons                        I               16
Number of alpha electrons                  I                8
Number of beta electrons                   I                8
Number of basis functions                  I               68
Number of independent functions            I               68
Number of point charges in /Mol/           I                0
Number of translation vectors              I                0
Atomic numbers                             I   N=           6
           6           6           1           1           1           1
Nuclear charges                            R   N=           6
  6.00000000E+00  6.00000000E+00  1.00000000E+00  1.00000000E+00  1.00000000E+00
  1.00000000E+00
Current cartesian coordinates              R   N=          18
 -5.73644318E+00  0.00000000E+00  0.00000000E+00  5.73644318E+00  0.00000000E+00
  0.00000000E+00 -7.06089404E+00 -1.62613979E+00 -9.08113455E-10 -7.06084259E+00
  1.62618363E+00 -8.35396790E-10  7.06089404E+00  1.62613979E+00 -3.28262102E-10
  7.06084259E+00 -1.62618363E+00 -2.55415542E-10
Number of symbols in /Mol/                 I                0
Force Field                                I                0
Atom Types                                 C   N=           6
                                                            
            
Int Atom Types                             I   N=           6
           0           0           0           0           0           0
MM charges                                 R   N=           6
  0.00000000E+00  0.00000000E+00  0.00000000E+00  0.00000000E+00  0.00000000E+00
  0.00000000E+00
Integer atomic weights                     I   N=           6
          12          12           1           1           1           1
Real atomic weights                        R   N=           6
  1.20000000E+01  1.20000000E+01  1.00782504E+00  1.00782504E+00  1.00782504E+00
  1.00782504E+00
Atom fragment info                         I   N=           6
           0           0           0           0           0           0
Atom residue num                           I   N=           6
           0           0           0           0           0           0
Nuclear spins                              I   N=           6
           0           0           1           1           1           1
Nuclear ZEff                               R   N=           6
 -3.60000000E+00 -3.60000000E+00 -1.00000000E+00 -1.00000000E+00 -1.00000000E+00
 -1.00000000E+00
Nuclear ZNuc                               R   N=           6
  6.00000000E+00  6.00000000E+00  1.00000000E+00  1.00000000E+00  1.00000000E+00
  1.00000000E+00
Nuclear QMom                               R   N=           6
  0.00000000E+00  0.00000000E+00  0.00000000E+00  0.00000000E+00  0.00000000E+00
  0.00000000E+00
Nuclear GFac                               R   N=           6
  0.00000000E+00  0.00000000E+00  2.79284600E+00  2.79284600E+00  2.79284600E+00
  2.79284600E+00
MicOpt                                     I   N=           6
          -2          -2          -1          -1          -1          -1
Number of residues                         I                0
Number of secondary structures             I                0
Redundant internal dimensions              I   N=           4
          20          10           6           4
Redundant internal coordinate indices      I   N=          80
           1          -1           0           0           1          -2
           0           0           1          -3           0           0
           2          -1           0           0           2          -2
           0           0           2          -3           0           0
           1           3           0           0           1           4
           0           0           2           5           0           0
           2           6           0           0           2           1
           3           0           2           1           4           0
           3           1           4           0           1           2
           5           0           1           2           6           0
           5           2           6           0           3           1
           2           5           3           1           2           6
           4           1           2           5           4           1
           2           6
Redundant internal coordinates             R   N=          20
 -5.73644318E+00  0.00000000E+00  0.00000000E+00  5.73644318E+00  0.00000000E+00
  0.00000000E+00  2.09726028E+00  2.09726179E+00  2.09726028E+00  2.09726179E+00
  2.25430162E+00  2.25426940E+00  1.77461428E+00  2.25430162E+00  2.25426940E+00
  1.77461428E+00  3.14159265E+00 -0.00000000E+00  0.00000000E+00  3.14159265E+00
ZRed-IntVec                                I   N=          20
          -1          -1          -1          -1          -1          -1
           0           0           0           0           0           0
           0           0           0           0           0           0
           0           0
ZRed-FPVec                                 R   N=          20
  0.00000000E+00  0.00000000E+00  0.00000000E+00  0.00000000E+00  0.00000000E+00
  0.00000000E+00  0.00000000E+00  0.00000000E+00  0.00000000E+00  0.00000000E+00
  0.00000000E+00  0.00000000E+00  0.00000000E+00  0.00000000E+00  0.00000000E+00
  0.00000000E+00  0.00000000E+00  0.00000000E+00  0.00000000E+00  0.00000000E+00
ZRed-Constraint1                           R   N=          20
 -5.73644318E+00  0.00000000E+00  0.00000000E+00  5.73644318E+00  0.00000000E+00
  0.00000000E+00  2.03694512E+00  2.03669844E+00  2.03694512E+00  2.03669844E+00
  2.00316847E+00  2.00313852E+00  2.27687832E+00  2.00316847E+00  2.00313852E+00
  2.27687832E+00  3.14159265E+00  0.00000000E+00  0.00000000E+00  3.14159265E+00
ZRed-Constraint2                           R   N=          20
 -5.73644318E+00  0.00000000E+00  0.00000000E+00  5.73644318E+00  0.00000000E+00
  0.00000000E+00  0.00000000E+00  0.00000000E+00  0.00000000E+00  0.00000000E+00
  0.00000000E+00  0.00000000E+00  0.00000000E+00  0.00000000E+00  0.00000000E+00
  0.00000000E+00  0.00000000E+00  0.00000000E+00  0.00000000E+00  0.00000000E+00
Number of contracted shells                I               28
Number of primitive shells                 I               50
Pure/Cartesian d shells                    I                0
Pure/Cartesian f shells                    I                0
Highest angular momentum                   I                2
Largest degree of contraction              I                6
Shell types                                I   N=          28
           0          -1          -1          -1          -1          -2
           0          -1          -1          -1          -1          -2
           0           0           0           1           0           0
           0           1           0           0           0           1
           0           0           0           1
Number of primitives per shell             I   N=          28
           6           3           1           1           1           1
           6           3           1           1           1           1
           3           1           1           1           3           1
           1           1           3           1           1           1
           3           1           1           1
Shell to atom map                          I   N=          28
           1           1           1           1           1           1
           2           2           2           2           2           2
           3           3           3           3           4           4
           4           4           5           5           5           5
           6           6           6           6
Primitive exponents                        R   N=          50
  4.56324000E+03  6.82024000E+02  1.54973000E+02  4.44553000E+01  1.30290000E+01
  1.82773000E+00  2.09642000E+01  4.80331000E+00  1.45933000E+00  4.83456000E-01
  1.45585000E-01  4.38000000E-02  6.26000000E-01  4.56324000E+03  6.82024000E+02
  1.54973000E+02  4.44553000E+01  1.30290000E+01  1.82773000E+00  2.09642000E+01
  4.80331000E+00  1.45933000E+00  4.83456000E-01  1.45585000E-01  4.38000000E-02
  6.26000000E-01  3.38650000E+01  5.09479000E+00  1.15879000E+00  3.25840000E-01
  1.02741000E-01  7.50000000E-01  3.38650000E+01  5.09479000E+00  1.15879000E+00
  3.25840000E-01  1.02741000E-01  7.50000000E-01  3.38650000E+01  5.09479000E+00
  1.15879000E+00  3.25840000E-01  1.02741000E-01  7.50000000E-01  3.38650000E+01
  5.09479000E+00  1.15879000E+00  3.25840000E-01  1.02741000E-01  7.50000000E-01
Contraction coefficients                   R   N=          50
  1.96665025E-03  1.52306019E-02  7.61269097E-02  2.60801033E-01  6.16462078E-01
  2.21006028E-01  1.14660081E-01  9.19999648E-01 -3.03068213E-03  1.00000000E+00
  1.00000000E+00  1.00000000E+00  1.00000000E+00  1.96665025E-03  1.52306019E-02
  7.61269097E-02  2.60801033E-01  6.16462078E-01  2.21006028E-01  1.14660081E-01
  9.19999648E-01 -3.03068213E-03  1.00000000E+00  1.00000000E+00  1.00000000E+00
  1.00000000E+00  2.54938145E-02  1.90373109E-01  8.52161486E-01  1.00000000E+00
  1.00000000E+00  1.00000000E+00  2.54938145E-02  1.90373109E-01  8.52161486E-01
  1.00000000E+00  1.00000000E+00  1.00000000E+00  2.54938145E-02  1.90373109E-01
  8.52161486E-01  1.00000000E+00  1.00000000E+00  1.00000000E+00  2.54938145E-02
  1.90373109E-01  8.52161486E-01  1.00000000E+00  1.00000000E+00  1.00000000E+00
P(S=P) Contraction coefficients            R   N=          50
  0.00000000E+00  0.00000000E+00  0.00000000E+00  0.00000000E+00  0.00000000E+00
  0.00000000E+00  4.02486927E-02  2.37593957E-01  8.15853851E-01  1.00000000E+00
  1.00000000E+00  1.00000000E+00  0.00000000E+00  0.00000000E+00  0.00000000E+00
  0.00000000E+00  0.00000000E+00  0.00000000E+00  0.00000000E+00  4.02486927E-02
  2.37593957E-01  8.15853851E-01  1.00000000E+00  1.00000000E+00  1.00000000E+00
  0.00000000E+00  0.00000000E+00  0.00000000E+00  0.00000000E+00  0.00000000E+00
  0.00000000E+00  0.00000000E+00  0.00000000E+00  0.00000000E+00  0.00000000E+00
  0.00000000E+00  0.00000000E+00  0.00000000E+00  0.00000000E+00  0.00000000E+00
  0.00000000E+00  0.00000000E+00  0.00000000E+00  0.00000000E+00  0.00000000E+00
  0.00000000E+00  0.00000000E+00  0.00000000E+00  0.00000000E+00  0.00000000E+00
Coordinates of each shell                  R   N=          84
 -5.73644318E+00  0.00000000E+00  0.00000000E+00 -5.73644318E+00  0.00000000E+00
  0.00000000E+00 -5.73644318E+00  0.00000000E+00  0.00000000E+00 -5.73644318E+00
  0.00000000E+00  0.00000000E+00 -5.73644318E+00  0.00000000E+00  0.00000000E+00
 -5.73644318E+00  0.00000000E+00  0.00000000E+00  5.73644318E+00  0.00000000E+00
  0.00000000E+00  5.73644318E+00  0.00000000E+00  0.00000000E+00  5.73644318E+00
  0.00000000E+00  0.00000000E+00  5.73644318E+00  0.00000000E+00  0.00000000E+00
  5.73644318E+00  0.00000000E+00  0.00000000E+00  5.73644318E+00  0.00000000E+00
  0.00000000E+00 -7.06089404E+00 -1.62613979E+00 -9.08113455E-10 -7.06089404E+00
 -1.62613979E+00 -9.08113455E-10 -7.06089404E+00 -1.62613979E+00 -9.08113455E-10
 -7.06089404E+00 -1.62613979E+00 -9.08113455E-10 -7.06084259E+00  1.62618363E+00
 -8.35396790E-10 -7.06084259E+00  1.62618363E+00 -8.35396790E-10 -7.06084259E+00
  1.62618363E+00 -8.35396790E-10 -7.06084259E+00  1.62618363E+00 -8.35396790E-10
  7.06089404E+00  1.62613979E+00 -3.28262102E-10  7.06089404E+00  1.62613979E+00
 -3.28262102E-10  7.06089404E+00  1.62613979E+00 -3.28262102E-10  7.06089404E+00
  1.62613979E+00 -3.28262102E-10  7.06084259E+00 -1.62618363E+00 -2.55415542E-10
  7.06084259E+00 -1.62618363E+00 -2.55415542E-10  7.06084259E+00 -1.62618363E+00
 -2.55415542E-10  7.06084259E+00 -1.62618363E+00 -2.55415542E-10
Num ILSW                                   I              100
ILSW                                       I   N=         100
           1           0           0           1           2           0
           0           0           0           0        4336          -1
           7           0           0           0           2           0
           0           0           0           0           1           0
           1           1           0           0           0           0
           0           0      100000           0          -1           0
           0           0           0           0           0           0
           0           0           0           1           0           0
           0 -2000000000           1           0           0           0
           0           0           4          52           0           0
           0           0          55           0           0           0
           0           0           0           6           0           1
           0           0           0           0           0           0
           0           0           0           0           0           0
           0           0           0           0           0           0
           0           0           0           0           0           0
           0           0           0           0
Num RLSW                                   I               52
RLSW                                       R   N=          52
  1.00000000E+00  1.00000000E+00  1.00000000E+00  1.00000000E+00  5.40000000E-01
  0.00000000E+00  0.00000000E+00  1.00000000E+00  0.00000000E+00  0.00000000E+00
  0.00000000E+00  0.00000000E+00  1.00000000E+00  0.00000000E+00  0.00000000E+00
  0.00000000E+00  0.00000000E+00  1.00000000E+00  0.00000000E+00  0.00000000E+00
  0.00000000E+00  0.00000000E+00  1.00000000E+00  0.00000000E+00  0.00000000E+00
  0.00000000E+00  0.00000000E+00  1.00000000E+00  0.00000000E+00  0.00000000E+00
  0.00000000E+00  0.00000000E+00  1.00000000E+00  0.00000000E+00  0.00000000E+00
  0.00000000E+00  0.00000000E+00  0.00000000E+00  1.00000000E+00  1.00000000E+00
  0.00000000E+00  1.00000000E+00  0.00000000E+00  0.00000000E+00  0.00000000E+00
  0.00000000E+00  0.00000000E+00  0.00000000E+00  0.00000000E+00  0.00000000E+00
  0.00000000E+00  0.00000000E+00
MxBond                                     I                3
NBond                                      I   N=           6
           3           3           1           1           1           1
IBond                                      I   N=          18
           2           3           4           1           5           6
           1           0           0           1           0           0
           2           0           0           2           0           0
RBond                                      R   N=          18
  1.00000000E-01  1.00000000E+00  1.00000000E+00  1.00000000E-01  1.00000000E+00
  1.00000000E+00  1.00000000E+00  0.00000000E+00  0.00000000E+00  1.00000000E+00
  0.00000000E+00  0.00000000E+00  1.00000000E+00  0.00000000E+00  0.00000000E+00
  1.00000000E+00  0.00000000E+00  0.00000000E+00
Virial Ratio                               R      2.003500680834171E+00
SCF Energy                                 R     -7.823650943391314E+01
Total Energy                               R     -7.823650943391314E+01
S**2                                       R     -3.907985046680551E-14
S**2 after annihilation                    R      2.238209617644280E-13
RMS Force                                  R      1.062069634578723E-05
RMS Density                                R      1.271923670835533E-09
Job Status                                 I                1
Nuclear derivative order                   I                1
External E-field                           R   N=          35
  0.00000000E+00  0.00000000E+00  0.00000000E+00  0.00000000E+00  0.00000000E+00
  0.00000000E+00  0.00000000E+00  0.00000000E+00  0.00000000E+00  0.00000000E+00
  0.00000000E+00  0.00000000E+00  0.00000000E+00  0.00000000E+00  0.00000000E+00
  0.00000000E+00  0.00000000E+00  0.00000000E+00  0.00000000E+00  0.00000000E+00
  0.00000000E+00  0.00000000E+00  0.00000000E+00  0.00000000E+00  0.00000000E+00
  0.00000000E+00  0.00000000E+00  0.00000000E+00  0.00000000E+00  0.00000000E+00
  0.00000000E+00  0.00000000E+00  0.00000000E+00  0.00000000E+00  0.00000000E+00
IOpCl                                      I                1
IROHF                                      I                0
Alpha Orbital Energies                     R   N=          68
 -1.06027733E+01 -1.06027726E+01 -7.52013003E-01 -7.52011357E-01 -4.70323854E-01
 -4.70318704E-01 -3.08808755E-01 -3.07940276E-01 -7.74125249E-02 -7.69066604E-02
  2.57757821E-02  2.63282081E-02  6.26128341E-02  7.91342014E-02  8.19642254E-02
  8.31057808E-02  9.70208909E-02  1.47474134E-01  1.75458882E-01  1.87914121E-01
  1.98238160E-01  2.00211719E-01  4.36662863E-01  4.60781343E-01  4.87359641E-01
  4.95061705E-01  5.88235578E-01  5.98602854E-01  6.27081945E-01  6.29809684E-01
  6.39303014E-01  6.57285980E-01  7.30602339E-01  7.61462835E-01  1.09451806E+00
  1.09720153E+00  1.10931744E+00  1.10931745E+00  1.19701392E+00  1.19732077E+00
  1.55779901E+00  1.55941671E+00  1.57247451E+00  1.57468497E+00  1.62849714E+00
  1.63972485E+00  1.86955354E+00  1.86955355E+00  1.88373523E+00  1.88442970E+00
  2.13911801E+00  2.13998961E+00  2.36881189E+00  2.36916827E+00  2.45029501E+00
  2.47257426E+00  2.50589382E+00  2.50592417E+00  2.55776765E+00  2.56308057E+00
  2.75250318E+00  2.76004035E+00  3.06977755E+00  3.09955116E+00  3.59261387E+00
  3.59264544E+00  2.37725576E+01  2.37761312E+01
Beta Orbital Energies                      R   N=          68
 -1.06027733E+01 -1.06027726E+01 -7.52013003E-01 -7.52011357E-01 -4.70323854E-01
 -4.70318704E-01 -3.08808755E-01 -3.07940276E-01 -7.74125249E-02 -7.69066604E-02
  2.57757821E-02  2.63282081E-02  6.26128341E-02  7.91342014E-02  8.19642254E-02
  8.31057808E-02  9.70208909E-02  1.47474134E-01  1.75458882E-01  1.87914121E-01
  1.98238160E-01  2.00211719E-01  4.36662863E-01  4.60781343E-01  4.87359641E-01
  4.95061705E-01  5.88235578E-01  5.98602854E-01  6.27081945E-01  6.29809684E-01
  6.39303014E-01  6.57285980E-01  7.30602339E-01  7.61462835E-01  1.09451806E+00
  1.09720153E+00  1.10931744E+00  1.10931745E+00  1.19701392E+00  1.19732077E+00
  1.55779901E+00  1.55941671E+00  1.57247451E+00  1.57468497E+00  1.62849714E+00
  1.63972485E+00  1.86955354E+00  1.86955355E+00  1.88373523E+00  1.88442970E+00
  2.13911801E+00  2.13998961E+00  2.36881189E+00  2.36916827E+00  2.45029501E+00
  2.47257426E+00  2.50589382E+00  2.50592417E+00  2.55776765E+00  2.56308057E+00
  2.75250318E+00  2.76004035E+00  3.06977755E+00  3.09955116E+00  3.59261387E+00
  3.59264544E+00  2.37725576E+01  2.37761312E+01
Alpha MO coefficients                      R   N=        4624
  3.98867748E-01  3.28256529E-01 -1.54125879E-03  2.51513853E-08 -8.94826233E-13
  7.77741584E-03 -1.10247404E-03  1.00688203E-08 -7.77755079E-13 -2.90397078E-03
 -1.55859780E-04  3.34207481E-09 -1.35946275E-14 -3.10099621E-04  8.04493110E-04
 -5.21729076E-09  3.95762961E-13 -6.88539522E-04  6.26905690E-13  3.82908080E-14
 -2.41861655E-04  1.19630857E-08 -3.98867759E-01 -3.28256538E-01 -1.54125883E-03
  2.51513846E-08  2.10513807E-13 -7.77741605E-03 -1.10247407E-03  1.00688256E-08
  2.97032486E-13  2.90397085E-03 -1.55859781E-04  3.34207071E-09  7.27289937E-15
  3.10099636E-04  8.04493124E-04 -5.21729393E-09 -1.51612286E-13  6.88539541E-04
  2.30067855E-13  3.87742230E-14  2.41861662E-04 -1.19630843E-08  2.46634103E-04
 -1.90187706E-03  1.63535154E-03 -7.72984234E-04 -9.93319110E-04 -5.27580756E-13
  2.46634617E-04 -1.90185962E-03  1.63532829E-03 -7.72947503E-04  9.93338671E-04
 -4.86915301E-13 -2.46634110E-04  1.90187711E-03 -1.63535158E-03 -7.72984255E-04
 -9.93319137E-04  1.79793209E-13 -2.46634624E-04  1.90185968E-03 -1.63532834E-03
 -7.72947523E-04  9.93338698E-04  1.40139920E-13  3.98867653E-01  3.28262054E-01
 -1.52158210E-03  2.45363349E-08 -8.91330770E-13  7.71909295E-03 -1.18847975E-03
  1.30778171E-08 -8.01509537E-13 -2.65352149E-03 -1.80922798E-05 -1.54251385E-10
 -1.03000732E-14 -5.76435114E-04  5.33392993E-04 -1.06650477E-08  3.82358863E-13
 -7.01270285E-04  6.41367631E-13  3.91034476E-14 -2.48715820E-04  1.14545864E-08
  3.98867643E-01  3.28262045E-01  1.52158205E-03 -2.45363334E-08 -2.03683013E-13
  7.71909274E-03  1.18847972E-03 -1.30778170E-08 -3.23011100E-13 -2.65352141E-03
  1.80922757E-05  1.54253799E-10  3.46841799E-14 -5.76435106E-04 -5.33392971E-04
  1.06650510E-08  9.38986715E-14 -7.01270267E-04 -2.33602599E-13 -3.94874349E-14
 -2.48715814E-04  1.14545861E-08  2.47166613E-04 -1.94284402E-03  1.64762436E-03
 -7.84480405E-04 -1.01203793E-03 -5.36469268E-13  2.47168452E-04 -1.94283484E-03
  1.64762504E-03 -7.84443494E-04  1.01205844E-03 -4.94362333E-13  2.47166606E-04
 -1.94284397E-03  1.64762431E-03  7.84480384E-04  1.01203790E-03 -1.84071745E-13
  2.47168445E-04 -1.94283479E-03  1.64762500E-03  7.84443473E-04 -1.01205842E-03
 -1.43786626E-13 -7.40315439E-02 -1.19133487E-01 -4.81823485E-02  6.86362726E-07
 -3.12138621E-11  3.24948283E-01 -7.23671649E-02  1.06461788E-06 -4.58191818E-11
  2.23219688E-01 -3.13943613E-02  4.54577848E-07 -2.06962269E-11  3.24754265E-03
 -4.01909133E-03  8.16228168E-09 -9.56715287E-13 -5.18920954E-03  6.05796100E-12
  5.87497331E-14 -1.66705747E-05  1.71664330E-08  7.40315438E-02  1.19133487E-01
 -4.81823485E-02  6.86362720E-07  9.91479625E-12 -3.24948282E-01 -7.23671649E-02
  1.06461786E-06  1.46525186E-11 -2.23219688E-01 -3.13943612E-02  4.54577857E-07
  6.12514904E-12 -3.24754264E-03 -4.01909133E-03  8.16229760E-09  3.59417754E-13
  5.18920953E-03  2.05519703E-12  5.83681828E-14  1.66705747E-05 -1.71664330E-08
  8.07811488E-02  9.79372408E-02  5.86661352E-03  6.64628921E-03  1.17508119E-02
  4.64706895E-12  8.07809815E-02  9.79370403E-02  5.86671917E-03  6.64589600E-03
 -1.17510144E-02  4.19480345E-12 -8.07811487E-02 -9.79372407E-02 -5.86661351E-03
  6.64628920E-03  1.17508119E-02 -1.67778273E-12 -8.07809814E-02 -9.79370402E-02
 -5.86671916E-03  6.64589599E-03 -1.17510144E-02 -1.22405539E-12 -7.40349878E-02
 -1.19158989E-01 -4.82674500E-02  6.88437633E-07 -3.12230722E-11  3.25340265E-01
 -7.18826537E-02  1.05033507E-06 -4.57641178E-11  2.21666241E-01 -3.27922777E-02
  4.74574489E-07 -2.07377960E-11  4.65650526E-03 -1.52558622E-03  5.14290088E-08
 -8.28051054E-13 -5.16814066E-03  6.04026380E-12  5.78206801E-14  8.90975546E-06
  2.14863578E-08 -7.40349879E-02 -1.19158989E-01  4.82674500E-02 -6.88437628E-07
 -9.93257682E-12  3.25340265E-01  7.18826538E-02 -1.05033506E-06 -1.45596848E-11
  2.21666242E-01  3.27922777E-02 -4.74574490E-07 -6.37851156E-12  4.65650526E-03
  1.52558623E-03 -5.14290184E-08  3.63581004E-14 -5.16814067E-03 -2.05256464E-12
 -5.75223151E-14  8.90975544E-06  2.14863584E-08  8.08048566E-02  9.78433243E-02
  6.15359179E-03  6.71400551E-03  1.17930170E-02  4.67463328E-12  8.08046827E-02
  9.78431829E-02  6.15351894E-03  6.71361475E-03 -1.17932247E-02  4.21921895E-12
  8.08048567E-02  9.78433244E-02  6.15359180E-03 -6.71400552E-03 -1.17930170E-02
  1.69395538E-12  8.08046828E-02  9.78431830E-02  6.15351895E-03 -6.71361476E-03
  1.17932247E-02  1.23773607E-12 -3.51708579E-08 -5.87370993E-08  2.37502773E-06
  1.46109538E-01  3.17467807E-12  1.65489907E-07  3.51468490E-06  2.17929545E-01
  4.63194668E-12  3.32123456E-07  1.85127538E-06  1.17873381E-01  2.31635498E-12
  1.80280162E-08 -5.05553591E-08 -9.46361980E-04 -1.18673606E-14  3.88057799E-09
 -6.35902625E-13 -2.05457712E-11 -1.03997976E-06 -3.24559166E-02  3.51708580E-08
  5.87371000E-08  2.37502770E-06  1.46109538E-01 -3.18188959E-12 -1.65489902E-07
  3.51468487E-06  2.17929545E-01 -4.64185499E-12 -3.32123494E-07  1.85127534E-06
  1.17873380E-01 -2.29361827E-12 -1.80280329E-08 -5.05553646E-08 -9.46361975E-04
 -2.01679161E-14 -3.88057652E-09 -6.30284505E-13 -6.42893326E-12  1.03997975E-06
  3.24559165E-02 -1.03796851E-01 -1.60316202E-01 -8.17701498E-02 -8.20629840E-03
 -3.18391018E-03 -5.38109661E-12  1.03796900E-01  1.60316286E-01  8.17701037E-02
  8.20619500E-03 -3.18419040E-03  5.30688512E-12  1.03796851E-01  1.60316201E-01
  8.17701496E-02 -8.20629838E-03 -3.18391017E-03  1.72605637E-12 -1.03796900E-01
 -1.60316285E-01 -8.17701034E-02  8.20619498E-03 -3.18419039E-03 -1.69708107E-12
 -3.56221718E-08 -5.96090183E-08  2.37699445E-06  1.46106812E-01  3.17456940E-12
  1.71717347E-07  3.52370477E-06  2.17991469E-01  4.63417141E-12  3.12796335E-07
  1.84530410E-06  1.17894065E-01  2.31330719E-12  5.56334705E-08 -3.45563120E-08
 -1.79201850E-03 -2.28128997E-14  5.20948124E-09 -6.36783553E-13 -2.05759492E-11
 -1.04137604E-06 -3.25016639E-02 -3.56221718E-08 -5.96090189E-08 -2.37699444E-06
 -1.46106812E-01  3.18184918E-12  1.71717344E-07 -3.52370476E-06 -2.17991469E-01
  4.64433599E-12  3.12796363E-07 -1.84530408E-06 -1.17894066E-01  2.28782865E-12
  5.56334811E-08  3.45563163E-08  1.79201850E-03  1.49863632E-14  5.20948000E-09
  6.30935371E-13  6.43982212E-12 -1.04137604E-06 -3.25016640E-02 -1.03827508E-01
 -1.60056993E-01 -8.26388066E-02 -8.18941475E-03 -3.17076146E-03 -5.36973694E-12
  1.03827555E-01  1.60057086E-01  8.26387456E-02  8.18931335E-03 -3.17104302E-03
  5.29561529E-12 -1.03827509E-01 -1.60056993E-01 -8.26388068E-02  8.18941477E-03
  3.17076147E-03 -1.72192174E-12  1.03827555E-01  1.60057086E-01  8.26387459E-02
 -8.18931337E-03  3.17104303E-03  1.69457657E-12 -3.91911537E-02 -6.50854508E-02
  1.61600513E-01 -2.60090165E-06  1.01985647E-10  1.89279523E-01  2.32884568E-01
 -3.75707221E-06  1.47155548E-10  2.99249840E-01  2.10891092E-01 -3.51270078E-06
  1.31152091E-10  4.00203266E-02  3.41464234E-02 -7.08329371E-07  2.39009302E-11
  1.76644493E-02 -2.93683529E-11 -3.89613377E-13 -1.68068220E-02  5.35223139E-07
 -3.91911537E-02 -6.50854508E-02 -1.61600513E-01  2.60090163E-06  3.09235004E-11
  1.89279523E-01 -2.32884568E-01  3.75707219E-06  4.40637600E-11  2.99249840E-01
 -2.10891092E-01  3.51270074E-06  3.96501085E-11  4.00203266E-02 -3.41464234E-02
  7.08329341E-07  5.41980909E-12  1.76644493E-02  8.60655315E-12  3.95673652E-13
 -1.68068220E-02  5.35223136E-07 -4.87936134E-02 -9.09455667E-02 -6.26283241E-02
  7.30270415E-03 -9.99397919E-03  4.20014304E-12 -4.87936249E-02 -9.09456163E-02
 -6.26280101E-02  7.30302553E-03  9.99374173E-03  4.66348622E-12 -4.87936134E-02
 -9.09455667E-02 -6.26283241E-02 -7.30270415E-03  9.99397919E-03  9.99270094E-13
 -4.87936249E-02 -9.09456163E-02 -6.26280101E-02 -7.30302553E-03 -9.99374173E-03
  1.49444563E-12 -3.94289015E-02 -6.55250021E-02  1.61999880E-01 -2.59809225E-06
  1.02531127E-10  1.91408111E-01  2.34440659E-01 -3.78882266E-06  1.48169725E-10
  2.96076969E-01  2.08836227E-01 -3.46297664E-06  1.31823708E-10  4.46494810E-02
  4.31507638E-02 -5.64685696E-07  2.55487643E-11  1.78170329E-02 -2.95485352E-11
 -3.93599989E-13 -1.68843500E-02  5.44362712E-07  3.94289015E-02  6.55250021E-02
  1.61999880E-01 -2.59809223E-06 -3.10310706E-11 -1.91408111E-01  2.34440659E-01
 -3.78882264E-06 -4.46491620E-11 -2.96076969E-01  2.08836227E-01 -3.46297660E-06
 -3.87512442E-11 -4.46494810E-02  4.31507638E-02 -5.64685670E-07 -7.95673959E-12
 -1.78170329E-02 -8.65478342E-12 -3.99506542E-13  1.68843500E-02 -5.44362708E-07
 -4.88515664E-02 -9.14626694E-02 -6.14051594E-02  7.48458669E-03 -9.92923393E-03
  4.30793478E-12 -4.88515796E-02 -9.14625575E-02 -6.14053870E-02  7.48491329E-03
  9.92898430E-03  4.76845784E-12  4.88515664E-02  9.14626694E-02  6.14051594E-02
  7.48458669E-03 -9.92923393E-03 -1.06244657E-12  4.88515796E-02  9.14625575E-02
  6.14053870E-02  7.48491329E-03  9.92898430E-03 -1.55391097E-12 -5.01152536E-13
 -7.10258549E-13 -1.03522882E-10 -3.52249093E-12  1.61416797E-01  6.89324809E-13
 -1.63974075E-10 -6.21525595E-12  2.55396476E-01  1.30860312E-11 -1.97546493E-10
 -9.41132868E-12  3.00344631E-01  1.17415683E-11 -1.17917298E-10 -5.46347616E-12
  1.82193989E-01 -1.91626661E-11 -1.73709037E-02  2.68784160E-07  1.11785551E-11
  9.64228276E-13 -1.23665066E-12 -2.06117504E-12  3.17359316E-11  3.51758115E-12
  1.61416797E-01  5.41620596E-12  5.01812816E-11  6.38277898E-12  2.55396476E-01
  2.11240268E-11  6.82184690E-11  9.59092612E-12  3.00344631E-01  1.77205458E-11
  3.61532356E-11  5.58162383E-12  1.82193989E-01 -5.88685878E-12  1.73709037E-02
 -2.68784157E-07  3.42194065E-12  1.05981535E-12 -1.48088823E-12 -4.48595228E-12
 -1.28643840E-11 -1.10443523E-11 -1.05712011E-12  1.63096203E-02 -1.15019193E-12
 -2.19673858E-12 -5.82819789E-12 -1.03840172E-11 -2.88494669E-13  1.63096085E-02
 -2.01884740E-12 -5.26445214E-12 -2.10679039E-11  3.85971922E-12  1.39821755E-12
  1.63096203E-02 -1.68170402E-12 -2.76340162E-12 -1.35433860E-11  2.96755825E-12
  4.79809972E-14  1.63096085E-02 -1.93049356E-13 -1.63211187E-13 -1.04544344E-10
 -3.53665836E-12  1.62408717E-01 -1.63105220E-12 -1.65907751E-10 -6.25045791E-12
  2.57047847E-01  1.52946958E-11 -1.98962373E-10 -9.53785791E-12  3.02010396E-01
  1.76791237E-11 -1.26875512E-10 -5.40238112E-12  1.82930397E-01 -1.94302343E-11
 -1.75758810E-02  2.70378965E-07  1.13652387E-11  9.75861308E-13  2.39456749E-13
  3.09832751E-13 -3.36184809E-11 -3.53268383E-12 -1.62408717E-01  1.29940280E-12
 -5.42593747E-11 -6.41697768E-12 -2.57047847E-01 -2.17307312E-11 -6.61629406E-11