 Entering Gaussian System, Link 0=g16
 Initial command:
 /home/szhao/Apps/g16/l1.exe "/home/szhao/tmp/Gau-97080.inp" -scrdir="/home/szhao/tmp/"
 Default is to use a total of  16 processors:
                               16 via shared-memory
                                1 via Linda
 Entering Link 1 = /home/szhao/Apps/g16/l1.exe PID=     97082.
  
 Copyright (c) 1988,1990,1992,1993,1995,1998,2003,2009,2016,
            Gaussian, Inc.  All Rights Reserved.
  
 This is part of the Gaussian(R) 16 program.  It is based on
 the Gaussian(R) 09 system (copyright 2009, Gaussian, Inc.),
 the Gaussian(R) 03 system (copyright 2003, Gaussian, Inc.),
 the Gaussian(R) 98 system (copyright 1998, Gaussian, Inc.),
 the Gaussian(R) 94 system (copyright 1995, Gaussian, Inc.),
 the Gaussian 92(TM) system (copyright 1992, Gaussian, Inc.),
 the Gaussian 90(TM) system (copyright 1990, Gaussian, Inc.),
 the Gaussian 88(TM) system (copyright 1988, Gaussian, Inc.),
 the Gaussian 86(TM) system (copyright 1986, Carnegie Mellon
 University), and the Gaussian 82(TM) system (copyright 1983,
 Carnegie Mellon University). Gaussian is a federally registered
 trademark of Gaussian, Inc.
  
 This software contains proprietary and confidential information,
 including trade secrets, belonging to Gaussian, Inc.
  
 This software is provided under written license and may be
 used, copied, transmitted, or stored only in accord with that
 written license.
  
 The following legend is applicable only to US Government
 contracts under FAR:
  
                    RESTRICTED RIGHTS LEGEND
  
 Use, reproduction and disclosure by the US Government is
 subject to restrictions as set forth in subparagraphs (a)
 and (c) of the Commercial Computer Software - Restricted
 Rights clause in FAR 52.227-19.
  
 Gaussian, Inc.
 340 Quinnipiac St., Bldg. 40, Wallingford CT 06492
  
  
 ---------------------------------------------------------------
 Warning -- This program may not be used in any manner that
 competes with the business of Gaussian, Inc. or will provide
 assistance to any competitor of Gaussian, Inc.  The licensee
 of this program is prohibited from giving any competitor of
 Gaussian, Inc. access to this program.  By using this program,
 the user acknowledges that Gaussian, Inc. is engaged in the
 business of creating and licensing software in the field of
 computational chemistry and represents and warrants to the
 licensee that it is not a competitor of Gaussian, Inc. and that
 it will not use this program in any manner prohibited above.
 ---------------------------------------------------------------
  

 Cite this work as:
 Gaussian 16, Revision A.03,
 M. J. Frisch, G. W. Trucks, H. B. Schlegel, G. E. Scuseria, 
 M. A. Robb, J. R. Cheeseman, G. Scalmani, V. Barone, 
 G. A. Petersson, H. Nakatsuji, X. Li, M. Caricato, A. V. Marenich, 
 J. Bloino, B. G. Janesko, R. Gomperts, B. Mennucci, H. P. Hratchian, 
 J. V. Ortiz, A. F. Izmaylov, J. L. Sonnenberg, D. Williams-Young, 
 F. Ding, F. Lipparini, F. Egidi, J. Goings, B. Peng, A. Petrone, 
 T. Henderson, D. Ranasinghe, V. G. Zakrzewski, J. Gao, N. Rega, 
 G. Zheng, W. Liang, M. Hada, M. Ehara, K. Toyota, R. Fukuda, 
 J. Hasegawa, M. Ishida, T. Nakajima, Y. Honda, O. Kitao, H. Nakai, 
 T. Vreven, K. Throssell, J. A. Montgomery, Jr., J. E. Peralta, 
 F. Ogliaro, M. J. Bearpark, J. J. Heyd, E. N. Brothers, K. N. Kudin, 
 V. N. Staroverov, T. A. Keith, R. Kobayashi, J. Normand, 
 K. Raghavachari, A. P. Rendell, J. C. Burant, S. S. Iyengar, 
 J. Tomasi, M. Cossi, J. M. Millam, M. Klene, C. Adamo, R. Cammi, 
 J. W. Ochterski, R. L. Martin, K. Morokuma, O. Farkas, 
 J. B. Foresman, and D. J. Fox, Gaussian, Inc., Wallingford CT, 2016.
 
 ******************************************
 Gaussian 16:  ES64L-G16RevA.03 25-Dec-2016
                19-Nov-2024 
 ******************************************
 %chk=opt.chk
 %mem=4GB
 %nprocshared=8
 Will use up to    8 processors via shared memory.
 --------------------------------------------
 #p opt UM062X/6-311+G** nosymm int=superfine
 --------------------------------------------
 1/18=20,19=15,26=5,38=1/1,3;
 2/9=110,12=2,15=1,17=6,18=5,40=1/2;
 3/5=4,6=6,7=111,11=2,25=1,30=1,71=1,74=-55,75=-7,116=2/1,2,3;
 4//1;
 5/5=2,38=5/2;
 6/7=2,8=2,9=2,10=2,28=1/1;
 7/30=1/1,2,3,16;
 1/18=20,19=15,26=5/3(2);
 2/9=110,15=1/2;
 99//99;
 2/9=110,15=1/2;
 3/5=4,6=6,7=111,11=2,25=1,30=1,71=1,74=-55,75=-7,116=2/1,2,3;
 4/5=5,16=3,69=1/1;
 5/5=2,38=5/2;
 7/30=1/1,2,3,16;
 1/18=20,19=15,26=5/3(-5);
 2/9=110,15=1/2;
 6/7=2,8=2,9=2,10=2,19=2,28=1/1;
 99/9=1/99;
 Leave Link    1 at Tue Nov 19 10:36:36 2024, MaxMem=   536870912 cpu:               0.3 elap:               0.0
 (Enter /home/szhao/Apps/g16/l101.exe)
 -------------------
 Title Card Required
 -------------------
 Symbolic Z-matrix:
 Charge =  0 Multiplicity = 1
 C                    -1   -0.67613   0.        0. 
 C                    -1    0.67613   0.        0. 
 H                    0    -1.25709  -0.92138   0. 
 H                    0    -1.2538    0.9257    0. 
 H                    0     1.25709   0.92138   0. 
 H                    0     1.2538   -0.9257    0. 
 
 ITRead=  2  2  0  0  0  0
 MicOpt= -2 -2 -1 -1 -1 -1
 NAtoms=      6 NQM=        4 NQMF=       2 NMMI=      0 NMMIF=      0
                NMic=       0 NMicF=      0.
                    Isotopes and Nuclear Properties:
 (Nuclear quadrupole moments (NQMom) in fm**2, nuclear magnetic moments (NMagM)
  in nuclear magnetons)

  Atom         1           2           3           4           5           6
 IAtWgt=          12          12           1           1           1           1
 AtmWgt=  12.0000000  12.0000000   1.0078250   1.0078250   1.0078250   1.0078250
 NucSpn=           0           0           1           1           1           1
 AtZEff=  -0.0000000  -0.0000000  -0.0000000  -0.0000000  -0.0000000  -0.0000000
 NQMom=    0.0000000   0.0000000   0.0000000   0.0000000   0.0000000   0.0000000
 NMagM=    0.0000000   0.0000000   2.7928460   2.7928460   2.7928460   2.7928460
 AtZNuc=   6.0000000   6.0000000   1.0000000   1.0000000   1.0000000   1.0000000
 Leave Link  101 at Tue Nov 19 10:36:36 2024, MaxMem=   536870912 cpu:               2.5 elap:               0.3
 (Enter /home/szhao/Apps/g16/l103.exe)

 GradGradGradGradGradGradGradGradGradGradGradGradGradGradGradGradGradGrad
 Berny optimization.
 Initialization pass.
                           ----------------------------
                           !    Initial Parameters    !
                           ! (Angstroms and Degrees)  !
 --------------------------                            --------------------------
 ! Name  Definition              Value          Derivative Info.                !
 --------------------------------------------------------------------------------
 ! X1    R(1,-1)                -0.6761         Frozen                          !
 ! Y1    R(1,-2)                 0.0            Frozen                          !
 ! Z1    R(1,-3)                 0.0            Frozen                          !
 ! X2    R(2,-1)                 0.6761         Frozen                          !
 ! Y2    R(2,-2)                 0.0            Frozen                          !
 ! Z2    R(2,-3)                 0.0            Frozen                          !
 ! R1    R(1,3)                  1.0892         estimate D2E/DX2                !
 ! R2    R(1,4)                  1.0912         estimate D2E/DX2                !
 ! R3    R(2,5)                  1.0892         estimate D2E/DX2                !
 ! R4    R(2,6)                  1.0912         estimate D2E/DX2                !
 ! A1    A(2,1,3)              122.2329         estimate D2E/DX2                !
 ! A2    A(2,1,4)              121.9655         estimate D2E/DX2                !
 ! A3    A(3,1,4)              115.8016         estimate D2E/DX2                !
 ! A4    A(1,2,5)              122.2329         estimate D2E/DX2                !
 ! A5    A(1,2,6)              121.9655         estimate D2E/DX2                !
 ! A6    A(5,2,6)              115.8016         estimate D2E/DX2                !
 ! D1    D(3,1,2,5)            180.0            estimate D2E/DX2                !
 ! D2    D(3,1,2,6)              0.0            estimate D2E/DX2                !
 ! D3    D(4,1,2,5)              0.0            estimate D2E/DX2                !
 ! D4    D(4,1,2,6)            180.0            estimate D2E/DX2                !
 --------------------------------------------------------------------------------
 Trust Radius=3.00D-01 FncErr=1.00D-07 GrdErr=1.00D-07 EigMax=2.50D+02 EigMin=1.00D-04
 Number of steps in this run=     30 maximum allowed number of steps=    100.
 GradGradGradGradGradGradGradGradGradGradGradGradGradGradGradGradGradGrad

 Leave Link  103 at Tue Nov 19 10:36:36 2024, MaxMem=   536870912 cpu:               0.1 elap:               0.0
 (Enter /home/szhao/Apps/g16/l202.exe)
                          Input orientation:                          
 ---------------------------------------------------------------------
 Center     Atomic      Atomic             Coordinates (Angstroms)
 Number     Number       Type             X           Y           Z
 ---------------------------------------------------------------------
      1          6           0       -0.676129    0.000000    0.000000
      2          6           0        0.676129    0.000000    0.000000
      3          1           0       -1.257094   -0.921382    0.000000
      4          1           0       -1.253799    0.925704    0.000000
      5          1           0        1.257094    0.921382    0.000000
      6          1           0        1.253799   -0.925704    0.000000
 ---------------------------------------------------------------------
                    Distance matrix (angstroms):
                    1          2          3          4          5
     1  C    0.000000
     2  C    1.352259   0.000000
     3  H    1.089250   2.141564   0.000000
     4  H    1.091160   2.140456   1.847089   0.000000
     5  H    2.141564   1.089250   3.117197   2.510897   0.000000
     6  H    2.140456   1.091160   2.510897   3.117012   1.847089
                    6
     6  H    0.000000
 Symmetry turned off by external request.
 Stoichiometry    C2H4
 Framework group  C2H[SGH(C2H4)]
 Deg. of freedom     5
 Full point group                 C2H     NOp   4
 Rotational constants (GHZ):         146.9791243          29.1695706          24.3391979
 Leave Link  202 at Tue Nov 19 10:36:36 2024, MaxMem=   536870912 cpu:               0.0 elap:               0.0
 (Enter /home/szhao/Apps/g16/l301.exe)
 Standard basis: 6-311+G(d,p) (5D, 7F)
 Ernie: Thresh=  0.10000D-02 Tol=  0.10000D-05 Strict=F.
    68 basis functions,   104 primitive gaussians,    70 cartesian basis functions
     8 alpha electrons        8 beta electrons
       nuclear repulsion energy        33.0031670554 Hartrees.
 IExCor= 4336 DFT=T Ex+Corr=M062X ExCW=0 ScaHFX=  0.540000
 ScaDFX=  1.000000  1.000000  1.000000  1.000000 ScalE2=  1.000000  1.000000
 IRadAn=      7 IRanWt=     -1 IRanGd=            0 ICorTp=0 IEmpDi=  4
 NAtoms=    6 NActive=    6 NUniq=    6 SFac= 1.00D+00 NAtFMM=   60 NAOKFM=F Big=F
 Integral buffers will be    131072 words long.
 Raffenetti 2 integral format.
 Two-electron integral symmetry is turned off.
 Leave Link  301 at Tue Nov 19 10:36:36 2024, MaxMem=   536870912 cpu:               0.3 elap:               0.0
 (Enter /home/szhao/Apps/g16/l302.exe)
 NPDir=0 NMtPBC=     1 NCelOv=     1 NCel=       1 NClECP=     1 NCelD=      1
         NCelK=      1 NCelE2=     1 NClLst=     1 CellRange=     0.0.
 One-electron integrals computed using PRISM.
 NBasis=    68 RedAO= T EigKep=  1.62D-04  NBF=    68
 NBsUse=    68 1.00D-06 EigRej= -1.00D+00 NBFU=    68
 Precomputing XC quadrature grid using
 IXCGrd= 4 IRadAn=           7 IRanWt=          -1 IRanGd=           0 AccXCQ= 0.00D+00.
 Generated NRdTot=       0 NPtTot=           0 NUsed=           0 NTot=          32
 NSgBfM=    70    70    70    70    70 MxSgAt=     6 MxSgA2=     6.
 Leave Link  302 at Tue Nov 19 10:36:36 2024, MaxMem=   536870912 cpu:               1.1 elap:               0.1
 (Enter /home/szhao/Apps/g16/l303.exe)
 DipDrv:  MaxL=1.
 Leave Link  303 at Tue Nov 19 10:36:36 2024, MaxMem=   536870912 cpu:               0.3 elap:               0.0
 (Enter /home/szhao/Apps/g16/l401.exe)
 ExpMin= 4.38D-02 ExpMax= 4.56D+03 ExpMxC= 6.82D+02 IAcc=3 IRadAn=         7 AccDes= 0.00D+00
 Harris functional with IExCor= 1009 and IRadAn=       7 diagonalized for initial guess.
 HarFok:  IExCor= 1009 AccDes= 0.00D+00 IRadAn=         7 IDoV= 1 UseB2=F ITyADJ=14
 ICtDFT=  3500011 ScaDFX=  1.000000  1.000000  1.000000  1.000000
 FoFCou: FMM=F IPFlag=           0 FMFlag=      100000 FMFlg1=           0
         NFxFlg=           0 DoJE=T BraDBF=F KetDBF=T FulRan=T
         wScrn=  0.000000 ICntrl=       500 IOpCl=  0 I1Cent=   200000004 NGrid=           0
         NMat0=    1 NMatS0=      1 NMatT0=    0 NMatD0=    1 NMtDS0=    0 NMtDT0=    0
 Symmetry not used in FoFCou.
 Harris En= -78.5622659185663    
 JPrj=0 DoOrth=F DoCkMO=F.
 Initial guess <Sx>= 0.0000 <Sy>= 0.0000 <Sz>= 0.0000 <S**2>=-0.0000 S=-0.0000
 Leave Link  401 at Tue Nov 19 10:36:37 2024, MaxMem=   536870912 cpu:               2.8 elap:               0.4
 (Enter /home/szhao/Apps/g16/l502.exe)
 Keep R1 and R2 ints in memory in canonical form, NReq=12681614.
 FoFCou: FMM=F IPFlag=           0 FMFlag=           0 FMFlg1=           0
         NFxFlg=           0 DoJE=F BraDBF=F KetDBF=F FulRan=T
         wScrn=  0.000000 ICntrl=       600 IOpCl=  0 I1Cent=           0 NGrid=           0
         NMat0=    1 NMatS0=   2346 NMatT0=    0 NMatD0=    1 NMtDS0=    0 NMtDT0=    0
 Symmetry not used in FoFCou.
 Two-electron integral symmetry not used.
 UHF open shell SCF:
 Using DIIS extrapolation, IDIIS=  1040.
 NGot=   536870912 LenX=   531353794 LenY=   531348453
 Requested convergence on RMS density matrix=1.00D-08 within 128 cycles.
 Requested convergence on MAX density matrix=1.00D-06.
 Requested convergence on             energy=1.00D-06.
 No special actions if energy rises.

 Cycle   1  Pass 1  IDiag  1:
 E= -78.4740822443760    
 DIIS: error= 5.08D-02 at cycle   1 NSaved=   1.
 NSaved= 1 IEnMin= 1 EnMin= -78.4740822443760     IErMin= 1 ErrMin= 5.08D-02
 ErrMax= 5.08D-02  0.00D+00 EMaxC= 1.00D-01 BMatC= 3.65D-01 BMatP= 3.65D-01
 IDIUse=3 WtCom= 4.92D-01 WtEn= 5.08D-01
 Coeff-Com:  0.100D+01
 Coeff-En:   0.100D+01
 Coeff:      0.100D+01
 Gap=     0.367 Goal=   None    Shift=    0.000
 Gap=     0.367 Goal=   None    Shift=    0.000
 GapD=    0.367 DampG=1.000 DampE=0.500 DampFc=0.5000 IDamp=-1.
 Damping current iteration by 5.00D-01
 RMSDP=4.61D-03 MaxDP=8.93D-02              OVMax= 1.73D-01

 Cycle   2  Pass 1  IDiag  1:
 E= -78.5206494509468     Delta-E=       -0.046567206571 Rises=F Damp=T
 DIIS: error= 1.12D-02 at cycle   2 NSaved=   2.
 NSaved= 2 IEnMin= 2 EnMin= -78.5206494509468     IErMin= 2 ErrMin= 1.12D-02
 ErrMax= 1.12D-02  0.00D+00 EMaxC= 1.00D-01 BMatC= 1.66D-02 BMatP= 3.65D-01
 IDIUse=3 WtCom= 8.88D-01 WtEn= 1.12D-01
 Coeff-Com: -0.136D+00 0.114D+01
 Coeff-En:   0.000D+00 0.100D+01
 Coeff:     -0.121D+00 0.112D+01
 Gap=     0.366 Goal=   None    Shift=    0.000
 Gap=     0.366 Goal=   None    Shift=    0.000
 RMSDP=8.67D-04 MaxDP=7.94D-03 DE=-4.66D-02 OVMax= 8.17D-02

 Cycle   3  Pass 1  IDiag  1:
 E= -78.5624596625668     Delta-E=       -0.041810211620 Rises=F Damp=F
 DIIS: error= 2.22D-03 at cycle   3 NSaved=   3.
 NSaved= 3 IEnMin= 3 EnMin= -78.5624596625668     IErMin= 3 ErrMin= 2.22D-03
 ErrMax= 2.22D-03  0.00D+00 EMaxC= 1.00D-01 BMatC= 4.07D-04 BMatP= 1.66D-02
 IDIUse=3 WtCom= 9.78D-01 WtEn= 2.22D-02
 Coeff-Com: -0.367D-01 0.105D+00 0.931D+00
 Coeff-En:   0.000D+00 0.000D+00 0.100D+01
 Coeff:     -0.359D-01 0.103D+00 0.933D+00
 Gap=     0.354 Goal=   None    Shift=    0.000
 Gap=     0.354 Goal=   None    Shift=    0.000
 RMSDP=1.05D-04 MaxDP=9.63D-04 DE=-4.18D-02 OVMax= 4.16D-03

 Cycle   4  Pass 1  IDiag  1:
 E= -78.5625638202931     Delta-E=       -0.000104157726 Rises=F Damp=F
 DIIS: error= 2.42D-04 at cycle   4 NSaved=   4.
 NSaved= 4 IEnMin= 4 EnMin= -78.5625638202931     IErMin= 4 ErrMin= 2.42D-04
 ErrMax= 2.42D-04  0.00D+00 EMaxC= 1.00D-01 BMatC= 5.20D-06 BMatP= 4.07D-04
 IDIUse=3 WtCom= 9.98D-01 WtEn= 2.42D-03
 Coeff-Com: -0.285D-02 0.547D-02 0.123D+00 0.874D+00
 Coeff-En:   0.000D+00 0.000D+00 0.000D+00 0.100D+01
 Coeff:     -0.284D-02 0.545D-02 0.123D+00 0.875D+00
 Gap=     0.354 Goal=   None    Shift=    0.000
 Gap=     0.354 Goal=   None    Shift=    0.000
 RMSDP=1.50D-05 MaxDP=2.17D-04 DE=-1.04D-04 OVMax= 4.82D-04

 Cycle   5  Pass 1  IDiag  1:
 E= -78.5625651410956     Delta-E=       -0.000001320802 Rises=F Damp=F
 DIIS: error= 2.38D-05 at cycle   5 NSaved=   5.
 NSaved= 5 IEnMin= 5 EnMin= -78.5625651410956     IErMin= 5 ErrMin= 2.38D-05
 ErrMax= 2.38D-05  0.00D+00 EMaxC= 1.00D-01 BMatC= 9.27D-08 BMatP= 5.20D-06
 IDIUse=1 WtCom= 1.00D+00 WtEn= 0.00D+00
 Coeff-Com:  0.114D-02-0.279D-02-0.258D-01-0.316D-01 0.106D+01
 Coeff:      0.114D-02-0.279D-02-0.258D-01-0.316D-01 0.106D+01
 Gap=     0.354 Goal=   None    Shift=    0.000
 Gap=     0.354 Goal=   None    Shift=    0.000
 RMSDP=3.40D-06 MaxDP=3.17D-05 DE=-1.32D-06 OVMax= 9.51D-05

 Cycle   6  Pass 1  IDiag  1:
 E= -78.5625651791130     Delta-E=       -0.000000038017 Rises=F Damp=F
 DIIS: error= 4.32D-06 at cycle   6 NSaved=   6.
 NSaved= 6 IEnMin= 6 EnMin= -78.5625651791130     IErMin= 6 ErrMin= 4.32D-06
 ErrMax= 4.32D-06  0.00D+00 EMaxC= 1.00D-01 BMatC= 7.83D-10 BMatP= 9.27D-08
 IDIUse=1 WtCom= 1.00D+00 WtEn= 0.00D+00
 Coeff-Com: -0.110D-03 0.223D-03 0.116D-02-0.435D-02-0.957D-01 0.110D+01
 Coeff:     -0.110D-03 0.223D-03 0.116D-02-0.435D-02-0.957D-01 0.110D+01
 Gap=     0.354 Goal=   None    Shift=    0.000
 Gap=     0.354 Goal=   None    Shift=    0.000
 RMSDP=4.99D-07 MaxDP=7.56D-06 DE=-3.80D-08 OVMax= 1.21D-05

 Cycle   7  Pass 1  IDiag  1:
 E= -78.5625651795379     Delta-E=       -0.000000000425 Rises=F Damp=F
 DIIS: error= 2.96D-07 at cycle   7 NSaved=   7.
 NSaved= 7 IEnMin= 7 EnMin= -78.5625651795379     IErMin= 7 ErrMin= 2.96D-07
 ErrMax= 2.96D-07  0.00D+00 EMaxC= 1.00D-01 BMatC= 4.39D-12 BMatP= 7.83D-10
 IDIUse=1 WtCom= 1.00D+00 WtEn= 0.00D+00
 Coeff-Com:  0.162D-05 0.325D-07-0.228D-04 0.385D-04 0.242D-02-0.808D-01
 Coeff-Com:  0.108D+01
 Coeff:      0.162D-05 0.325D-07-0.228D-04 0.385D-04 0.242D-02-0.808D-01
 Coeff:      0.108D+01
 Gap=     0.354 Goal=   None    Shift=    0.000
 Gap=     0.354 Goal=   None    Shift=    0.000
 RMSDP=5.40D-08 MaxDP=7.44D-07 DE=-4.25D-10 OVMax= 9.09D-07

 Cycle   8  Pass 1  IDiag  1:
 E= -78.5625651795405     Delta-E=       -0.000000000003 Rises=F Damp=F
 DIIS: error= 2.17D-08 at cycle   8 NSaved=   8.
 NSaved= 8 IEnMin= 8 EnMin= -78.5625651795405     IErMin= 8 ErrMin= 2.17D-08
 ErrMax= 2.17D-08  0.00D+00 EMaxC= 1.00D-01 BMatC= 6.74D-14 BMatP= 4.39D-12
 IDIUse=1 WtCom= 1.00D+00 WtEn= 0.00D+00
 Coeff-Com:  0.105D-05-0.195D-05-0.509D-05 0.384D-04 0.390D-03-0.466D-02
 Coeff-Com: -0.411D-01 0.105D+01
 Coeff:      0.105D-05-0.195D-05-0.509D-05 0.384D-04 0.390D-03-0.466D-02
 Coeff:     -0.411D-01 0.105D+01
 Gap=     0.354 Goal=   None    Shift=    0.000
 Gap=     0.354 Goal=   None    Shift=    0.000
 RMSDP=4.70D-09 MaxDP=5.24D-08 DE=-2.56D-12 OVMax= 7.23D-08

 SCF Done:  E(UM062X) =  -78.5625651795     A.U. after    8 cycles
            NFock=  8  Conv=0.47D-08     -V/T= 2.0060
 <Sx>= 0.0000 <Sy>= 0.0000 <Sz>= 0.0000 <S**2>=-0.0000 S=-0.0000
 <L.S>=  0.00000000000    
 KE= 7.809594622871D+01 PE=-2.476240064567D+02 EE= 5.796232799305D+01
 Annihilation of the first spin contaminant:
 S**2 before annihilation    -0.0000,   after     0.0000
 Leave Link  502 at Tue Nov 19 10:36:42 2024, MaxMem=   536870912 cpu:              42.2 elap:               5.4
 (Enter /home/szhao/Apps/g16/l601.exe)
 Copying SCF densities to generalized density rwf, IOpCl= 1 IROHF=0.

 **********************************************************************

            Population analysis using the SCF density.

 **********************************************************************

 Alpha  occ. eigenvalues --  -10.54465 -10.54365  -0.85442  -0.66509  -0.53769
 Alpha  occ. eigenvalues --   -0.48554  -0.41929  -0.33134
 Alpha virt. eigenvalues --    0.02302   0.03363   0.03993   0.05208   0.07778
 Alpha virt. eigenvalues --    0.08167   0.09735   0.13261   0.16029   0.17406
 Alpha virt. eigenvalues --    0.19649   0.22790   0.31122   0.35468   0.43586
 Alpha virt. eigenvalues --    0.44709   0.55057   0.55401   0.58110   0.64078
 Alpha virt. eigenvalues --    0.65439   0.74113   0.74811   0.75105   0.79354
 Alpha virt. eigenvalues --    0.90277   1.05463   1.14226   1.16731   1.42099
 Alpha virt. eigenvalues --    1.46716   1.48810   1.61141   1.62438   1.63525
 Alpha virt. eigenvalues --    1.65012   1.79976   1.82211   1.99675   2.04665
 Alpha virt. eigenvalues --    2.12578   2.16683   2.18024   2.25413   2.38190
 Alpha virt. eigenvalues --    2.46928   2.56274   2.58088   2.66687   2.70911
 Alpha virt. eigenvalues --    2.78677   2.80972   2.94433   3.14762   3.44127
 Alpha virt. eigenvalues --    3.68368   3.85632   4.15327  23.82826  24.26406
  Beta  occ. eigenvalues --  -10.54465 -10.54365  -0.85442  -0.66509  -0.53769
  Beta  occ. eigenvalues --   -0.48554  -0.41929  -0.33134
  Beta virt. eigenvalues --    0.02302   0.03363   0.03993   0.05208   0.07778
  Beta virt. eigenvalues --    0.08167   0.09735   0.13261   0.16029   0.17406
  Beta virt. eigenvalues --    0.19649   0.22790   0.31122   0.35468   0.43586
  Beta virt. eigenvalues --    0.44709   0.55057   0.55401   0.58110   0.64078
  Beta virt. eigenvalues --    0.65439   0.74113   0.74811   0.75105   0.79354
  Beta virt. eigenvalues --    0.90277   1.05463   1.14226   1.16731   1.42099
  Beta virt. eigenvalues --    1.46716   1.48810   1.61141   1.62438   1.63525
  Beta virt. eigenvalues --    1.65012   1.79976   1.82211   1.99675   2.04665
  Beta virt. eigenvalues --    2.12578   2.16683   2.18024   2.25413   2.38190
  Beta virt. eigenvalues --    2.46928   2.56274   2.58088   2.66687   2.70911
  Beta virt. eigenvalues --    2.78677   2.80972   2.94433   3.14762   3.44127
  Beta virt. eigenvalues --    3.68368   3.85632   4.15327  23.82826  24.26406
          Condensed to atoms (all electrons):
               1          2          3          4          5          6
     1  C    4.882720   0.668303   0.403876   0.403796  -0.028719  -0.029148
     2  C    0.668303   4.882720  -0.028719  -0.029148   0.403876   0.403796
     3  H    0.403876  -0.028719   0.506122  -0.029540   0.005120  -0.007497
     4  H    0.403796  -0.029148  -0.029540   0.507015  -0.007497   0.005186
     5  H   -0.028719   0.403876   0.005120  -0.007497   0.506122  -0.029540
     6  H   -0.029148   0.403796  -0.007497   0.005186  -0.029540   0.507015
          Atomic-Atomic Spin Densities.
               1          2          3          4          5          6
     1  C    0.000000   0.000000   0.000000  -0.000000   0.000000   0.000000
     2  C    0.000000  -0.000000  -0.000000   0.000000  -0.000000  -0.000000
     3  H    0.000000  -0.000000  -0.000000  -0.000000  -0.000000   0.000000
     4  H   -0.000000   0.000000  -0.000000   0.000000  -0.000000  -0.000000
     5  H    0.000000  -0.000000  -0.000000  -0.000000   0.000000   0.000000
     6  H    0.000000  -0.000000   0.000000  -0.000000   0.000000   0.000000
 Mulliken charges and spin densities:
               1          2
     1  C   -0.300827   0.000000
     2  C   -0.300827  -0.000000
     3  H    0.150638  -0.000000
     4  H    0.150189   0.000000
     5  H    0.150638   0.000000
     6  H    0.150189   0.000000
 Sum of Mulliken charges =  -0.00000  -0.00000
 Mulliken charges and spin densities with hydrogens summed into heavy atoms:
               1          2
     1  C   -0.000000   0.000000
     2  C    0.000000  -0.000000
 Electronic spatial extent (au):  <R**2>=             84.4389
 Charge=             -0.0000 electrons
 Dipole moment (field-independent basis, Debye):
    X=              0.0000    Y=             -0.0000    Z=             -0.0000  Tot=              0.0000
 Quadrupole moment (field-independent basis, Debye-Ang):
   XX=            -12.1218   YY=            -12.3973   ZZ=            -16.0351
   XY=              0.0092   XZ=              0.0000   YZ=              0.0000
 Traceless Quadrupole moment (field-independent basis, Debye-Ang):
   XX=              1.3963   YY=              1.1207   ZZ=             -2.5170
   XY=              0.0092   XZ=              0.0000   YZ=              0.0000
 Octapole moment (field-independent basis, Debye-Ang**2):
  XXX=             -0.0000  YYY=             -0.0000  ZZZ=             -0.0000  XYY=             -0.0000
  XXY=             -0.0000  XXZ=             -0.0000  XZZ=              0.0000  YZZ=              0.0000
  YYZ=              0.0000  XYZ=              0.0000
 Hexadecapole moment (field-independent basis, Debye-Ang**3):
 XXXX=            -70.4757 YYYY=            -27.4695 ZZZZ=            -20.5681 XXXY=              0.0696
 XXXZ=              0.0000 YYYX=              0.0162 YYYZ=              0.0000 ZZZX=              0.0000
 ZZZY=              0.0000 XXYY=            -13.3734 XXZZ=            -16.4038 YYZZ=             -8.7518
 XXYZ=              0.0000 YYXZ=              0.0000 ZZXY=              0.0118
 N-N= 3.300316705536D+01 E-N=-2.476240073756D+02  KE= 7.809594622871D+01
                          Isotropic Fermi Contact Couplings
        Atom                 a.u.       MegaHertz       Gauss      10(-4) cm-1
     1  C(13)             -0.00000      -0.00000      -0.00000      -0.00000
     2  C(13)             -0.00000      -0.00000      -0.00000      -0.00000
     3  H(1)               0.00000       0.00000       0.00000       0.00000
     4  H(1)               0.00000       0.00000       0.00000       0.00000
     5  H(1)               0.00000       0.00000       0.00000       0.00000
     6  H(1)               0.00000       0.00000       0.00000       0.00000
 --------------------------------------------------------
       Center         ----  Spin Dipole Couplings  ----
                      3XX-RR        3YY-RR        3ZZ-RR
 --------------------------------------------------------
     1   Atom        0.000000      0.000000      0.000000
     2   Atom        0.000000      0.000000      0.000000
     3   Atom        0.000000      0.000000      0.000000
     4   Atom        0.000000      0.000000      0.000000
     5   Atom        0.000000      0.000000      0.000000
     6   Atom        0.000000      0.000000      0.000000
 --------------------------------------------------------
                        XY            XZ            YZ
 --------------------------------------------------------
     1   Atom        0.000000      0.000000      0.000000
     2   Atom        0.000000      0.000000      0.000000
     3   Atom        0.000000      0.000000      0.000000
     4   Atom        0.000000      0.000000      0.000000
     5   Atom        0.000000      0.000000      0.000000
     6   Atom        0.000000      0.000000      0.000000
 --------------------------------------------------------


 ---------------------------------------------------------------------------------
              Anisotropic Spin Dipole Couplings in Principal Axis System
 ---------------------------------------------------------------------------------

       Atom             a.u.   MegaHertz   Gauss  10(-4) cm-1        Axes

              Baa     0.0000     0.000     0.000     0.000  1.0000  0.0000  0.0000
     1 C(13)  Bbb     0.0000     0.000     0.000     0.000 -0.0000  1.0000  0.0000
              Bcc     0.0000     0.000     0.000     0.000  0.0000  0.0000  1.0000
 
              Baa     0.0000     0.000     0.000     0.000  1.0000  0.0000  0.0000
     2 C(13)  Bbb     0.0000     0.000     0.000     0.000 -0.0000  1.0000  0.0000
              Bcc     0.0000     0.000     0.000     0.000  0.0000  0.0000  1.0000
 
              Baa     0.0000     0.000     0.000     0.000  1.0000  0.0000  0.0000
     3 H(1)   Bbb     0.0000     0.000     0.000     0.000 -0.0000  1.0000  0.0000
              Bcc     0.0000     0.000     0.000     0.000  0.0000  0.0000  1.0000
 
              Baa     0.0000     0.000     0.000     0.000  1.0000  0.0000  0.0000
     4 H(1)   Bbb     0.0000     0.000     0.000     0.000 -0.0000  1.0000  0.0000
              Bcc     0.0000     0.000     0.000     0.000  0.0000  0.0000  1.0000
 
              Baa     0.0000     0.000     0.000     0.000  1.0000  0.0000  0.0000
     5 H(1)   Bbb     0.0000     0.000     0.000     0.000 -0.0000  1.0000  0.0000
              Bcc     0.0000     0.000     0.000     0.000  0.0000  0.0000  1.0000
 
              Baa     0.0000     0.000     0.000     0.000  1.0000  0.0000  0.0000
     6 H(1)   Bbb     0.0000     0.000     0.000     0.000 -0.0000  1.0000  0.0000
              Bcc     0.0000     0.000     0.000     0.000  0.0000  0.0000  1.0000
 

 ---------------------------------------------------------------------------------

 No NMR shielding tensors so no spin-rotation constants.
 Leave Link  601 at Tue Nov 19 10:36:42 2024, MaxMem=   536870912 cpu:               1.0 elap:               0.1
 (Enter /home/szhao/Apps/g16/l701.exe)
 ... and contract with generalized density number  0.
 Compute integral first derivatives.
 Leave Link  701 at Tue Nov 19 10:36:42 2024, MaxMem=   536870912 cpu:               0.7 elap:               0.1
 (Enter /home/szhao/Apps/g16/l702.exe)
 L702 exits ... SP integral derivatives will be done elsewhere.
 Leave Link  702 at Tue Nov 19 10:36:42 2024, MaxMem=   536870912 cpu:               0.3 elap:               0.0
 (Enter /home/szhao/Apps/g16/l703.exe)
 Integral derivatives from FoFJK, PRISM(SPDF).
 Compute integral first derivatives, UseDBF=F ICtDFT=           0.
 Calling FoFJK, ICntrl=      2127 FMM=F ISym2X=0 I1Cent= 0 IOpClX= 1 NMat=1 NMatS=1 NMatT=0.
 FoFJK:  IHMeth= 1 ICntrl=    2127 DoSepK=F KAlg= 0 I1Cent=           0 FoldK=F
 IRaf=         0 NMat=       1 IRICut=       1 DoRegI=T DoRafI=F ISym2E= 0 IDoP0=0 IntGTp=1.
 FoFCou: FMM=F IPFlag=           0 FMFlag=      100000 FMFlg1=         800
         NFxFlg=           0 DoJE=F BraDBF=F KetDBF=F FulRan=T
         wScrn=  0.000000 ICntrl=      2127 IOpCl=  1 I1Cent=           0 NGrid=           0
         NMat0=    1 NMatS0=      1 NMatT0=    0 NMatD0=    1 NMtDS0=    0 NMtDT0=    0
 Symmetry not used in FoFCou.
 Leave Link  703 at Tue Nov 19 10:36:44 2024, MaxMem=   536870912 cpu:               9.7 elap:               1.2
 (Enter /home/szhao/Apps/g16/l716.exe)
 Dipole        = 2.34923192D-13-6.21724894D-15-4.17334189D-16
 -------------------------------------------------------------------
 Center     Atomic                   Forces (Hartrees/Bohr)
 Number     Number              X              Y              Z
 -------------------------------------------------------------------
      1        6          -0.000000000   -0.000000000   -0.000000000
      2        6          -0.000000000   -0.000000000   -0.000000000
      3        1           0.003870353    0.001890373    0.000000000
      4        1           0.004232219   -0.003037954    0.000000000
      5        1          -0.003870353   -0.001890373   -0.000000000
      6        1          -0.004232219    0.003037954    0.000000000
 -------------------------------------------------------------------
 Cartesian Forces:  Max     0.004232219 RMS     0.002253244
 Leave Link  716 at Tue Nov 19 10:36:44 2024, MaxMem=   536870912 cpu:               0.3 elap:               0.0
 (Enter /home/szhao/Apps/g16/l103.exe)

 GradGradGradGradGradGradGradGradGradGradGradGradGradGradGradGradGradGrad
 Berny optimization.
 FormGI is forming the generalized inverse of G from B-inverse, IUseBI=4.
 Internal  Forces:  Max     0.008102572 RMS     0.003431734
 Search for a local minimum.
 Step number   1 out of a maximum of   30
 All quantities printed in internal units (Hartrees-Bohrs-Radians)
 RMS Force = .26608D-02 SwitMx=.10000D-02 MixMth= 1
 Mixed Optimization -- RFO/linear search
 Second derivative matrix not updated -- first step.
 The second derivative matrix:
                          X1        Y1        Z1        X2        Y2
           X1           0.50000
           Y1           0.00000   0.50000
           Z1           0.00000   0.00000   0.50000
           X2           0.00000   0.00000   0.00000   0.50000
           Y2           0.00000   0.00000   0.00000   0.00000   0.50000
           Z2           0.00000   0.00000   0.00000   0.00000   0.00000
           R1           0.00000   0.00000   0.00000   0.00000   0.00000
           R2           0.00000   0.00000   0.00000   0.00000   0.00000
           R3           0.00000   0.00000   0.00000   0.00000   0.00000
           R4           0.00000   0.00000   0.00000   0.00000   0.00000
           A1           0.00000   0.00000   0.00000   0.00000   0.00000
           A2           0.00000   0.00000   0.00000   0.00000   0.00000
           A3           0.00000   0.00000   0.00000   0.00000   0.00000
           A4           0.00000   0.00000   0.00000   0.00000   0.00000
           A5           0.00000   0.00000   0.00000   0.00000   0.00000
           A6           0.00000   0.00000   0.00000   0.00000   0.00000
           D1           0.00000   0.00000   0.00000   0.00000   0.00000
           D2           0.00000   0.00000   0.00000   0.00000   0.00000
           D3           0.00000   0.00000   0.00000   0.00000   0.00000
           D4           0.00000   0.00000   0.00000   0.00000   0.00000
                          Z2        R1        R2        R3        R4
           Z2           0.50000
           R1           0.00000   0.34900
           R2           0.00000   0.00000   0.34679
           R3           0.00000   0.00000   0.00000   0.34900
           R4           0.00000   0.00000   0.00000   0.00000   0.34679
           A1           0.00000   0.00000   0.00000   0.00000   0.00000
           A2           0.00000   0.00000   0.00000   0.00000   0.00000
           A3           0.00000   0.00000   0.00000   0.00000   0.00000
           A4           0.00000   0.00000   0.00000   0.00000   0.00000
           A5           0.00000   0.00000   0.00000   0.00000   0.00000
           A6           0.00000   0.00000   0.00000   0.00000   0.00000
           D1           0.00000   0.00000   0.00000   0.00000   0.00000
           D2           0.00000   0.00000   0.00000   0.00000   0.00000
           D3           0.00000   0.00000   0.00000   0.00000   0.00000
           D4           0.00000   0.00000   0.00000   0.00000   0.00000
                          A1        A2        A3        A4        A5
           A1           0.16000
           A2           0.00000   0.16000
           A3           0.00000   0.00000   0.16000
           A4           0.00000   0.00000   0.00000   0.16000
           A5           0.00000   0.00000   0.00000   0.00000   0.16000
           A6           0.00000   0.00000   0.00000   0.00000   0.00000
           D1           0.00000   0.00000   0.00000   0.00000   0.00000
           D2           0.00000   0.00000   0.00000   0.00000   0.00000
           D3           0.00000   0.00000   0.00000   0.00000   0.00000
           D4           0.00000   0.00000   0.00000   0.00000   0.00000
                          A6        D1        D2        D3        D4
           A6           0.16000
           D1           0.00000   0.02720
           D2           0.00000   0.00000   0.02720
           D3           0.00000   0.00000   0.00000   0.02720
           D4           0.00000   0.00000   0.00000   0.00000   0.02720
 ITU=  0
     Eigenvalues ---    0.02720   0.02720   0.02720   0.16000   0.16000
     Eigenvalues ---    0.16000   0.16000   0.34679   0.34679   0.34900
     Eigenvalues ---    0.349001000.000001000.000001000.000001000.00000
     Eigenvalues --- 1000.000001000.000001000.000001000.000001000.00000
 RFO step:  Lambda=-3.71781140D-04 EMin= 2.72027930D-02
 Linear search not attempted -- first point.
 Iteration  1 RMS(Cart)=  0.01014575 RMS(Int)=  0.00005796
 Iteration  2 RMS(Cart)=  0.00006161 RMS(Int)=  0.00000000
 Iteration  3 RMS(Cart)=  0.00000000 RMS(Int)=  0.00000000
 ITry= 1 IFail=0 DXMaxC= 2.45D-02 DCOld= 1.00D+10 DXMaxT= 3.00D-01 DXLimC= 3.00D+00 Rises=F
 Variable       Old X    -DE/DX   Delta X   Delta X   Delta X     New X
                                 (Linear)    (Quad)   (Total)
    X1       -1.27770   0.00810   0.00000   0.00000   0.00000  -1.27770
    Y1        0.00000  -0.00160   0.00000   0.00000   0.00000   0.00000
    Z1        0.00000   0.00000   0.00000   0.00000   0.00000   0.00000
    X2        1.27770  -0.00810   0.00000   0.00000   0.00000   1.27770
    Y2        0.00000   0.00160   0.00000   0.00000   0.00000   0.00000
    Z2        0.00000  -0.00000   0.00000   0.00000   0.00000   0.00000
    R1        2.05838  -0.00366   0.00000  -0.01049  -0.01049   2.04790
    R2        2.06199  -0.00482   0.00000  -0.01388  -0.01388   2.04812
    R3        2.05838  -0.00366   0.00000  -0.01049  -0.01049   2.04790
    R4        2.06199  -0.00482   0.00000  -0.01388  -0.01388   2.04812
    A1        2.13337  -0.00175   0.00000  -0.01089  -0.01089   2.12248
    A2        2.12870  -0.00117   0.00000  -0.00730  -0.00730   2.12140
    A3        2.02112   0.00292   0.00000   0.01819   0.01819   2.03931
    A4        2.13337  -0.00175   0.00000  -0.01089  -0.01089   2.12248
    A5        2.12870  -0.00117   0.00000  -0.00730  -0.00730   2.12140
    A6        2.02112   0.00292   0.00000   0.01819   0.01819   2.03931
    D1        3.14159  -0.00000   0.00000   0.00000   0.00000   3.14159
    D2        0.00000   0.00000   0.00000   0.00000   0.00000   0.00000
    D3        0.00000  -0.00000   0.00000  -0.00000  -0.00000   0.00000
    D4        3.14159  -0.00000   0.00000  -0.00000   0.00000   3.14159
         Item               Value     Threshold  Converged?
 Maximum Force            0.004818     0.000450     NO 
 RMS     Force            0.002661     0.000300     NO 
 Maximum Displacement     0.024524     0.001800     NO 
 RMS     Displacement     0.010136     0.001200     NO 
 Predicted change in Energy=-1.861904D-04
 Lowest energy point so far.  Saving SCF results.
 GradGradGradGradGradGradGradGradGradGradGradGradGradGradGradGradGradGrad

 Leave Link  103 at Tue Nov 19 10:36:44 2024, MaxMem=   536870912 cpu:               0.0 elap:               0.0
 (Enter /home/szhao/Apps/g16/l202.exe)
                          Input orientation:                          
 ---------------------------------------------------------------------
 Center     Atomic      Atomic             Coordinates (Angstroms)
 Number     Number       Type             X           Y           Z
 ---------------------------------------------------------------------
      1          6           0       -0.676129    0.000000    0.000000
      2          6           0        0.676129    0.000000    0.000000
      3          1           0       -1.244117   -0.922929    0.000000
      4          1           0       -1.243186    0.923636    0.000000
      5          1           0        1.244117    0.922929   -0.000000
      6          1           0        1.243186   -0.923636   -0.000000
 ---------------------------------------------------------------------
                    Distance matrix (angstroms):
                    1          2          3          4          5
     1  C    0.000000
     2  C    1.352259   0.000000
     3  H    1.083701   2.130526   0.000000
     4  H    1.083816   2.129995   1.846565   0.000000
     5  H    2.130526   1.083701   3.098144   2.487303   0.000000
     6  H    2.129995   1.083816   2.487303   3.097494   1.846565
                    6
     6  H    0.000000
 Symmetry turned off by external request.
 Stoichiometry    C2H4
 Framework group  C2H[SGH(C2H4)]
 Deg. of freedom     5
 Full point group                 C2H     NOp   4
 Rotational constants (GHZ):         147.0627523          29.3710376          24.4816236
 Leave Link  202 at Tue Nov 19 10:36:44 2024, MaxMem=   536870912 cpu:               0.0 elap:               0.0
 (Enter /home/szhao/Apps/g16/l301.exe)
 Standard basis: 6-311+G(d,p) (5D, 7F)
 Ernie: Thresh=  0.10000D-02 Tol=  0.10000D-05 Strict=F.
    68 basis functions,   104 primitive gaussians,    70 cartesian basis functions
     8 alpha electrons        8 beta electrons
       nuclear repulsion energy        33.1086578688 Hartrees.
 IExCor= 4336 DFT=T Ex+Corr=M062X ExCW=0 ScaHFX=  0.540000
 ScaDFX=  1.000000  1.000000  1.000000  1.000000 ScalE2=  1.000000  1.000000
 IRadAn=      7 IRanWt=     -1 IRanGd=            0 ICorTp=0 IEmpDi=  4
 NAtoms=    6 NActive=    6 NUniq=    6 SFac= 1.00D+00 NAtFMM=   60 NAOKFM=F Big=F
 Integral buffers will be    131072 words long.
 Raffenetti 2 integral format.
 Two-electron integral symmetry is turned off.
 Leave Link  301 at Tue Nov 19 10:36:44 2024, MaxMem=   536870912 cpu:               0.3 elap:               0.0
 (Enter /home/szhao/Apps/g16/l302.exe)
 NPDir=0 NMtPBC=     1 NCelOv=     1 NCel=       1 NClECP=     1 NCelD=      1
         NCelK=      1 NCelE2=     1 NClLst=     1 CellRange=     0.0.
 One-electron integrals computed using PRISM.
 NBasis=    68 RedAO= T EigKep=  1.60D-04  NBF=    68
 NBsUse=    68 1.00D-06 EigRej= -1.00D+00 NBFU=    68
 Precomputing XC quadrature grid using
 IXCGrd= 4 IRadAn=           7 IRanWt=          -1 IRanGd=           0 AccXCQ= 0.00D+00.
 Generated NRdTot=       0 NPtTot=           0 NUsed=           0 NTot=          32
 NSgBfM=    70    70    70    70    70 MxSgAt=     6 MxSgA2=     6.
 Leave Link  302 at Tue Nov 19 10:36:44 2024, MaxMem=   536870912 cpu:               1.0 elap:               0.1
 (Enter /home/szhao/Apps/g16/l303.exe)
 DipDrv:  MaxL=1.
 Leave Link  303 at Tue Nov 19 10:36:44 2024, MaxMem=   536870912 cpu:               0.3 elap:               0.0
 (Enter /home/szhao/Apps/g16/l401.exe)
 Initial guess from the checkpoint file:  "opt.chk"
 B after Tr=    -0.000000    0.000000    0.000000
         Rot=    1.000000   -0.000000   -0.000000   -0.000440 Ang=  -0.05 deg.
 Guess basis will be translated and rotated to current coordinates.
 JPrj=2 DoOrth=T DoCkMO=T.
 Initial guess <Sx>= 0.0000 <Sy>= 0.0000 <Sz>= 0.0000 <S**2>=-0.0000 S=-0.0000
 Generating alternative initial guess.
 ExpMin= 4.38D-02 ExpMax= 4.56D+03 ExpMxC= 6.82D+02 IAcc=3 IRadAn=         5 AccDes= 0.00D+00
 Harris functional with IExCor= 1009 and IRadAn=       5 diagonalized for initial guess.
 HarFok:  IExCor= 1009 AccDes= 0.00D+00 IRadAn=         5 IDoV= 1 UseB2=F ITyADJ=14
 ICtDFT=  3500011 ScaDFX=  1.000000  1.000000  1.000000  1.000000
 FoFCou: FMM=F IPFlag=           0 FMFlag=      100000 FMFlg1=           0
         NFxFlg=           0 DoJE=T BraDBF=F KetDBF=T FulRan=T
         wScrn=  0.000000 ICntrl=       500 IOpCl=  0 I1Cent=   200000004 NGrid=           0
         NMat0=    1 NMatS0=      1 NMatT0=    0 NMatD0=    1 NMtDS0=    0 NMtDT0=    0
 Symmetry not used in FoFCou.
 Harris En= -78.5645218271965    
 Leave Link  401 at Tue Nov 19 10:36:44 2024, MaxMem=   536870912 cpu:               2.0 elap:               0.3
 (Enter /home/szhao/Apps/g16/l502.exe)
 Keep R1 and R2 ints in memory in canonical form, NReq=12681614.
 FoFCou: FMM=F IPFlag=           0 FMFlag=           0 FMFlg1=           0
         NFxFlg=           0 DoJE=F BraDBF=F KetDBF=F FulRan=T
         wScrn=  0.000000 ICntrl=       600 IOpCl=  0 I1Cent=           0 NGrid=           0
         NMat0=    1 NMatS0=   2346 NMatT0=    0 NMatD0=    1 NMtDS0=    0 NMtDT0=    0
 Symmetry not used in FoFCou.
 Two-electron integral symmetry not used.
 UHF open shell SCF:
 Using DIIS extrapolation, IDIIS=  1040.
 NGot=   536870912 LenX=   531353794 LenY=   531348453
 Requested convergence on RMS density matrix=1.00D-08 within 128 cycles.
 Requested convergence on MAX density matrix=1.00D-06.
 Requested convergence on             energy=1.00D-06.
 No special actions if energy rises.

 Cycle   1  Pass 1  IDiag  1:
 E= -78.5627443080011    
 DIIS: error= 1.06D-03 at cycle   1 NSaved=   1.
 NSaved= 1 IEnMin= 1 EnMin= -78.5627443080011     IErMin= 1 ErrMin= 1.06D-03
 ErrMax= 1.06D-03  0.00D+00 EMaxC= 1.00D-01 BMatC= 1.46D-04 BMatP= 1.46D-04
 IDIUse=3 WtCom= 9.89D-01 WtEn= 1.06D-02
 Coeff-Com:  0.100D+01
 Coeff-En:   0.100D+01
 Coeff:      0.100D+01
 Gap=     0.561 Goal=   None    Shift=    0.000
 Gap=     0.561 Goal=   None    Shift=    0.000
 GapD=    0.561 DampG=2.000 DampE=1.000 DampFc=2.0000 IDamp=-1.
 RMSDP=7.13D-05 MaxDP=5.22D-04              OVMax= 2.63D-03

 Cycle   2  Pass 1  IDiag  1:
 E= -78.5627775745665     Delta-E=       -0.000033266565 Rises=F Damp=F
 DIIS: error= 2.44D-04 at cycle   2 NSaved=   2.
 NSaved= 2 IEnMin= 2 EnMin= -78.5627775745665     IErMin= 2 ErrMin= 2.44D-04
 ErrMax= 2.44D-04  0.00D+00 EMaxC= 1.00D-01 BMatC= 9.87D-06 BMatP= 1.46D-04
 IDIUse=3 WtCom= 9.98D-01 WtEn= 2.44D-03
 Coeff-Com:  0.816D-01 0.918D+00
 Coeff-En:   0.000D+00 0.100D+01
 Coeff:      0.814D-01 0.919D+00
 Gap=     0.354 Goal=   None    Shift=    0.000
 Gap=     0.354 Goal=   None    Shift=    0.000
 RMSDP=2.37D-05 MaxDP=5.39D-04 DE=-3.33D-05 OVMax= 9.75D-04

 Cycle   3  Pass 1  IDiag  1:
 E= -78.5627793303035     Delta-E=       -0.000001755737 Rises=F Damp=F
 DIIS: error= 2.09D-04 at cycle   3 NSaved=   3.
 NSaved= 3 IEnMin= 3 EnMin= -78.5627793303035     IErMin= 3 ErrMin= 2.09D-04
 ErrMax= 2.09D-04  0.00D+00 EMaxC= 1.00D-01 BMatC= 3.96D-06 BMatP= 9.87D-06
 IDIUse=3 WtCom= 9.98D-01 WtEn= 2.09D-03
 Coeff-Com: -0.202D-01 0.380D+00 0.640D+00
 Coeff-En:   0.000D+00 0.177D+00 0.823D+00
 Coeff:     -0.201D-01 0.380D+00 0.640D+00
 Gap=     0.354 Goal=   None    Shift=    0.000
 Gap=     0.354 Goal=   None    Shift=    0.000
 RMSDP=8.94D-06 MaxDP=1.71D-04 DE=-1.76D-06 OVMax= 3.08D-04

 Cycle   4  Pass 1  IDiag  1:
 E= -78.5627803490505     Delta-E=       -0.000001018747 Rises=F Damp=F
 DIIS: error= 1.39D-05 at cycle   4 NSaved=   4.
 NSaved= 4 IEnMin= 4 EnMin= -78.5627803490505     IErMin= 4 ErrMin= 1.39D-05
 ErrMax= 1.39D-05  0.00D+00 EMaxC= 1.00D-01 BMatC= 1.28D-08 BMatP= 3.96D-06
 IDIUse=1 WtCom= 1.00D+00 WtEn= 0.00D+00
 Coeff-Com: -0.338D-02-0.766D-02 0.232D-01 0.988D+00
 Coeff:     -0.338D-02-0.766D-02 0.232D-01 0.988D+00
 Gap=     0.354 Goal=   None    Shift=    0.000
 Gap=     0.354 Goal=   None    Shift=    0.000
 RMSDP=1.01D-06 MaxDP=9.24D-06 DE=-1.02D-06 OVMax= 4.21D-05

 Cycle   5  Pass 1  IDiag  1:
 E= -78.5627803547626     Delta-E=       -0.000000005712 Rises=F Damp=F
 DIIS: error= 1.97D-06 at cycle   5 NSaved=   5.
 NSaved= 5 IEnMin= 5 EnMin= -78.5627803547626     IErMin= 5 ErrMin= 1.97D-06
 ErrMax= 1.97D-06  0.00D+00 EMaxC= 1.00D-01 BMatC= 5.44D-10 BMatP= 1.28D-08
 IDIUse=1 WtCom= 1.00D+00 WtEn= 0.00D+00
 Coeff-Com:  0.122D-03-0.127D-01-0.188D-01 0.107D+00 0.924D+00
 Coeff:      0.122D-03-0.127D-01-0.188D-01 0.107D+00 0.924D+00
 Gap=     0.354 Goal=   None    Shift=    0.000
 Gap=     0.354 Goal=   None    Shift=    0.000
 RMSDP=1.79D-07 MaxDP=1.35D-06 DE=-5.71D-09 OVMax= 6.82D-06

 Cycle   6  Pass 1  IDiag  1:
 E= -78.5627803549581     Delta-E=       -0.000000000196 Rises=F Damp=F
 DIIS: error= 2.26D-07 at cycle   6 NSaved=   6.
 NSaved= 6 IEnMin= 6 EnMin= -78.5627803549581     IErMin= 6 ErrMin= 2.26D-07
 ErrMax= 2.26D-07  0.00D+00 EMaxC= 1.00D-01 BMatC= 3.41D-12 BMatP= 5.44D-10
 IDIUse=1 WtCom= 1.00D+00 WtEn= 0.00D+00
 Coeff-Com:  0.480D-04 0.849D-03 0.638D-03-0.209D-01-0.791D-01 0.110D+01
 Coeff:      0.480D-04 0.849D-03 0.638D-03-0.209D-01-0.791D-01 0.110D+01
 Gap=     0.354 Goal=   None    Shift=    0.000
 Gap=     0.354 Goal=   None    Shift=    0.000
 RMSDP=3.52D-08 MaxDP=2.65D-07 DE=-1.96D-10 OVMax= 1.49D-06

 Cycle   7  Pass 1  IDiag  1:
 E= -78.5627803549614     Delta-E=       -0.000000000003 Rises=F Damp=F
 DIIS: error= 1.68D-08 at cycle   7 NSaved=   7.
 NSaved= 7 IEnMin= 7 EnMin= -78.5627803549614     IErMin= 7 ErrMin= 1.68D-08
 ErrMax= 1.68D-08  0.00D+00 EMaxC= 1.00D-01 BMatC= 3.33D-14 BMatP= 3.41D-12
 IDIUse=1 WtCom= 1.00D+00 WtEn= 0.00D+00
 Coeff-Com: -0.667D-05 0.374D-04 0.762D-04 0.113D-02 0.186D-03-0.104D+00
 Coeff-Com:  0.110D+01
 Coeff:     -0.667D-05 0.374D-04 0.762D-04 0.113D-02 0.186D-03-0.104D+00
 Coeff:      0.110D+01
 Gap=     0.354 Goal=   None    Shift=    0.000
 Gap=     0.354 Goal=   None    Shift=    0.000
 RMSDP=2.80D-09 MaxDP=2.12D-08 DE=-3.33D-12 OVMax= 1.33D-07

 SCF Done:  E(UM062X) =  -78.5627803550     A.U. after    7 cycles
            NFock=  7  Conv=0.28D-08     -V/T= 2.0055
 <Sx>= 0.0000 <Sy>= 0.0000 <Sz>= 0.0000 <S**2>=-0.0000 S=-0.0000
 <L.S>=  0.00000000000    
 KE= 7.813328375408D+01 PE=-2.478635699066D+02 EE= 5.805884792869D+01
 Annihilation of the first spin contaminant:
 S**2 before annihilation    -0.0000,   after     0.0000
 Leave Link  502 at Tue Nov 19 10:36:49 2024, MaxMem=   536870912 cpu:              35.9 elap:               4.6
 (Enter /home/szhao/Apps/g16/l701.exe)
 ... and contract with generalized density number  0.
 Compute integral first derivatives.
 Leave Link  701 at Tue Nov 19 10:36:49 2024, MaxMem=   536870912 cpu:               0.7 elap:               0.1
 (Enter /home/szhao/Apps/g16/l702.exe)
 L702 exits ... SP integral derivatives will be done elsewhere.
 Leave Link  702 at Tue Nov 19 10:36:49 2024, MaxMem=   536870912 cpu:               0.3 elap:               0.0
 (Enter /home/szhao/Apps/g16/l703.exe)
 Integral derivatives from FoFJK, PRISM(SPDF).
 Compute integral first derivatives, UseDBF=F ICtDFT=           0.
 Calling FoFJK, ICntrl=      2127 FMM=F ISym2X=0 I1Cent= 0 IOpClX= 1 NMat=1 NMatS=1 NMatT=0.
 FoFJK:  IHMeth= 1 ICntrl=    2127 DoSepK=F KAlg= 0 I1Cent=           0 FoldK=F
 IRaf=         0 NMat=       1 IRICut=       1 DoRegI=T DoRafI=F ISym2E= 0 IDoP0=0 IntGTp=1.
 FoFCou: FMM=F IPFlag=           0 FMFlag=      100000 FMFlg1=         800
         NFxFlg=           0 DoJE=F BraDBF=F KetDBF=F FulRan=T
         wScrn=  0.000000 ICntrl=      2127 IOpCl=  1 I1Cent=           0 NGrid=           0
         NMat0=    1 NMatS0=      1 NMatT0=    0 NMatD0=    1 NMtDS0=    0 NMtDT0=    0
 Symmetry not used in FoFCou.
 Leave Link  703 at Tue Nov 19 10:36:50 2024, MaxMem=   536870912 cpu:               9.7 elap:               1.2
 (Enter /home/szhao/Apps/g16/l716.exe)
 Dipole        =-9.88986670D-13 9.76996262D-15-9.95738983D-13
 -------------------------------------------------------------------
 Center     Atomic                   Forces (Hartrees/Bohr)
 Number     Number              X              Y              Z
 -------------------------------------------------------------------
      1        6          -0.000000000   -0.000000000   -0.000000000
      2        6          -0.000000000   -0.000000000   -0.000000000
      3        1           0.000661467   -0.000427879    0.000000000
      4        1           0.000628986    0.000342137   -0.000000000
      5        1          -0.000661467    0.000427879   -0.000000000
      6        1          -0.000628986   -0.000342137   -0.000000000
 -------------------------------------------------------------------
 Cartesian Forces:  Max     0.000661467 RMS     0.000354855
 Leave Link  716 at Tue Nov 19 10:36:50 2024, MaxMem=   536870912 cpu:               0.3 elap:               0.0
 (Enter /home/szhao/Apps/g16/l103.exe)

 GradGradGradGradGradGradGradGradGradGradGradGradGradGradGradGradGradGrad
 Berny optimization.
 Using GEDIIS/GDIIS optimizer.
 FormGI is forming the generalized inverse of G from B-inverse, IUseBI=4.
 Internal  Forces:  Max     0.001290453 RMS     0.000574209
 Search for a local minimum.
 Step number   2 out of a maximum of   30
 All quantities printed in internal units (Hartrees-Bohrs-Radians)
 RMS Force = .47676D-03 SwitMx=.10000D-02 MixMth= 2
 Mixed Optimization -- En-DIIS/RFO-DIIS
 Update second derivatives using D2CorX and points    1    2
 DE= -2.15D-04 DEPred=-1.86D-04 R= 1.16D+00
 TightC=F SS=  1.41D+00  RLast= 4.01D-02 DXNew= 5.0454D-01 1.2039D-01
 Trust test= 1.16D+00 RLast= 4.01D-02 DXMaxT set to 3.00D-01
 The second derivative matrix:
                          X1        Y1        Z1        X2        Y2
           X1           0.64750
           Y1          -0.03024   0.50620
           Z1          -0.00000   0.00000   0.50000
           X2          -0.14750   0.03024   0.00000   0.64750
           Y2           0.03024  -0.00620  -0.00000  -0.03024   0.50620
           Z2           0.00000  -0.00000  -0.00000  -0.00000   0.00000
           R1          -0.07971   0.01634   0.00000   0.07971  -0.01634
           R2          -0.10351   0.02122   0.00000   0.10351  -0.02122
           R3          -0.07971   0.01634   0.00000   0.07971  -0.01634
           R4          -0.10351   0.02122   0.00000   0.10351  -0.02122
           A1          -0.02511   0.00515   0.00000   0.02511  -0.00515
           A2          -0.01584   0.00325   0.00000   0.01584  -0.00325
           A3           0.04095  -0.00840  -0.00000  -0.04095   0.00840
           A4          -0.02511   0.00515   0.00000   0.02511  -0.00515
           A5          -0.01584   0.00325   0.00000   0.01584  -0.00325
           A6           0.04095  -0.00840  -0.00000  -0.04095   0.00840
           D1           0.00000  -0.00000  -0.00000  -0.00000   0.00000
           D2          -0.00000   0.00000   0.00000   0.00000  -0.00000
           D3           0.00000  -0.00000  -0.00000  -0.00000   0.00000
           D4          -0.00000   0.00000   0.00000   0.00000  -0.00000
                          Z2        R1        R2        R3        R4
           Z2           0.50000
           R1          -0.00000   0.35599
           R2          -0.00000   0.00848   0.35702
           R3          -0.00000   0.00699   0.00848   0.35599
           R4          -0.00000   0.00848   0.01024   0.00848   0.35702
           A1          -0.00000  -0.00361  -0.00498  -0.00361  -0.00498
           A2          -0.00000  -0.00295  -0.00402  -0.00295  -0.00402
           A3           0.00000   0.00656   0.00900   0.00656   0.00900
           A4          -0.00000  -0.00361  -0.00498  -0.00361  -0.00498
           A5          -0.00000  -0.00295  -0.00402  -0.00295  -0.00402
           A6           0.00000   0.00656   0.00900   0.00656   0.00900
           D1           0.00000  -0.00000  -0.00000  -0.00000  -0.00000
           D2          -0.00000   0.00000   0.00000   0.00000   0.00000
           D3           0.00000  -0.00000  -0.00000  -0.00000  -0.00000
           D4          -0.00000   0.00000   0.00000   0.00000   0.00000
                          A1        A2        A3        A4        A5
           A1           0.15609
           A2          -0.00278   0.15803
           A3           0.00669   0.00476   0.14855
           A4          -0.00391  -0.00278   0.00669   0.15609
           A5          -0.00278  -0.00197   0.00476  -0.00278   0.15803
           A6           0.00669   0.00476  -0.01145   0.00669   0.00476
           D1          -0.00000  -0.00000   0.00000  -0.00000  -0.00000
           D2           0.00000   0.00000  -0.00000   0.00000   0.00000
           D3          -0.00000  -0.00000   0.00000  -0.00000  -0.00000
           D4           0.00000   0.00000  -0.00000   0.00000   0.00000
                          A6        D1        D2        D3        D4
           A6           0.14855
           D1           0.00000   0.02720
           D2          -0.00000  -0.00000   0.02720
           D3           0.00000   0.00000  -0.00000   0.02720
           D4          -0.00000  -0.00000   0.00000  -0.00000   0.02720
 ITU=  1  0
 Use linear search instead of GDIIS.
     Eigenvalues ---    0.02720   0.02720   0.02720   0.12245   0.16000
     Eigenvalues ---    0.16000   0.16001   0.34679   0.34804   0.34900
     Eigenvalues ---    0.385081000.000001000.000001000.000001000.00000
     Eigenvalues --- 1000.000001000.000001000.000001000.000001000.00000
 RFO step:  Lambda=-1.52343258D-05 EMin= 2.72027930D-02
 Quartic linear search produced a step of  0.17893.
 Iteration  1 RMS(Cart)=  0.00382048 RMS(Int)=  0.00000830
 Iteration  2 RMS(Cart)=  0.00000831 RMS(Int)=  0.00000000
 Iteration  3 RMS(Cart)=  0.00000000 RMS(Int)=  0.00000000
 ITry= 1 IFail=0 DXMaxC= 8.45D-03 DCOld= 1.00D+10 DXMaxT= 3.00D-01 DXLimC= 3.00D+00 Rises=F
 Variable       Old X    -DE/DX   Delta X   Delta X   Delta X     New X
                                 (Linear)    (Quad)   (Total)
    X1       -1.27770   0.00129   0.00000   0.00000   0.00000  -1.27770
    Y1        0.00000  -0.00020   0.00000   0.00000   0.00000   0.00000
    Z1        0.00000   0.00000   0.00000   0.00000   0.00000   0.00000
    X2        1.27770  -0.00129   0.00000   0.00000   0.00000   1.27770
    Y2        0.00000   0.00020   0.00000   0.00000   0.00000   0.00000
    Z2        0.00000  -0.00000   0.00000   0.00000   0.00000   0.00000
    R1        2.04790   0.00002  -0.00188   0.00152  -0.00035   2.04754
    R2        2.04812  -0.00004  -0.00248   0.00181  -0.00067   2.04744
    R3        2.04790   0.00002  -0.00188   0.00152  -0.00035   2.04754
    R4        2.04812  -0.00004  -0.00248   0.00181  -0.00067   2.04744
    A1        2.12248  -0.00059  -0.00195  -0.00278  -0.00473   2.11774
    A2        2.12140  -0.00044  -0.00131  -0.00220  -0.00350   2.11790
    A3        2.03931   0.00103   0.00325   0.00498   0.00824   2.04754
    A4        2.12248  -0.00059  -0.00195  -0.00278  -0.00473   2.11774
    A5        2.12140  -0.00044  -0.00131  -0.00220  -0.00350   2.11790
    A6        2.03931   0.00103   0.00325   0.00498   0.00824   2.04754
    D1        3.14159  -0.00000   0.00000  -0.00000   0.00000   3.14159
    D2        0.00000   0.00000   0.00000   0.00000   0.00000   0.00000
    D3       -0.00000  -0.00000   0.00000  -0.00000   0.00000   0.00000
    D4        3.14159   0.00000   0.00000   0.00000   0.00000   3.14159
         Item               Value     Threshold  Converged?
 Maximum Force            0.001026     0.000450     NO 
 RMS     Force            0.000477     0.000300     NO 
 Maximum Displacement     0.008448     0.001800     NO 
 RMS     Displacement     0.003820     0.001200     NO 
 Predicted change in Energy=-1.291516D-05
 Lowest energy point so far.  Saving SCF results.
 GradGradGradGradGradGradGradGradGradGradGradGradGradGradGradGradGradGrad

 Leave Link  103 at Tue Nov 19 10:36:50 2024, MaxMem=   536870912 cpu:               0.0 elap:               0.0
 (Enter /home/szhao/Apps/g16/l202.exe)
                          Input orientation:                          
 ---------------------------------------------------------------------
 Center     Atomic      Atomic             Coordinates (Angstroms)
 Number     Number       Type             X           Y           Z
 ---------------------------------------------------------------------
      1          6           0       -0.676129    0.000000    0.000000
      2          6           0        0.676129    0.000000    0.000000
      3          1           0       -1.239646   -0.925447    0.000000
      4          1           0       -1.239761    0.925313    0.000000
      5          1           0        1.239646    0.925447   -0.000000
      6          1           0        1.239761   -0.925313   -0.000000
 ---------------------------------------------------------------------
                    Distance matrix (angstroms):
                    1          2          3          4          5
     1  C    0.000000
     2  C    1.352259   0.000000
     3  H    1.083514   2.127592   0.000000
     4  H    1.083460   2.127637   1.850760   0.000000
     5  H    2.127592   1.083514   3.093977   2.479407   0.000000
     6  H    2.127637   1.083460   2.479407   3.094002   1.850760
                    6
     6  H    0.000000
 Symmetry turned off by external request.
 Stoichiometry    C2H4
 Framework group  C2H[SGH(C2H4)]
 Deg. of freedom     5
 Full point group                 C2H     NOp   4
 Rotational constants (GHZ):         146.3969187          29.4386596          24.5099945
 Leave Link  202 at Tue Nov 19 10:36:50 2024, MaxMem=   536870912 cpu:               0.0 elap:               0.0
 (Enter /home/szhao/Apps/g16/l301.exe)
 Standard basis: 6-311+G(d,p) (5D, 7F)
 Ernie: Thresh=  0.10000D-02 Tol=  0.10000D-05 Strict=F.
    68 basis functions,   104 primitive gaussians,    70 cartesian basis functions
     8 alpha electrons        8 beta electrons
       nuclear repulsion energy        33.1194887838 Hartrees.
 IExCor= 4336 DFT=T Ex+Corr=M062X ExCW=0 ScaHFX=  0.540000
 ScaDFX=  1.000000  1.000000  1.000000  1.000000 ScalE2=  1.000000  1.000000
 IRadAn=      7 IRanWt=     -1 IRanGd=            0 ICorTp=0 IEmpDi=  4
 NAtoms=    6 NActive=    6 NUniq=    6 SFac= 1.00D+00 NAtFMM=   60 NAOKFM=F Big=F
 Integral buffers will be    131072 words long.
 Raffenetti 2 integral format.
 Two-electron integral symmetry is turned off.
 Leave Link  301 at Tue Nov 19 10:36:50 2024, MaxMem=   536870912 cpu:               0.3 elap:               0.0
 (Enter /home/szhao/Apps/g16/l302.exe)
 NPDir=0 NMtPBC=     1 NCelOv=     1 NCel=       1 NClECP=     1 NCelD=      1
         NCelK=      1 NCelE2=     1 NClLst=     1 CellRange=     0.0.
 One-electron integrals computed using PRISM.
 NBasis=    68 RedAO= T EigKep=  1.60D-04  NBF=    68
 NBsUse=    68 1.00D-06 EigRej= -1.00D+00 NBFU=    68
 Precomputing XC quadrature grid using
 IXCGrd= 4 IRadAn=           7 IRanWt=          -1 IRanGd=           0 AccXCQ= 0.00D+00.
 Generated NRdTot=       0 NPtTot=           0 NUsed=           0 NTot=          32
 NSgBfM=    70    70    70    70    70 MxSgAt=     6 MxSgA2=     6.
 Leave Link  302 at Tue Nov 19 10:36:51 2024, MaxMem=   536870912 cpu:               1.1 elap:               0.1
 (Enter /home/szhao/Apps/g16/l303.exe)
 DipDrv:  MaxL=1.
 Leave Link  303 at Tue Nov 19 10:36:51 2024, MaxMem=   536870912 cpu:               0.2 elap:               0.0
 (Enter /home/szhao/Apps/g16/l401.exe)
 Initial guess from the checkpoint file:  "opt.chk"
 B after Tr=     0.000000   -0.000000   -0.000000
         Rot=    1.000000   -0.000000   -0.000000   -0.000133 Ang=  -0.02 deg.
 Guess basis will be translated and rotated to current coordinates.
 JPrj=2 DoOrth=T DoCkMO=T.
 Initial guess <Sx>= 0.0000 <Sy>= 0.0000 <Sz>= 0.0000 <S**2>= 0.0000 S= 0.0000
 Leave Link  401 at Tue Nov 19 10:36:51 2024, MaxMem=   536870912 cpu:               0.6 elap:               0.1
 (Enter /home/szhao/Apps/g16/l502.exe)
 Keep R1 and R2 ints in memory in canonical form, NReq=12681614.
 FoFCou: FMM=F IPFlag=           0 FMFlag=           0 FMFlg1=           0
         NFxFlg=           0 DoJE=F BraDBF=F KetDBF=F FulRan=T
         wScrn=  0.000000 ICntrl=       600 IOpCl=  0 I1Cent=           0 NGrid=           0
         NMat0=    1 NMatS0=   2346 NMatT0=    0 NMatD0=    1 NMtDS0=    0 NMtDT0=    0
 Symmetry not used in FoFCou.
 Two-electron integral symmetry not used.
 UHF open shell SCF:
 Using DIIS extrapolation, IDIIS=  1040.
 NGot=   536870912 LenX=   531353794 LenY=   531348453
 Requested convergence on RMS density matrix=1.00D-08 within 128 cycles.
 Requested convergence on MAX density matrix=1.00D-06.
 Requested convergence on             energy=1.00D-06.
 No special actions if energy rises.

 Cycle   1  Pass 1  IDiag  1:
 E= -78.5627922757253    
 DIIS: error= 2.21D-04 at cycle   1 NSaved=   1.
 NSaved= 1 IEnMin= 1 EnMin= -78.5627922757253     IErMin= 1 ErrMin= 2.21D-04
 ErrMax= 2.21D-04  0.00D+00 EMaxC= 1.00D-01 BMatC= 8.38D-06 BMatP= 8.38D-06
 IDIUse=3 WtCom= 9.98D-01 WtEn= 2.21D-03
 Coeff-Com:  0.100D+01
 Coeff-En:   0.100D+01
 Coeff:      0.100D+01
 Gap=     0.561 Goal=   None    Shift=    0.000
 Gap=     0.561 Goal=   None    Shift=    0.000
 RMSDP=1.98D-05 MaxDP=2.51D-04              OVMax= 4.68D-04

 Cycle   2  Pass 1  IDiag  1:
 E= -78.5627943710864     Delta-E=       -0.000002095361 Rises=F Damp=F
 DIIS: error= 4.26D-05 at cycle   2 NSaved=   2.
 NSaved= 2 IEnMin= 2 EnMin= -78.5627943710864     IErMin= 2 ErrMin= 4.26D-05
 ErrMax= 4.26D-05  0.00D+00 EMaxC= 1.00D-01 BMatC= 1.46D-07 BMatP= 8.38D-06
 IDIUse=1 WtCom= 1.00D+00 WtEn= 0.00D+00
 Coeff-Com: -0.603D-01 0.106D+01
 Coeff:     -0.603D-01 0.106D+01
 Gap=     0.355 Goal=   None    Shift=    0.000
 Gap=     0.355 Goal=   None    Shift=    0.000
 RMSDP=3.18D-06 MaxDP=3.53D-05 DE=-2.10D-06 OVMax= 1.17D-04

 Cycle   3  Pass 1  IDiag  1:
 E= -78.5627944146769     Delta-E=       -0.000000043591 Rises=F Damp=F
 DIIS: error= 1.98D-05 at cycle   3 NSaved=   3.
 NSaved= 3 IEnMin= 3 EnMin= -78.5627944146769     IErMin= 3 ErrMin= 1.98D-05
 ErrMax= 1.98D-05  0.00D+00 EMaxC= 1.00D-01 BMatC= 3.70D-08 BMatP= 1.46D-07
 IDIUse=1 WtCom= 1.00D+00 WtEn= 0.00D+00
 Coeff-Com: -0.322D-01 0.357D+00 0.675D+00
 Coeff:     -0.322D-01 0.357D+00 0.675D+00
 Gap=     0.355 Goal=   None    Shift=    0.000
 Gap=     0.355 Goal=   None    Shift=    0.000
 RMSDP=1.06D-06 MaxDP=1.81D-05 DE=-4.36D-08 OVMax= 3.42D-05

 Cycle   4  Pass 1  IDiag  1:
 E= -78.5627944239392     Delta-E=       -0.000000009262 Rises=F Damp=F
 DIIS: error= 3.32D-06 at cycle   4 NSaved=   4.
 NSaved= 4 IEnMin= 4 EnMin= -78.5627944239392     IErMin= 4 ErrMin= 3.32D-06
 ErrMax= 3.32D-06  0.00D+00 EMaxC= 1.00D-01 BMatC= 1.63D-09 BMatP= 3.70D-08
 IDIUse=1 WtCom= 1.00D+00 WtEn= 0.00D+00
 Coeff-Com: -0.268D-02-0.275D-02 0.158D+00 0.847D+00
 Coeff:     -0.268D-02-0.275D-02 0.158D+00 0.847D+00
 Gap=     0.355 Goal=   None    Shift=    0.000
 Gap=     0.355 Goal=   None    Shift=    0.000
 RMSDP=2.19D-07 MaxDP=4.36D-06 DE=-9.26D-09 OVMax= 9.07D-06

 Cycle   5  Pass 1  IDiag  1:
 E= -78.5627944244161     Delta-E=       -0.000000000477 Rises=F Damp=F
 DIIS: error= 5.20D-07 at cycle   5 NSaved=   5.
 NSaved= 5 IEnMin= 5 EnMin= -78.5627944244161     IErMin= 5 ErrMin= 5.20D-07
 ErrMax= 5.20D-07  0.00D+00 EMaxC= 1.00D-01 BMatC= 2.26D-11 BMatP= 1.63D-09
 IDIUse=1 WtCom= 1.00D+00 WtEn= 0.00D+00
 Coeff-Com:  0.113D-02-0.161D-01-0.134D-01 0.860D-01 0.942D+00
 Coeff:      0.113D-02-0.161D-01-0.134D-01 0.860D-01 0.942D+00
 Gap=     0.355 Goal=   None    Shift=    0.000
 Gap=     0.355 Goal=   None    Shift=    0.000
 RMSDP=4.74D-08 MaxDP=3.32D-07 DE=-4.77D-10 OVMax= 1.45D-06

 Cycle   6  Pass 1  IDiag  1:
 E= -78.5627944244239     Delta-E=       -0.000000000008 Rises=F Damp=F
 DIIS: error= 2.67D-08 at cycle   6 NSaved=   6.
 NSaved= 6 IEnMin= 6 EnMin= -78.5627944244239     IErMin= 6 ErrMin= 2.67D-08
 ErrMax= 2.67D-08  0.00D+00 EMaxC= 1.00D-01 BMatC= 7.77D-14 BMatP= 2.26D-11
 IDIUse=1 WtCom= 1.00D+00 WtEn= 0.00D+00
 Coeff-Com: -0.969D-04 0.173D-02-0.255D-03-0.165D-01-0.898D-01 0.110D+01
 Coeff:     -0.969D-04 0.173D-02-0.255D-03-0.165D-01-0.898D-01 0.110D+01
 Gap=     0.355 Goal=   None    Shift=    0.000
 Gap=     0.355 Goal=   None    Shift=    0.000
 RMSDP=5.64D-09 MaxDP=3.98D-08 DE=-7.80D-12 OVMax= 1.55D-07

 SCF Done:  E(UM062X) =  -78.5627944244     A.U. after    6 cycles
            NFock=  6  Conv=0.56D-08     -V/T= 2.0055
 <Sx>= 0.0000 <Sy>= 0.0000 <Sz>= 0.0000 <S**2>=-0.0000 S=-0.0000
 <L.S>=  0.00000000000    
 KE= 7.813556303372D+01 PE=-2.478879274328D+02 EE= 5.807008119091D+01
 Annihilation of the first spin contaminant:
 S**2 before annihilation    -0.0000,   after    -0.0000
 Leave Link  502 at Tue Nov 19 10:36:54 2024, MaxMem=   536870912 cpu:              28.9 elap:               3.7
 (Enter /home/szhao/Apps/g16/l701.exe)
 ... and contract with generalized density number  0.
 Compute integral first derivatives.
 Leave Link  701 at Tue Nov 19 10:36:55 2024, MaxMem=   536870912 cpu:               0.8 elap:               0.1
 (Enter /home/szhao/Apps/g16/l702.exe)
 L702 exits ... SP integral derivatives will be done elsewhere.
 Leave Link  702 at Tue Nov 19 10:36:55 2024, MaxMem=   536870912 cpu:               0.3 elap:               0.0
 (Enter /home/szhao/Apps/g16/l703.exe)
 Integral derivatives from FoFJK, PRISM(SPDF).
 Compute integral first derivatives, UseDBF=F ICtDFT=           0.
 Calling FoFJK, ICntrl=      2127 FMM=F ISym2X=0 I1Cent= 0 IOpClX= 1 NMat=1 NMatS=1 NMatT=0.
 FoFJK:  IHMeth= 1 ICntrl=    2127 DoSepK=F KAlg= 0 I1Cent=           0 FoldK=F
 IRaf=         0 NMat=       1 IRICut=       1 DoRegI=T DoRafI=F ISym2E= 0 IDoP0=0 IntGTp=1.
 FoFCou: FMM=F IPFlag=           0 FMFlag=      100000 FMFlg1=         800
         NFxFlg=           0 DoJE=F BraDBF=F KetDBF=F FulRan=T
         wScrn=  0.000000 ICntrl=      2127 IOpCl=  1 I1Cent=           0 NGrid=           0
         NMat0=    1 NMatS0=      1 NMatT0=    0 NMatD0=    1 NMtDS0=    0 NMtDT0=    0
 Symmetry not used in FoFCou.
 Leave Link  703 at Tue Nov 19 10:36:56 2024, MaxMem=   536870912 cpu:               9.1 elap:               1.1
 (Enter /home/szhao/Apps/g16/l716.exe)
 Dipole        =-1.68887127D-12 3.30846461D-14-2.70190698D-11
 -------------------------------------------------------------------
 Center     Atomic                   Forces (Hartrees/Bohr)
 Number     Number              X              Y              Z
 -------------------------------------------------------------------
      1        6          -0.000000000   -0.000000000   -0.000000000
      2        6          -0.000000000   -0.000000000   -0.000000000
      3        1           0.000019049   -0.000121525   -0.000000000
      4        1           0.000009816    0.000155408   -0.000000000
      5        1          -0.000019049    0.000121525    0.000000000
      6        1          -0.000009816   -0.000155408    0.000000000
 -------------------------------------------------------------------
 Cartesian Forces:  Max     0.000155408 RMS     0.000066147
 Leave Link  716 at Tue Nov 19 10:36:56 2024, MaxMem=   536870912 cpu:               0.2 elap:               0.0
 (Enter /home/szhao/Apps/g16/l103.exe)

 GradGradGradGradGradGradGradGradGradGradGradGradGradGradGradGradGradGrad
 Berny optimization.
 Using GEDIIS/GDIIS optimizer.
 FormGI is forming the generalized inverse of G from B-inverse, IUseBI=4.
 Internal  Forces:  Max     0.000127617 RMS     0.000069621
 Search for a local minimum.
 Step number   3 out of a maximum of   30
 All quantities printed in internal units (Hartrees-Bohrs-Radians)
 RMS Force = .80344D-04 SwitMx=.10000D-02 MixMth= 2
 Mixed Optimization -- En-DIIS/RFO-DIIS
 Swapping is turned off.
 Update second derivatives using D2CorX and points    1    2    3
 DE= -1.41D-05 DEPred=-1.29D-05 R= 1.09D+00
 TightC=F SS=  1.41D+00  RLast= 1.44D-02 DXNew= 5.0454D-01 4.3074D-02
 Trust test= 1.09D+00 RLast= 1.44D-02 DXMaxT set to 3.00D-01
 The second derivative matrix:
                          X1        Y1        Z1        X2        Y2
           X1           0.66107
           Y1          -0.03256   0.50658
           Z1           0.00000  -0.00000   0.50000
           X2          -0.16107   0.03256  -0.00000   0.66107
           Y2           0.03256  -0.00658   0.00000  -0.03256   0.50658
           Z2          -0.00000   0.00000  -0.00000   0.00000  -0.00000
           R1          -0.08738   0.01783  -0.00000   0.08738  -0.01783
           R2          -0.11425   0.02330  -0.00000   0.11425  -0.02330
           R3          -0.08738   0.01783  -0.00000   0.08738  -0.01783
           R4          -0.11425   0.02330  -0.00000   0.11425  -0.02330
           A1          -0.02679   0.00532  -0.00000   0.02679  -0.00532
           A2          -0.01496   0.00295  -0.00000   0.01496  -0.00295
           A3           0.04175  -0.00828   0.00000  -0.04175   0.00828
           A4          -0.02679   0.00532  -0.00000   0.02679  -0.00532
           A5          -0.01496   0.00295  -0.00000   0.01496  -0.00295
           A6           0.04175  -0.00828   0.00000  -0.04175   0.00828
           D1          -0.00000   0.00000  -0.00000   0.00000  -0.00000
           D2           0.00000  -0.00000   0.00000  -0.00000   0.00000
           D3          -0.00000   0.00000  -0.00000   0.00000  -0.00000
           D4           0.00000  -0.00000   0.00000  -0.00000   0.00000
                          Z2        R1        R2        R3        R4
           Z2           0.50000
           R1           0.00000   0.35800
           R2           0.00000   0.01144   0.36134
           R3           0.00000   0.00901   0.01144   0.35800
           R4           0.00000   0.01144   0.01455   0.01144   0.36134
           A1           0.00000  -0.00122  -0.00171  -0.00122  -0.00171
           A2           0.00000  -0.00158  -0.00221  -0.00158  -0.00221
           A3          -0.00000   0.00280   0.00392   0.00280   0.00392
           A4           0.00000  -0.00122  -0.00171  -0.00122  -0.00171
           A5           0.00000  -0.00158  -0.00221  -0.00158  -0.00221
           A6          -0.00000   0.00280   0.00392   0.00280   0.00392
           D1           0.00000   0.00000   0.00000   0.00000   0.00000
           D2          -0.00000  -0.00000  -0.00000  -0.00000  -0.00000
           D3           0.00000   0.00000   0.00000   0.00000   0.00000
           D4          -0.00000  -0.00000  -0.00000  -0.00000  -0.00000
                          A1        A2        A3        A4        A5
           A1           0.15540
           A2          -0.00405   0.15658
           A3           0.00865   0.00747   0.14388
           A4          -0.00460  -0.00405   0.00865   0.15540
           A5          -0.00405  -0.00342   0.00747  -0.00405   0.15658
           A6           0.00865   0.00747  -0.01612   0.00865   0.00747
           D1           0.00000   0.00000  -0.00000   0.00000   0.00000
           D2          -0.00000  -0.00000   0.00000  -0.00000  -0.00000
           D3           0.00000   0.00000  -0.00000   0.00000   0.00000
           D4          -0.00000  -0.00000   0.00000  -0.00000  -0.00000
                          A6        D1        D2        D3        D4
           A6           0.14388
           D1          -0.00000   0.02720
           D2           0.00000  -0.00000   0.02720
           D3          -0.00000   0.00000  -0.00000   0.02720
           D4           0.00000  -0.00000   0.00000  -0.00000   0.02720
 ITU=  1  1  0
     Eigenvalues ---    0.02720   0.02720   0.02720   0.11106   0.16000
     Eigenvalues ---    0.16000   0.16017   0.34679   0.34815   0.34900
     Eigenvalues ---    0.395241000.000001000.000001000.000001000.00000
     Eigenvalues --- 1000.000001000.000001000.000001000.000001000.00000
 En-DIIS/RFO-DIIS/Sim-DIIS IScMMF=       -3 using points:     3    2
 RFO step:  Lambda=-4.62632945D-07.
 NNeg= 0 NGDIIS= 2 SimSw=  2.50D-03 Rises=F DC= -1.41D-05 SmlDif=  1.00D-05
 NRisDI= 0 DoIntr=F SqrtH=F CThrHd= 10.0 CDAdj=  3.0
 RMS Error=  0.4043275904D-03 NUsed= 2 OKEnD=T EnDIS=F
 InvSVX:  RCond= 5.15D-05 Info=           0 Equed=N FErr=  1.14D-15 BErr=  6.68D-17
 DidBck=F Rises=F RFO-DIIS coefs:    1.11646   -0.11646
 Iteration  1 RMS(Cart)=  0.00047387 RMS(Int)=  0.00000013
 Iteration  2 RMS(Cart)=  0.00000013 RMS(Int)=  0.00000000
 ITry= 1 IFail=0 DXMaxC= 8.37D-04 DCOld= 1.00D+10 DXMaxT= 3.00D-01 DXLimC= 3.00D+00 Rises=F
 Variable       Old X    -DE/DX   Delta X   Delta X   Delta X     New X
                                 (Linear)    (Quad)   (Total)
    X1       -1.27770   0.00003   0.00000   0.00000   0.00000  -1.27770
    Y1        0.00000   0.00005   0.00000   0.00000   0.00000   0.00000
    Z1        0.00000  -0.00000   0.00000   0.00000   0.00000   0.00000
    X2        1.27770  -0.00003   0.00000   0.00000   0.00000   1.27770
    Y2        0.00000  -0.00005   0.00000   0.00000   0.00000   0.00000
    Z2        0.00000   0.00000   0.00000   0.00000   0.00000   0.00000
    R1        2.04754   0.00009  -0.00004   0.00026   0.00021   2.04776
    R2        2.04744   0.00013  -0.00008   0.00037   0.00030   2.04774
    R3        2.04754   0.00009  -0.00004   0.00026   0.00021   2.04776
    R4        2.04744   0.00013  -0.00008   0.00037   0.00030   2.04774
    A1        2.11774  -0.00005  -0.00055   0.00010  -0.00045   2.11729
    A2        2.11790  -0.00007  -0.00041  -0.00014  -0.00055   2.11735
    A3        2.04754   0.00012   0.00096   0.00004   0.00100   2.04854
    A4        2.11774  -0.00005  -0.00055   0.00010  -0.00045   2.11729
    A5        2.11790  -0.00007  -0.00041  -0.00014  -0.00055   2.11735
    A6        2.04754   0.00012   0.00096   0.00004   0.00100   2.04854
    D1        3.14159   0.00000  -0.00000   0.00000   0.00000   3.14159
    D2        0.00000  -0.00000   0.00000  -0.00000  -0.00000   0.00000
    D3       -0.00000   0.00000   0.00000   0.00000   0.00000   0.00000
    D4        3.14159  -0.00000  -0.00000  -0.00000   0.00000   3.14159
         Item               Value     Threshold  Converged?
 Maximum Force            0.000128     0.000450     YES
 RMS     Force            0.000080     0.000300     YES
 Maximum Displacement     0.000837     0.001800     YES
 RMS     Displacement     0.000474     0.001200     YES
 Predicted change in Energy=-2.313138D-07
 Optimization completed.
    -- Stationary point found.
                           ----------------------------
                           !   Optimized Parameters   !
                           ! (Angstroms and Degrees)  !
 --------------------------                            --------------------------
 ! Name  Definition              Value          Derivative Info.                !
 --------------------------------------------------------------------------------
 ! X1    R(1,-1)                -0.6761         -DE/DX =    0.0                 !
 ! Y1    R(1,-2)                 0.0            -DE/DX =    0.0                 !
 ! Z1    R(1,-3)                 0.0            -DE/DX =    0.0                 !
 ! X2    R(2,-1)                 0.6761         -DE/DX =    0.0                 !
 ! Y2    R(2,-2)                 0.0            -DE/DX =    0.0                 !
 ! Z2    R(2,-3)                 0.0            -DE/DX =    0.0                 !
 ! R1    R(1,3)                  1.0835         -DE/DX =    0.0001              !
 ! R2    R(1,4)                  1.0835         -DE/DX =    0.0001              !
 ! R3    R(2,5)                  1.0835         -DE/DX =    0.0001              !
 ! R4    R(2,6)                  1.0835         -DE/DX =    0.0001              !
 ! A1    A(2,1,3)              121.3378         -DE/DX =    0.0                 !
 ! A2    A(2,1,4)              121.3467         -DE/DX =   -0.0001              !
 ! A3    A(3,1,4)              117.3156         -DE/DX =    0.0001              !
 ! A4    A(1,2,5)              121.3378         -DE/DX =    0.0                 !
 ! A5    A(1,2,6)              121.3467         -DE/DX =   -0.0001              !
 ! A6    A(5,2,6)              117.3156         -DE/DX =    0.0001              !
 ! D1    D(3,1,2,5)            180.0            -DE/DX =    0.0                 !
 ! D2    D(3,1,2,6)              0.0            -DE/DX =    0.0                 !
 ! D3    D(4,1,2,5)              0.0            -DE/DX =    0.0                 !
 ! D4    D(4,1,2,6)            180.0            -DE/DX =    0.0                 !
 --------------------------------------------------------------------------------
 Lowest energy point so far.  Saving SCF results.
 Largest change from initial coordinates is atom    3       0.014 Angstoms.
 GradGradGradGradGradGradGradGradGradGradGradGradGradGradGradGradGradGrad

 Leave Link  103 at Tue Nov 19 10:36:56 2024, MaxMem=   536870912 cpu:               0.0 elap:               0.0
 (Enter /home/szhao/Apps/g16/l202.exe)
                          Input orientation:                          
 ---------------------------------------------------------------------
 Center     Atomic      Atomic             Coordinates (Angstroms)
 Number     Number       Type             X           Y           Z
 ---------------------------------------------------------------------
      1          6           0       -0.676129    0.000000    0.000000
      2          6           0        0.676129    0.000000    0.000000
      3          1           0       -1.239646   -0.925447    0.000000
      4          1           0       -1.239761    0.925313    0.000000
      5          1           0        1.239646    0.925447   -0.000000
      6          1           0        1.239761   -0.925313   -0.000000
 ---------------------------------------------------------------------
                    Distance matrix (angstroms):
                    1          2          3          4          5
     1  C    0.000000
     2  C    1.352259   0.000000
     3  H    1.083514   2.127592   0.000000
     4  H    1.083460   2.127637   1.850760   0.000000
     5  H    2.127592   1.083514   3.093977   2.479407   0.000000
     6  H    2.127637   1.083460   2.479407   3.094002   1.850760
                    6
     6  H    0.000000
 Symmetry turned off by external request.
 Stoichiometry    C2H4
 Framework group  C2H[SGH(C2H4)]
 Deg. of freedom     5
 Full point group                 C2H     NOp   4
 Rotational constants (GHZ):         146.3969187          29.4386596          24.5099945
 Leave Link  202 at Tue Nov 19 10:36:56 2024, MaxMem=   536870912 cpu:               0.0 elap:               0.0
 (Enter /home/szhao/Apps/g16/l601.exe)
 Copying SCF densities to generalized density rwf, IOpCl= 1 IROHF=0.

 **********************************************************************

            Population analysis using the SCF density.

 **********************************************************************

 Alpha  occ. eigenvalues --  -10.54270 -10.54170  -0.85576  -0.66551  -0.54184
 Alpha  occ. eigenvalues --   -0.48296  -0.42246  -0.33118
 Alpha virt. eigenvalues --    0.02335   0.03396   0.04055   0.05147   0.07780
 Alpha virt. eigenvalues --    0.08159   0.09724   0.13277   0.16033   0.17327
 Alpha virt. eigenvalues --    0.20097   0.23006   0.31209   0.35409   0.43767
 Alpha virt. eigenvalues --    0.44502   0.55262   0.55668   0.58131   0.64131
 Alpha virt. eigenvalues --    0.65981   0.74180   0.74845   0.76004   0.79711
 Alpha virt. eigenvalues --    0.90169   1.05309   1.14632   1.16688   1.42465
 Alpha virt. eigenvalues --    1.46499   1.47361   1.61659   1.63368   1.64144
 Alpha virt. eigenvalues --    1.65568   1.79844   1.83370   1.99585   2.05978
 Alpha virt. eigenvalues --    2.11834   2.17197   2.18129   2.24219   2.40326
 Alpha virt. eigenvalues --    2.46878   2.56990   2.58285   2.66634   2.70814
 Alpha virt. eigenvalues --    2.78747   2.83505   2.94661   3.15513   3.44564
 Alpha virt. eigenvalues --    3.69962   3.87047   4.16684  23.84331  24.26903
  Beta  occ. eigenvalues --  -10.54270 -10.54170  -0.85576  -0.66551  -0.54184
  Beta  occ. eigenvalues --   -0.48296  -0.42246  -0.33118
  Beta virt. eigenvalues --    0.02335   0.03396   0.04055   0.05147   0.07780
  Beta virt. eigenvalues --    0.08159   0.09724   0.13277   0.16033   0.17327
  Beta virt. eigenvalues --    0.20097   0.23006   0.31209   0.35409   0.43767
  Beta virt. eigenvalues --    0.44502   0.55262   0.55668   0.58131   0.64131
  Beta virt. eigenvalues --    0.65981   0.74180   0.74845   0.76004   0.79711
  Beta virt. eigenvalues --    0.90169   1.05309   1.14632   1.16688   1.42465
  Beta virt. eigenvalues --    1.46499   1.47361   1.61659   1.63368   1.64144
  Beta virt. eigenvalues --    1.65568   1.79844   1.83370   1.99585   2.05978
  Beta virt. eigenvalues --    2.11834   2.17197   2.18129   2.24219   2.40326
  Beta virt. eigenvalues --    2.46878   2.56990   2.58285   2.66634   2.70814
  Beta virt. eigenvalues --    2.78747   2.83505   2.94661   3.15513   3.44564
  Beta virt. eigenvalues --    3.69962   3.87047   4.16684  23.84331  24.26903
          Condensed to atoms (all electrons):
               1          2          3          4          5          6
     1  C    4.880488   0.667621   0.405315   0.405316  -0.029826  -0.029811
     2  C    0.667621   4.880488  -0.029826  -0.029811   0.405315   0.405316
     3  H    0.405315  -0.029826   0.505946  -0.028531   0.005336  -0.007785
     4  H    0.405316  -0.029811  -0.028531   0.505919  -0.007785   0.005334
     5  H   -0.029826   0.405315   0.005336  -0.007785   0.505946  -0.028531
     6  H   -0.029811   0.405316  -0.007785   0.005334  -0.028531   0.505919
          Atomic-Atomic Spin Densities.
               1          2          3          4          5          6
     1  C    0.000000  -0.000000   0.000000   0.000000   0.000000  -0.000000
     2  C   -0.000000   0.000000  -0.000000  -0.000000  -0.000000  -0.000000
     3  H    0.000000  -0.000000  -0.000000  -0.000000   0.000000   0.000000
     4  H    0.000000  -0.000000  -0.000000   0.000000   0.000000   0.000000
     5  H    0.000000  -0.000000   0.000000   0.000000  -0.000000  -0.000000
     6  H   -0.000000  -0.000000   0.000000   0.000000  -0.000000   0.000000
 Mulliken charges and spin densities:
               1          2
     1  C   -0.299103   0.000000
     2  C   -0.299103  -0.000000
     3  H    0.149545   0.000000
     4  H    0.149559   0.000000
     5  H    0.149545  -0.000000
     6  H    0.149559  -0.000000
 Sum of Mulliken charges =  -0.00000   0.00000
 Mulliken charges and spin densities with hydrogens summed into heavy atoms:
               1          2
     1  C    0.000000   0.000000
     2  C   -0.000000  -0.000000
 Electronic spatial extent (au):  <R**2>=             83.9204
 Charge=             -0.0000 electrons
 Dipole moment (field-independent basis, Debye):
    X=             -0.0000    Y=              0.0000    Z=             -0.0000  Tot=              0.0000
 Quadrupole moment (field-independent basis, Debye-Ang):
   XX=            -12.2303   YY=            -12.3086   ZZ=            -16.0075
   XY=             -0.0003   XZ=             -0.0000   YZ=              0.0000
 Traceless Quadrupole moment (field-independent basis, Debye-Ang):
   XX=              1.2851   YY=              1.2069   ZZ=             -2.4920
   XY=             -0.0003   XZ=             -0.0000   YZ=              0.0000
 Octapole moment (field-independent basis, Debye-Ang**2):
  XXX=             -0.0000  YYY=              0.0000  ZZZ=              0.0000  XYY=              0.0000
  XXY=             -0.0000  XXZ=             -0.0000  XZZ=             -0.0000  YZZ=              0.0000
  YYZ=             -0.0000  XYZ=              0.0000
 Hexadecapole moment (field-independent basis, Debye-Ang**3):
 XXXX=            -70.1584 YYYY=            -27.1996 ZZZZ=            -20.5333 XXXY=             -0.0022
 XXXZ=              0.0000 YYYX=             -0.0005 YYYZ=             -0.0000 ZZZX=              0.0000
 ZZZY=             -0.0000 XXYY=            -13.3053 XXZZ=            -16.2466 YYZZ=             -8.7134
 XXYZ=              0.0000 YYXZ=             -0.0000 ZZXY=             -0.0003
 N-N= 3.311948878379D+01 E-N=-2.478879272586D+02  KE= 7.813556303372D+01
                          Isotropic Fermi Contact Couplings
        Atom                 a.u.       MegaHertz       Gauss      10(-4) cm-1
     1  C(13)             -0.00000      -0.00000      -0.00000      -0.00000
     2  C(13)              0.00000       0.00000       0.00000       0.00000
     3  H(1)              -0.00000      -0.00000      -0.00000      -0.00000
     4  H(1)               0.00000       0.00000       0.00000       0.00000
     5  H(1)              -0.00000      -0.00000      -0.00000      -0.00000
     6  H(1)              -0.00000      -0.00000      -0.00000      -0.00000
 --------------------------------------------------------
       Center         ----  Spin Dipole Couplings  ----
                      3XX-RR        3YY-RR        3ZZ-RR
 --------------------------------------------------------
     1   Atom        0.000000      0.000000      0.000000
     2   Atom        0.000000      0.000000      0.000000
     3   Atom        0.000000      0.000000      0.000000
     4   Atom        0.000000      0.000000      0.000000
     5   Atom        0.000000      0.000000      0.000000
     6   Atom        0.000000      0.000000      0.000000
 --------------------------------------------------------
                        XY            XZ            YZ
 --------------------------------------------------------
     1   Atom        0.000000      0.000000      0.000000
     2   Atom        0.000000      0.000000      0.000000
     3   Atom        0.000000      0.000000      0.000000
     4   Atom        0.000000      0.000000      0.000000
     5   Atom        0.000000      0.000000      0.000000
     6   Atom        0.000000      0.000000      0.000000
 --------------------------------------------------------


 ---------------------------------------------------------------------------------
              Anisotropic Spin Dipole Couplings in Principal Axis System
 ---------------------------------------------------------------------------------

       Atom             a.u.   MegaHertz   Gauss  10(-4) cm-1        Axes

              Baa     0.0000     0.000     0.000     0.000  1.0000  0.0000  0.0000
     1 C(13)  Bbb     0.0000     0.000     0.000     0.000 -0.0000  1.0000  0.0000
              Bcc     0.0000     0.000     0.000     0.000  0.0000  0.0000  1.0000
 
              Baa     0.0000     0.000     0.000     0.000  1.0000  0.0000  0.0000
     2 C(13)  Bbb     0.0000     0.000     0.000     0.000 -0.0000  1.0000  0.0000
              Bcc     0.0000     0.000     0.000     0.000  0.0000  0.0000  1.0000
 
              Baa     0.0000     0.000     0.000     0.000  1.0000  0.0000  0.0000
     3 H(1)   Bbb     0.0000     0.000     0.000     0.000 -0.0000  1.0000  0.0000
              Bcc     0.0000     0.000     0.000     0.000  0.0000  0.0000  1.0000
 
              Baa     0.0000     0.000     0.000     0.000  1.0000  0.0000  0.0000
     4 H(1)   Bbb     0.0000     0.000     0.000     0.000 -0.0000  1.0000  0.0000
              Bcc     0.0000     0.000     0.000     0.000  0.0000  0.0000  1.0000
 
              Baa     0.0000     0.000     0.000     0.000  1.0000  0.0000  0.0000
     5 H(1)   Bbb     0.0000     0.000     0.000     0.000 -0.0000  1.0000  0.0000
              Bcc     0.0000     0.000     0.000     0.000  0.0000  0.0000  1.0000
 
              Baa     0.0000     0.000     0.000     0.000  1.0000  0.0000  0.0000
     6 H(1)   Bbb     0.0000     0.000     0.000     0.000 -0.0000  1.0000  0.0000
              Bcc     0.0000     0.000     0.000     0.000  0.0000  0.0000  1.0000
 

 ---------------------------------------------------------------------------------

 No NMR shielding tensors so no spin-rotation constants.
 Leave Link  601 at Tue Nov 19 10:36:56 2024, MaxMem=   536870912 cpu:               1.0 elap:               0.1
 (Enter /home/szhao/Apps/g16/l9999.exe)
 1\1\GINC-NODE01\FOpt\UM062X\6-311+G(d,p)\C2H4\SZHAO\19-Nov-2024\0\\#p 
 opt UM062X/6-311+G** nosymm int=superfine\\Title Card Required\\0,1\C,
 -0.67612944,0.,0.\C,0.67612944,0.,0.\H,-1.2396460464,-0.9254466867,0.0
 000000001\H,-1.2397610569,0.9253131198,0.0000000001\H,1.2396460464,0.9
 254466867,-0.0000000001\H,1.2397610569,-0.9253131198,-0.0000000001\\Ve
 rsion=ES64L-G16RevA.03\HF=-78.5627944\S2=0.\S2-1=0.\S2A=0.\RMSD=5.642e
 -09\RMSF=6.615e-05\Dipole=0.,0.,0.\Quadrupole=0.9554638,0.8972851,-1.8
 527489,-0.000236,0.,0.\PG=C02H [SGH(C2H4)]\\@


 MICRO CREDO - NEVER TRUST A COMPUTER BIGGER
               BIGGER THAN YOU CAN LIFT.
 Job cpu time:       0 days  0 hours  2 minutes 35.8 seconds.
 Elapsed time:       0 days  0 hours  0 minutes 19.7 seconds.
 File lengths (MBytes):  RWF=     10 Int=      0 D2E=      0 Chk=      2 Scr=      1
 Normal termination of Gaussian 16 at Tue Nov 19 10:36:56 2024.
