Title Card Required                                                     
FOpt      UM062X                                                      6-311+G(d,p)        
Number of atoms                            I                6
Info1-9                                    I   N=           9
          15          15           0           0           0         110
           2          18        -502
Full Title                                 C   N=           2
Title Card Required     
Route                                      C   N=           6
#p opt UM062X/6-311+G** nosymm int=superfine SCF=NoVarAcc SC
F=tight     
Charge                                     I                1
Multiplicity                               I                2
Number of electrons                        I               15
Number of alpha electrons                  I                8
Number of beta electrons                   I                7
Number of basis functions                  I               68
Number of independent functions            I               68
Number of point charges in /Mol/           I                0
Number of translation vectors              I                0
Atomic numbers                             I   N=           6
           6           6           1           1           1           1
Nuclear charges                            R   N=           6
  6.00000000E+00  6.00000000E+00  1.00000000E+00  1.00000000E+00  1.00000000E+00
  1.00000000E+00
Current cartesian coordinates              R   N=          18
 -8.70412955E+00  0.00000000E+00  0.00000000E+00  8.70412955E+00  0.00000000E+00
  0.00000000E+00 -9.76861844E+00 -1.77868785E+00 -5.05403978E-10 -9.76849566E+00
  1.77876001E+00 -7.75703501E-10  9.76861844E+00  1.77868785E+00 -1.16799680E-09
  9.76849566E+00 -1.77876001E+00 -1.43831207E-09
Number of symbols in /Mol/                 I                0
Force Field                                I                0
Atom Types                                 C   N=           6
                                                            
            
Int Atom Types                             I   N=           6
           0           0           0           0           0           0
MM charges                                 R   N=           6
  0.00000000E+00  0.00000000E+00  0.00000000E+00  0.00000000E+00  0.00000000E+00
  0.00000000E+00
Integer atomic weights                     I   N=           6
          12          12           1           1           1           1
Real atomic weights                        R   N=           6
  1.20000000E+01  1.20000000E+01  1.00782504E+00  1.00782504E+00  1.00782504E+00
  1.00782504E+00
Atom fragment info                         I   N=           6
           0           0           0           0           0           0
Atom residue num                           I   N=           6
           0           0           0           0           0           0
Nuclear spins                              I   N=           6
           0           0           1           1           1           1
Nuclear ZEff                               R   N=           6
 -3.60000000E+00 -3.60000000E+00 -1.00000000E+00 -1.00000000E+00 -1.00000000E+00
 -1.00000000E+00
Nuclear ZNuc                               R   N=           6
  6.00000000E+00  6.00000000E+00  1.00000000E+00  1.00000000E+00  1.00000000E+00
  1.00000000E+00
Nuclear QMom                               R   N=           6
  0.00000000E+00  0.00000000E+00  0.00000000E+00  0.00000000E+00  0.00000000E+00
  0.00000000E+00
Nuclear GFac                               R   N=           6
  0.00000000E+00  0.00000000E+00  2.79284600E+00  2.79284600E+00  2.79284600E+00
  2.79284600E+00
MicOpt                                     I   N=           6
          -2          -2          -1          -1          -1          -1
Number of residues                         I                0
Number of secondary structures             I                0
Redundant internal dimensions              I   N=           4
          20          10           6           4
Redundant internal coordinate indices      I   N=          80
           1          -1           0           0           1          -2
           0           0           1          -3           0           0
           2          -1           0           0           2          -2
           0           0           2          -3           0           0
           1           3           0           0           1           4
           0           0           2           5           0           0
           2           6           0           0           2           1
           3           0           2           1           4           0
           3           1           4           0           1           2
           5           0           1           2           6           0
           5           2           6           0           3           1
           2           5           3           1           2           6
           4           1           2           5           4           1
           2           6
Redundant internal coordinates             R   N=          20
 -8.70412955E+00  0.00000000E+00  0.00000000E+00  8.70412955E+00  0.00000000E+00
  0.00000000E+00  2.07288858E+00  2.07288746E+00  2.07288858E+00  2.07288746E+00
  2.11008906E+00  2.11002036E+00  2.06307588E+00  2.11008906E+00  2.11002036E+00
  2.06307588E+00  3.14159265E+00  0.00000000E+00 -0.00000000E+00  3.14159265E+00
ZRed-IntVec                                I   N=          20
          -1          -1          -1          -1          -1          -1
           0           0           0           0           0           0
           0           0           0           0           0           0
           0           0
ZRed-FPVec                                 R   N=          20
  0.00000000E+00  0.00000000E+00  0.00000000E+00  0.00000000E+00  0.00000000E+00
  0.00000000E+00  0.00000000E+00  0.00000000E+00  0.00000000E+00  0.00000000E+00
  0.00000000E+00  0.00000000E+00  0.00000000E+00  0.00000000E+00  0.00000000E+00
  0.00000000E+00  0.00000000E+00  0.00000000E+00  0.00000000E+00  0.00000000E+00
ZRed-Constraint1                           R   N=          20
 -8.70412955E+00  0.00000000E+00  0.00000000E+00  8.70412955E+00  0.00000000E+00
  0.00000000E+00  2.05067934E+00  2.05048469E+00  2.05067934E+00  2.05048469E+00
  1.98162443E+00  1.98155420E+00  2.32000667E+00  1.98162443E+00  1.98155420E+00
  2.32000667E+00  3.14159265E+00  0.00000000E+00  0.00000000E+00  3.14159265E+00
ZRed-Constraint2                           R   N=          20
 -8.70412955E+00  0.00000000E+00  0.00000000E+00  8.70412955E+00  0.00000000E+00
  0.00000000E+00  0.00000000E+00  0.00000000E+00  0.00000000E+00  0.00000000E+00
  0.00000000E+00  0.00000000E+00  0.00000000E+00  0.00000000E+00  0.00000000E+00
  0.00000000E+00  0.00000000E+00  0.00000000E+00  0.00000000E+00  0.00000000E+00
Number of contracted shells                I               28
Number of primitive shells                 I               50
Pure/Cartesian d shells                    I                0
Pure/Cartesian f shells                    I                0
Highest angular momentum                   I                2
Largest degree of contraction              I                6
Shell types                                I   N=          28
           0          -1          -1          -1          -1          -2
           0          -1          -1          -1          -1          -2
           0           0           0           1           0           0
           0           1           0           0           0           1
           0           0           0           1
Number of primitives per shell             I   N=          28
           6           3           1           1           1           1
           6           3           1           1           1           1
           3           1           1           1           3           1
           1           1           3           1           1           1
           3           1           1           1
Shell to atom map                          I   N=          28
           1           1           1           1           1           1
           2           2           2           2           2           2
           3           3           3           3           4           4
           4           4           5           5           5           5
           6           6           6           6
Primitive exponents                        R   N=          50
  4.56324000E+03  6.82024000E+02  1.54973000E+02  4.44553000E+01  1.30290000E+01
  1.82773000E+00  2.09642000E+01  4.80331000E+00  1.45933000E+00  4.83456000E-01
  1.45585000E-01  4.38000000E-02  6.26000000E-01  4.56324000E+03  6.82024000E+02
  1.54973000E+02  4.44553000E+01  1.30290000E+01  1.82773000E+00  2.09642000E+01
  4.80331000E+00  1.45933000E+00  4.83456000E-01  1.45585000E-01  4.38000000E-02
  6.26000000E-01  3.38650000E+01  5.09479000E+00  1.15879000E+00  3.25840000E-01
  1.02741000E-01  7.50000000E-01  3.38650000E+01  5.09479000E+00  1.15879000E+00
  3.25840000E-01  1.02741000E-01  7.50000000E-01  3.38650000E+01  5.09479000E+00
  1.15879000E+00  3.25840000E-01  1.02741000E-01  7.50000000E-01  3.38650000E+01
  5.09479000E+00  1.15879000E+00  3.25840000E-01  1.02741000E-01  7.50000000E-01
Contraction coefficients                   R   N=          50
  1.96665025E-03  1.52306019E-02  7.61269097E-02  2.60801033E-01  6.16462078E-01
  2.21006028E-01  1.14660081E-01  9.19999648E-01 -3.03068213E-03  1.00000000E+00
  1.00000000E+00  1.00000000E+00  1.00000000E+00  1.96665025E-03  1.52306019E-02
  7.61269097E-02  2.60801033E-01  6.16462078E-01  2.21006028E-01  1.14660081E-01
  9.19999648E-01 -3.03068213E-03  1.00000000E+00  1.00000000E+00  1.00000000E+00
  1.00000000E+00  2.54938145E-02  1.90373109E-01  8.52161486E-01  1.00000000E+00
  1.00000000E+00  1.00000000E+00  2.54938145E-02  1.90373109E-01  8.52161486E-01
  1.00000000E+00  1.00000000E+00  1.00000000E+00  2.54938145E-02  1.90373109E-01
  8.52161486E-01  1.00000000E+00  1.00000000E+00  1.00000000E+00  2.54938145E-02
  1.90373109E-01  8.52161486E-01  1.00000000E+00  1.00000000E+00  1.00000000E+00
P(S=P) Contraction coefficients            R   N=          50
  0.00000000E+00  0.00000000E+00  0.00000000E+00  0.00000000E+00  0.00000000E+00
  0.00000000E+00  4.02486927E-02  2.37593957E-01  8.15853851E-01  1.00000000E+00
  1.00000000E+00  1.00000000E+00  0.00000000E+00  0.00000000E+00  0.00000000E+00
  0.00000000E+00  0.00000000E+00  0.00000000E+00  0.00000000E+00  4.02486927E-02
  2.37593957E-01  8.15853851E-01  1.00000000E+00  1.00000000E+00  1.00000000E+00
  0.00000000E+00  0.00000000E+00  0.00000000E+00  0.00000000E+00  0.00000000E+00
  0.00000000E+00  0.00000000E+00  0.00000000E+00  0.00000000E+00  0.00000000E+00
  0.00000000E+00  0.00000000E+00  0.00000000E+00  0.00000000E+00  0.00000000E+00
  0.00000000E+00  0.00000000E+00  0.00000000E+00  0.00000000E+00  0.00000000E+00
  0.00000000E+00  0.00000000E+00  0.00000000E+00  0.00000000E+00  0.00000000E+00
Coordinates of each shell                  R   N=          84
 -8.70412955E+00  0.00000000E+00  0.00000000E+00 -8.70412955E+00  0.00000000E+00
  0.00000000E+00 -8.70412955E+00  0.00000000E+00  0.00000000E+00 -8.70412955E+00
  0.00000000E+00  0.00000000E+00 -8.70412955E+00  0.00000000E+00  0.00000000E+00
 -8.70412955E+00  0.00000000E+00  0.00000000E+00  8.70412955E+00  0.00000000E+00
  0.00000000E+00  8.70412955E+00  0.00000000E+00  0.00000000E+00  8.70412955E+00
  0.00000000E+00  0.00000000E+00  8.70412955E+00  0.00000000E+00  0.00000000E+00
  8.70412955E+00  0.00000000E+00  0.00000000E+00  8.70412955E+00  0.00000000E+00
  0.00000000E+00 -9.76861844E+00 -1.77868785E+00 -5.05403978E-10 -9.76861844E+00
 -1.77868785E+00 -5.05403978E-10 -9.76861844E+00 -1.77868785E+00 -5.05403978E-10
 -9.76861844E+00 -1.77868785E+00 -5.05403978E-10 -9.76849566E+00  1.77876001E+00
 -7.75703501E-10 -9.76849566E+00  1.77876001E+00 -7.75703501E-10 -9.76849566E+00
  1.77876001E+00 -7.75703501E-10 -9.76849566E+00  1.77876001E+00 -7.75703501E-10
  9.76861844E+00  1.77868785E+00 -1.16799680E-09  9.76861844E+00  1.77868785E+00
 -1.16799680E-09  9.76861844E+00  1.77868785E+00 -1.16799680E-09  9.76861844E+00
  1.77868785E+00 -1.16799680E-09  9.76849566E+00 -1.77876001E+00 -1.43831207E-09
  9.76849566E+00 -1.77876001E+00 -1.43831207E-09  9.76849566E+00 -1.77876001E+00
 -1.43831207E-09  9.76849566E+00 -1.77876001E+00 -1.43831207E-09
Num ILSW                                   I              100
ILSW                                       I   N=         100
           1           0           0           1           2           0
           0           0           0           0        4336          -1
           7           0           0           0           2           0
           0           0           0           0           1           0
           1           1           0           0           0           0
           0           0      100000           0          -1           0
           0           0           0           0           0           0
           0           0           0           1           0           0
           0 -2000000000           1           0           0           0
           0           0           4          52           0           0
           0           0          55           0           0           0
           0           0           0           6           0           1
           0           0           0           0           0           0
           0           0           0           0           0           0
           0           0           0           0           0           0
           0           0           0           0           0           0
           0           0           0           0
Num RLSW                                   I               52
RLSW                                       R   N=          52
  1.00000000E+00  1.00000000E+00  1.00000000E+00  1.00000000E+00  5.40000000E-01
  0.00000000E+00  0.00000000E+00  1.00000000E+00  0.00000000E+00  0.00000000E+00
  0.00000000E+00  0.00000000E+00  1.00000000E+00  0.00000000E+00  0.00000000E+00
  0.00000000E+00  0.00000000E+00  1.00000000E+00  0.00000000E+00  0.00000000E+00
  0.00000000E+00  0.00000000E+00  1.00000000E+00  0.00000000E+00  0.00000000E+00
  0.00000000E+00  0.00000000E+00  1.00000000E+00  0.00000000E+00  0.00000000E+00
  0.00000000E+00  0.00000000E+00  1.00000000E+00  0.00000000E+00  0.00000000E+00
  0.00000000E+00  0.00000000E+00  0.00000000E+00  1.00000000E+00  1.00000000E+00
  0.00000000E+00  1.00000000E+00  0.00000000E+00  0.00000000E+00  0.00000000E+00
  0.00000000E+00  0.00000000E+00  0.00000000E+00  0.00000000E+00  0.00000000E+00
  0.00000000E+00  0.00000000E+00
MxBond                                     I                3
NBond                                      I   N=           6
           3           3           1           1           1           1
IBond                                      I   N=          18
           2           3           4           1           5           6
           1           0           0           1           0           0
           2           0           0           2           0           0
RBond                                      R   N=          18
  1.00000000E-01  1.00000000E+00  1.00000000E+00  1.00000000E-01  1.00000000E+00
  1.00000000E+00  1.00000000E+00  0.00000000E+00  0.00000000E+00  1.00000000E+00
  0.00000000E+00  0.00000000E+00  1.00000000E+00  0.00000000E+00  0.00000000E+00
  1.00000000E+00  0.00000000E+00  0.00000000E+00
Virial Ratio                               R      2.003467161791531E+00
SCF Energy                                 R     -7.789522087321325E+01
Total Energy                               R     -7.789522087321325E+01
S**2                                       R      7.587668604849309E-01
S**2 after annihilation                    R      7.500095313538900E-01
RMS Force                                  R      1.146764983207823E-05
RMS Density                                R      1.051376342813643E-09
Job Status                                 I                1
Nuclear derivative order                   I                1
External E-field                           R   N=          35
  0.00000000E+00  0.00000000E+00  0.00000000E+00  0.00000000E+00  0.00000000E+00
  0.00000000E+00  0.00000000E+00  0.00000000E+00  0.00000000E+00  0.00000000E+00
  0.00000000E+00  0.00000000E+00  0.00000000E+00  0.00000000E+00  0.00000000E+00
  0.00000000E+00  0.00000000E+00  0.00000000E+00  0.00000000E+00  0.00000000E+00
  0.00000000E+00  0.00000000E+00  0.00000000E+00  0.00000000E+00  0.00000000E+00
  0.00000000E+00  0.00000000E+00  0.00000000E+00  0.00000000E+00  0.00000000E+00
  0.00000000E+00  0.00000000E+00  0.00000000E+00  0.00000000E+00  0.00000000E+00
IOpCl                                      I                1
IROHF                                      I                0
Alpha Orbital Energies                     R   N=          68
 -1.08551659E+01 -1.08551659E+01 -9.71097724E-01 -9.71097409E-01 -7.17384595E-01
 -7.17384573E-01 -5.45439378E-01 -5.45437699E-01 -2.87998910E-01 -2.87997344E-01
 -9.56183121E-02 -9.56078550E-02 -5.33972131E-02 -5.25793805E-02 -3.98996290E-02
 -3.54680558E-02 -3.46245708E-02 -2.99846113E-02  2.82226335E-02  2.82296724E-02
  3.40548969E-02  3.48961578E-02  2.97006263E-01  2.98879550E-01  3.01211772E-01
  3.02173571E-01  4.12107611E-01  4.12951779E-01  4.20899554E-01  4.28953764E-01
  4.53260713E-01  4.53580953E-01  5.35668038E-01  5.37814378E-01  8.75613189E-01
  8.75613189E-01  9.70106849E-01  9.70209683E-01  1.01655312E+00  1.01656030E+00
  1.25720687E+00  1.25741670E+00  1.33181765E+00  1.33204971E+00  1.50411769E+00
  1.50479119E+00  1.60441487E+00  1.60447232E+00  1.74319156E+00  1.74319156E+00
  1.85856855E+00  1.85892631E+00  2.20505132E+00  2.20635424E+00  2.28382866E+00
  2.28382984E+00  2.30158217E+00  2.30158569E+00  2.43730961E+00  2.43781433E+00
  2.52487170E+00  2.52534168E+00  2.72346255E+00  2.72885815E+00  3.48554739E+00
  3.48555774E+00  2.35358321E+01  2.35361320E+01
Beta Orbital Energies                      R   N=          68
 -1.08478912E+01 -1.08478903E+01 -9.49825138E-01 -9.49705668E-01 -7.07374691E-01
 -7.07373979E-01 -4.05679953E-01 -3.72522319E-01 -2.72045051E-01 -2.72013461E-01
 -9.86352273E-02 -9.85740315E-02 -5.87582525E-02 -5.77780661E-02 -4.34873895E-02
 -4.04969579E-02 -3.95948238E-02 -3.24327912E-02  2.87209812E-02  2.88143706E-02
  3.88167777E-02  3.97323661E-02  2.94422205E-01  2.96231793E-01  2.98245946E-01
  2.99108251E-01  4.12642764E-01  4.13477360E-01  4.40133533E-01  4.47673944E-01
  4.65136351E-01  4.65487701E-01  5.46873945E-01  5.49495189E-01  8.88030602E-01
  8.88030612E-01  9.93522874E-01  9.93735865E-01  1.03531842E+00  1.03537202E+00
  1.26701595E+00  1.26721162E+00  1.34340904E+00  1.34363311E+00  1.51681110E+00
  1.51749439E+00  1.60946697E+00  1.60952389E+00  1.75090518E+00  1.75090542E+00
  1.86880038E+00  1.86913916E+00  2.21662149E+00  2.21790295E+00  2.29873607E+00
  2.29875541E+00  2.33013692E+00  2.33013704E+00  2.45009945E+00  2.45049230E+00
  2.53899280E+00  2.53945778E+00  2.75784587E+00  2.76314986E+00  3.51230345E+00
  3.51231203E+00  2.35409709E+01  2.35412735E+01
Alpha MO coefficients                      R   N=        4624
 -3.98864023E-01 -3.28130103E-01  6.02321543E-04 -2.10780925E-08  3.61460536E-13
 -7.93749097E-03  1.36066838E-03 -5.18226028E-08  8.34808353E-13  2.56363172E-03
 -1.08721345E-04  3.60257207E-09 -4.82731525E-14  5.59366544E-04 -4.38638602E-04
  1.52586325E-08 -2.49526989E-13  7.91261466E-04 -3.42619937E-13  1.80097536E-13
  6.39673289E-04 -4.13840457E-08  3.98963694E-01  3.28212099E-01  6.02471573E-04
 -2.10833310E-08 -7.81845729E-13  7.93947368E-03  1.36101019E-03 -5.18357062E-08
 -1.52182332E-12 -2.56426999E-03 -1.08752205E-04  3.60357339E-09 -1.35194048E-14
 -5.59507991E-04 -4.38743988E-04  1.52626493E-08  5.58674851E-13 -7.91459255E-04
 -7.00925889E-13  1.79952200E-13 -6.39833286E-04  4.13943442E-08 -2.22248159E-04
  2.10569236E-03 -1.67849327E-03  7.29670518E-04  1.15251648E-03  3.33734618E-13
 -2.22246732E-04  2.10570063E-03 -1.67849671E-03  7.29593832E-04 -1.15257073E-03
  4.90297369E-13  2.22303547E-04 -2.10621827E-03  1.67891226E-03  7.29853098E-04
  1.15280461E-03 -7.85430215E-13  2.22302119E-04 -2.10622654E-03  1.67891570E-03
  7.29776393E-04 -1.15285888E-03 -9.42820192E-13  3.98963683E-01  3.28212474E-01
 -6.00540340E-04  2.09714517E-08 -3.62393788E-13  7.93637679E-03 -1.36817291E-03
  5.24435077E-08 -8.33571854E-13 -2.55482043E-03  1.23526007E-04 -4.01684805E-09
  4.69112955E-14 -5.66180933E-04  4.21841099E-04 -1.60892991E-08  2.48351374E-13
 -7.91705955E-04  3.42529167E-13 -1.80191297E-13 -6.40434592E-04  4.12265702E-08
  3.98864012E-01  3.28130478E-01  6.00389827E-04 -2.09661847E-08 -7.82029288E-13
  7.93439331E-03  1.36783289E-03 -5.24305563E-08 -1.52333318E-12 -2.55417981E-03
 -1.23498838E-04  4.01594420E-09 -1.00541400E-14 -5.66041153E-04 -4.21731488E-04
  1.60854843E-08  5.55675473E-13 -7.91508228E-04 -7.00749104E-13  1.80091712E-13
 -6.40274745E-04  4.12162286E-08  2.21705609E-04 -2.10508326E-03  1.67714506E-03
 -7.30829627E-04 -1.15333328E-03 -3.34075957E-13  2.21704436E-04 -2.10509338E-03
  1.67715206E-03 -7.30753027E-04  1.15338784E-03 -4.90558176E-13  2.21650071E-04
 -2.10455707E-03  1.67672562E-03  7.30647291E-04  1.15304528E-03 -7.86217270E-13
  2.21648899E-04 -2.10456719E-03  1.67673263E-03  7.30570710E-04 -1.15309983E-03
 -9.42882761E-13  7.91316652E-02  1.28308911E-01  3.51341491E-02 -1.29003431E-06
  3.40163620E-11 -3.62196600E-01  5.07087919E-02 -1.84303561E-06  5.29602789E-11
 -2.31423629E-01  2.14467558E-02 -7.84737657E-07  2.10285465E-11 -1.97129022E-03
  2.87546421E-03 -9.54999117E-08  5.37116394E-13  5.33440815E-03  1.44897398E-12
  8.59539037E-13  3.29431988E-03 -2.11705799E-07 -7.91344166E-02 -1.28313372E-01
  3.51353709E-02 -1.29007918E-06 -6.45665145E-11  3.62209194E-01  5.07105541E-02
 -1.84309961E-06 -1.00473893E-10  2.31431674E-01  2.14475045E-02 -7.84765037E-07
 -3.84365103E-11  1.97135982E-03  2.87555979E-03 -9.55034003E-08 -2.34101285E-12
 -5.33459363E-03  1.24704238E-12  8.74091271E-13 -3.29443438E-03  2.11713185E-07
 -7.77343017E-02 -9.30472512E-02  4.77192783E-03 -5.54837900E-03 -1.32879777E-02
 -3.24022098E-12 -7.77344488E-02 -9.30473869E-02  4.77191303E-03 -5.54747595E-03
  1.32883684E-02 -5.16340024E-12  7.77370045E-02  9.30504860E-02 -4.77209288E-03
 -5.54857204E-03 -1.32884398E-02  7.17808081E-12  7.77371517E-02  9.30506217E-02
 -4.77207808E-03 -5.54766896E-03  1.32888305E-02  9.16566828E-12 -7.91345836E-02
 -1.28314568E-01 -3.51410104E-02  1.29040440E-06 -3.40182195E-11  3.62225837E-01
 -5.06825710E-02  1.84083618E-06 -5.29594768E-11  2.31372560E-01 -2.15336828E-02
  7.87527393E-07 -2.10337043E-11  2.00154809E-03 -2.74916620E-03  1.00583901E-07
 -5.26521858E-13 -5.33456019E-03 -1.44860876E-12 -8.59545005E-13 -3.29302969E-03
  2.12381865E-07 -7.91318322E-02 -1.28310107E-01  3.51397888E-02 -1.29035955E-06
 -6.45641879E-11  3.62213243E-01  5.06808079E-02 -1.84077211E-06 -1.00469917E-10
  2.31364514E-01  2.15329371E-02 -7.87500099E-07 -3.84344257E-11  2.00147955E-03
  2.74906623E-03 -1.00580569E-07 -2.33185157E-12 -5.33437472E-03  1.24591404E-12
  8.74478814E-13 -3.29291515E-03  2.12374504E-07  7.77393739E-02  9.30381052E-02
 -4.74701662E-03  5.55214751E-03  1.32897560E-02  3.24076338E-12  7.77395203E-02
  9.30382491E-02 -4.74702329E-03  5.55124482E-03 -1.32901478E-02  5.16447510E-12
  7.77366711E-02  9.30348699E-02 -4.74685071E-03 -5.55195459E-03 -1.32892940E-02
  7.17921606E-12  7.77368174E-02  9.30350139E-02 -4.74685737E-03 -5.55105193E-03
  1.32896857E-02  9.16705236E-12 -4.00233380E-08 -6.74418654E-08 -5.39780468E-06
 -1.57934484E-01  1.20288307E-11  2.04508935E-07 -8.03898517E-06 -2.34681848E-01
  1.76604750E-11  2.95412267E-07 -3.99678980E-06 -1.15612161E-01  9.18920329E-12
  2.46171683E-08  8.44971145E-08  2.88405497E-03 -8.19850684E-13  3.11018516E-09
 -1.72619783E-12  1.87933169E-11  1.72910256E-06  2.50957450E-02 -4.00583484E-08
 -6.75008928E-08  5.40252565E-06  1.58072609E-01  1.20471512E-11  2.04688403E-07
  8.04601482E-06  2.34887091E-01  1.76697856E-11  2.95668328E-07  4.00028838E-06
  1.15713271E-01  9.18182912E-12  2.46392926E-08 -8.45754102E-08 -2.88655681E-03
 -8.15147683E-13  3.11289405E-09  1.71772972E-12 -3.68529925E-11  1.73061472E-06
  2.51176915E-02  1.05354878E-01  1.51228155E-01  3.89981135E-02  8.24878763E-03
  7.54279625E-03  4.89791312E-12 -1.05354849E-01 -1.51228102E-01 -3.89982085E-02
 -8.24826889E-03  7.54334670E-03 -6.07071004E-12  1.05447018E-01  1.51360423E-01
  3.90321975E-02 -8.25600223E-03 -7.54939369E-03  1.05018877E-11 -1.05446988E-01
 -1.51360369E-01 -3.90322926E-02  8.25548304E-03 -7.54994462E-03 -1.15739740E-11
  4.00653758E-08  6.75498027E-08  5.40275236E-06  1.58072895E-01 -1.20398460E-11
 -2.05379580E-07  8.04486275E-06  2.34884286E-01 -1.76754217E-11 -2.93047452E-07
  4.00384011E-06  1.15712910E-01 -9.20171869E-12 -2.53309835E-08 -8.95952814E-08
 -2.86317043E-03  8.25481967E-13 -3.09856330E-09  1.72728503E-12 -1.88097283E-11
 -1.73053929E-06 -2.51160050E-02 -4.00303736E-08 -6.74908220E-08  5.39803161E-06
  1.57934770E-01  1.20364007E-11  2.05200731E-07  8.03783210E-06  2.34679040E-01
  1.76528068E-11  2.92789084E-07  4.00034464E-06  1.15611799E-01  9.17654570E-12
  2.53094415E-08 -8.95213873E-08 -2.86064813E-03 -8.15837379E-13  3.09584428E-09
  1.71655564E-12 -3.68184613E-11  1.72902707E-06  2.50940570E-02 -1.05446087E-01
 -1.51369716E-01 -3.90063601E-02 -8.25652776E-03 -7.55022748E-03 -4.90239244E-12
  1.05446058E-01  1.51369664E-01  3.90064520E-02  8.25600824E-03 -7.55077836E-03
  6.07651602E-12  1.05353947E-01  1.51237456E-01  3.89722535E-02 -8.24931361E-03
 -7.54363077E-03  1.04931300E-11 -1.05353917E-01 -1.51237404E-01 -3.89723454E-02
  8.24879455E-03 -7.54418117E-03 -1.15643716E-11  3.18957588E-02  5.37815899E-02
 -1.89132194E-01  6.48791116E-06 -1.92015087E-11 -1.71605353E-01 -2.84638960E-01
  9.74716349E-06 -2.14248148E-11 -2.03586540E-01 -2.30948935E-01  7.83081178E-06
 -1.73276143E-11 -7.59665223E-03 -1.04622834E-02  3.32666433E-07 -5.72741520E-12
 -1.30411490E-02  2.13357880E-11 -9.59269727E-13  5.97679602E-03 -4.14432175E-07
  3.18959254E-02  5.37818709E-02  1.89133182E-01 -6.48794506E-06 -6.88133691E-11
 -1.71606250E-01  2.84640447E-01 -9.74721442E-06 -9.02624643E-11 -2.03587603E-01
  2.30950141E-01 -7.83085270E-06 -7.42061832E-11 -7.59669221E-03  1.04623385E-02
 -3.32668165E-07 -1.19025690E-11 -1.30412171E-02 -4.15925101E-11  9.71205321E-13
  5.97682724E-03 -4.14434341E-07  4.72969672E-02  7.63972455E-02  2.79443691E-02
 -8.29427084E-03  8.99410079E-03  9.32687122E-15  4.72969448E-02  7.63972346E-02
  2.79444539E-02 -8.29489354E-03 -8.99353338E-03  1.22415000E-12  4.72972143E-02
  7.63976446E-02  2.79445151E-02  8.29431418E-03 -8.99414777E-03 -1.11763764E-12
  4.72971918E-02  7.63976337E-02  2.79445999E-02  8.29493689E-03  8.99358035E-03
  1.53551885E-13 -3.18963348E-02 -5.37829366E-02  1.89130953E-01 -6.48776546E-06
  1.92005607E-11  1.71616549E-01  2.84660853E-01 -9.74854022E-06  2.14318375E-11
  2.03560696E-01  2.30889688E-01 -7.82893890E-06  1.73092857E-11  7.65385268E-03
  1.05432820E-02 -3.29085770E-07  5.74961178E-12  1.30419721E-02 -2.13358442E-11
  9.59477953E-13 -5.97568628E-03  4.14767320E-07  3.18961681E-02  5.37826556E-02
  1.89129965E-01 -6.48773158E-06 -6.88129509E-11 -1.71615652E-01  2.84659366E-01
 -9.74848931E-06 -9.02680026E-11 -2.03559632E-01  2.30888482E-01 -7.82889802E-06
 -7.41912464E-11 -7.65381299E-03  1.05432274E-02 -3.29084053E-07 -1.19116747E-11
 -1.30419040E-02 -4.15922678E-11  9.71558165E-13  5.97565506E-03 -4.14765155E-07
 -4.72971348E-02 -7.63986507E-02 -2.79572167E-02  8.29686267E-03 -8.99319417E-03
 -8.73775702E-15 -4.72971128E-02 -7.63986350E-02 -2.79573150E-02  8.29748559E-03
  8.99262617E-03 -1.22282737E-12  4.72968878E-02  7.63982517E-02  2.79570707E-02
  8.29681935E-03 -8.99314719E-03 -1.11930591E-12  4.72968657E-02  7.63982359E-02
  2.79571691E-02  8.29744226E-03  8.99257919E-03  1.52061780E-13 -1.47559406E-11
 -2.27489844E-11 -4.01177576E-11  1.38952386E-11  1.84500440E-01  5.96814860E-11
 -7.16169385E-11  2.28340812E-11  2.96212686E-01  9.86934036E-11 -7.47164606E-11
  2.54053134E-11  3.17359693E-01  3.31738204E-11 -9.54711685E-12  1.11812562E-11
  7.26056289E-02 -2.32019888E-11 -9.81223101E-03  3.49403840E-07  2.99713839E-12
 -1.31368684E-12 -2.51587673E-11 -3.89724496E-11  1.04117443E-10 -1.38903703E-11
  1.84501799E-01  9.89262218E-11  1.80892667E-10 -2.29500862E-11  2.96214867E-01
  1.89613439E-10  1.94493750E-10 -2.54136533E-11  3.17362031E-01  5.11833957E-11
  2.86319143E-11 -1.10499829E-11  7.26061635E-02 -4.37851388E-11  9.81230328E-03
 -3.49406415E-07  5.75035211E-12 -1.36339192E-12 -1.43702407E-11 -2.29446072E-11
 -5.82325614E-12 -5.51907478E-12 -2.83055393E-12  1.64717188E-02 -1.48054713E-11
 -2.22105897E-11 -1.78203402E-11 -5.83460928E-12  5.97484594E-12  1.64717323E-02
 -2.50246914E-11 -4.50480967E-11 -1.89207512E-11  1.33885190E-11  7.06881166E-12
  1.64718401E-02 -2.54272459E-11 -4.46629258E-11 -3.04039013E-11  1.37488645E-11
 -1.02879477E-11  1.64718537E-02 -1.47542816E-11 -2.27459229E-11 -4.01251590E-11
  1.38962749E-11  1.84506523E-01  5.96693002E-11 -7.16301419E-11  2.28344978E-11
  2.96220930E-01  9.86908777E-11 -7.47242616E-11  2.54110266E-11  3.17376078E-01
  3.32518824E-11 -9.55371055E-12  1.11860208E-11  7.25878358E-02 -2.32030342E-11
 -9.81269607E-03  3.49415685E-07  2.99812339E-12 -1.31347278E-12  2.51587663E-11
  3.89724706E-11 -1.04120504E-10  1.38907660E-11 -1.84505164E-01 -9.89255974E-11
 -1.80894093E-10  2.29515066E-11 -2.96218748E-01 -1.89616807E-10 -1.94510881E-10