 Entering Gaussian System, Link 0=g16
 Initial command:
 /home/szhao/Apps/g16/l1.exe "/home/szhao/tmp/Gau-75251.inp" -scrdir="/home/szhao/tmp/"
 Default is to use a total of  16 processors:
                               16 via shared-memory
                                1 via Linda
 Entering Link 1 = /home/szhao/Apps/g16/l1.exe PID=     75310.
  
 Copyright (c) 1988,1990,1992,1993,1995,1998,2003,2009,2016,
            Gaussian, Inc.  All Rights Reserved.
  
 This is part of the Gaussian(R) 16 program.  It is based on
 the Gaussian(R) 09 system (copyright 2009, Gaussian, Inc.),
 the Gaussian(R) 03 system (copyright 2003, Gaussian, Inc.),
 the Gaussian(R) 98 system (copyright 1998, Gaussian, Inc.),
 the Gaussian(R) 94 system (copyright 1995, Gaussian, Inc.),
 the Gaussian 92(TM) system (copyright 1992, Gaussian, Inc.),
 the Gaussian 90(TM) system (copyright 1990, Gaussian, Inc.),
 the Gaussian 88(TM) system (copyright 1988, Gaussian, Inc.),
 the Gaussian 86(TM) system (copyright 1986, Carnegie Mellon
 University), and the Gaussian 82(TM) system (copyright 1983,
 Carnegie Mellon University). Gaussian is a federally registered
 trademark of Gaussian, Inc.
  
 This software contains proprietary and confidential information,
 including trade secrets, belonging to Gaussian, Inc.
  
 This software is provided under written license and may be
 used, copied, transmitted, or stored only in accord with that
 written license.
  
 The following legend is applicable only to US Government
 contracts under FAR:
  
                    RESTRICTED RIGHTS LEGEND
  
 Use, reproduction and disclosure by the US Government is
 subject to restrictions as set forth in subparagraphs (a)
 and (c) of the Commercial Computer Software - Restricted
 Rights clause in FAR 52.227-19.
  
 Gaussian, Inc.
 340 Quinnipiac St., Bldg. 40, Wallingford CT 06492
  
  
 ---------------------------------------------------------------
 Warning -- This program may not be used in any manner that
 competes with the business of Gaussian, Inc. or will provide
 assistance to any competitor of Gaussian, Inc.  The licensee
 of this program is prohibited from giving any competitor of
 Gaussian, Inc. access to this program.  By using this program,
 the user acknowledges that Gaussian, Inc. is engaged in the
 business of creating and licensing software in the field of
 computational chemistry and represents and warrants to the
 licensee that it is not a competitor of Gaussian, Inc. and that
 it will not use this program in any manner prohibited above.
 ---------------------------------------------------------------
  

 Cite this work as:
 Gaussian 16, Revision A.03,
 M. J. Frisch, G. W. Trucks, H. B. Schlegel, G. E. Scuseria, 
 M. A. Robb, J. R. Cheeseman, G. Scalmani, V. Barone, 
 G. A. Petersson, H. Nakatsuji, X. Li, M. Caricato, A. V. Marenich, 
 J. Bloino, B. G. Janesko, R. Gomperts, B. Mennucci, H. P. Hratchian, 
 J. V. Ortiz, A. F. Izmaylov, J. L. Sonnenberg, D. Williams-Young, 
 F. Ding, F. Lipparini, F. Egidi, J. Goings, B. Peng, A. Petrone, 
 T. Henderson, D. Ranasinghe, V. G. Zakrzewski, J. Gao, N. Rega, 
 G. Zheng, W. Liang, M. Hada, M. Ehara, K. Toyota, R. Fukuda, 
 J. Hasegawa, M. Ishida, T. Nakajima, Y. Honda, O. Kitao, H. Nakai, 
 T. Vreven, K. Throssell, J. A. Montgomery, Jr., J. E. Peralta, 
 F. Ogliaro, M. J. Bearpark, J. J. Heyd, E. N. Brothers, K. N. Kudin, 
 V. N. Staroverov, T. A. Keith, R. Kobayashi, J. Normand, 
 K. Raghavachari, A. P. Rendell, J. C. Burant, S. S. Iyengar, 
 J. Tomasi, M. Cossi, J. M. Millam, M. Klene, C. Adamo, R. Cammi, 
 J. W. Ochterski, R. L. Martin, K. Morokuma, O. Farkas, 
 J. B. Foresman, and D. J. Fox, Gaussian, Inc., Wallingford CT, 2016.
 
 ******************************************
 Gaussian 16:  ES64L-G16RevA.03 25-Dec-2016
                21-Apr-2025 
 ******************************************
 %chk=force.chk
 %mem=4GB
 %nprocshared=8
 Will use up to    8 processors via shared memory.
 ---------------------------------------------------
 #p UM062X/6-311+G** force int=superfine pop=saveNBO
 ---------------------------------------------------
 1/10=7,30=1,38=1/1,3;
 2/12=2,17=6,18=5,40=1/2;
 3/5=4,6=6,7=111,11=2,25=1,30=1,71=1,74=-55,75=-7,116=2/1,2,3;
 4//1;
 5/5=2,38=5/2;
 6/7=2,8=2,9=2,10=2,28=1,40=1,73=1/1,7;
 7/29=1/1,2,3,16;
 1/10=7,30=1/3;
 99//99;
 Leave Link    1 at Mon Apr 21 21:20:47 2025, MaxMem=   536870912 cpu:               2.7 elap:               0.4
 (Enter /home/szhao/Apps/g16/l101.exe)
 -------------------
 Title Card Required
 -------------------
 Symbolic Z-matrix:
 Charge =  0 Multiplicity = 1
 P                    -1.4635    0.        0. 
 P                     1.4635    0.        0. 
 
 ITRead=  0  0
 MicOpt= -1 -1
 NAtoms=      2 NQM=        2 NQMF=       0 NMMI=      0 NMMIF=      0
                NMic=       0 NMicF=      0.
                    Isotopes and Nuclear Properties:
 (Nuclear quadrupole moments (NQMom) in fm**2, nuclear magnetic moments (NMagM)
  in nuclear magnetons)

  Atom         1           2
 IAtWgt=          31          31
 AtmWgt=  30.9737634  30.9737634
 NucSpn=           1           1
 AtZEff=  -0.0000000  -0.0000000
 NQMom=    0.0000000   0.0000000
 NMagM=    1.1316000   1.1316000
 AtZNuc=  15.0000000  15.0000000
 Leave Link  101 at Mon Apr 21 21:20:48 2025, MaxMem=   536870912 cpu:               1.6 elap:               0.3
 (Enter /home/szhao/Apps/g16/l103.exe)

 GradGradGradGradGradGradGradGradGradGradGradGradGradGradGradGradGradGrad
 Berny optimization.
 Initialization pass.
 Trust Radius=3.00D-01 FncErr=1.00D-07 GrdErr=1.00D-07 EigMax=2.50D+02 EigMin=1.00D-04
 Number of steps in this run=      2 maximum allowed number of steps=      2.
 GradGradGradGradGradGradGradGradGradGradGradGradGradGradGradGradGradGrad

 Leave Link  103 at Mon Apr 21 21:20:48 2025, MaxMem=   536870912 cpu:               0.4 elap:               0.1
 (Enter /home/szhao/Apps/g16/l202.exe)
                          Input orientation:                          
 ---------------------------------------------------------------------
 Center     Atomic      Atomic             Coordinates (Angstroms)
 Number     Number       Type             X           Y           Z
 ---------------------------------------------------------------------
      1         15           0       -1.463495    0.000000    0.000000
      2         15           0        1.463495    0.000000    0.000000
 ---------------------------------------------------------------------
 Stoichiometry    P2
 Framework group  D*H[C*(P.P)]
 Deg. of freedom     1
 Full point group                 D*H     NOp   8
 Largest Abelian subgroup         D2H     NOp   8
 Largest concise Abelian subgroup C2      NOp   2
                         Standard orientation:                         
 ---------------------------------------------------------------------
 Center     Atomic      Atomic             Coordinates (Angstroms)
 Number     Number       Type             X           Y           Z
 ---------------------------------------------------------------------
      1         15           0        0.000000    0.000000    1.463495
      2         15           0        0.000000    0.000000   -1.463495
 ---------------------------------------------------------------------
 Rotational constants (GHZ):           0.0000000           3.8089980           3.8089980
 Leave Link  202 at Mon Apr 21 21:20:49 2025, MaxMem=   536870912 cpu:               0.3 elap:               0.2
 (Enter /home/szhao/Apps/g16/l301.exe)
 Standard basis: 6-311+G(d,p) (5D, 7F)
 Ernie: Thresh=  0.10000D-02 Tol=  0.10000D-05 Strict=F.
 There are    16 symmetry adapted cartesian basis functions of AG  symmetry.
 There are     1 symmetry adapted cartesian basis functions of B1G symmetry.
 There are     7 symmetry adapted cartesian basis functions of B2G symmetry.
 There are     7 symmetry adapted cartesian basis functions of B3G symmetry.
 There are     1 symmetry adapted cartesian basis functions of AU  symmetry.
 There are    16 symmetry adapted cartesian basis functions of B1U symmetry.
 There are     7 symmetry adapted cartesian basis functions of B2U symmetry.
 There are     7 symmetry adapted cartesian basis functions of B3U symmetry.
 There are    15 symmetry adapted basis functions of AG  symmetry.
 There are     1 symmetry adapted basis functions of B1G symmetry.
 There are     7 symmetry adapted basis functions of B2G symmetry.
 There are     7 symmetry adapted basis functions of B3G symmetry.
 There are     1 symmetry adapted basis functions of AU  symmetry.
 There are    15 symmetry adapted basis functions of B1U symmetry.
 There are     7 symmetry adapted basis functions of B2U symmetry.
 There are     7 symmetry adapted basis functions of B3U symmetry.
    60 basis functions,   100 primitive gaussians,    62 cartesian basis functions
    15 alpha electrons       15 beta electrons
       nuclear repulsion energy        40.6782641748 Hartrees.
 IExCor= 4336 DFT=T Ex+Corr=M062X ExCW=0 ScaHFX=  0.540000
 ScaDFX=  1.000000  1.000000  1.000000  1.000000 ScalE2=  1.000000  1.000000
 IRadAn=      7 IRanWt=     -1 IRanGd=            0 ICorTp=0 IEmpDi=  4
 NAtoms=    2 NActive=    2 NUniq=    1 SFac= 4.00D+00 NAtFMM=   60 NAOKFM=F Big=F
 Integral buffers will be    131072 words long.
 Raffenetti 2 integral format.
 Two-electron integral symmetry is turned on.
 Leave Link  301 at Mon Apr 21 21:20:49 2025, MaxMem=   536870912 cpu:               1.3 elap:               0.3
 (Enter /home/szhao/Apps/g16/l302.exe)
 NPDir=0 NMtPBC=     1 NCelOv=     1 NCel=       1 NClECP=     1 NCelD=      1
         NCelK=      1 NCelE2=     1 NClLst=     1 CellRange=     0.0.
 One-electron integrals computed using PRISM.
 One-electron integral symmetry used in STVInt
 NBasis=    60 RedAO= T EigKep=  7.19D-03  NBF=    15     1     7     7     1    15     7     7
 NBsUse=    60 1.00D-06 EigRej= -1.00D+00 NBFU=    15     1     7     7     1    15     7     7
 Precomputing XC quadrature grid using
 IXCGrd= 4 IRadAn=           7 IRanWt=          -1 IRanGd=           0 AccXCQ= 0.00D+00.
 Generated NRdTot=       0 NPtTot=           0 NUsed=           0 NTot=          32
 NSgBfM=    56    56    56    56    56 MxSgAt=     2 MxSgA2=     2.
 Leave Link  302 at Mon Apr 21 21:20:51 2025, MaxMem=   536870912 cpu:               1.8 elap:               0.6
 (Enter /home/szhao/Apps/g16/l303.exe)
 DipDrv:  MaxL=1.
 Leave Link  303 at Mon Apr 21 21:20:51 2025, MaxMem=   536870912 cpu:               0.5 elap:               0.1
 (Enter /home/szhao/Apps/g16/l401.exe)
 ExpMin= 3.48D-02 ExpMax= 7.75D+04 ExpMxC= 2.65D+03 IAcc=3 IRadAn=         7 AccDes= 0.00D+00
 Harris functional with IExCor= 1009 and IRadAn=       7 diagonalized for initial guess.
 HarFok:  IExCor= 1009 AccDes= 0.00D+00 IRadAn=         7 IDoV= 1 UseB2=F ITyADJ=14
 ICtDFT=  3500011 ScaDFX=  1.000000  1.000000  1.000000  1.000000
 FoFCou: FMM=F IPFlag=           0 FMFlag=      100000 FMFlg1=           0
         NFxFlg=           0 DoJE=T BraDBF=F KetDBF=T FulRan=T
         wScrn=  0.000000 ICntrl=       500 IOpCl=  0 I1Cent=   200000004 NGrid=           0
         NMat0=    1 NMatS0=      1 NMatT0=    0 NMatD0=    1 NMtDS0=    0 NMtDT0=    0
 Petite list used in FoFCou.
 Harris En= -682.179530302308    
 JPrj=0 DoOrth=F DoCkMO=F.
 Initial guess orbital symmetries:
 Alpha Orbitals:
       Occupied  (SGU) (SGG) (SGU) (SGG) (SGG) (SGU) (PIG) (PIG)
                 (PIU) (PIU) (SGG) (SGU) (SGG) (PIU) (PIU)
       Virtual   (PIG) (PIG) (SGU) (SGG) (SGU) (PIU) (PIU) (SGG)
                 (PIG) (PIG) (SGU) (SGU) (PIU) (PIU) (PIG) (PIG)
                 (SGG) (SGG) (SGU) (SGG) (PIU) (PIU) (DLTG) (DLTG)
                 (DLTU) (DLTU) (PIG) (PIG) (SGU) (SGG) (PIU) (PIU)
                 (PIG) (PIG) (SGU) (SGG) (SGU) (SGG) (PIU) (PIU)
                 (PIG) (PIG) (SGU) (SGG) (SGU)
 Beta  Orbitals:
       Occupied  (SGU) (SGG) (SGU) (SGG) (SGG) (SGU) (PIG) (PIG)
                 (PIU) (PIU) (SGG) (SGU) (SGG) (PIU) (PIU)
       Virtual   (PIG) (PIG) (SGU) (SGG) (SGU) (PIU) (PIU) (SGG)
                 (PIG) (PIG) (SGU) (SGU) (PIU) (PIU) (PIG) (PIG)
                 (SGG) (SGG) (SGU) (SGG) (PIU) (PIU) (DLTG) (DLTG)
                 (DLTU) (DLTU) (PIG) (PIG) (SGU) (SGG) (PIU) (PIU)
                 (PIG) (PIG) (SGU) (SGG) (SGU) (SGG) (PIU) (PIU)
                 (PIG) (PIG) (SGU) (SGG) (SGU)
 The electronic state of the initial guess is 1-SGG.
 Initial guess <Sx>= 0.0000 <Sy>= 0.0000 <Sz>= 0.0000 <S**2>=-0.0000 S=-0.0000
 Leave Link  401 at Mon Apr 21 21:20:52 2025, MaxMem=   536870912 cpu:               1.6 elap:               0.3
 (Enter /home/szhao/Apps/g16/l502.exe)
 Keep R1 and R2 ints in memory in symmetry-blocked form, NReq=8792365.
 FoFCou: FMM=F IPFlag=           0 FMFlag=           0 FMFlg1=           0
         NFxFlg=           0 DoJE=F BraDBF=F KetDBF=F FulRan=T
         wScrn=  0.000000 ICntrl=       600 IOpCl=  0 I1Cent=           0 NGrid=           0
         NMat0=    1 NMatS0=   1830 NMatT0=    0 NMatD0=    1 NMtDS0=    0 NMtDT0=    0
 Petite list used in FoFCou.
 UHF open shell SCF:
 Using DIIS extrapolation, IDIIS=  1040.
 NGot=   536870912 LenX=   536388430 LenY=   536384145
 Requested convergence on RMS density matrix=1.00D-08 within 128 cycles.
 Requested convergence on MAX density matrix=1.00D-06.
 Requested convergence on             energy=1.00D-06.
 No special actions if energy rises.

 Cycle   1  Pass 1  IDiag  1:
 E= -682.425202432440    
 DIIS: error= 2.93D-02 at cycle   1 NSaved=   1.
 NSaved= 1 IEnMin= 1 EnMin= -682.425202432440     IErMin= 1 ErrMin= 2.93D-02
 ErrMax= 2.93D-02  0.00D+00 EMaxC= 1.00D-01 BMatC= 2.17D-01 BMatP= 2.17D-01
 IDIUse=3 WtCom= 7.07D-01 WtEn= 2.93D-01
 Coeff-Com:  0.100D+01
 Coeff-En:   0.100D+01
 Coeff:      0.100D+01
 Gap=     0.123 Goal=   None    Shift=    0.000
 Gap=     0.123 Goal=   None    Shift=    0.000
 GapD=    0.123 DampG=1.000 DampE=0.500 DampFc=0.5000 IDamp=-1.
 Damping current iteration by 5.00D-01
 RMSDP=2.45D-03 MaxDP=4.95D-02              OVMax= 3.25D-02

 Cycle   2  Pass 1  IDiag  1:
 E= -682.431113499737     Delta-E=       -0.005911067297 Rises=F Damp=T
 DIIS: error= 1.17D-02 at cycle   2 NSaved=   2.
 NSaved= 2 IEnMin= 2 EnMin= -682.431113499737     IErMin= 2 ErrMin= 1.17D-02
 ErrMax= 1.17D-02  0.00D+00 EMaxC= 1.00D-01 BMatC= 3.14D-02 BMatP= 2.17D-01
 IDIUse=3 WtCom= 8.83D-01 WtEn= 1.17D-01
 Coeff-Com: -0.541D+00 0.154D+01
 Coeff-En:   0.000D+00 0.100D+01
 Coeff:     -0.478D+00 0.148D+01
 Gap=     0.125 Goal=   None    Shift=    0.000
 Gap=     0.125 Goal=   None    Shift=    0.000
 RMSDP=9.69D-04 MaxDP=1.51D-02 DE=-5.91D-03 OVMax= 7.42D-03

 Cycle   3  Pass 1  IDiag  1:
 E= -682.436458896908     Delta-E=       -0.005345397171 Rises=F Damp=F
 DIIS: error= 3.26D-04 at cycle   3 NSaved=   3.
 NSaved= 3 IEnMin= 3 EnMin= -682.436458896908     IErMin= 3 ErrMin= 3.26D-04
 ErrMax= 3.26D-04  0.00D+00 EMaxC= 1.00D-01 BMatC= 3.40D-05 BMatP= 3.14D-02
 IDIUse=3 WtCom= 9.97D-01 WtEn= 3.26D-03
 Coeff-Com: -0.162D-01 0.228D-01 0.993D+00
 Coeff-En:   0.000D+00 0.000D+00 0.100D+01
 Coeff:     -0.162D-01 0.227D-01 0.993D+00
 Gap=     0.125 Goal=   None    Shift=    0.000
 Gap=     0.125 Goal=   None    Shift=    0.000
 RMSDP=1.01D-04 MaxDP=1.80D-03 DE=-5.35D-03 OVMax= 1.96D-03

 Cycle   4  Pass 1  IDiag  1:
 E= -682.436472642550     Delta-E=       -0.000013745642 Rises=F Damp=F
 DIIS: error= 6.77D-05 at cycle   4 NSaved=   4.
 NSaved= 4 IEnMin= 4 EnMin= -682.436472642550     IErMin= 4 ErrMin= 6.77D-05
 ErrMax= 6.77D-05  0.00D+00 EMaxC= 1.00D-01 BMatC= 1.63D-06 BMatP= 3.40D-05
 IDIUse=1 WtCom= 1.00D+00 WtEn= 0.00D+00
 Coeff-Com:  0.539D-02-0.132D-01 0.305D-01 0.977D+00
 Coeff:      0.539D-02-0.132D-01 0.305D-01 0.977D+00
 Gap=     0.125 Goal=   None    Shift=    0.000
 Gap=     0.125 Goal=   None    Shift=    0.000
 RMSDP=2.41D-05 MaxDP=4.26D-04 DE=-1.37D-05 OVMax= 5.82D-04

 Cycle   5  Pass 1  IDiag  1:
 E= -682.436473427241     Delta-E=       -0.000000784691 Rises=F Damp=F
 DIIS: error= 3.05D-05 at cycle   5 NSaved=   5.
 NSaved= 5 IEnMin= 5 EnMin= -682.436473427241     IErMin= 5 ErrMin= 3.05D-05
 ErrMax= 3.05D-05  0.00D+00 EMaxC= 1.00D-01 BMatC= 1.74D-07 BMatP= 1.63D-06
 IDIUse=1 WtCom= 1.00D+00 WtEn= 0.00D+00
 Coeff-Com:  0.178D-03 0.241D-03-0.689D-01 0.810D-01 0.987D+00
 Coeff:      0.178D-03 0.241D-03-0.689D-01 0.810D-01 0.987D+00
 Gap=     0.125 Goal=   None    Shift=    0.000
 Gap=     0.125 Goal=   None    Shift=    0.000
 RMSDP=5.25D-06 MaxDP=7.60D-05 DE=-7.85D-07 OVMax= 1.47D-04

 Cycle   6  Pass 1  IDiag  1:
 E= -682.436473486653     Delta-E=       -0.000000059412 Rises=F Damp=F
 DIIS: error= 4.73D-06 at cycle   6 NSaved=   6.
 NSaved= 6 IEnMin= 6 EnMin= -682.436473486653     IErMin= 6 ErrMin= 4.73D-06
 ErrMax= 4.73D-06  0.00D+00 EMaxC= 1.00D-01 BMatC= 3.33D-09 BMatP= 1.74D-07
 IDIUse=1 WtCom= 1.00D+00 WtEn= 0.00D+00
 Coeff-Com: -0.312D-04 0.208D-03-0.121D-01 0.103D-01 0.199D+00 0.803D+00
 Coeff:     -0.312D-04 0.208D-03-0.121D-01 0.103D-01 0.199D+00 0.803D+00
 Gap=     0.125 Goal=   None    Shift=    0.000
 Gap=     0.125 Goal=   None    Shift=    0.000
 RMSDP=7.21D-07 MaxDP=8.34D-06 DE=-5.94D-08 OVMax= 1.81D-05

 Cycle   7  Pass 1  IDiag  1:
 E= -682.436473487820     Delta-E=       -0.000000001168 Rises=F Damp=F
 DIIS: error= 9.55D-07 at cycle   7 NSaved=   7.
 NSaved= 7 IEnMin= 7 EnMin= -682.436473487820     IErMin= 7 ErrMin= 9.55D-07
 ErrMax= 9.55D-07  0.00D+00 EMaxC= 1.00D-01 BMatC= 1.57D-10 BMatP= 3.33D-09
 IDIUse=1 WtCom= 1.00D+00 WtEn= 0.00D+00
 Coeff-Com:  0.336D-04-0.725D-04 0.698D-03-0.321D-02-0.178D-01 0.864D-01
 Coeff-Com:  0.934D+00
 Coeff:      0.336D-04-0.725D-04 0.698D-03-0.321D-02-0.178D-01 0.864D-01
 Coeff:      0.934D+00
 Gap=     0.125 Goal=   None    Shift=    0.000
 Gap=     0.125 Goal=   None    Shift=    0.000
 RMSDP=3.36D-07 MaxDP=3.26D-06 DE=-1.17D-09 OVMax= 4.72D-06

 Cycle   8  Pass 1  IDiag  1:
 E= -682.436473487904     Delta-E=       -0.000000000084 Rises=F Damp=F
 DIIS: error= 2.44D-07 at cycle   8 NSaved=   8.
 NSaved= 8 IEnMin= 8 EnMin= -682.436473487904     IErMin= 8 ErrMin= 2.44D-07
 ErrMax= 2.44D-07  0.00D+00 EMaxC= 1.00D-01 BMatC= 7.17D-12 BMatP= 1.57D-10
 IDIUse=1 WtCom= 1.00D+00 WtEn= 0.00D+00
 Coeff-Com: -0.192D-04 0.415D-04-0.333D-03 0.968D-03 0.878D-02-0.490D-01
 Coeff-Com: -0.426D+00 0.147D+01
 Coeff:     -0.192D-04 0.415D-04-0.333D-03 0.968D-03 0.878D-02-0.490D-01
 Coeff:     -0.426D+00 0.147D+01
 Gap=     0.125 Goal=   None    Shift=    0.000
 Gap=     0.125 Goal=   None    Shift=    0.000
 RMSDP=2.48D-07 MaxDP=2.54D-06 DE=-8.38D-11 OVMax= 3.56D-06

 Cycle   9  Pass 1  IDiag  1:
 E= -682.436473487923     Delta-E=       -0.000000000019 Rises=F Damp=F
 DIIS: error= 9.19D-08 at cycle   9 NSaved=   9.
 NSaved= 9 IEnMin= 9 EnMin= -682.436473487923     IErMin= 9 ErrMin= 9.19D-08
 ErrMax= 9.19D-08  0.00D+00 EMaxC= 1.00D-01 BMatC= 1.02D-12 BMatP= 7.17D-12
 IDIUse=1 WtCom= 1.00D+00 WtEn= 0.00D+00
 Coeff-Com:  0.685D-05-0.132D-04-0.743D-04-0.472D-04 0.617D-04 0.152D-01
 Coeff-Com:  0.916D-01-0.803D+00 0.170D+01
 Coeff:      0.685D-05-0.132D-04-0.743D-04-0.472D-04 0.617D-04 0.152D-01
 Coeff:      0.916D-01-0.803D+00 0.170D+01
 Gap=     0.125 Goal=   None    Shift=    0.000
 Gap=     0.125 Goal=   None    Shift=    0.000
 RMSDP=1.45D-07 MaxDP=1.50D-06 DE=-1.85D-11 OVMax= 2.13D-06

 Cycle  10  Pass 1  IDiag  1:
 E= -682.436473487926     Delta-E=       -0.000000000003 Rises=F Damp=F
 DIIS: error= 7.70D-09 at cycle  10 NSaved=  10.
 NSaved=10 IEnMin=10 EnMin= -682.436473487926     IErMin=10 ErrMin= 7.70D-09
 ErrMax= 7.70D-09  0.00D+00 EMaxC= 1.00D-01 BMatC= 7.77D-15 BMatP= 1.02D-12
 IDIUse=1 WtCom= 1.00D+00 WtEn= 0.00D+00
 Coeff-Com: -0.950D-06 0.181D-05 0.133D-04 0.576D-05-0.107D-03-0.172D-02
 Coeff-Com: -0.887D-02 0.111D+00-0.325D+00 0.122D+01
 Coeff:     -0.950D-06 0.181D-05 0.133D-04 0.576D-05-0.107D-03-0.172D-02
 Coeff:     -0.887D-02 0.111D+00-0.325D+00 0.122D+01
 Gap=     0.125 Goal=   None    Shift=    0.000
 Gap=     0.125 Goal=   None    Shift=    0.000
 RMSDP=1.15D-08 MaxDP=1.17D-07 DE=-3.30D-12 OVMax= 1.69D-07

 Cycle  11  Pass 1  IDiag  1:
 E= -682.436473487926     Delta-E=       -0.000000000000 Rises=F Damp=F
 DIIS: error= 6.32D-10 at cycle  11 NSaved=  11.
 NSaved=11 IEnMin=11 EnMin= -682.436473487926     IErMin=11 ErrMin= 6.32D-10
 ErrMax= 6.32D-10  0.00D+00 EMaxC= 1.00D-01 BMatC= 5.19D-17 BMatP= 7.77D-15
 IDIUse=1 WtCom= 1.00D+00 WtEn= 0.00D+00
 Coeff-Com:  0.119D-06-0.223D-06-0.163D-05-0.138D-05 0.188D-04 0.190D-03
 Coeff-Com:  0.930D-03-0.131D-01 0.478D-01-0.220D+00 0.118D+01
 Coeff:      0.119D-06-0.223D-06-0.163D-05-0.138D-05 0.188D-04 0.190D-03
 Coeff:      0.930D-03-0.131D-01 0.478D-01-0.220D+00 0.118D+01
 Gap=     0.125 Goal=   None    Shift=    0.000
 Gap=     0.125 Goal=   None    Shift=    0.000
 RMSDP=6.09D-10 MaxDP=5.53D-09 DE=-3.41D-13 OVMax= 1.08D-08

 SCF Done:  E(UM062X) =  -682.436473488     A.U. after   11 cycles
            NFock= 11  Conv=0.61D-09     -V/T= 2.0021
 <Sx>= 0.0000 <Sy>= 0.0000 <Sz>= 0.0000 <S**2>=-0.0000 S=-0.0000
 <L.S>=  0.00000000000    
 KE= 6.810064046800D+02 PE=-1.704516232644D+03 EE= 3.003950903018D+02
 Annihilation of the first spin contaminant:
 S**2 before annihilation    -0.0000,   after     0.0000
 Leave Link  502 at Mon Apr 21 21:20:53 2025, MaxMem=   536870912 cpu:               7.8 elap:               1.1
 (Enter /home/szhao/Apps/g16/l601.exe)
 Copying SCF densities to generalized density rwf, IOpCl= 1 IROHF=0.

 **********************************************************************

            Population analysis using the SCF density.

 **********************************************************************

 Orbital symmetries:
 Alpha Orbitals:
       Occupied  (SGU) (SGG) (SGG) (SGU) (PIU) (PIU) (PIG) (PIG)
                 (SGG) (SGU) (SGG) (SGU) (SGG) (PIU) (PIU)
       Virtual   (PIG) (PIG) (SGU) (SGG) (SGU) (PIU) (PIU) (SGG)
                 (PIG) (PIG) (SGU) (SGU) (PIU) (PIU) (PIG) (PIG)
                 (SGG) (SGG) (SGU) (SGG) (PIU) (PIU) (DLTG) (DLTG)
                 (DLTU) (DLTU) (PIG) (PIG) (SGU) (SGG) (PIU) (PIU)
                 (PIG) (PIG) (SGU) (SGG) (SGU) (SGG) (PIU) (PIU)
                 (PIG) (PIG) (SGU) (SGG) (SGU)
 Beta  Orbitals:
       Occupied  (SGU) (SGG) (SGG) (SGU) (PIU) (PIU) (PIG) (PIG)
                 (SGG) (SGU) (SGG) (SGU) (SGG) (PIU) (PIU)
       Virtual   (PIG) (PIG) (SGU) (SGG) (SGU) (PIU) (PIU) (SGG)
                 (PIG) (PIG) (SGU) (SGU) (PIU) (PIU) (PIG) (PIG)
                 (SGG) (SGG) (SGU) (SGG) (PIU) (PIU) (DLTG) (DLTG)
                 (DLTU) (DLTU) (PIG) (PIG) (SGU) (SGG) (PIU) (PIU)
                 (PIG) (PIG) (SGU) (SGG) (SGU) (SGG) (PIU) (PIU)
                 (PIG) (PIG) (SGU) (SGG) (SGU)
 The electronic state is 1-SGG.
 Alpha  occ. eigenvalues --  -78.11671 -78.11671  -6.93204  -6.93201  -5.04528
 Alpha  occ. eigenvalues --   -5.04528  -5.04528  -5.04528  -5.04462  -5.04460
 Alpha  occ. eigenvalues --   -0.66400  -0.61069  -0.31097  -0.27339  -0.27339
 Alpha virt. eigenvalues --   -0.14838  -0.14838  -0.08928   0.02453   0.03482
 Alpha virt. eigenvalues --    0.04591   0.04591   0.06088   0.06615   0.06615
 Alpha virt. eigenvalues --    0.11657   0.28875   0.30173   0.30173   0.33149
 Alpha virt. eigenvalues --    0.33149   0.34907   0.48994   0.58465   0.67186
 Alpha virt. eigenvalues --    0.68306   0.68306   0.68860   0.68861   0.69314
 Alpha virt. eigenvalues --    0.69315   0.71423   0.71423   0.83957   1.46462
 Alpha virt. eigenvalues --    1.51460   1.51460   1.54377   1.54377   1.62956
 Alpha virt. eigenvalues --    6.71330   6.79186  13.88025  13.91569  13.91569
 Alpha virt. eigenvalues --   13.93721  13.93721  14.00101 162.94217 163.04346
  Beta  occ. eigenvalues --  -78.11671 -78.11671  -6.93204  -6.93201  -5.04528
  Beta  occ. eigenvalues --   -5.04528  -5.04528  -5.04528  -5.04462  -5.04460
  Beta  occ. eigenvalues --   -0.66400  -0.61069  -0.31097  -0.27339  -0.27339
  Beta virt. eigenvalues --   -0.14838  -0.14838  -0.08928   0.02453   0.03482
  Beta virt. eigenvalues --    0.04591   0.04591   0.06088   0.06615   0.06615
  Beta virt. eigenvalues --    0.11657   0.28875   0.30173   0.30173   0.33149
  Beta virt. eigenvalues --    0.33149   0.34907   0.48994   0.58465   0.67186
  Beta virt. eigenvalues --    0.68306   0.68306   0.68860   0.68861   0.69314
  Beta virt. eigenvalues --    0.69315   0.71423   0.71423   0.83957   1.46462
  Beta virt. eigenvalues --    1.51460   1.51460   1.54377   1.54377   1.62956
  Beta virt. eigenvalues --    6.71330   6.79186  13.88025  13.91569  13.91569
  Beta virt. eigenvalues --   13.93721  13.93721  14.00101 162.94217 163.04346
          Condensed to atoms (all electrons):
               1          2
     1  P   14.579384   0.420616
     2  P    0.420616  14.579384
          Atomic-Atomic Spin Densities.
               1          2
     1  P    0.000000  -0.000000
     2  P   -0.000000   0.000000
 Mulliken charges and spin densities:
               1          2
     1  P   -0.000000  -0.000000
     2  P   -0.000000  -0.000000
 Sum of Mulliken charges =  -0.00000  -0.00000
 Mulliken charges and spin densities with hydrogens summed into heavy atoms:
               1          2
     1  P   -0.000000  -0.000000
     2  P   -0.000000  -0.000000
 Electronic spatial extent (au):  <R**2>=            291.1981
 Charge=             -0.0000 electrons
 Dipole moment (field-independent basis, Debye):
    X=              0.0000    Y=             -0.0000    Z=             -0.0000  Tot=              0.0000
 Quadrupole moment (field-independent basis, Debye-Ang):
   XX=            -29.0647   YY=            -29.0647   ZZ=            -24.9144
   XY=              0.0000   XZ=             -0.0000   YZ=              0.0000
 Traceless Quadrupole moment (field-independent basis, Debye-Ang):
   XX=             -1.3835   YY=             -1.3835   ZZ=              2.7669
   XY=              0.0000   XZ=             -0.0000   YZ=              0.0000
 Octapole moment (field-independent basis, Debye-Ang**2):
  XXX=             -0.0000  YYY=              0.0000  ZZZ=              0.0000  XYY=             -0.0000
  XXY=              0.0000  XXZ=              0.0000  XZZ=             -0.0000  YZZ=              0.0000
  YYZ=             -0.0000  XYZ=              0.0000
 Hexadecapole moment (field-independent basis, Debye-Ang**3):
 XXXX=            -54.4578 YYYY=            -54.4578 ZZZZ=           -386.1740 XXXY=              0.0000
 XXXZ=              0.0000 YYYX=              0.0000 YYYZ=              0.0000 ZZZX=              0.0000
 ZZZY=              0.0000 XXYY=            -18.1526 XXZZ=            -74.7468 YYZZ=            -74.7468
 XXYZ=              0.0000 YYXZ=              0.0000 ZZXY=              0.0000
 N-N= 4.067826417480D+01 E-N=-1.704516232622D+03  KE= 6.810064046800D+02
 Symmetry AG   KE= 2.796939349519D+02
 Symmetry B1G  KE= 9.226555299637D-37
 Symmetry B2G  KE= 2.971056474336D+01
 Symmetry B3G  KE= 2.971056474336D+01
 Symmetry AU   KE= 8.829879289034D-36
 Symmetry B1U  KE= 2.775450179863D+02
 Symmetry B2U  KE= 3.217316112753D+01
 Symmetry B3U  KE= 3.217316112753D+01
 Symmetry AG   SP=-7.309561891153D-15
 Symmetry B1G  SP=-8.409957239732D-52
 Symmetry B2G  SP=-2.797429225178D-16
 Symmetry B3G  SP= 1.255595322553D-16
 Symmetry AU   SP= 1.144245073065D-50
 Symmetry B1U  SP=-1.013093041605D-14
 Symmetry B2U  SP=-5.943401833382D-15
 Symmetry B3U  SP=-3.021226970304D-15
                          Isotropic Fermi Contact Couplings
        Atom                 a.u.       MegaHertz       Gauss      10(-4) cm-1
     1  P(31)             -0.00000      -0.00000      -0.00000      -0.00000
     2  P(31)             -0.00000      -0.00000      -0.00000      -0.00000
 --------------------------------------------------------
       Center         ----  Spin Dipole Couplings  ----
                      3XX-RR        3YY-RR        3ZZ-RR
 --------------------------------------------------------
     1   Atom        0.000000      0.000000      0.000000
     2   Atom        0.000000      0.000000      0.000000
 --------------------------------------------------------
                        XY            XZ            YZ
 --------------------------------------------------------
     1   Atom        0.000000      0.000000      0.000000
     2   Atom        0.000000      0.000000      0.000000
 --------------------------------------------------------


 ---------------------------------------------------------------------------------
              Anisotropic Spin Dipole Couplings in Principal Axis System
 ---------------------------------------------------------------------------------

       Atom             a.u.   MegaHertz   Gauss  10(-4) cm-1        Axes

              Baa     0.0000     0.000     0.000     0.000  1.0000  0.0000  0.0000
     1 P(31)  Bbb     0.0000     0.000     0.000     0.000 -0.0000  1.0000  0.0000
              Bcc     0.0000     0.000     0.000     0.000  0.0000  0.0000  1.0000
 
              Baa     0.0000     0.000     0.000     0.000  1.0000  0.0000  0.0000
     2 P(31)  Bbb     0.0000     0.000     0.000     0.000 -0.0000  1.0000  0.0000
              Bcc     0.0000     0.000     0.000     0.000  0.0000  0.0000  1.0000
 

 ---------------------------------------------------------------------------------

 No NMR shielding tensors so no spin-rotation constants.
 Leave Link  601 at Mon Apr 21 21:20:54 2025, MaxMem=   536870912 cpu:               2.0 elap:               0.6
 (Enter /home/szhao/Apps/g16/l607.exe)
 ******************************Gaussian NBO Version 3.1******************************
             N A T U R A L   A T O M I C   O R B I T A L   A N D
          N A T U R A L   B O N D   O R B I T A L   A N A L Y S I S
 ******************************Gaussian NBO Version 3.1******************************
       /RESON  / : Allow strongly delocalized NBO set

 Analyzing the SCF density

 Job title: Title Card Required                                             

 Storage needed:     11250 in NPA,     14614 in NBO ( 536870884 available)
 GSVD:  LWork=         720 too small for GESVD, short by        4716 words or        4716 for optimal perf.


 NATURAL POPULATIONS:  Natural atomic orbital occupancies 
                                                          
   NAO  Atom  No  lang   Type(AO)    Occupancy
 --------------------------------------------
     1    P    1  S      Cor( 1S)     2.00000
     2    P    1  S      Cor( 2S)     1.99998
     3    P    1  S      Val( 3S)     1.96703
     4    P    1  S      Ryd( 4S)     0.00003
     5    P    1  S      Ryd( 5S)     0.00000
     6    P    1  S      Ryd( 6S)     0.00000
     7    P    1  S      Ryd( 7S)     0.00000
     8    P    1  px     Cor( 2p)     2.00000
     9    P    1  px     Val( 3p)     0.99945
    10    P    1  px     Ryd( 4p)     0.00013
    11    P    1  px     Ryd( 5p)     0.00000
    12    P    1  px     Ryd( 6p)     0.00000
    13    P    1  px     Ryd( 7p)     0.00000
    14    P    1  py     Cor( 2p)     2.00000
    15    P    1  py     Val( 3p)     0.99945
    16    P    1  py     Ryd( 4p)     0.00013
    17    P    1  py     Ryd( 5p)     0.00000
    18    P    1  py     Ryd( 6p)     0.00000
    19    P    1  py     Ryd( 7p)     0.00000
    20    P    1  pz     Cor( 2p)     1.99999
    21    P    1  pz     Val( 3p)     1.03093
    22    P    1  pz     Ryd( 4p)     0.00071
    23    P    1  pz     Ryd( 5p)     0.00011
    24    P    1  pz     Ryd( 6p)     0.00002
    25    P    1  pz     Ryd( 7p)     0.00000
    26    P    1  dxy    Ryd( 3d)     0.00000
    27    P    1  dxz    Ryd( 3d)     0.00041
    28    P    1  dyz    Ryd( 3d)     0.00041
    29    P    1  dx2y2  Ryd( 3d)     0.00000
    30    P    1  dz2    Ryd( 3d)     0.00120
 
    31    P    2  S      Cor( 1S)     2.00000
    32    P    2  S      Cor( 2S)     1.99998
    33    P    2  S      Val( 3S)     1.96703
    34    P    2  S      Ryd( 4S)     0.00003
    35    P    2  S      Ryd( 5S)     0.00000
    36    P    2  S      Ryd( 6S)     0.00000
    37    P    2  S      Ryd( 7S)     0.00000
    38    P    2  px     Cor( 2p)     2.00000
    39    P    2  px     Val( 3p)     0.99945
    40    P    2  px     Ryd( 4p)     0.00013
    41    P    2  px     Ryd( 5p)     0.00000
    42    P    2  px     Ryd( 6p)     0.00000
    43    P    2  px     Ryd( 7p)     0.00000
    44    P    2  py     Cor( 2p)     2.00000
    45    P    2  py     Val( 3p)     0.99945
    46    P    2  py     Ryd( 4p)     0.00013
    47    P    2  py     Ryd( 5p)     0.00000
    48    P    2  py     Ryd( 6p)     0.00000
    49    P    2  py     Ryd( 7p)     0.00000
    50    P    2  pz     Cor( 2p)     1.99999
    51    P    2  pz     Val( 3p)     1.03093
    52    P    2  pz     Ryd( 4p)     0.00071
    53    P    2  pz     Ryd( 5p)     0.00011
    54    P    2  pz     Ryd( 6p)     0.00002
    55    P    2  pz     Ryd( 7p)     0.00000
    56    P    2  dxy    Ryd( 3d)     0.00000
    57    P    2  dxz    Ryd( 3d)     0.00041
    58    P    2  dyz    Ryd( 3d)     0.00041
    59    P    2  dx2y2  Ryd( 3d)     0.00000
    60    P    2  dz2    Ryd( 3d)     0.00120


 Summary of Natural Population Analysis:                  
                                                          
                                       Natural Population 
                Natural  -----------------------------------------------
    Atom  No    Charge         Core      Valence    Rydberg      Total
 -----------------------------------------------------------------------
      P    1   -0.00000      9.99996     4.99687    0.00318    15.00000
      P    2   -0.00000      9.99996     4.99687    0.00318    15.00000
 =======================================================================
   * Total *   -0.00000     19.99991     9.99374    0.00635    30.00000

                                 Natural Population      
 --------------------------------------------------------
   Core                      19.99991 ( 99.9996% of  20)
   Valence                    9.99374 ( 99.9374% of  10)
   Natural Minimal Basis     29.99365 ( 99.9788% of  30)
   Natural Rydberg Basis      0.00635 (  0.0212% of  30)
 --------------------------------------------------------

    Atom  No          Natural Electron Configuration
 ----------------------------------------------------------------------------
      P    1      [core]3S( 1.97)3p( 3.03)
      P    2      [core]3S( 1.97)3p( 3.03)


 ***************************************************
 *******         Alpha spin orbitals         *******
 ***************************************************


 NATURAL POPULATIONS:  Natural atomic orbital occupancies 
                                                          
   NAO  Atom  No  lang   Type(AO)    Occupancy      Energy
 ----------------------------------------------------------
     1    P    1  S      Cor( 1S)     1.00000     -77.32739
     2    P    1  S      Cor( 2S)     0.99999      -7.63701
     3    P    1  S      Val( 3S)     0.98351      -0.70666
     4    P    1  S      Ryd( 4S)     0.00002       0.32837
     5    P    1  S      Ryd( 5S)     0.00000       0.45327
     6    P    1  S      Ryd( 6S)     0.00000      12.38093
     7    P    1  S      Ryd( 7S)     0.00000     157.19923
     8    P    1  px     Cor( 2p)     1.00000      -5.04522
     9    P    1  px     Val( 3p)     0.49973      -0.21009
    10    P    1  px     Ryd( 4p)     0.00007       0.08378
    11    P    1  px     Ryd( 5p)     0.00000       0.51612
    12    P    1  px     Ryd( 6p)     0.00000       1.84452
    13    P    1  px     Ryd( 7p)     0.00000      13.38587
    14    P    1  py     Cor( 2p)     1.00000      -5.04522
    15    P    1  py     Val( 3p)     0.49973      -0.21009
    16    P    1  py     Ryd( 4p)     0.00007       0.08378
    17    P    1  py     Ryd( 5p)     0.00000       0.51612
    18    P    1  py     Ryd( 6p)     0.00000       1.84452
    19    P    1  py     Ryd( 7p)     0.00000      13.38587
    20    P    1  pz     Cor( 2p)     0.99999      -5.04441
    21    P    1  pz     Val( 3p)     0.51547      -0.21110
    22    P    1  pz     Ryd( 4p)     0.00035       0.09121
    23    P    1  pz     Ryd( 5p)     0.00005       0.56082
    24    P    1  pz     Ryd( 6p)     0.00001       1.83800
    25    P    1  pz     Ryd( 7p)     0.00000      13.38959
    26    P    1  dxy    Ryd( 3d)     0.00000       0.69088
    27    P    1  dxz    Ryd( 3d)     0.00021       0.69578
    28    P    1  dyz    Ryd( 3d)     0.00021       0.69578
    29    P    1  dx2y2  Ryd( 3d)     0.00000       0.69087
    30    P    1  dz2    Ryd( 3d)     0.00060       0.71778
 
    31    P    2  S      Cor( 1S)     1.00000     -77.32739
    32    P    2  S      Cor( 2S)     0.99999      -7.63701
    33    P    2  S      Val( 3S)     0.98351      -0.70666
    34    P    2  S      Ryd( 4S)     0.00002       0.32837
    35    P    2  S      Ryd( 5S)     0.00000       0.45327
    36    P    2  S      Ryd( 6S)     0.00000      12.38093
    37    P    2  S      Ryd( 7S)     0.00000     157.19923
    38    P    2  px     Cor( 2p)     1.00000      -5.04522
    39    P    2  px     Val( 3p)     0.49973      -0.21009
    40    P    2  px     Ryd( 4p)     0.00007       0.08378
    41    P    2  px     Ryd( 5p)     0.00000       0.51612
    42    P    2  px     Ryd( 6p)     0.00000       1.84452
    43    P    2  px     Ryd( 7p)     0.00000      13.38587
    44    P    2  py     Cor( 2p)     1.00000      -5.04522
    45    P    2  py     Val( 3p)     0.49973      -0.21009
    46    P    2  py     Ryd( 4p)     0.00007       0.08378
    47    P    2  py     Ryd( 5p)     0.00000       0.51612
    48    P    2  py     Ryd( 6p)     0.00000       1.84452
    49    P    2  py     Ryd( 7p)     0.00000      13.38587
    50    P    2  pz     Cor( 2p)     0.99999      -5.04441
    51    P    2  pz     Val( 3p)     0.51547      -0.21110
    52    P    2  pz     Ryd( 4p)     0.00035       0.09121
    53    P    2  pz     Ryd( 5p)     0.00005       0.56082
    54    P    2  pz     Ryd( 6p)     0.00001       1.83800
    55    P    2  pz     Ryd( 7p)     0.00000      13.38959
    56    P    2  dxy    Ryd( 3d)     0.00000       0.69088
    57    P    2  dxz    Ryd( 3d)     0.00021       0.69578
    58    P    2  dyz    Ryd( 3d)     0.00021       0.69578
    59    P    2  dx2y2  Ryd( 3d)     0.00000       0.69087
    60    P    2  dz2    Ryd( 3d)     0.00060       0.71778


 Summary of Natural Population Analysis:                  
                                                          
                                       Natural Population 
                Natural  -----------------------------------------------
    Atom  No    Charge         Core      Valence    Rydberg      Total
 -----------------------------------------------------------------------
      P    1    0.00000      4.99998     2.49843    0.00159     7.50000
      P    2    0.00000      4.99998     2.49843    0.00159     7.50000
 =======================================================================
   * Total *    0.00000      9.99996     4.99687    0.00318    15.00000

                                 Natural Population      
 --------------------------------------------------------
   Core                       9.99996 ( 99.9996% of  10)
   Valence                    4.99687 ( 99.9374% of   5)
   Natural Minimal Basis     14.99682 ( 99.9788% of  15)
   Natural Rydberg Basis      0.00318 (  0.0212% of  15)
 --------------------------------------------------------

    Atom  No          Natural Electron Configuration
 ----------------------------------------------------------------------------
      P    1      [core]3S( 0.98)3p( 1.51)
      P    2      [core]3S( 0.98)3p( 1.51)


 NATURAL BOND ORBITAL ANALYSIS, alpha spin orbitals:

                       Occupancies       Lewis Structure    Low   High
           Occ.    -------------------  -----------------   occ   occ
  Cycle   Thresh.   Lewis   Non-Lewis     CR  BD  3C  LP    (L)   (NL)   Dev
 =============================================================================
   1(1)    0.90    14.99972   0.00028     10   3   0   2     0      0    0.00
 -----------------------------------------------------------------------------

 Structure accepted: No low occupancy Lewis orbitals

 --------------------------------------------------------
   Core                      9.99996 (100.000% of  10)
   Valence Lewis             4.99976 ( 99.995% of   5)
  ==================       ============================
   Total Lewis              14.99972 ( 99.998% of  15)
  -----------------------------------------------------
   Valence non-Lewis         0.00002 (  0.000% of  15)
   Rydberg non-Lewis         0.00027 (  0.002% of  15)
  ==================       ============================
   Total non-Lewis           0.00028 (  0.002% of  15)
 --------------------------------------------------------


       (Occupancy)   Bond orbital/ Coefficients/ Hybrids
 ---------------------------------------------------------------------------------
     1. (1.00000) BD ( 1) P   1 - P   2  
                ( 50.00%)   0.7071* P   1 s(  3.27%)p29.55( 96.61%)d 0.04(  0.12%)
                                            0.0000  0.0000 -0.1807 -0.0053 -0.0006
                                            0.0002  0.0000  0.0000  0.0000  0.0000
                                            0.0000  0.0000  0.0000  0.0000  0.0000
                                            0.0000  0.0000  0.0000  0.0000 -0.0000
                                            0.9827 -0.0225  0.0041  0.0004 -0.0000
                                            0.0000  0.0000  0.0000  0.0000 -0.0342
                ( 50.00%)   0.7071* P   2 s(  3.27%)p29.55( 96.61%)d 0.04(  0.12%)
                                            0.0000 -0.0000 -0.1807 -0.0053 -0.0006
                                            0.0002  0.0000  0.0000  0.0000  0.0000
                                            0.0000  0.0000  0.0000  0.0000  0.0000
                                            0.0000  0.0000  0.0000  0.0000  0.0000
                                           -0.9827  0.0225 -0.0041 -0.0004  0.0000
                                            0.0000  0.0000  0.0000  0.0000 -0.0342
     2. (1.00000) BD ( 2) P   1 - P   2  
                ( 50.00%)   0.7071* P   1 s(  0.00%)p 1.00( 99.96%)d 0.00(  0.04%)
                                            0.0000  0.0000  0.0000  0.0000  0.0000
                                            0.0000  0.0000  0.0000  0.9997  0.0116
                                           -0.0013 -0.0007  0.0000  0.0000  0.0000
                                            0.0000  0.0000  0.0000  0.0000  0.0000
                                            0.0000  0.0000  0.0000  0.0000  0.0000
                                            0.0000 -0.0203  0.0000  0.0000  0.0000
                ( 50.00%)   0.7071* P   2 s(  0.00%)p 1.00( 99.96%)d 0.00(  0.04%)
                                            0.0000  0.0000  0.0000  0.0000  0.0000
                                            0.0000  0.0000  0.0000  0.9997  0.0116
                                           -0.0013 -0.0007  0.0000  0.0000  0.0000
                                            0.0000  0.0000  0.0000  0.0000  0.0000
                                            0.0000  0.0000  0.0000  0.0000  0.0000
                                            0.0000  0.0203  0.0000  0.0000  0.0000
     3. (1.00000) BD ( 3) P   1 - P   2  
                ( 50.00%)   0.7071* P   1 s(  0.00%)p 1.00( 99.96%)d 0.00(  0.04%)
                                            0.0000  0.0000  0.0000  0.0000  0.0000
                                            0.0000  0.0000  0.0000  0.0000  0.0000
                                            0.0000  0.0000  0.0000  0.0000  0.9997
                                            0.0116 -0.0013 -0.0007  0.0000  0.0000
                                            0.0000  0.0000  0.0000  0.0000  0.0000
                                            0.0000  0.0000 -0.0203  0.0000  0.0000
                ( 50.00%)   0.7071* P   2 s(  0.00%)p 1.00( 99.96%)d 0.00(  0.04%)
                                            0.0000  0.0000  0.0000  0.0000  0.0000
                                            0.0000  0.0000  0.0000  0.0000  0.0000
                                            0.0000  0.0000  0.0000  0.0000  0.9997
                                            0.0116 -0.0013 -0.0007  0.0000  0.0000
                                            0.0000  0.0000  0.0000  0.0000  0.0000
                                            0.0000  0.0000  0.0203  0.0000  0.0000
     4. (1.00000) CR ( 1) P   1           s(100.00%)
                                            1.0000 -0.0000  0.0000 -0.0000 -0.0000
                                            0.0000  0.0000  0.0000  0.0000  0.0000
                                            0.0000  0.0000  0.0000  0.0000  0.0000
                                            0.0000  0.0000  0.0000  0.0000  0.0000
                                            0.0000 -0.0000 -0.0000  0.0000 -0.0000
                                            0.0000  0.0000  0.0000  0.0000 -0.0000
     5. (0.99999) CR ( 2) P   1           s(100.00%)
                                           -0.0000  1.0000  0.0000 -0.0000 -0.0000
                                            0.0000  0.0000  0.0000  0.0000  0.0000
                                            0.0000  0.0000  0.0000  0.0000  0.0000
                                            0.0000  0.0000  0.0000  0.0000  0.0000
                                            0.0000 -0.0000 -0.0000  0.0000 -0.0000
                                            0.0000  0.0000  0.0000  0.0000 -0.0000
     6. (1.00000) CR ( 3) P   1           s(  0.00%)p 1.00(100.00%)
                                            0.0000  0.0000  0.0000  0.0000  0.0000
                                            0.0000  0.0000  1.0000  0.0000  0.0000
                                            0.0000  0.0000  0.0000  0.0000  0.0000
                                            0.0000  0.0000  0.0000  0.0000  0.0000
                                            0.0000  0.0000  0.0000  0.0000  0.0000
                                            0.0000  0.0000  0.0000  0.0000  0.0000
     7. (1.00000) CR ( 4) P   1           s(  0.00%)p 1.00(100.00%)
                                            0.0000  0.0000  0.0000  0.0000  0.0000
                                            0.0000  0.0000  0.0000  0.0000  0.0000
                                            0.0000  0.0000  0.0000  1.0000  0.0000
                                            0.0000  0.0000  0.0000  0.0000  0.0000
                                            0.0000  0.0000  0.0000  0.0000  0.0000
                                            0.0000  0.0000  0.0000  0.0000  0.0000
     8. (0.99999) CR ( 5) P   1           s(  0.00%)p 1.00(100.00%)
                                            0.0000  0.0000 -0.0000  0.0000  0.0000
                                           -0.0000 -0.0000  0.0000  0.0000  0.0000
                                            0.0000  0.0000  0.0000  0.0000  0.0000
                                            0.0000  0.0000  0.0000  0.0000  1.0000
                                           -0.0000  0.0000  0.0000 -0.0000  0.0000
                                            0.0000  0.0000  0.0000  0.0000  0.0000
     9. (1.00000) CR ( 1) P   2           s(100.00%)
                                            1.0000 -0.0000  0.0000 -0.0000 -0.0000
                                            0.0000  0.0000  0.0000  0.0000  0.0000
                                            0.0000  0.0000  0.0000  0.0000  0.0000
                                            0.0000  0.0000  0.0000  0.0000 -0.0000
                                           -0.0000  0.0000  0.0000 -0.0000  0.0000
                                            0.0000  0.0000  0.0000  0.0000 -0.0000
    10. (0.99999) CR ( 2) P   2           s(100.00%)
                                           -0.0000  1.0000  0.0000 -0.0000 -0.0000
                                            0.0000  0.0000  0.0000  0.0000  0.0000
                                            0.0000  0.0000  0.0000  0.0000  0.0000
                                            0.0000  0.0000  0.0000  0.0000 -0.0000
                                           -0.0000  0.0000  0.0000 -0.0000  0.0000
                                            0.0000  0.0000  0.0000  0.0000 -0.0000
    11. (1.00000) CR ( 3) P   2           s(  0.00%)p 1.00(100.00%)
                                            0.0000  0.0000  0.0000  0.0000  0.0000
                                            0.0000  0.0000  1.0000  0.0000  0.0000
                                            0.0000  0.0000  0.0000  0.0000  0.0000
                                            0.0000  0.0000  0.0000  0.0000  0.0000
                                            0.0000  0.0000  0.0000  0.0000  0.0000
                                            0.0000  0.0000  0.0000  0.0000  0.0000
    12. (1.00000) CR ( 4) P   2           s(  0.00%)p 1.00(100.00%)
                                            0.0000  0.0000  0.0000  0.0000  0.0000
                                            0.0000  0.0000  0.0000  0.0000  0.0000
                                            0.0000  0.0000  0.0000  1.0000  0.0000
                                            0.0000  0.0000  0.0000  0.0000  0.0000
                                            0.0000  0.0000  0.0000  0.0000  0.0000
                                            0.0000  0.0000  0.0000  0.0000  0.0000
    13. (0.99999) CR ( 5) P   2           s(  0.00%)p 1.00(100.00%)
                                           -0.0000 -0.0000  0.0000 -0.0000 -0.0000
                                            0.0000  0.0000  0.0000  0.0000  0.0000
                                            0.0000  0.0000  0.0000  0.0000  0.0000
                                            0.0000  0.0000  0.0000  0.0000  1.0000
                                           -0.0000  0.0000  0.0000 -0.0000  0.0000
                                            0.0000  0.0000  0.0000  0.0000 -0.0000
    14. (0.99988) LP ( 1) P   1           s( 96.73%)p 0.03(  3.27%)d 0.00(  0.00%)
                                           -0.0000 -0.0000  0.9835 -0.0005 -0.0001
                                            0.0000  0.0000  0.0000  0.0000  0.0000
                                            0.0000  0.0000  0.0000  0.0000  0.0000
                                            0.0000  0.0000  0.0000  0.0000  0.0000
                                            0.1807 -0.0030 -0.0042  0.0024 -0.0000
                                            0.0000  0.0000  0.0000  0.0000 -0.0036
    15. (0.99988) LP ( 1) P   2           s( 96.73%)p 0.03(  3.27%)d 0.00(  0.00%)
                                           -0.0000 -0.0000  0.9835 -0.0005 -0.0001
                                            0.0000  0.0000  0.0000  0.0000  0.0000
                                            0.0000  0.0000  0.0000  0.0000  0.0000
                                            0.0000  0.0000  0.0000  0.0000 -0.0000
                                           -0.1807  0.0030  0.0042 -0.0024  0.0000
                                            0.0000  0.0000  0.0000  0.0000 -0.0036
    16. (0.00013) RY*( 1) P   1           s(  1.80%)p53.65( 96.56%)d 0.91(  1.64%)
                                            0.0000  0.0000  0.0011  0.0979 -0.0884
                                            0.0247  0.0011  0.0000  0.0000  0.0000
                                            0.0000  0.0000  0.0000  0.0000  0.0000
                                            0.0000  0.0000  0.0000  0.0000 -0.0000
                                            0.0139  0.8571  0.4461  0.1784 -0.0046
                                            0.0000  0.0000  0.0000  0.0000 -0.1280
    17. (0.00000) RY*( 2) P   1           s( 98.97%)p 0.01(  1.03%)
    18. (0.00000) RY*( 3) P   1           s( 99.94%)p 0.00(  0.06%)d 0.00(  0.00%)
    19. (0.00000) RY*( 4) P   1           s(100.00%)p 0.00(  0.00%)d 0.00(  0.00%)
    20. (0.00000) RY*( 5) P   1           s(  0.00%)p 1.00(100.00%)d 0.00(  0.00%)
    21. (0.00000) RY*( 6) P   1           s(  0.00%)p 1.00(100.00%)
    22. (0.00000) RY*( 7) P   1           s(  0.00%)p 1.00(100.00%)
    23. (0.00000) RY*( 8) P   1           s(  0.00%)p 1.00(100.00%)
    24. (0.00000) RY*( 9) P   1           s(  0.00%)p 1.00(100.00%)d 0.00(  0.00%)
    25. (0.00000) RY*(10) P   1           s(  0.00%)p 1.00(100.00%)
    26. (0.00000) RY*(11) P   1           s(  0.00%)p 1.00(100.00%)
    27. (0.00000) RY*(12) P   1           s(  0.00%)p 1.00(100.00%)
    28. (0.00000) RY*(13) P   1           s( 98.71%)p 0.01(  1.29%)d 0.00(  0.00%)
    29. (0.00000) RY*(14) P   1           s(  0.49%)p99.99( 99.51%)d 0.00(  0.00%)
    30. (0.00000) RY*(15) P   1           s(  0.06%)p99.99( 99.94%)d 0.00(  0.00%)
    31. (0.00000) RY*(16) P   1           s(  0.00%)p 1.00(100.00%)d 0.00(  0.00%)
    32. (0.00000) RY*(17) P   1           s(  0.00%)p 0.00(  0.00%)d 1.00(100.00%)
    33. (0.00000) RY*(18) P   1           s(  0.00%)p 1.00(  0.04%)d99.99( 99.96%)
    34. (0.00000) RY*(19) P   1           s(  0.00%)p 1.00(  0.04%)d99.99( 99.96%)
    35. (0.00000) RY*(20) P   1           s(  0.00%)p 0.00(  0.00%)d 1.00(100.00%)
    36. (0.00000) RY*(21) P   1           s(  0.03%)p58.07(  1.73%)d99.99( 98.24%)
    37. (0.00013) RY*( 1) P   2           s(  1.80%)p53.65( 96.56%)d 0.91(  1.64%)
                                            0.0000 -0.0000  0.0011  0.0979 -0.0884
                                            0.0247  0.0011 -0.0000 -0.0000 -0.0000
                                           -0.0000 -0.0000 -0.0000 -0.0000 -0.0000
                                           -0.0000 -0.0000 -0.0000 -0.0000  0.0000
                                           -0.0139 -0.8571 -0.4461 -0.1784  0.0046
                                           -0.0000 -0.0000 -0.0000 -0.0000 -0.1280
    38. (0.00000) RY*( 2) P   2           s( 98.97%)p 0.01(  1.03%)
    39. (0.00000) RY*( 3) P   2           s( 99.94%)p 0.00(  0.06%)d 0.00(  0.00%)
    40. (0.00000) RY*( 4) P   2           s(100.00%)p 0.00(  0.00%)d 0.00(  0.00%)
    41. (0.00000) RY*( 5) P   2           s(  0.00%)p 1.00(100.00%)d 0.00(  0.00%)
    42. (0.00000) RY*( 6) P   2           s(  0.00%)p 1.00(100.00%)
    43. (0.00000) RY*( 7) P   2           s(  0.00%)p 1.00(100.00%)
    44. (0.00000) RY*( 8) P   2           s(  0.00%)p 1.00(100.00%)
    45. (0.00000) RY*( 9) P   2           s(  0.00%)p 1.00(100.00%)d 0.00(  0.00%)
    46. (0.00000) RY*(10) P   2           s(  0.00%)p 1.00(100.00%)
    47. (0.00000) RY*(11) P   2           s(  0.00%)p 1.00(100.00%)
    48. (0.00000) RY*(12) P   2           s(  0.00%)p 1.00(100.00%)
    49. (0.00000) RY*(13) P   2           s( 98.71%)p 0.01(  1.29%)d 0.00(  0.00%)
    50. (0.00000) RY*(14) P   2           s(  0.49%)p99.99( 99.51%)d 0.00(  0.00%)
    51. (0.00000) RY*(15) P   2           s(  0.06%)p99.99( 99.94%)d 0.00(  0.00%)
    52. (0.00000) RY*(16) P   2           s(  0.00%)p 1.00(100.00%)d 0.00(  0.00%)
    53. (0.00000) RY*(17) P   2           s(  0.00%)p 0.00(  0.00%)d 1.00(100.00%)
    54. (0.00000) RY*(18) P   2           s(  0.00%)p 1.00(  0.04%)d99.99( 99.96%)
    55. (0.00000) RY*(19) P   2           s(  0.00%)p 1.00(  0.04%)d99.99( 99.96%)
    56. (0.00000) RY*(20) P   2           s(  0.00%)p 0.00(  0.00%)d 1.00(100.00%)
    57. (0.00000) RY*(21) P   2           s(  0.03%)p58.07(  1.73%)d99.99( 98.24%)
    58. (0.00001) BD*( 1) P   1 - P   2  
                ( 50.00%)   0.7071* P   1 s(  3.27%)p29.55( 96.61%)d 0.04(  0.12%)
                ( 50.00%)  -0.7071* P   2 s(  3.27%)p29.55( 96.61%)d 0.04(  0.12%)
    59. (0.00000) BD*( 2) P   1 - P   2  
                ( 50.00%)   0.7071* P   1 s(  0.00%)p 1.00( 99.96%)d 0.00(  0.04%)
                ( 50.00%)  -0.7071* P   2 s(  0.00%)p 1.00( 99.96%)d 0.00(  0.04%)
    60. (0.00000) BD*( 3) P   1 - P   2  
                ( 50.00%)   0.7071* P   1 s(  0.00%)p 1.00( 99.96%)d 0.00(  0.04%)
                ( 50.00%)  -0.7071* P   2 s(  0.00%)p 1.00( 99.96%)d 0.00(  0.04%)


 NHO Directionality and "Bond Bending" (deviations from line of nuclear centers)

         [Thresholds for printing:  angular deviation  >  1.0 degree]
                                    hybrid p-character > 25.0%
                                    orbital occupancy  >  0.10e

                                Line of Centers        Hybrid 1              Hybrid 2
                                ---------------  -------------------   ------------------
                NBO               Theta   Phi    Theta   Phi    Dev    Theta   Phi    Dev
 ========================================================================================
     2. BD (   2) P   1 - P   2   180.0    0.0    90.0    0.0  90.0     90.0    0.0  90.0
     3. BD (   3) P   1 - P   2   180.0    0.0    90.0   90.0  90.0     90.0   90.0  90.0


 Second Order Perturbation Theory Analysis of Fock Matrix in NBO Basis

     Threshold for printing:   0.25 kcal/mol
                                                                              E(2)  E(j)-E(i) F(i,j)
         Donor NBO (i)                     Acceptor NBO (j)                 kcal/mol   a.u.    a.u. 
 ===================================================================================================

 within unit  1
       None above threshold


 Natural Bond Orbitals (Summary):

                                                            Principal Delocalizations
           NBO                        Occupancy    Energy   (geminal,vicinal,remote)
 ====================================================================================
 Molecular unit  1  (P2)
     1. BD (   1) P   1 - P   2          1.00000    -0.35750   
     2. BD (   2) P   1 - P   2          1.00000    -0.27350   
     3. BD (   3) P   1 - P   2          1.00000    -0.27350   
     4. CR (   1) P   1                  1.00000   -77.32739   
     5. CR (   2) P   1                  0.99999    -7.63703   
     6. CR (   3) P   1                  1.00000    -5.04522   
     7. CR (   4) P   1                  1.00000    -5.04522   
     8. CR (   5) P   1                  0.99999    -5.04441   
     9. CR (   1) P   2                  1.00000   -77.32739   
    10. CR (   2) P   2                  0.99999    -7.63703   
    11. CR (   3) P   2                  1.00000    -5.04522   
    12. CR (   4) P   2                  1.00000    -5.04522   
    13. CR (   5) P   2                  0.99999    -5.04441   
    14. LP (   1) P   1                  0.99988    -0.69830   
    15. LP (   1) P   2                  0.99988    -0.69830   
    16. RY*(   1) P   1                  0.00013     0.33375   
    17. RY*(   2) P   1                  0.00000     0.45354   
    18. RY*(   3) P   1                  0.00000    12.37969   
    19. RY*(   4) P   1                  0.00000   157.19796   
    20. RY*(   5) P   1                  0.00000     0.08393   
    21. RY*(   6) P   1                  0.00000     0.51610   
    22. RY*(   7) P   1                  0.00000     1.84452   
    23. RY*(   8) P   1                  0.00000    13.38587   
    24. RY*(   9) P   1                  0.00000     0.08393   
    25. RY*(  10) P   1                  0.00000     0.51610   
    26. RY*(  11) P   1                  0.00000     1.84452   
    27. RY*(  12) P   1                  0.00000    13.38587   
    28. RY*(  13) P   1                  0.00000     0.31669   
    29. RY*(  14) P   1                  0.00000     0.45150   
    30. RY*(  15) P   1                  0.00000     1.72261   
    31. RY*(  16) P   1                  0.00000    13.39611   
    32. RY*(  17) P   1                  0.00000     0.69088   
    33. RY*(  18) P   1                  0.00000     0.69551   
    34. RY*(  19) P   1                  0.00000     0.69551   
    35. RY*(  20) P   1                  0.00000     0.69087   
    36. RY*(  21) P   1                  0.00000     0.70596   
    37. RY*(   1) P   2                  0.00013     0.33375   
    38. RY*(   2) P   2                  0.00000     0.45354   
    39. RY*(   3) P   2                  0.00000    12.37969   
    40. RY*(   4) P   2                  0.00000   157.19796   
    41. RY*(   5) P   2                  0.00000     0.08393   
    42. RY*(   6) P   2                  0.00000     0.51610   
    43. RY*(   7) P   2                  0.00000     1.84452   
    44. RY*(   8) P   2                  0.00000    13.38587   
    45. RY*(   9) P   2                  0.00000     0.08393   
    46. RY*(  10) P   2                  0.00000     0.51610   
    47. RY*(  11) P   2                  0.00000     1.84452   
    48. RY*(  12) P   2                  0.00000    13.38587   
    49. RY*(  13) P   2                  0.00000     0.31669   
    50. RY*(  14) P   2                  0.00000     0.45150   
    51. RY*(  15) P   2                  0.00000     1.72261   
    52. RY*(  16) P   2                  0.00000    13.39611   
    53. RY*(  17) P   2                  0.00000     0.69088   
    54. RY*(  18) P   2                  0.00000     0.69551   
    55. RY*(  19) P   2                  0.00000     0.69551   
    56. RY*(  20) P   2                  0.00000     0.69087   
    57. RY*(  21) P   2                  0.00000     0.70596   
    58. BD*(   1) P   1 - P   2          0.00001    -0.07859   
    59. BD*(   2) P   1 - P   2          0.00000    -0.14642   
    60. BD*(   3) P   1 - P   2          0.00000    -0.14642   
       -------------------------------
              Total Lewis   14.99972  ( 99.9981%)
        Valence non-Lewis    0.00002  (  0.0001%)
        Rydberg non-Lewis    0.00027  (  0.0018%)
       -------------------------------
            Total unit  1   15.00000  (100.0000%)
           Charge unit  1    0.00000
 Sorting of NBOs:                    9    4    5   10    6   11   12    7    8   13
 Sorting of NBOs:                   15   14    1    2    3   59   60   58   45   24
 Sorting of NBOs:                   41   20   49   28   16   37   50   29   38   17
 Sorting of NBOs:                   46   42   25   21   56   35   53   32   55   34
 Sorting of NBOs:                   33   54   57   36   30   51   26   22   47   43
 Sorting of NBOs:                   39   18   27   23   44   48   31   52   19   40
 Reordering of NBOs for storage:     9    4    5   10    6   11   12    7    8   13
 Reordering of NBOs for storage:    15   14    1    2    3   59   60   58   45   24
 Reordering of NBOs for storage:    41   20   49   28   16   37   50   29   38   17
 Reordering of NBOs for storage:    46   42   25   21   56   35   53   32   55   34
 Reordering of NBOs for storage:    33   54   57   36   30   51   26   22   47   43
 Reordering of NBOs for storage:    39   18   27   23   44   48   31   52   19   40
 Labels of output orbitals:  CR  CR  CR  CR  CR  CR  CR  CR  CR  CR  LP  LP  BD  BD  BD  BD* BD* BD* RY* RY* 
 Labels of output orbitals:  RY* RY* RY* RY* RY* RY* RY* RY* RY* RY* RY* RY* RY* RY* RY* RY* RY* RY* RY* RY* 
 Labels of output orbitals:  RY* RY* RY* RY* RY* RY* RY* RY* RY* RY* RY* RY* RY* RY* RY* RY* RY* RY* RY* RY* 
 GSVD:  LWork=       -2385 too small for GESVD, short by       10800 words or       10800 for optimal perf.


 ***************************************************
 *******         Beta  spin orbitals         *******
 ***************************************************


 NATURAL POPULATIONS:  Natural atomic orbital occupancies 
                                                          
   NAO  Atom  No  lang   Type(AO)    Occupancy      Energy
 ----------------------------------------------------------
     1    P    1  S      Cor( 1S)     1.00000     -77.32739
     2    P    1  S      Cor( 2S)     0.99999      -7.63701
     3    P    1  S      Val( 3S)     0.98351      -0.70666
     4    P    1  S      Ryd( 4S)     0.00002       0.32837
     5    P    1  S      Ryd( 5S)     0.00000       0.45327
     6    P    1  S      Ryd( 6S)     0.00000      12.38093
     7    P    1  S      Ryd( 7S)     0.00000     157.19923
     8    P    1  px     Cor( 2p)     1.00000      -5.04522
     9    P    1  px     Val( 3p)     0.49973      -0.21009
    10    P    1  px     Ryd( 4p)     0.00007       0.08378
    11    P    1  px     Ryd( 5p)     0.00000       0.51612
    12    P    1  px     Ryd( 6p)     0.00000       1.84452
    13    P    1  px     Ryd( 7p)     0.00000      13.38587
    14    P    1  py     Cor( 2p)     1.00000      -5.04522
    15    P    1  py     Val( 3p)     0.49973      -0.21009
    16    P    1  py     Ryd( 4p)     0.00007       0.08378
    17    P    1  py     Ryd( 5p)     0.00000       0.51612
    18    P    1  py     Ryd( 6p)     0.00000       1.84452
    19    P    1  py     Ryd( 7p)     0.00000      13.38587
    20    P    1  pz     Cor( 2p)     0.99999      -5.04441
    21    P    1  pz     Val( 3p)     0.51547      -0.21110
    22    P    1  pz     Ryd( 4p)     0.00035       0.09121
    23    P    1  pz     Ryd( 5p)     0.00005       0.56082
    24    P    1  pz     Ryd( 6p)     0.00001       1.83800
    25    P    1  pz     Ryd( 7p)     0.00000      13.38959
    26    P    1  dxy    Ryd( 3d)     0.00000       0.69088
    27    P    1  dxz    Ryd( 3d)     0.00021       0.69578
    28    P    1  dyz    Ryd( 3d)     0.00021       0.69578
    29    P    1  dx2y2  Ryd( 3d)     0.00000       0.69087
    30    P    1  dz2    Ryd( 3d)     0.00060       0.71778
 
    31    P    2  S      Cor( 1S)     1.00000     -77.32739
    32    P    2  S      Cor( 2S)     0.99999      -7.63701
    33    P    2  S      Val( 3S)     0.98351      -0.70666
    34    P    2  S      Ryd( 4S)     0.00002       0.32837
    35    P    2  S      Ryd( 5S)     0.00000       0.45327
    36    P    2  S      Ryd( 6S)     0.00000      12.38093
    37    P    2  S      Ryd( 7S)     0.00000     157.19923
    38    P    2  px     Cor( 2p)     1.00000      -5.04522
    39    P    2  px     Val( 3p)     0.49973      -0.21009
    40    P    2  px     Ryd( 4p)     0.00007       0.08378
    41    P    2  px     Ryd( 5p)     0.00000       0.51612
    42    P    2  px     Ryd( 6p)     0.00000       1.84452
    43    P    2  px     Ryd( 7p)     0.00000      13.38587
    44    P    2  py     Cor( 2p)     1.00000      -5.04522
    45    P    2  py     Val( 3p)     0.49973      -0.21009
    46    P    2  py     Ryd( 4p)     0.00007       0.08378
    47    P    2  py     Ryd( 5p)     0.00000       0.51612
    48    P    2  py     Ryd( 6p)     0.00000       1.84452
    49    P    2  py     Ryd( 7p)     0.00000      13.38587
    50    P    2  pz     Cor( 2p)     0.99999      -5.04441
    51    P    2  pz     Val( 3p)     0.51547      -0.21110
    52    P    2  pz     Ryd( 4p)     0.00035       0.09121
    53    P    2  pz     Ryd( 5p)     0.00005       0.56082
    54    P    2  pz     Ryd( 6p)     0.00001       1.83800
    55    P    2  pz     Ryd( 7p)     0.00000      13.38959
    56    P    2  dxy    Ryd( 3d)     0.00000       0.69088
    57    P    2  dxz    Ryd( 3d)     0.00021       0.69578
    58    P    2  dyz    Ryd( 3d)     0.00021       0.69578
    59    P    2  dx2y2  Ryd( 3d)     0.00000       0.69087
    60    P    2  dz2    Ryd( 3d)     0.00060       0.71778


 Summary of Natural Population Analysis:                  
                                                          
                                       Natural Population 
                Natural  -----------------------------------------------
    Atom  No    Charge         Core      Valence    Rydberg      Total
 -----------------------------------------------------------------------
      P    1   -0.00000      4.99998     2.49843    0.00159     7.50000
      P    2   -0.00000      4.99998     2.49843    0.00159     7.50000
 =======================================================================
   * Total *   -0.00000      9.99996     4.99687    0.00318    15.00000

                                 Natural Population      
 --------------------------------------------------------
   Core                       9.99996 ( 99.9996% of  10)
   Valence                    4.99687 ( 99.9374% of   5)
   Natural Minimal Basis     14.99682 ( 99.9788% of  15)
   Natural Rydberg Basis      0.00318 (  0.0212% of  15)
 --------------------------------------------------------

    Atom  No          Natural Electron Configuration
 ----------------------------------------------------------------------------
      P    1      [core]3S( 0.98)3p( 1.51)
      P    2      [core]3S( 0.98)3p( 1.51)


 NATURAL BOND ORBITAL ANALYSIS, beta spin orbitals:

                       Occupancies       Lewis Structure    Low   High
           Occ.    -------------------  -----------------   occ   occ
  Cycle   Thresh.   Lewis   Non-Lewis     CR  BD  3C  LP    (L)   (NL)   Dev
 =============================================================================
   1(1)    0.90    14.99972   0.00028     10   3   0   2     0      0    0.00
 -----------------------------------------------------------------------------

 Structure accepted: No low occupancy Lewis orbitals

 --------------------------------------------------------
   Core                      9.99996 (100.000% of  10)
   Valence Lewis             4.99976 ( 99.995% of   5)
  ==================       ============================
   Total Lewis              14.99972 ( 99.998% of  15)
  -----------------------------------------------------
   Valence non-Lewis         0.00002 (  0.000% of  15)
   Rydberg non-Lewis         0.00027 (  0.002% of  15)
  ==================       ============================
   Total non-Lewis           0.00028 (  0.002% of  15)
 --------------------------------------------------------


       (Occupancy)   Bond orbital/ Coefficients/ Hybrids
 ---------------------------------------------------------------------------------
     1. (1.00000) BD ( 1) P   1 - P   2  
                ( 50.00%)   0.7071* P   1 s(  3.27%)p29.55( 96.61%)d 0.04(  0.12%)
                                            0.0000  0.0000 -0.1807 -0.0053 -0.0006
                                            0.0002  0.0000  0.0000  0.0000  0.0000
                                            0.0000  0.0000  0.0000  0.0000  0.0000
                                            0.0000  0.0000  0.0000  0.0000 -0.0000
                                            0.9827 -0.0225  0.0041  0.0004 -0.0000
                                            0.0000  0.0000  0.0000  0.0000 -0.0342
                ( 50.00%)   0.7071* P   2 s(  3.27%)p29.55( 96.61%)d 0.04(  0.12%)
                                            0.0000 -0.0000 -0.1807 -0.0053 -0.0006
                                            0.0002  0.0000  0.0000  0.0000  0.0000
                                            0.0000  0.0000  0.0000  0.0000  0.0000
                                            0.0000  0.0000  0.0000  0.0000  0.0000
                                           -0.9827  0.0225 -0.0041 -0.0004  0.0000
                                            0.0000  0.0000  0.0000  0.0000 -0.0342
     2. (1.00000) BD ( 2) P   1 - P   2  
                ( 50.00%)   0.7071* P   1 s(  0.00%)p 1.00( 99.96%)d 0.00(  0.04%)
                                            0.0000  0.0000  0.0000  0.0000  0.0000
                                            0.0000  0.0000  0.0000  0.9997  0.0116
                                           -0.0013 -0.0007  0.0000  0.0000  0.0000
                                            0.0000  0.0000  0.0000  0.0000  0.0000
                                            0.0000  0.0000  0.0000  0.0000  0.0000
                                            0.0000 -0.0203  0.0000  0.0000  0.0000
                ( 50.00%)   0.7071* P   2 s(  0.00%)p 1.00( 99.96%)d 0.00(  0.04%)
                                            0.0000  0.0000  0.0000  0.0000  0.0000
                                            0.0000  0.0000  0.0000  0.9997  0.0116
                                           -0.0013 -0.0007  0.0000  0.0000  0.0000
                                            0.0000  0.0000  0.0000  0.0000  0.0000
                                            0.0000  0.0000  0.0000  0.0000  0.0000
                                            0.0000  0.0203  0.0000  0.0000  0.0000
     3. (1.00000) BD ( 3) P   1 - P   2  
                ( 50.00%)   0.7071* P   1 s(  0.00%)p 1.00( 99.96%)d 0.00(  0.04%)
                                            0.0000  0.0000  0.0000  0.0000  0.0000
                                            0.0000  0.0000  0.0000  0.0000  0.0000
                                            0.0000  0.0000  0.0000  0.0000  0.9997
                                            0.0116 -0.0013 -0.0007  0.0000  0.0000
                                            0.0000  0.0000  0.0000  0.0000  0.0000
                                            0.0000  0.0000 -0.0203  0.0000  0.0000
                ( 50.00%)   0.7071* P   2 s(  0.00%)p 1.00( 99.96%)d 0.00(  0.04%)
                                            0.0000  0.0000  0.0000  0.0000  0.0000
                                            0.0000  0.0000  0.0000  0.0000  0.0000
                                            0.0000  0.0000  0.0000  0.0000  0.9997
                                            0.0116 -0.0013 -0.0007  0.0000  0.0000
                                            0.0000  0.0000  0.0000  0.0000  0.0000
                                            0.0000  0.0000  0.0203  0.0000  0.0000
     4. (1.00000) CR ( 1) P   1           s(100.00%)
                                            1.0000 -0.0000  0.0000 -0.0000 -0.0000
                                            0.0000  0.0000  0.0000  0.0000  0.0000
                                            0.0000  0.0000  0.0000  0.0000  0.0000
                                            0.0000  0.0000  0.0000  0.0000  0.0000
                                            0.0000 -0.0000 -0.0000  0.0000 -0.0000
                                            0.0000  0.0000  0.0000  0.0000 -0.0000
     5. (0.99999) CR ( 2) P   1           s(100.00%)
                                           -0.0000  1.0000  0.0000 -0.0000 -0.0000
                                            0.0000  0.0000  0.0000  0.0000  0.0000
                                            0.0000  0.0000  0.0000  0.0000  0.0000
                                            0.0000  0.0000  0.0000  0.0000  0.0000
                                            0.0000 -0.0000 -0.0000  0.0000 -0.0000
                                            0.0000  0.0000  0.0000  0.0000 -0.0000
     6. (1.00000) CR ( 3) P   1           s(  0.00%)p 1.00(100.00%)
                                            0.0000  0.0000  0.0000  0.0000  0.0000
                                            0.0000  0.0000  1.0000  0.0000  0.0000
                                            0.0000  0.0000  0.0000  0.0000  0.0000
                                            0.0000  0.0000  0.0000  0.0000  0.0000
                                            0.0000  0.0000  0.0000  0.0000  0.0000
                                            0.0000  0.0000  0.0000  0.0000  0.0000
     7. (1.00000) CR ( 4) P   1           s(  0.00%)p 1.00(100.00%)
                                            0.0000  0.0000  0.0000  0.0000  0.0000
                                            0.0000  0.0000  0.0000  0.0000  0.0000
                                            0.0000  0.0000  0.0000  1.0000  0.0000
                                            0.0000  0.0000  0.0000  0.0000  0.0000
                                            0.0000  0.0000  0.0000  0.0000  0.0000
                                            0.0000  0.0000  0.0000  0.0000  0.0000
     8. (0.99999) CR ( 5) P   1           s(  0.00%)p 1.00(100.00%)
                                            0.0000  0.0000 -0.0000  0.0000  0.0000
                                           -0.0000 -0.0000  0.0000  0.0000  0.0000
                                            0.0000  0.0000  0.0000  0.0000  0.0000
                                            0.0000  0.0000  0.0000  0.0000  1.0000
                                           -0.0000  0.0000  0.0000 -0.0000  0.0000
                                            0.0000  0.0000  0.0000  0.0000  0.0000
     9. (1.00000) CR ( 1) P   2           s(100.00%)
                                            1.0000 -0.0000  0.0000 -0.0000 -0.0000
                                            0.0000  0.0000  0.0000  0.0000  0.0000
                                            0.0000  0.0000  0.0000  0.0000  0.0000
                                            0.0000  0.0000  0.0000  0.0000 -0.0000
                                           -0.0000  0.0000  0.0000 -0.0000  0.0000
                                            0.0000  0.0000  0.0000  0.0000 -0.0000
    10. (0.99999) CR ( 2) P   2           s(100.00%)
                                           -0.0000  1.0000  0.0000 -0.0000 -0.0000
                                            0.0000  0.0000  0.0000  0.0000  0.0000
                                            0.0000  0.0000  0.0000  0.0000  0.0000
                                            0.0000  0.0000  0.0000  0.0000 -0.0000
                                           -0.0000  0.0000  0.0000 -0.0000  0.0000
                                            0.0000  0.0000  0.0000  0.0000 -0.0000
    11. (1.00000) CR ( 3) P   2           s(  0.00%)p 1.00(100.00%)
                                            0.0000  0.0000  0.0000  0.0000  0.0000
                                            0.0000  0.0000  1.0000  0.0000  0.0000
                                            0.0000  0.0000  0.0000  0.0000  0.0000
                                            0.0000  0.0000  0.0000  0.0000  0.0000
                                            0.0000  0.0000  0.0000  0.0000  0.0000
                                            0.0000  0.0000  0.0000  0.0000  0.0000
    12. (1.00000) CR ( 4) P   2           s(  0.00%)p 1.00(100.00%)
                                            0.0000  0.0000  0.0000  0.0000  0.0000
                                            0.0000  0.0000  0.0000  0.0000  0.0000
                                            0.0000  0.0000  0.0000  1.0000  0.0000
                                            0.0000  0.0000  0.0000  0.0000  0.0000
                                            0.0000  0.0000  0.0000  0.0000  0.0000
                                            0.0000  0.0000  0.0000  0.0000  0.0000
    13. (0.99999) CR ( 5) P   2           s(  0.00%)p 1.00(100.00%)
                                           -0.0000 -0.0000  0.0000 -0.0000 -0.0000
                                            0.0000  0.0000  0.0000  0.0000  0.0000
                                            0.0000  0.0000  0.0000  0.0000  0.0000
                                            0.0000  0.0000  0.0000  0.0000  1.0000
                                           -0.0000  0.0000  0.0000 -0.0000  0.0000
                                            0.0000  0.0000  0.0000  0.0000 -0.0000
    14. (0.99988) LP ( 1) P   1           s( 96.73%)p 0.03(  3.27%)d 0.00(  0.00%)
                                           -0.0000 -0.0000  0.9835 -0.0005 -0.0001
                                            0.0000  0.0000  0.0000  0.0000  0.0000
                                            0.0000  0.0000  0.0000  0.0000  0.0000
                                            0.0000  0.0000  0.0000  0.0000  0.0000
                                            0.1807 -0.0030 -0.0042  0.0024 -0.0000
                                            0.0000  0.0000  0.0000  0.0000 -0.0036
    15. (0.99988) LP ( 1) P   2           s( 96.73%)p 0.03(  3.27%)d 0.00(  0.00%)
                                           -0.0000 -0.0000  0.9835 -0.0005 -0.0001
                                            0.0000  0.0000  0.0000  0.0000  0.0000
                                            0.0000  0.0000  0.0000  0.0000  0.0000
                                            0.0000  0.0000  0.0000  0.0000 -0.0000
                                           -0.1807  0.0030  0.0042 -0.0024  0.0000
                                            0.0000  0.0000  0.0000  0.0000 -0.0036
    16. (0.00013) RY*( 1) P   1           s(  1.80%)p53.65( 96.56%)d 0.91(  1.64%)
                                            0.0000  0.0000  0.0011  0.0979 -0.0884
                                            0.0247  0.0011  0.0000  0.0000  0.0000
                                            0.0000  0.0000  0.0000  0.0000  0.0000
                                            0.0000  0.0000  0.0000  0.0000 -0.0000
                                            0.0139  0.8571  0.4461  0.1784 -0.0046
                                            0.0000  0.0000  0.0000  0.0000 -0.1280
    17. (0.00000) RY*( 2) P   1           s( 98.97%)p 0.01(  1.03%)
    18. (0.00000) RY*( 3) P   1           s( 99.94%)p 0.00(  0.06%)d 0.00(  0.00%)
    19. (0.00000) RY*( 4) P   1           s(100.00%)p 0.00(  0.00%)d 0.00(  0.00%)
    20. (0.00000) RY*( 5) P   1           s(  0.00%)p 1.00(100.00%)d 0.00(  0.00%)
    21. (0.00000) RY*( 6) P   1           s(  0.00%)p 1.00(100.00%)
    22. (0.00000) RY*( 7) P   1           s(  0.00%)p 1.00(100.00%)
    23. (0.00000) RY*( 8) P   1           s(  0.00%)p 1.00(100.00%)
    24. (0.00000) RY*( 9) P   1           s(  0.00%)p 1.00(100.00%)d 0.00(  0.00%)
    25. (0.00000) RY*(10) P   1           s(  0.00%)p 1.00(100.00%)
    26. (0.00000) RY*(11) P   1           s(  0.00%)p 1.00(100.00%)
    27. (0.00000) RY*(12) P   1           s(  0.00%)p 1.00(100.00%)
    28. (0.00000) RY*(13) P   1           s( 98.71%)p 0.01(  1.29%)d 0.00(  0.00%)
    29. (0.00000) RY*(14) P   1           s(  0.49%)p99.99( 99.51%)d 0.00(  0.00%)
    30. (0.00000) RY*(15) P   1           s(  0.06%)p99.99( 99.94%)d 0.00(  0.00%)
    31. (0.00000) RY*(16) P   1           s(  0.00%)p 1.00(100.00%)d 0.00(  0.00%)
    32. (0.00000) RY*(17) P   1           s(  0.00%)p 0.00(  0.00%)d 1.00(100.00%)
    33. (0.00000) RY*(18) P   1           s(  0.00%)p 1.00(  0.04%)d99.99( 99.96%)
    34. (0.00000) RY*(19) P   1           s(  0.00%)p 1.00(  0.04%)d99.99( 99.96%)
    35. (0.00000) RY*(20) P   1           s(  0.00%)p 0.00(  0.00%)d 1.00(100.00%)
    36. (0.00000) RY*(21) P   1           s(  0.03%)p58.07(  1.73%)d99.99( 98.24%)
    37. (0.00013) RY*( 1) P   2           s(  1.80%)p53.65( 96.56%)d 0.91(  1.64%)
                                            0.0000 -0.0000  0.0011  0.0979 -0.0884
                                            0.0247  0.0011 -0.0000 -0.0000 -0.0000
                                           -0.0000 -0.0000 -0.0000 -0.0000 -0.0000
                                           -0.0000 -0.0000 -0.0000 -0.0000  0.0000
                                           -0.0139 -0.8571 -0.4461 -0.1784  0.0046
                                           -0.0000 -0.0000 -0.0000 -0.0000 -0.1280
    38. (0.00000) RY*( 2) P   2           s( 98.97%)p 0.01(  1.03%)
    39. (0.00000) RY*( 3) P   2           s( 99.94%)p 0.00(  0.06%)d 0.00(  0.00%)
    40. (0.00000) RY*( 4) P   2           s(100.00%)p 0.00(  0.00%)d 0.00(  0.00%)
    41. (0.00000) RY*( 5) P   2           s(  0.00%)p 1.00(100.00%)d 0.00(  0.00%)
    42. (0.00000) RY*( 6) P   2           s(  0.00%)p 1.00(100.00%)
    43. (0.00000) RY*( 7) P   2           s(  0.00%)p 1.00(100.00%)
    44. (0.00000) RY*( 8) P   2           s(  0.00%)p 1.00(100.00%)
    45. (0.00000) RY*( 9) P   2           s(  0.00%)p 1.00(100.00%)d 0.00(  0.00%)
    46. (0.00000) RY*(10) P   2           s(  0.00%)p 1.00(100.00%)
    47. (0.00000) RY*(11) P   2           s(  0.00%)p 1.00(100.00%)
    48. (0.00000) RY*(12) P   2           s(  0.00%)p 1.00(100.00%)
    49. (0.00000) RY*(13) P   2           s( 98.71%)p 0.01(  1.29%)d 0.00(  0.00%)
    50. (0.00000) RY*(14) P   2           s(  0.49%)p99.99( 99.51%)d 0.00(  0.00%)
    51. (0.00000) RY*(15) P   2           s(  0.06%)p99.99( 99.94%)d 0.00(  0.00%)
    52. (0.00000) RY*(16) P   2           s(  0.00%)p 1.00(100.00%)d 0.00(  0.00%)
    53. (0.00000) RY*(17) P   2           s(  0.00%)p 0.00(  0.00%)d 1.00(100.00%)
    54. (0.00000) RY*(18) P   2           s(  0.00%)p 1.00(  0.04%)d99.99( 99.96%)
    55. (0.00000) RY*(19) P   2           s(  0.00%)p 1.00(  0.04%)d99.99( 99.96%)
    56. (0.00000) RY*(20) P   2           s(  0.00%)p 0.00(  0.00%)d 1.00(100.00%)
    57. (0.00000) RY*(21) P   2           s(  0.03%)p58.07(  1.73%)d99.99( 98.24%)
    58. (0.00001) BD*( 1) P   1 - P   2  
                ( 50.00%)   0.7071* P   1 s(  3.27%)p29.55( 96.61%)d 0.04(  0.12%)
                ( 50.00%)  -0.7071* P   2 s(  3.27%)p29.55( 96.61%)d 0.04(  0.12%)
    59. (0.00000) BD*( 2) P   1 - P   2  
                ( 50.00%)   0.7071* P   1 s(  0.00%)p 1.00( 99.96%)d 0.00(  0.04%)
                ( 50.00%)  -0.7071* P   2 s(  0.00%)p 1.00( 99.96%)d 0.00(  0.04%)
    60. (0.00000) BD*( 3) P   1 - P   2  
                ( 50.00%)   0.7071* P   1 s(  0.00%)p 1.00( 99.96%)d 0.00(  0.04%)
                ( 50.00%)  -0.7071* P   2 s(  0.00%)p 1.00( 99.96%)d 0.00(  0.04%)


 NHO Directionality and "Bond Bending" (deviations from line of nuclear centers)

         [Thresholds for printing:  angular deviation  >  1.0 degree]
                                    hybrid p-character > 25.0%
                                    orbital occupancy  >  0.10e

                                Line of Centers        Hybrid 1              Hybrid 2
                                ---------------  -------------------   ------------------
                NBO               Theta   Phi    Theta   Phi    Dev    Theta   Phi    Dev
 ========================================================================================
     2. BD (   2) P   1 - P   2   180.0    0.0    90.0    0.0  90.0     90.0    0.0  90.0
     3. BD (   3) P   1 - P   2   180.0    0.0    90.0   90.0  90.0     90.0   90.0  90.0


 Second Order Perturbation Theory Analysis of Fock Matrix in NBO Basis

     Threshold for printing:   0.25 kcal/mol
                                                                              E(2)  E(j)-E(i) F(i,j)
         Donor NBO (i)                     Acceptor NBO (j)                 kcal/mol   a.u.    a.u. 
 ===================================================================================================

 within unit  1
       None above threshold


 Natural Bond Orbitals (Summary):

                                                            Principal Delocalizations
           NBO                        Occupancy    Energy   (geminal,vicinal,remote)
 ====================================================================================
 Molecular unit  1  (P2)
     1. BD (   1) P   1 - P   2          1.00000    -0.35750   
     2. BD (   2) P   1 - P   2          1.00000    -0.27350   
     3. BD (   3) P   1 - P   2          1.00000    -0.27350   
     4. CR (   1) P   1                  1.00000   -77.32739   
     5. CR (   2) P   1                  0.99999    -7.63703   
     6. CR (   3) P   1                  1.00000    -5.04522   
     7. CR (   4) P   1                  1.00000    -5.04522   
     8. CR (   5) P   1                  0.99999    -5.04441   
     9. CR (   1) P   2                  1.00000   -77.32739   
    10. CR (   2) P   2                  0.99999    -7.63703   
    11. CR (   3) P   2                  1.00000    -5.04522   
    12. CR (   4) P   2                  1.00000    -5.04522   
    13. CR (   5) P   2                  0.99999    -5.04441   
    14. LP (   1) P   1                  0.99988    -0.69830   
    15. LP (   1) P   2                  0.99988    -0.69830   
    16. RY*(   1) P   1                  0.00013     0.33375   
    17. RY*(   2) P   1                  0.00000     0.45354   
    18. RY*(   3) P   1                  0.00000    12.37969   
    19. RY*(   4) P   1                  0.00000   157.19796   
    20. RY*(   5) P   1                  0.00000     0.08393   
    21. RY*(   6) P   1                  0.00000     0.51610   
    22. RY*(   7) P   1                  0.00000     1.84452   
    23. RY*(   8) P   1                  0.00000    13.38587   
    24. RY*(   9) P   1                  0.00000     0.08393   
    25. RY*(  10) P   1                  0.00000     0.51610   
    26. RY*(  11) P   1                  0.00000     1.84452   
    27. RY*(  12) P   1                  0.00000    13.38587   
    28. RY*(  13) P   1                  0.00000     0.31669   
    29. RY*(  14) P   1                  0.00000     0.45150   
    30. RY*(  15) P   1                  0.00000     1.72261   
    31. RY*(  16) P   1                  0.00000    13.39611   
    32. RY*(  17) P   1                  0.00000     0.69088   
    33. RY*(  18) P   1                  0.00000     0.69551   
    34. RY*(  19) P   1                  0.00000     0.69551   
    35. RY*(  20) P   1                  0.00000     0.69087   
    36. RY*(  21) P   1                  0.00000     0.70596   
    37. RY*(   1) P   2                  0.00013     0.33375   
    38. RY*(   2) P   2                  0.00000     0.45354   
    39. RY*(   3) P   2                  0.00000    12.37969   
    40. RY*(   4) P   2                  0.00000   157.19796   
    41. RY*(   5) P   2                  0.00000     0.08393   
    42. RY*(   6) P   2                  0.00000     0.51610   
    43. RY*(   7) P   2                  0.00000     1.84452   
    44. RY*(   8) P   2                  0.00000    13.38587   
    45. RY*(   9) P   2                  0.00000     0.08393   
    46. RY*(  10) P   2                  0.00000     0.51610   
    47. RY*(  11) P   2                  0.00000     1.84452   
    48. RY*(  12) P   2                  0.00000    13.38587   
    49. RY*(  13) P   2                  0.00000     0.31669   
    50. RY*(  14) P   2                  0.00000     0.45150   
    51. RY*(  15) P   2                  0.00000     1.72261   
    52. RY*(  16) P   2                  0.00000    13.39611   
    53. RY*(  17) P   2                  0.00000     0.69088   
    54. RY*(  18) P   2                  0.00000     0.69551   
    55. RY*(  19) P   2                  0.00000     0.69551   
    56. RY*(  20) P   2                  0.00000     0.69087   
    57. RY*(  21) P   2                  0.00000     0.70596   
    58. BD*(   1) P   1 - P   2          0.00001    -0.07859   
    59. BD*(   2) P   1 - P   2          0.00000    -0.14642   
    60. BD*(   3) P   1 - P   2          0.00000    -0.14642   
       -------------------------------
              Total Lewis   14.99972  ( 99.9981%)
        Valence non-Lewis    0.00002  (  0.0001%)
        Rydberg non-Lewis    0.00027  (  0.0018%)
       -------------------------------
            Total unit  1   15.00000  (100.0000%)
           Charge unit  1    0.00000
 Sorting of NBOs:                    9    4    5   10    6   11   12    7    8   13
 Sorting of NBOs:                   15   14    1    2    3   59   60   58   45   24
 Sorting of NBOs:                   41   20   49   28   16   37   50   29   38   17
 Sorting of NBOs:                   46   42   25   21   56   35   53   32   55   34
 Sorting of NBOs:                   33   54   57   36   30   51   26   22   47   43
 Sorting of NBOs:                   39   18   27   23   44   48   31   52   19   40
 Reordering of NBOs for storage:     9    4    5   10    6   11   12    7    8   13
 Reordering of NBOs for storage:    15   14    1    2    3   59   60   58   45   24
 Reordering of NBOs for storage:    41   20   49   28   16   37   50   29   38   17
 Reordering of NBOs for storage:    46   42   25   21   56   35   53   32   55   34
 Reordering of NBOs for storage:    33   54   57   36   30   51   26   22   47   43
 Reordering of NBOs for storage:    39   18   27   23   44   48   31   52   19   40
 Labels of output orbitals:  CR  CR  CR  CR  CR  CR  CR  CR  CR  CR  LP  LP  BD  BD  BD  BD* BD* BD* RY* RY* 
 Labels of output orbitals:  RY* RY* RY* RY* RY* RY* RY* RY* RY* RY* RY* RY* RY* RY* RY* RY* RY* RY* RY* RY* 
 Labels of output orbitals:  RY* RY* RY* RY* RY* RY* RY* RY* RY* RY* RY* RY* RY* RY* RY* RY* RY* RY* RY* RY* 
 GSVD:  LWork=       -2385 too small for GESVD, short by       10800 words or       10800 for optimal perf.
 Leave Link  607 at Mon Apr 21 21:20:55 2025, MaxMem=   536870912 cpu:               5.7 elap:               1.0
 (Enter /home/szhao/Apps/g16/l701.exe)
 ... and contract with generalized density number  0.
 Compute integral first derivatives.
 Leave Link  701 at Mon Apr 21 21:20:56 2025, MaxMem=   536870912 cpu:               0.9 elap:               0.2
 (Enter /home/szhao/Apps/g16/l702.exe)
 L702 exits ... SP integral derivatives will be done elsewhere.
 Leave Link  702 at Mon Apr 21 21:20:57 2025, MaxMem=   536870912 cpu:               0.5 elap:               0.1
 (Enter /home/szhao/Apps/g16/l703.exe)
 Integral derivatives from FoFJK, PRISM(SPDF).
 Compute integral first derivatives, UseDBF=F ICtDFT=           0.
 Calling FoFJK, ICntrl=      2127 FMM=F ISym2X=1 I1Cent= 0 IOpClX= 1 NMat=1 NMatS=1 NMatT=0.
 FoFJK:  IHMeth= 1 ICntrl=    2127 DoSepK=F KAlg= 0 I1Cent=           0 FoldK=F
 IRaf=         0 NMat=       1 IRICut=       1 DoRegI=T DoRafI=F ISym2E= 1 IDoP0=0 IntGTp=1.
 FoFCou: FMM=F IPFlag=           0 FMFlag=      100000 FMFlg1=         800
         NFxFlg=           0 DoJE=F BraDBF=F KetDBF=F FulRan=T
         wScrn=  0.000000 ICntrl=      2127 IOpCl=  1 I1Cent=           0 NGrid=           0
         NMat0=    1 NMatS0=      1 NMatT0=    0 NMatD0=    1 NMtDS0=    0 NMtDT0=    0
 Petite list used in FoFCou.
 Leave Link  703 at Mon Apr 21 21:20:57 2025, MaxMem=   536870912 cpu:               2.2 elap:               0.4
 (Enter /home/szhao/Apps/g16/l716.exe)
 Dipole        = 6.90253292D-31-1.73356031D-33-1.77635684D-15
 ***** Axes restored to original set *****
 -------------------------------------------------------------------
 Center     Atomic                   Forces (Hartrees/Bohr)
 Number     Number              X              Y              Z
 -------------------------------------------------------------------
      1       15           0.107752810   -0.000000000    0.000000000
      2       15          -0.107752810    0.000000000   -0.000000000
 -------------------------------------------------------------------
 Cartesian Forces:  Max     0.107752810 RMS     0.062211114
 Z-matrix is all fixed cartesians, so copy forces.
 Force constants in Cartesian coordinates: 
                1             2             3             4             5 
      1  0.100000D+01
      2  0.000000D+00  0.100000D+01
      3  0.000000D+00  0.000000D+00  0.100000D+01
      4  0.000000D+00  0.000000D+00  0.000000D+00  0.100000D+01
      5  0.000000D+00  0.000000D+00  0.000000D+00  0.000000D+00  0.100000D+01
      6  0.000000D+00  0.000000D+00  0.000000D+00  0.000000D+00  0.000000D+00
                6 
      6  0.100000D+01
 Leave Link  716 at Mon Apr 21 21:20:58 2025, MaxMem=   536870912 cpu:               0.6 elap:               0.2
 (Enter /home/szhao/Apps/g16/l103.exe)

 GradGradGradGradGradGradGradGradGradGradGradGradGradGradGradGradGradGrad
 Berny optimization.
 Search for a local minimum.
 Step number   1 out of a maximum of    2
 All quantities printed in internal units (Hartrees-Bohrs-Radians)
 Second derivative matrix not updated -- first step.
 The second derivative matrix:
                          X1        Y1        Z1        X2        Y2
           X1           1.00000
           Y1           0.00000   1.00000
           Z1           0.00000   0.00000   1.00000
           X2           0.00000   0.00000   0.00000   1.00000
           Y2           0.00000   0.00000   0.00000   0.00000   1.00000
           Z2           0.00000   0.00000   0.00000   0.00000   0.00000
                          Z2
           Z2           1.00000
 ITU=  0
     Eigenvalues ---    1.00000   1.00000   1.00000   1.00000   1.00000
     Eigenvalues ---    1.00000
 Angle between quadratic step and forces=   0.00 degrees.
 ClnCor:  largest displacement from symmetrization is 7.18D-16 for atom     1.
 Linear search not attempted -- first point.
 ClnCor:  largest displacement from symmetrization is 0.00D+00 for atom     0.
 B after Tr=     0.000000    0.000000    0.000000
         Rot=    1.000000    0.000000    0.000000    0.000000 Ang=   0.00 deg.
 Variable       Old X    -DE/DX   Delta X   Delta X   Delta X     New X
                                 (Linear)    (Quad)   (Total)
    X1       -2.76560   0.10775   0.00000   0.10775   0.10775  -2.65785
    Y1        0.00000  -0.00000   0.00000   0.00000   0.00000   0.00000
    Z1        0.00000   0.00000   0.00000   0.00000   0.00000   0.00000
    X2        2.76560  -0.10775   0.00000  -0.10775  -0.10775   2.65785
    Y2        0.00000   0.00000   0.00000   0.00000   0.00000   0.00000
    Z2        0.00000  -0.00000   0.00000  -0.00000  -0.00000   0.00000
         Item               Value     Threshold  Converged?
 Maximum Force            0.107753     0.000450     NO 
 RMS     Force            0.062211     0.000300     NO 
 Maximum Displacement     0.107753     0.001800     NO 
 RMS     Displacement     0.062211     0.001200     NO 
 Predicted change in Energy=-1.161067D-02
 GradGradGradGradGradGradGradGradGradGradGradGradGradGradGradGradGradGrad

 Leave Link  103 at Mon Apr 21 21:20:58 2025, MaxMem=   536870912 cpu:               0.3 elap:               0.1
 (Enter /home/szhao/Apps/g16/l9999.exe)
 1\1\GINC-NODE06\Force\UM062X\6-311+G(d,p)\P2\SZHAO\21-Apr-2025\0\\#p U
 M062X/6-311+G** force int=superfine pop=saveNBO\\Title Card Required\\
 0,1\P,-1.463495,0.,0.\P,1.463495,0.,0.\\Version=ES64L-G16RevA.03\State
 =1-SGG\HF=-682.4364735\S2=0.\S2-1=0.\S2A=0.\RMSD=6.085e-10\RMSF=6.221e
 -02\Dipole=0.,0.,0.\Quadrupole=2.0571341,-1.0285671,-1.0285671,0.,0.,0
 .\PG=D*H [C*(P1.P1)]\\@


 "WOULD YOU TELL ME PLEASE, WHICH WAY I OUGHT TO WALK FROM HERE?"
 "THAT DEPENDS A GREAT DEAL ON WHERE YOU WANT TO GO," SAID THE CAT.
 "I DON'T MUCH CARE WHERE -- ", SAID ALICE.
 "THEN IT DOESN'T MATTER WHICH WAY YOU WALK," SAID THE CAT.

                                      -- LEWIS CARROLL
 Job cpu time:       0 days  0 hours  0 minutes 31.6 seconds.
 Elapsed time:       0 days  0 hours  0 minutes  6.2 seconds.
 File lengths (MBytes):  RWF=     17 Int=      0 D2E=      0 Chk=      2 Scr=      2
 Normal termination of Gaussian 16 at Mon Apr 21 21:20:58 2025.
