Title Card Required                                                     
FOpt      UM062X                                                      6-311+G(d,p)        
Number of atoms                            I                4
Info1-9                                    I   N=           9
          13          13           0           0           0         110
           2          18        -502
Full Title                                 C   N=           2
Title Card Required     
Route                                      C   N=           4
#p opt UM062X/6-311+G** nosymm int=superfine    
Charge                                     I                0
Multiplicity                               I                1
Number of electrons                        I               14
Number of alpha electrons                  I                7
Number of beta electrons                   I                7
Number of basis functions                  I               56
Number of independent functions            I               56
Number of point charges in /Mol/           I                0
Number of translation vectors              I                0
Atomic numbers                             I   N=           4
           6           6           1           1
Nuclear charges                            R   N=           4
  6.00000000E+00  6.00000000E+00  1.00000000E+00  1.00000000E+00
Current cartesian coordinates              R   N=          12
 -1.67392496E+00  0.00000000E+00  0.00000000E+00  1.67392496E+00  0.00000000E+00
  0.00000000E+00 -3.71257771E+00 -1.12736955E-05  8.94085145E-06  3.71249577E+00
 -1.20465206E-05  1.44487838E-05
Number of symbols in /Mol/                 I                0
Force Field                                I                0
Atom Types                                 C   N=           4
                                                
Int Atom Types                             I   N=           4
           0           0           0           0
MM charges                                 R   N=           4
  0.00000000E+00  0.00000000E+00  0.00000000E+00  0.00000000E+00
Integer atomic weights                     I   N=           4
          12          12           1           1
Real atomic weights                        R   N=           4
  1.20000000E+01  1.20000000E+01  1.00782504E+00  1.00782504E+00
Atom fragment info                         I   N=           4
           0           0           0           0
Atom residue num                           I   N=           4
           0           0           0           0
Nuclear spins                              I   N=           4
           0           0           1           1
Nuclear ZEff                               R   N=           4
 -3.60000000E+00 -3.60000000E+00 -1.00000000E+00 -1.00000000E+00
Nuclear ZNuc                               R   N=           4
  6.00000000E+00  6.00000000E+00  1.00000000E+00  1.00000000E+00
Nuclear QMom                               R   N=           4
  0.00000000E+00  0.00000000E+00  0.00000000E+00  0.00000000E+00
Nuclear GFac                               R   N=           4
  0.00000000E+00  0.00000000E+00  2.79284600E+00  2.79284600E+00
MicOpt                                     I   N=           4
          -2          -2          -1          -1
Number of residues                         I                0
Number of secondary structures             I                0
Redundant internal dimensions              I   N=           4
          12           8           4           0
Redundant internal coordinate indices      I   N=          48
           1          -1           0           0           1          -2
           0           0           1          -3           0           0
           2          -1           0           0           2          -2
           0           0           2          -3           0           0
           1           3           0           0           2           4
           0           0           2           1           3          -4
           1           2           4          -4           2           1
           3          -8           1           2           4          -8
Redundant internal coordinates             R   N=          12
 -1.67392496E+00  0.00000000E+00  0.00000000E+00  1.67392496E+00  0.00000000E+00
  0.00000000E+00  2.03865275E+00  2.03857081E+00  3.14158827E+00  3.14159974E+00
  3.14158712E+00  3.14159856E+00
ZRed-IntVec                                I   N=          12
          -1          -1          -1          -1          -1          -1
           0           0           0           0           0           0
ZRed-FPVec                                 R   N=          12
  0.00000000E+00  0.00000000E+00  0.00000000E+00  0.00000000E+00  0.00000000E+00
  0.00000000E+00  0.00000000E+00  0.00000000E+00  0.00000000E+00  0.00000000E+00
  0.00000000E+00  0.00000000E+00
ZRed-Constraint1                           R   N=          12
 -1.67392496E+00  0.00000000E+00  0.00000000E+00  1.67392496E+00  0.00000000E+00
  0.00000000E+00  2.97693341E+00  2.97688866E+00  3.14159265E+00  3.14159265E+00
  3.14159265E+00  3.14159265E+00
ZRed-Constraint2                           R   N=          12
 -1.67392496E+00  0.00000000E+00  0.00000000E+00  1.67392496E+00  0.00000000E+00
  0.00000000E+00  0.00000000E+00  0.00000000E+00  0.00000000E+00  0.00000000E+00
  0.00000000E+00  0.00000000E+00
Number of contracted shells                I               20
Number of primitive shells                 I               38
Pure/Cartesian d shells                    I                0
Pure/Cartesian f shells                    I                0
Highest angular momentum                   I                2
Largest degree of contraction              I                6
Shell types                                I   N=          20
           0          -1          -1          -1          -1          -2
           0          -1          -1          -1          -1          -2
           0           0           0           1           0           0
           0           1
Number of primitives per shell             I   N=          20
           6           3           1           1           1           1
           6           3           1           1           1           1
           3           1           1           1           3           1
           1           1
Shell to atom map                          I   N=          20
           1           1           1           1           1           1
           2           2           2           2           2           2
           3           3           3           3           4           4
           4           4
Primitive exponents                        R   N=          38
  4.56324000E+03  6.82024000E+02  1.54973000E+02  4.44553000E+01  1.30290000E+01
  1.82773000E+00  2.09642000E+01  4.80331000E+00  1.45933000E+00  4.83456000E-01
  1.45585000E-01  4.38000000E-02  6.26000000E-01  4.56324000E+03  6.82024000E+02
  1.54973000E+02  4.44553000E+01  1.30290000E+01  1.82773000E+00  2.09642000E+01
  4.80331000E+00  1.45933000E+00  4.83456000E-01  1.45585000E-01  4.38000000E-02
  6.26000000E-01  3.38650000E+01  5.09479000E+00  1.15879000E+00  3.25840000E-01
  1.02741000E-01  7.50000000E-01  3.38650000E+01  5.09479000E+00  1.15879000E+00
  3.25840000E-01  1.02741000E-01  7.50000000E-01
Contraction coefficients                   R   N=          38
  1.96665025E-03  1.52306019E-02  7.61269097E-02  2.60801033E-01  6.16462078E-01
  2.21006028E-01  1.14660081E-01  9.19999648E-01 -3.03068213E-03  1.00000000E+00
  1.00000000E+00  1.00000000E+00  1.00000000E+00  1.96665025E-03  1.52306019E-02
  7.61269097E-02  2.60801033E-01  6.16462078E-01  2.21006028E-01  1.14660081E-01
  9.19999648E-01 -3.03068213E-03  1.00000000E+00  1.00000000E+00  1.00000000E+00
  1.00000000E+00  2.54938145E-02  1.90373109E-01  8.52161486E-01  1.00000000E+00
  1.00000000E+00  1.00000000E+00  2.54938145E-02  1.90373109E-01  8.52161486E-01
  1.00000000E+00  1.00000000E+00  1.00000000E+00
P(S=P) Contraction coefficients            R   N=          38
  0.00000000E+00  0.00000000E+00  0.00000000E+00  0.00000000E+00  0.00000000E+00
  0.00000000E+00  4.02486927E-02  2.37593957E-01  8.15853851E-01  1.00000000E+00
  1.00000000E+00  1.00000000E+00  0.00000000E+00  0.00000000E+00  0.00000000E+00
  0.00000000E+00  0.00000000E+00  0.00000000E+00  0.00000000E+00  4.02486927E-02
  2.37593957E-01  8.15853851E-01  1.00000000E+00  1.00000000E+00  1.00000000E+00
  0.00000000E+00  0.00000000E+00  0.00000000E+00  0.00000000E+00  0.00000000E+00
  0.00000000E+00  0.00000000E+00  0.00000000E+00  0.00000000E+00  0.00000000E+00
  0.00000000E+00  0.00000000E+00  0.00000000E+00
Coordinates of each shell                  R   N=          60
 -1.67392496E+00  0.00000000E+00  0.00000000E+00 -1.67392496E+00  0.00000000E+00
  0.00000000E+00 -1.67392496E+00  0.00000000E+00  0.00000000E+00 -1.67392496E+00
  0.00000000E+00  0.00000000E+00 -1.67392496E+00  0.00000000E+00  0.00000000E+00
 -1.67392496E+00  0.00000000E+00  0.00000000E+00  1.67392496E+00  0.00000000E+00
  0.00000000E+00  1.67392496E+00  0.00000000E+00  0.00000000E+00  1.67392496E+00
  0.00000000E+00  0.00000000E+00  1.67392496E+00  0.00000000E+00  0.00000000E+00
  1.67392496E+00  0.00000000E+00  0.00000000E+00  1.67392496E+00  0.00000000E+00
  0.00000000E+00 -3.71257771E+00 -1.12736955E-05  8.94085145E-06 -3.71257771E+00
 -1.12736955E-05  8.94085145E-06 -3.71257771E+00 -1.12736955E-05  8.94085145E-06
 -3.71257771E+00 -1.12736955E-05  8.94085145E-06  3.71249577E+00 -1.20465206E-05
  1.44487838E-05  3.71249577E+00 -1.20465206E-05  1.44487838E-05  3.71249577E+00
 -1.20465206E-05  1.44487838E-05  3.71249577E+00 -1.20465206E-05  1.44487838E-05
Num ILSW                                   I              100
ILSW                                       I   N=         100
           1           0           0           0           2           0
           0           0           0           0        4336          -1
           7           0           0           0           2           0
           0           0           0           0           1           0
           1           1           0           0           0           0
           0           0      100000           0          -1           0
           0           0           0           0           0           0
           0           0           0           1           0           0
           0 -2000000000           1           0           0           0
           0           0           4          52           0           0
           0           0          55           0           0           0
           0           0           0           4           0           1
           0           0           0           0           0           0
           0           0           0           0           0           0
           0           0           0           0           0           0
           0           0           0           0           0           0
           0           0           0           0
Num RLSW                                   I               52
RLSW                                       R   N=          52
  1.00000000E+00  1.00000000E+00  1.00000000E+00  1.00000000E+00  5.40000000E-01
  0.00000000E+00  0.00000000E+00  1.00000000E+00  0.00000000E+00  0.00000000E+00
  0.00000000E+00  0.00000000E+00  1.00000000E+00  0.00000000E+00  0.00000000E+00
  0.00000000E+00  0.00000000E+00  1.00000000E+00  0.00000000E+00  0.00000000E+00
  0.00000000E+00  0.00000000E+00  1.00000000E+00  0.00000000E+00  0.00000000E+00
  0.00000000E+00  0.00000000E+00  1.00000000E+00  0.00000000E+00  0.00000000E+00
  0.00000000E+00  0.00000000E+00  1.00000000E+00  0.00000000E+00  0.00000000E+00
  0.00000000E+00  0.00000000E+00  0.00000000E+00  1.00000000E+00  1.00000000E+00
  0.00000000E+00  1.00000000E+00  0.00000000E+00  0.00000000E+00  0.00000000E+00
  0.00000000E+00  0.00000000E+00  0.00000000E+00  0.00000000E+00  0.00000000E+00
  0.00000000E+00  0.00000000E+00
MxBond                                     I                2
NBond                                      I   N=           4
           2           2           1           1
IBond                                      I   N=           8
           2           3           1           4           1           0
           2           0
RBond                                      R   N=           8
  1.00000000E+00  1.00000000E-01  1.00000000E+00  1.00000000E-01  1.00000000E-01
  0.00000000E+00  1.00000000E-01  0.00000000E+00
Virial Ratio                               R      2.016839028193935E+00
SCF Energy                                 R     -7.704609791340272E+01
Total Energy                               R     -7.704609791340272E+01
S**2                                       R     -3.019806626980426E-14
S**2 after annihilation                    R      1.358912982141169E-13
RMS Force                                  R      9.644788528194155E-05
RMS Density                                R      2.667505124263895E-09
Job Status                                 I                1
Nuclear derivative order                   I                1
External E-field                           R   N=          35
  0.00000000E+00  0.00000000E+00  0.00000000E+00  0.00000000E+00  0.00000000E+00
  0.00000000E+00  0.00000000E+00  0.00000000E+00  0.00000000E+00  0.00000000E+00
  0.00000000E+00  0.00000000E+00  0.00000000E+00  0.00000000E+00  0.00000000E+00
  0.00000000E+00  0.00000000E+00  0.00000000E+00  0.00000000E+00  0.00000000E+00
  0.00000000E+00  0.00000000E+00  0.00000000E+00  0.00000000E+00  0.00000000E+00
  0.00000000E+00  0.00000000E+00  0.00000000E+00  0.00000000E+00  0.00000000E+00
  0.00000000E+00  0.00000000E+00  0.00000000E+00  0.00000000E+00  0.00000000E+00
IOpCl                                      I                1
IROHF                                      I                0
Alpha Orbital Energies                     R   N=          56
 -1.06684466E+01 -1.06681843E+01 -7.71460193E-01 -7.01647735E-01 -5.21442676E-01
 -2.97009592E-01 -2.97009592E-01 -5.73598835E-02 -5.73598834E-02 -1.87848799E-02
  2.28345924E-02  4.57576491E-02  8.50718619E-02  8.50718619E-02  9.62964912E-02
  1.09071889E-01  1.09071889E-01  1.74347122E-01  2.22578032E-01  2.64544759E-01
  4.68783877E-01  5.82048495E-01  5.82048495E-01  6.03843892E-01  6.04305720E-01
  6.04305721E-01  6.84010422E-01  7.51886516E-01  8.13951516E-01  9.85963519E-01
  1.01585384E+00  1.01585384E+00  1.29284297E+00  1.29284336E+00  1.31373058E+00
  1.31373058E+00  1.41242551E+00  1.41242592E+00  1.49905473E+00  1.74140735E+00
  1.74140735E+00  1.82041845E+00  2.10559278E+00  2.10559278E+00  2.31624454E+00
  2.54388828E+00  2.68679125E+00  2.70614080E+00  2.70614080E+00  2.77029952E+00
  2.77029952E+00  3.09154501E+00  3.29724730E+00  3.42998746E+00  2.35666843E+01
  2.37186917E+01
Beta Orbital Energies                      R   N=          56
 -1.06684466E+01 -1.06681843E+01 -7.71460193E-01 -7.01647735E-01 -5.21442676E-01
 -2.97009592E-01 -2.97009592E-01 -5.73598835E-02 -5.73598834E-02 -1.87848799E-02
  2.28345924E-02  4.57576491E-02  8.50718619E-02  8.50718619E-02  9.62964912E-02
  1.09071889E-01  1.09071889E-01  1.74347122E-01  2.22578032E-01  2.64544759E-01
  4.68783877E-01  5.82048495E-01  5.82048495E-01  6.03843892E-01  6.04305720E-01
  6.04305721E-01  6.84010422E-01  7.51886516E-01  8.13951516E-01  9.85963519E-01
  1.01585384E+00  1.01585384E+00  1.29284297E+00  1.29284336E+00  1.31373058E+00
  1.31373058E+00  1.41242551E+00  1.41242592E+00  1.49905473E+00  1.74140735E+00
  1.74140735E+00  1.82041845E+00  2.10559278E+00  2.10559278E+00  2.31624454E+00
  2.54388828E+00  2.68679125E+00  2.70614080E+00  2.70614080E+00  2.77029952E+00
  2.77029952E+00  3.09154501E+00  3.29724730E+00  3.42998746E+00  2.35666843E+01
  2.37186917E+01
Alpha MO coefficients                      R   N=        3136
  4.01850834E-01  3.30506283E-01  5.90295869E-04  6.27250990E-09 -8.38304823E-09
  7.42778802E-03 -2.23143644E-03 -1.49583520E-08  1.34321901E-08 -3.46828559E-03
  5.84572386E-04  3.38704782E-09 -3.21399567E-09 -4.23147094E-04  1.42208927E-03
  3.07263210E-09 -5.55315721E-10 -4.64701229E-04 -7.60948983E-09 -4.30559028E-14
  8.04886138E-04  9.75012722E-09  3.96222159E-01  3.25877938E-01 -5.85995832E-04
  5.54223547E-09 -3.49457510E-09  7.31857958E-03  2.20246096E-03 -1.52846224E-08
  1.68700235E-08 -3.39453438E-03 -6.50457731E-04  3.58089551E-09 -3.79139393E-09
 -4.87957701E-04 -1.39451467E-03  3.89662276E-09 -6.43156677E-09 -4.54232182E-04
  1.23965861E-08 -8.02429360E-14  7.86753218E-04 -1.02341439E-08  7.86702032E-05
 -2.85361998E-03  3.18343390E-03 -1.71976240E-03 -8.45847550E-09  6.55712292E-09
  7.66011629E-05 -2.79017011E-03  3.17551109E-03  1.69048450E-03 -8.88260651E-09
  1.07898779E-08 -3.96255658E-01 -3.25829912E-01 -3.03079197E-04 -5.30039440E-09
  7.25827891E-09 -7.72017888E-03  2.07166766E-03  1.31186199E-08 -1.09351771E-08
  5.19884966E-03  4.67575121E-03  8.82951820E-09 -7.67581787E-09 -4.52608239E-03
 -1.92665767E-03  1.12449527E-10 -3.20973811E-10  7.46631296E-04  1.26902942E-08
  6.40763289E-14 -1.29320334E-03 -1.53362183E-08  4.01883841E-01  3.30458837E-01
 -3.11408051E-04  4.76396877E-09 -2.80679951E-09  7.82462876E-03  2.10347270E-03
 -1.40722308E-08  1.63592125E-08 -5.24694547E-03  4.66711389E-03 -9.16318826E-09
  1.03679880E-08  4.51955324E-03 -1.94651568E-03  9.82415898E-12 -2.53701660E-10
 -7.53228911E-04  1.91367863E-08 -1.10827050E-13  1.30463074E-03 -1.63655929E-08
 -1.38057635E-04  4.52469887E-03 -5.65769096E-04  2.08557844E-03  1.34648683E-08
 -1.02474575E-08  1.39006417E-04 -4.56523400E-03  6.10740918E-04  2.10995092E-03
 -1.46568043E-08  1.79853000E-08 -8.17024416E-02 -1.32043178E-01 -1.11747440E-02
 -2.15342726E-07  1.65700884E-07  3.64461833E-01 -9.43948577E-03 -2.74677398E-07
  1.88901908E-07  2.54836701E-01 -8.05409687E-03 -1.13921590E-07  8.36295535E-08
  2.81562712E-03 -1.31687867E-02 -2.29452567E-08  5.33640990E-09 -9.20501212E-03
 -7.98342040E-08 -4.87794021E-13  1.59435487E-02  9.47183507E-08 -8.17115158E-02
 -1.32057731E-01  1.11875227E-02 -2.31743953E-07  2.82733136E-07  3.64500560E-01
  9.45471200E-03 -3.02743766E-07  3.90259715E-07  2.54861097E-01  8.05843004E-03
 -1.23897502E-07  1.54904191E-07  2.80988987E-03  1.31709552E-02 -2.87101467E-08
  4.64731163E-08 -9.20603052E-03  1.15205897E-07 -4.94455694E-13  1.59453126E-02
 -9.97389439E-08  8.65797327E-02  1.05906580E-01 -4.05687793E-03  1.22264868E-02
  5.30341668E-08 -4.19090536E-08  8.65997584E-02  1.05928462E-01 -4.05536625E-03
 -1.22292116E-02  5.67432623E-08 -6.81984996E-08 -6.81056741E-02 -1.10101660E-01
 -8.15798086E-02 -3.19854881E-07  2.31273657E-07  3.06034093E-01 -1.11122522E-01
 -3.98549259E-07  2.63551157E-07  2.19016985E-01 -5.30171362E-02 -1.83397741E-07
  1.34307579E-07 -1.01255542E-01 -4.03134570E-02 -6.02670434E-08  5.65297461E-08
 -6.35400592E-03 -1.05207436E-07 -5.56067315E-13  1.10054611E-02  1.30187184E-07
  6.80943221E-02  1.10083104E-01 -8.15886347E-02  3.49032728E-07 -4.39609177E-07
 -3.05980798E-01 -1.11133181E-01  4.42801505E-07 -5.80302739E-07 -2.18971625E-01
 -5.30189948E-02  1.99578418E-07 -2.49806546E-07  1.01256591E-01 -4.03103426E-02
  6.15379382E-08 -6.56343058E-08  6.35270355E-03 -1.64231917E-07  6.88733525E-13
 -1.10032053E-02  1.38451566E-07  1.25336726E-01  1.60434075E-01  1.48780769E-02
  1.78945536E-02  1.09891570E-07 -8.97892927E-08 -1.25334931E-01 -1.60427264E-01
 -1.48803275E-02  1.78940964E-02 -1.16572897E-07  1.37350557E-07 -1.88019539E-02
 -3.13025697E-02  1.70595741E-01  5.41185909E-07 -4.36880461E-07  9.27098521E-02
  2.46655927E-01  7.44848576E-07 -6.20363667E-07  9.49322764E-02  1.29504434E-01
  3.94580512E-07 -3.05671734E-07  9.72173280E-04  1.45256587E-03  5.18123047E-09
  3.77904427E-09 -2.50762256E-03  1.06363567E-08  1.75243835E-13  4.34332968E-03
 -4.60200835E-08 -1.88047807E-02 -3.13073538E-02 -1.70593903E-01  5.75632752E-07
 -6.83267332E-07  9.27244345E-02 -2.46650329E-01  7.86087926E-07 -9.15132456E-07
  9.49496547E-02 -1.29499298E-01  4.23669882E-07 -5.15015915E-07  9.61630038E-04
 -1.44743567E-03  8.07183177E-09 -1.70705907E-08 -2.50788000E-03 -9.32000646E-08
  5.57221261E-13  4.34377559E-03  5.75089997E-08 -1.15619107E-01 -1.72182156E-01
 -5.11971704E-02 -1.62871246E-02 -1.25372473E-07  9.82889108E-08 -1.15615555E-01
 -1.72172225E-01 -5.11953426E-02  1.62865444E-02 -1.34355267E-07  1.62213189E-07
  5.03870737E-08  8.13147460E-08  1.09857930E-06 -1.14647345E-01  1.40816140E-01
 -1.92842468E-07  1.78921790E-06 -1.79308131E-01  2.20236056E-01 -6.69460264E-07
  1.13194621E-06 -1.75226142E-01  2.15222333E-01 -3.98044456E-07  1.37806349E-07
 -2.45067989E-02  3.01005910E-02 -2.40249388E-08  8.72112735E-03 -1.82808475E-09
  6.99599195E-09 -7.10042251E-03  2.17140870E-07  3.61721093E-07 -1.08588326E-06
 -1.14647480E-01  1.40816307E-01 -1.04393002E-06 -1.86138989E-06 -1.79308517E-01
  2.20236530E-01 -1.76536004E-06 -1.53465747E-06 -1.75226397E-01  2.15222646E-01
  4.12125186E-08 -3.84480435E-07 -2.45063973E-02  3.01000978E-02  1.93962989E-08
 -8.72115542E-03 -4.41007952E-08  1.06445942E-08  7.10044536E-03  5.05555823E-08
 -5.96970637E-08 -2.63821275E-07  1.56359819E-07 -1.11173990E-02  1.36549976E-02
  2.69939582E-07  4.57411441E-07  1.06505068E-07 -2.50550695E-07 -1.11179540E-02
  1.36556793E-02 -6.40296477E-08 -1.07327086E-07 -1.06218184E-07  1.40816140E-01
  1.14647345E-01  3.20316576E-07 -2.05862072E-07  2.20236056E-01  1.79308131E-01
  4.55329598E-07 -2.56175662E-07  2.15222333E-01  1.75226142E-01 -1.13601996E-07
 -1.00523519E-07  3.01005910E-02  2.45067989E-02 -6.43187908E-10  7.10042251E-03
 -1.73068294E-08  5.09092054E-09  8.72112735E-03  3.70268425E-08  6.26097925E-08
  1.14268444E-07  1.40816307E-01  1.14647480E-01 -1.95486259E-07  1.62603353E-07
  2.20236530E-01  1.79308517E-01 -2.09582529E-07  1.29713648E-08  2.15222646E-01
  1.75226397E-01  1.49617750E-07 -4.78104341E-08  3.01000978E-02  2.45063973E-02
  4.16232612E-08 -7.10044536E-03  2.20806953E-08  1.65165171E-08 -8.72115542E-03
 -8.26333033E-08 -1.76841779E-07 -1.04436542E-07 -4.90416344E-08  1.36549976E-02
  1.11173990E-02  5.02840456E-08  1.36697370E-07  1.20310491E-07 -7.97327234E-09
  1.36556793E-02  1.11179540E-02  1.90433422E-06  3.18863609E-06 -1.97351424E-06
 -1.36100173E-01  1.37177352E-01 -9.58705827E-06 -2.56472783E-06 -2.05304110E-01
  2.06929010E-01 -1.78271323E-05  2.52941685E-06 -2.66488149E-01  2.68597297E-01
 -4.20637526E-05 -1.67278947E-05 -2.19487062E-01  2.21224215E-01 -4.24128310E-07
 -1.71477992E-02 -1.98621400E-08  6.97656098E-07  1.70131469E-02 -1.95327906E-06
 -3.27003091E-06 -1.64440285E-06  1.36099904E-01 -1.37177081E-01  9.78551422E-06
 -2.02041331E-06  2.05303846E-01 -2.06928744E-01  1.86302938E-05  3.24325890E-06
  2.66487873E-01 -2.68597019E-01  4.25850993E-05 -1.63280869E-05  2.19485958E-01
 -2.21223102E-01  3.84003078E-07 -1.71477667E-02  6.89022263E-08 -7.03036765E-07
  1.70131146E-02  3.00424994E-06  8.50962880E-06  1.03297495E-05  7.94278479E-08
 -1.89638293E-02  1.91139205E-02 -3.16027075E-06 -8.91494595E-06 -1.08283245E-05
  1.36187436E-07  1.89640907E-02 -1.91141839E-02 -2.30623957E-08 -3.84062566E-08
 -1.18738696E-07  1.37177352E-01  1.36100174E-01  9.81022936E-08 -1.98106941E-07
  2.06929010E-01  2.05304110E-01  3.45130928E-07 -2.74171097E-07  2.68597297E-01
  2.66488150E-01  2.98740458E-07 -1.08590798E-07  2.21224216E-01  2.19487063E-01
  1.54509272E-08 -1.70131469E-02 -1.84572485E-08  1.33232352E-08 -1.71477992E-02
 -1.35898957E-08 -2.25468942E-08  1.27621119E-07 -1.37177081E-01 -1.36099904E-01
  5.05331779E-08  2.09366908E-07 -2.06928745E-01 -2.05303846E-01  2.55613709E-07
  2.60000515E-07 -2.68597019E-01 -2.66487873E-01  9.08169187E-08  1.89796914E-07
 -2.21223102E-01 -2.19485958E-01 -6.37687416E-08 -1.70131146E-02 -1.89390879E-08
 -2.78290830E-08 -1.71477667E-02 -6.59010565E-08 -1.73060111E-07 -2.12460974E-07
 -2.14842403E-08  1.91139205E-02  1.89638293E-02 -5.07645482E-08 -1.30274402E-07
 -1.60502546E-07  2.09567929E-08 -1.91141840E-02 -1.89640907E-02  6.31033235E-02
  1.05873772E-01 -7.83786714E-02  3.40149579E-06 -3.29918435E-06 -3.20075876E-01
 -9.73798237E-02  5.20166668E-06 -5.00061603E-06 -6.39624008E-01 -1.24832944E-01
  7.61355574E-06 -7.31649827E-06 -3.72766545E+00 -1.67128236E+00  5.94784578E-06
 -5.93686918E-06 -1.56266948E-02  4.37071373E-07  6.32664551E-13  2.70662293E-02
 -3.98047038E-07 -6.31004304E-02 -1.05869072E-01 -7.83913423E-02 -3.43777779E-06
  3.56042940E-06  3.20061901E-01 -9.73962466E-02 -5.27156496E-06  5.50376647E-06
  6.39599342E-01 -1.24858324E-01 -7.71740773E-06  8.06006838E-06  3.72772466E+00
 -1.67120616E+00 -5.95700097E-06  6.00348369E-06  1.56262168E-02  3.49083681E-07
 -1.41588561E-12 -2.70654015E-02 -3.85776868E-07  8.44009592E-02  2.39816216E-01
  1.92043763E-01 -1.07258002E-02  5.61225211E-07 -5.42984507E-07 -8.43967834E-02
 -2.39794168E-01 -1.92046094E-01 -1.07229782E-02 -5.67713626E-07  5.89317803E-07
  1.79814640E-02  3.11529253E-02  3.20599360E-02  8.49971636E-08 -9.14902920E-08
 -1.08093295E-01  6.71741798E-02  2.80600815E-07 -2.44734277E-07 -8.79885555E-02
  3.09223025E-02 -1.37147885E-07  5.84402049E-09  1.10993918E+00 -1.00409840E+00
 -2.01376745E-06  5.38190812E-07  7.13969277E-03  9.95909073E-08  3.88426538E-13
 -1.23663106E-02 -1.20507475E-07  1.79851917E-02  3.11594628E-02 -3.20559899E-02
  8.30417239E-08 -7.70522737E-08 -1.08116997E-01 -6.71752065E-02  2.92717792E-07
 -3.30306439E-07 -8.80083555E-02 -3.08789833E-02 -1.80042464E-07  3.12303295E-07
  1.10954782E+00  1.00432818E+00 -2.49805358E-06  3.98710161E-06  7.13965625E-03
 -1.49147943E-07  5.24788475E-13 -1.23662474E-02  1.27491433E-07 -2.54070628E-02
  1.02564011E-01 -6.88060761E-01 -7.11800787E-03 -2.85078442E-08  1.45324813E-08
 -2.54053528E-02  1.02577060E-01 -6.88128350E-01  7.11724129E-03 -3.30720263E-08
  4.72285440E-08 -2.63321092E-02 -4.31395806E-02  8.62134841E-02 -8.18023145E-07
  7.86701052E-07  1.04060373E-01  1.41125552E-01 -1.17276915E-06  1.11383190E-06
  5.50007142E-01 -1.05208915E-01 -3.14637631E-06  2.86449291E-06 -4.45444725E+00
 -2.71998438E+00 -1.19396212E-05  1.13539117E-05  1.38670423E-02 -1.03944472E-07
 -3.26517544E-13 -2.40184218E-02  6.75216664E-08  2.63323695E-02  4.31401203E-02
  8.62159028E-02  8.28899184E-07 -8.65118730E-07 -1.04061715E-01  1.41126789E-01
  1.19285287E-06 -1.25882916E-06 -5.50031028E-01 -1.05212105E-01  3.24142534E-06
 -3.54232658E-06  4.45454125E+00 -2.71989266E+00  1.21420083E-05 -1.27993466E-05
 -1.38659242E-02 -1.97000394E-08  3.93311218E-13  2.40164852E-02  5.57536188E-08
 -7.95360862E-02 -1.29983007E-01 -1.06898600E+00 -1.02997446E-02 -3.17287829E-07
  2.87603408E-07  7.95311897E-02  1.29989275E-01  1.06891596E+00 -1.02993898E-02
  3.27275911E-07 -3.58880266E-07 -4.84314871E-08 -8.48625505E-08 -1.66744060E-07
  5.45051422E-02 -5.71313499E-02  3.85215931E-07 -1.22256491E-07  4.74045458E-02
 -4.96886272E-02 -8.82775860E-07 -4.43491886E-07  2.40906057E-01 -2.52513573E-01
 -8.67448038E-06  1.82293835E-06 -4.66710252E-01  4.89197635E-01  4.40970868E-08
 -2.39952315E-03  8.39619630E-09 -6.25423242E-08  2.28922213E-03 -3.04202327E-08
 -5.46580626E-08  2.21081822E-07  5.45033795E-02 -5.71295023E-02  3.16055900E-07
  2.21474687E-07  4.74027054E-02 -4.96866981E-02 -1.51401737E-06 -5.29757447E-07
  2.40899711E-01 -2.52506922E-01  3.31358287E-06 -7.28604476E-06 -4.66688851E-01
  4.89175204E-01  2.84857450E-08  2.39944799E-03  2.69178616E-08 -6.49496938E-08
 -2.28915043E-03 -1.11490089E-07  3.29912783E-07  1.42963451E-06  1.04205665E-08
 -2.41035981E-03  2.52649758E-03 -1.12168327E-07  8.31840889E-07  2.81745138E-06
 -1.35693309E-08 -2.40991749E-03  2.52603394E-03 -5.61125663E-09 -9.32811940E-09
  2.37905966E-08 -5.71313499E-02 -5.45051422E-02  1.71680837E-08  3.94454219E-08
 -4.96886272E-02 -4.74045458E-02  2.53141673E-07 -3.50083981E-07 -2.52513573E-01
 -2.40906057E-01 -4.24520762E-06 -2.06178777E-06  4.89197635E-01  4.66710252E-01
 -7.09741712E-09 -2.28922213E-03  6.91188819E-09 -4.64318664E-09 -2.39952315E-03
  7.34857870E-09  1.24023627E-08  1.52507856E-08 -5.71295023E-02 -5.45033795E-02
 -3.26228898E-08  3.18750092E-08 -4.96866981E-02 -4.74027054E-02 -2.00337956E-07
 -3.48169766E-07 -2.52506922E-01 -2.40899711E-01  4.36339164E-06 -1.86105605E-06
  4.89175204E-01  4.66688851E-01 -2.52427208E-08  2.28915043E-03 -7.79519793E-09
 -1.02994937E-08  2.39944799E-03  2.67089827E-09 -1.92944904E-07 -5.44898137E-07
 -1.37917459E-09  2.52649758E-03  2.41035981E-03  2.25190952E-09  1.67350095E-07
  4.51258318E-07 -8.52721994E-10  2.52603394E-03  2.40991749E-03 -7.41636594E-03
 -1.16885498E-02  6.75087121E-02  1.96032366E-07 -1.25059046E-07  1.97469675E-02
  4.50776294E-02  1.13825278E-07 -5.81378031E-08  2.07137199E-01  3.18385159E-01
  1.14265403E-06 -7.69795851E-07 -4.77674360E-01 -8.35692679E-01 -5.31594512E-08
  4.22920629E-07 -1.58080339E-02 -1.42842553E-07 -5.26558531E-13  2.73803178E-02
  1.56998749E-07 -7.41324460E-03 -1.16835073E-02 -6.74985088E-02  2.19568169E-07
 -2.91786772E-07  1.97345242E-02 -4.50599419E-02  1.32333811E-07 -1.88758805E-07
  2.07081137E-01 -3.18367252E-01  1.26625371E-06 -1.64633423E-06 -4.77834533E-01
  8.35745245E-01  6.52232855E-08 -4.34978460E-07 -1.58099566E-02  1.76917305E-07
 -7.35473050E-13  2.73836480E-02 -1.61805934E-07  2.75479359E-02  6.70282689E-02
  4.48558365E-01 -2.66797536E-02 -6.85544516E-08  6.58195459E-08  2.75495831E-02
  6.70315964E-02  4.48591502E-01  2.66817328E-02 -6.95211252E-08  7.26689284E-08
 -1.29848193E-07 -2.09364170E-07  4.70889719E-07 -6.94461380E-02  7.05178091E-02
  3.24418541E-07  4.03675686E-07 -6.79739584E-02  6.90229112E-02  4.80298906E-06
  2.54294552E-06 -3.15254703E-01  3.20119615E-01 -4.98001508E-05 -2.12635447E-05
  1.21887136E+00 -1.23768060E+00  3.07686079E-09 -1.89915613E-03 -1.45888747E-08