Title Card Required                                                     
FOpt      UM062X                                                      6-311+G(d,p)        
Number of atoms                            I                4
Info1-9                                    I   N=           9
          13          13           0           0           0         110
           2          18        -502
Full Title                                 C   N=           2
Title Card Required     
Route                                      C   N=           4
#p opt UM062X/6-311+G** nosymm int=superfine    
Charge                                     I                0
Multiplicity                               I                1
Number of electrons                        I               14
Number of alpha electrons                  I                7
Number of beta electrons                   I                7
Number of basis functions                  I               56
Number of independent functions            I               56
Number of point charges in /Mol/           I                0
Number of translation vectors              I                0
Atomic numbers                             I   N=           4
           6           6           1           1
Nuclear charges                            R   N=           4
  6.00000000E+00  6.00000000E+00  1.00000000E+00  1.00000000E+00
Current cartesian coordinates              R   N=          12
 -1.66300439E+00 -1.52096223E-03 -9.62420814E-03  1.66032294E+00  6.85736118E-03
  1.04224077E-02 -2.28086395E+00  1.81057884E+00 -8.42910065E-01  2.44643970E+00
  5.96691688E-01  1.85045323E+00
Number of symbols in /Mol/                 I                0
Force Field                                I                0
Atom Types                                 C   N=           4
                                                
Int Atom Types                             I   N=           4
           0           0           0           0
MM charges                                 R   N=           4
  0.00000000E+00  0.00000000E+00  0.00000000E+00  0.00000000E+00
Integer atomic weights                     I   N=           4
          12          12           1           1
Real atomic weights                        R   N=           4
  1.20000000E+01  1.20000000E+01  1.00782504E+00  1.00782504E+00
Atom fragment info                         I   N=           4
           0           0           0           0
Atom residue num                           I   N=           4
           0           0           0           0
Nuclear spins                              I   N=           4
           0           0           1           1
Nuclear ZEff                               R   N=           4
 -3.60000000E+00 -3.60000000E+00 -1.00000000E+00 -1.00000000E+00
Nuclear ZNuc                               R   N=           4
  6.00000000E+00  6.00000000E+00  1.00000000E+00  1.00000000E+00
Nuclear QMom                               R   N=           4
  0.00000000E+00  0.00000000E+00  0.00000000E+00  0.00000000E+00
Nuclear GFac                               R   N=           4
  0.00000000E+00  0.00000000E+00  2.79284600E+00  2.79284600E+00
MicOpt                                     I   N=           4
          -2          -2          -1          -1
Number of residues                         I                0
Number of secondary structures             I                0
Redundant internal dimensions              I   N=           4
          12           8           4           0
Redundant internal coordinate indices      I   N=          48
           1          -1           0           0           1          -2
           0           0           1          -3           0           0
           2          -1           0           0           2          -2
           0           0           2          -3           0           0
           1           3           0           0           2           4
           0           0           2           1           3          -4
           1           2           4          -4           2           1
           3          -8           1           2           4          -8
Redundant internal coordinates             R   N=          12
 -1.66300439E+00 -1.52096223E-03 -9.62420814E-03  1.66032294E+00  6.85736118E-03
  1.04224077E-02  2.08801855E+00  2.08604830E+00  4.06833504E+00  4.30259882E+00
  4.38630829E+00  2.50041174E+00
ZRed-IntVec                                I   N=          12
          -1          -1          -1          -1          -1          -1
           0           0           0           0           0           0
ZRed-FPVec                                 R   N=          12
  0.00000000E+00  0.00000000E+00  0.00000000E+00  0.00000000E+00  0.00000000E+00
  0.00000000E+00  0.00000000E+00  0.00000000E+00  0.00000000E+00  0.00000000E+00
  0.00000000E+00  0.00000000E+00
ZRed-Constraint1                           R   N=          12
 -1.66261464E+00  0.00000000E+00  0.00000000E+00  1.66261464E+00  0.00000000E+00
  0.00000000E+00  2.95681900E+00  2.95677455E+00  3.14159265E+00  3.14159265E+00
  3.14159265E+00  3.14159265E+00
ZRed-Constraint2                           R   N=          12
 -1.66261464E+00  0.00000000E+00  0.00000000E+00  1.66261464E+00  0.00000000E+00
  0.00000000E+00  0.00000000E+00  0.00000000E+00  0.00000000E+00  0.00000000E+00
  0.00000000E+00  0.00000000E+00
Number of contracted shells                I               20
Number of primitive shells                 I               38
Pure/Cartesian d shells                    I                0
Pure/Cartesian f shells                    I                0
Highest angular momentum                   I                2
Largest degree of contraction              I                6
Shell types                                I   N=          20
           0          -1          -1          -1          -1          -2
           0          -1          -1          -1          -1          -2
           0           0           0           1           0           0
           0           1
Number of primitives per shell             I   N=          20
           6           3           1           1           1           1
           6           3           1           1           1           1
           3           1           1           1           3           1
           1           1
Shell to atom map                          I   N=          20
           1           1           1           1           1           1
           2           2           2           2           2           2
           3           3           3           3           4           4
           4           4
Primitive exponents                        R   N=          38
  4.56324000E+03  6.82024000E+02  1.54973000E+02  4.44553000E+01  1.30290000E+01
  1.82773000E+00  2.09642000E+01  4.80331000E+00  1.45933000E+00  4.83456000E-01
  1.45585000E-01  4.38000000E-02  6.26000000E-01  4.56324000E+03  6.82024000E+02
  1.54973000E+02  4.44553000E+01  1.30290000E+01  1.82773000E+00  2.09642000E+01
  4.80331000E+00  1.45933000E+00  4.83456000E-01  1.45585000E-01  4.38000000E-02
  6.26000000E-01  3.38650000E+01  5.09479000E+00  1.15879000E+00  3.25840000E-01
  1.02741000E-01  7.50000000E-01  3.38650000E+01  5.09479000E+00  1.15879000E+00
  3.25840000E-01  1.02741000E-01  7.50000000E-01
Contraction coefficients                   R   N=          38
  1.96665025E-03  1.52306019E-02  7.61269097E-02  2.60801033E-01  6.16462078E-01
  2.21006028E-01  1.14660081E-01  9.19999648E-01 -3.03068213E-03  1.00000000E+00
  1.00000000E+00  1.00000000E+00  1.00000000E+00  1.96665025E-03  1.52306019E-02
  7.61269097E-02  2.60801033E-01  6.16462078E-01  2.21006028E-01  1.14660081E-01
  9.19999648E-01 -3.03068213E-03  1.00000000E+00  1.00000000E+00  1.00000000E+00
  1.00000000E+00  2.54938145E-02  1.90373109E-01  8.52161486E-01  1.00000000E+00
  1.00000000E+00  1.00000000E+00  2.54938145E-02  1.90373109E-01  8.52161486E-01
  1.00000000E+00  1.00000000E+00  1.00000000E+00
P(S=P) Contraction coefficients            R   N=          38
  0.00000000E+00  0.00000000E+00  0.00000000E+00  0.00000000E+00  0.00000000E+00
  0.00000000E+00  4.02486927E-02  2.37593957E-01  8.15853851E-01  1.00000000E+00
  1.00000000E+00  1.00000000E+00  0.00000000E+00  0.00000000E+00  0.00000000E+00
  0.00000000E+00  0.00000000E+00  0.00000000E+00  0.00000000E+00  4.02486927E-02
  2.37593957E-01  8.15853851E-01  1.00000000E+00  1.00000000E+00  1.00000000E+00
  0.00000000E+00  0.00000000E+00  0.00000000E+00  0.00000000E+00  0.00000000E+00
  0.00000000E+00  0.00000000E+00  0.00000000E+00  0.00000000E+00  0.00000000E+00
  0.00000000E+00  0.00000000E+00  0.00000000E+00
Coordinates of each shell                  R   N=          60
 -1.66300439E+00 -1.52096223E-03 -9.62420814E-03 -1.66300439E+00 -1.52096223E-03
 -9.62420814E-03 -1.66300439E+00 -1.52096223E-03 -9.62420814E-03 -1.66300439E+00
 -1.52096223E-03 -9.62420814E-03 -1.66300439E+00 -1.52096223E-03 -9.62420814E-03
 -1.66300439E+00 -1.52096223E-03 -9.62420814E-03  1.66032294E+00  6.85736118E-03
  1.04224077E-02  1.66032294E+00  6.85736118E-03  1.04224077E-02  1.66032294E+00
  6.85736118E-03  1.04224077E-02  1.66032294E+00  6.85736118E-03  1.04224077E-02
  1.66032294E+00  6.85736118E-03  1.04224077E-02  1.66032294E+00  6.85736118E-03
  1.04224077E-02 -2.28086395E+00  1.81057884E+00 -8.42910065E-01 -2.28086395E+00
  1.81057884E+00 -8.42910065E-01 -2.28086395E+00  1.81057884E+00 -8.42910065E-01
 -2.28086395E+00  1.81057884E+00 -8.42910065E-01  2.44643970E+00  5.96691688E-01
  1.85045323E+00  2.44643970E+00  5.96691688E-01  1.85045323E+00  2.44643970E+00
  5.96691688E-01  1.85045323E+00  2.44643970E+00  5.96691688E-01  1.85045323E+00
Num ILSW                                   I              100
ILSW                                       I   N=         100
           1           0           0           0           2           0
           0           0           0           0        4336          -1
           7           0           0           0           0           0
           0           0           0           0           1           0
           0           1           1           0           0           0
           0           0      100000           0          -1           0
           0           0           0           0           0           0
           0           0           0           1           0           0
           0 -2000000000           1           0           0           0
           0           0           4          52           0           0
           0           0          55           0           0           0
           0           0           0           4           0           1
           0           0           0           0           0           0
           0           0           0           0           0           0
           0           0           0           0           0           0
           0           0           0           0           0           0
           0           0           0           0
Num RLSW                                   I               52
RLSW                                       R   N=          52
  1.00000000E+00  1.00000000E+00  1.00000000E+00  1.00000000E+00  5.40000000E-01
  0.00000000E+00  0.00000000E+00  1.00000000E+00  0.00000000E+00  0.00000000E+00
  0.00000000E+00  0.00000000E+00  1.00000000E+00  0.00000000E+00  0.00000000E+00
  0.00000000E+00  0.00000000E+00  1.00000000E+00  0.00000000E+00  0.00000000E+00
  0.00000000E+00  0.00000000E+00  1.00000000E+00  0.00000000E+00  0.00000000E+00
  0.00000000E+00  0.00000000E+00  1.00000000E+00  0.00000000E+00  0.00000000E+00
  0.00000000E+00  0.00000000E+00  1.00000000E+00  0.00000000E+00  0.00000000E+00
  0.00000000E+00  0.00000000E+00  0.00000000E+00  1.00000000E+00  1.00000000E+00
 -5.24505549E-01  1.00000000E+00  0.00000000E+00  0.00000000E+00  0.00000000E+00
  0.00000000E+00  0.00000000E+00  0.00000000E+00  0.00000000E+00  0.00000000E+00
  0.00000000E+00  0.00000000E+00
MxBond                                     I                2
NBond                                      I   N=           4
           2           2           1           1
IBond                                      I   N=           8
           2           3           1           4           1           0
           2           0
RBond                                      R   N=           8
  1.00000000E+00  1.00000000E-01  1.00000000E+00  1.00000000E-01  1.00000000E-01
  0.00000000E+00  1.00000000E-01  0.00000000E+00
Virial Ratio                               R      2.010157719477922E+00
SCF Energy                                 R     -7.709319849136654E+01
Total Energy                               R     -7.709319849136654E+01
S**2                                       R     -1.953992523340276E-14
S**2 after annihilation                    R     -3.907985046680516E-14
RMS Force                                  R      1.605410834737219E-03
RMS Density                                R      9.896509518624278E-09
Job Status                                 I                3
Nuclear derivative order                   I                1
External E-field                           R   N=          35
  0.00000000E+00  0.00000000E+00  0.00000000E+00  0.00000000E+00  0.00000000E+00
  0.00000000E+00  0.00000000E+00  0.00000000E+00  0.00000000E+00  0.00000000E+00
  0.00000000E+00  0.00000000E+00  0.00000000E+00  0.00000000E+00  0.00000000E+00
  0.00000000E+00  0.00000000E+00  0.00000000E+00  0.00000000E+00  0.00000000E+00
  0.00000000E+00  0.00000000E+00  0.00000000E+00  0.00000000E+00  0.00000000E+00
  0.00000000E+00  0.00000000E+00  0.00000000E+00  0.00000000E+00  0.00000000E+00
  0.00000000E+00  0.00000000E+00  0.00000000E+00  0.00000000E+00  0.00000000E+00
IOpCl                                      I                1
IROHF                                      I                0
Alpha Orbital Energies                     R   N=          56
 -1.06496763E+01 -1.06478893E+01 -7.95688899E-01 -6.73460536E-01 -4.61150777E-01
 -3.60165488E-01 -3.12216935E-01 -8.25021838E-02 -7.62686439E-02  2.84856489E-02
  3.64149844E-02  6.91689591E-02  7.82957553E-02  9.94489886E-02  1.03910115E-01
  1.06928350E-01  1.62389543E-01  1.68992704E-01  1.86582686E-01  2.13571338E-01
  4.65406969E-01  4.78215916E-01  5.66416413E-01  5.73722705E-01  5.95057273E-01
  6.02283620E-01  6.26573634E-01  6.37143780E-01  7.30534729E-01  8.23282980E-01
  1.07603076E+00  1.10133257E+00  1.17131996E+00  1.19686434E+00  1.39102249E+00
  1.45188794E+00  1.47080913E+00  1.58809457E+00  1.61729174E+00  1.81397864E+00
  1.86157107E+00  1.91204591E+00  2.00299633E+00  2.03753805E+00  2.41592558E+00
  2.45768400E+00  2.53063232E+00  2.53452396E+00  2.68444431E+00  2.74341539E+00
  2.75125602E+00  3.03683432E+00  3.20459846E+00  3.64403899E+00  2.35549340E+01
  2.36032723E+01
Beta Orbital Energies                      R   N=          56
 -1.06496763E+01 -1.06478893E+01 -7.95688899E-01 -6.73460536E-01 -4.61150777E-01
 -3.60165488E-01 -3.12216935E-01 -8.25021838E-02 -7.62686439E-02  2.84856489E-02
  3.64149844E-02  6.91689591E-02  7.82957553E-02  9.94489886E-02  1.03910115E-01
  1.06928350E-01  1.62389543E-01  1.68992704E-01  1.86582686E-01  2.13571338E-01
  4.65406969E-01  4.78215916E-01  5.66416413E-01  5.73722705E-01  5.95057273E-01
  6.02283620E-01  6.26573634E-01  6.37143780E-01  7.30534729E-01  8.23282980E-01
  1.07603076E+00  1.10133257E+00  1.17131996E+00  1.19686434E+00  1.39102249E+00
  1.45188794E+00  1.47080913E+00  1.58809457E+00  1.61729174E+00  1.81397864E+00
  1.86157107E+00  1.91204591E+00  2.00299633E+00  2.03753805E+00  2.41592558E+00
  2.45768400E+00  2.53063232E+00  2.53452396E+00  2.68444431E+00  2.74341539E+00
  2.75125602E+00  3.03683432E+00  3.20459846E+00  3.64403899E+00  2.35549340E+01
  2.36032723E+01
Alpha MO coefficients                      R   N=        3136
  3.98755275E-02  3.27876408E-02  1.90377617E-04  3.59746194E-05 -9.29488491E-06
  7.33436897E-04  1.47020239E-05  3.27196428E-04 -1.25442971E-04  1.48556583E-03
  9.57709286E-04  1.63424203E-05 -2.76252896E-05 -5.49610103E-03 -1.67869094E-03
 -2.17213919E-04  4.06051583E-04 -7.40774258E-05  4.86388132E-05 -1.41378722E-04
 -1.34410454E-04 -7.76728924E-05  5.62738659E-01  4.63220439E-01 -8.01034787E-04
  2.40267979E-04  1.22447975E-03  1.02182176E-02  9.84369867E-04  5.81829844E-04
  1.51064271E-03 -5.67862053E-03  9.75265246E-04 -8.63456723E-05  1.25586926E-05
  5.31093716E-03 -2.19571277E-03 -1.51748110E-04 -8.77787170E-04  8.39598869E-04
  7.22466864E-04  4.73295890E-04 -1.16377096E-04  2.85672647E-04  7.11416023E-06
 -7.71566400E-04  9.00646268E-04 -8.89057577E-05  2.51753931E-04 -1.16104922E-04
  1.81000362E-04 -2.96124407E-03  2.44452869E-03  6.90321644E-04  5.99355942E-04
  1.88974171E-03  5.62735264E-01  4.63239249E-01  9.42214431E-04  1.06986727E-03
 -6.17096882E-04  1.02007513E-02 -8.64256660E-04  1.50898916E-03 -6.06070664E-04
 -6.05157168E-03 -1.15933454E-03 -1.01469673E-04 -5.59593536E-05  6.29780480E-03
  2.41557115E-03 -6.55146652E-04  4.31738781E-04 -1.62002493E-04  1.98209425E-04
 -6.38988356E-04 -8.03770874E-04 -5.82196012E-04 -3.99011394E-02 -3.28850305E-02
 -7.12314760E-05 -1.57700572E-05 -1.46339508E-04 -7.16629953E-04 -1.09594927E-04
  3.95083117E-05  1.58125099E-04  2.42753664E-03 -1.17902293E-03  1.24240222E-05
  3.45761511E-05 -6.44419600E-03  2.04538809E-03  1.38993149E-04 -3.16125550E-04
  5.67904783E-05  9.86683036E-06  5.94291155E-05  4.24912422E-05 -3.00244879E-06
  1.70570841E-04 -2.73605809E-03  2.22969882E-03 -5.03653598E-04  1.81069923E-03
 -8.37075285E-04  5.01434770E-08 -4.66991216E-04  6.41593188E-04  7.15977812E-05
  4.65990833E-06  1.25991130E-05 -7.90062864E-02 -1.27361865E-01  2.68393174E-02
  3.30478556E-02 -1.07959739E-02  3.51468387E-01  4.85922511E-02  4.80040254E-02
 -1.44531565E-02  2.32883415E-01  1.77700062E-02  2.31952108E-02 -4.67821047E-03
  1.85589633E-03 -4.88005018E-03  2.67525235E-03 -3.41234107E-03 -5.45937094E-03
  6.70364811E-04 -2.89764506E-03  4.33497542E-03 -1.58250324E-03 -7.97924750E-02
 -1.28663479E-01 -2.44882609E-02  1.38367324E-02  3.05661376E-02  3.55047172E-01
 -4.51884422E-02  2.10117275E-02  4.35359352E-02  2.36868550E-01 -1.66132800E-02
  1.23464369E-02  1.97694456E-02  5.45596423E-04  5.80514988E-03 -2.47267528E-04
  4.58407177E-03 -1.23237969E-03  3.05841011E-03  1.81270437E-03  7.33472227E-03
  7.29747402E-04  8.19667560E-02  9.64260726E-02 -8.41797161E-04  5.46828217E-03
 -1.18680493E-02  5.66851178E-03  8.11559028E-02  9.57397898E-02 -1.74953784E-03
 -6.42444548E-03 -3.72393668E-03 -1.20409475E-02 -6.96588108E-02 -1.12849748E-01
 -4.01400038E-02  5.55873289E-02 -3.08805785E-02  3.18351609E-01 -5.97711141E-02
  8.24616860E-02 -4.58400315E-02  2.42239447E-01 -2.07288072E-02  3.37035221E-02
 -1.76066840E-02 -6.69850290E-02 -2.30512135E-02 -1.89528413E-03  4.92597712E-04
  6.89120686E-04 -3.24931643E-04 -7.63877873E-03 -1.29814041E-02 -8.04049880E-03
  6.92888222E-02  1.12269559E-01 -4.91432839E-02 -1.47564449E-02 -6.26540895E-02
 -3.16574699E-01 -7.33012701E-02 -2.17438501E-02 -9.29004908E-02 -2.41720845E-01
 -2.62759608E-02 -9.43216933E-03 -3.76824552E-02  6.66505595E-02 -2.27015486E-02
  6.13617548E-04  1.25734827E-03 -1.24818869E-02 -7.97596571E-03 -4.99249868E-03
  5.74268495E-03 -6.20458671E-03  1.17913653E-01  1.51217769E-01  3.50720930E-02
  3.50734546E-03 -1.41807451E-02  6.36786766E-03 -1.22071821E-01 -1.57004714E-01
 -3.54753222E-02  4.75079865E-03  4.92488593E-03  1.48331242E-02  1.55782256E-02
  2.58276194E-02 -1.23832414E-01  1.08237629E-01 -3.47376528E-02 -7.61916163E-02
 -1.92496577E-01  1.58751525E-01 -4.59245425E-02 -9.79695917E-02 -1.13640821E-01
  9.86490989E-02 -3.07293076E-02 -5.31470204E-04  5.72165467E-03  4.78719652E-03
 -3.48601566E-03  2.21622244E-03  9.80731959E-03 -1.08483237E-02 -2.53706371E-02
 -4.72976158E-03  1.93241569E-02  3.20231416E-02  1.27133761E-01  4.86327895E-02
  9.75575330E-02 -9.42482772E-02  1.96387157E-01  7.49659067E-02  1.39028555E-01
 -1.19699621E-01  1.18288643E-01  4.60758954E-02  8.83879566E-02 -1.90131774E-03
 -5.29721477E-03  1.06610940E-03  6.26738513E-03  1.95891636E-02  1.19149239E-02
  9.16352768E-03 -1.21954111E-02 -4.22379194E-03  1.13840287E-01  1.79569552E-01
  7.80044032E-02 -2.38379127E-03 -8.74073789E-03  5.25529190E-03  1.11323278E-01
  1.76469339E-01  7.49103726E-02  9.24797198E-04 -1.91193238E-03 -1.00643903E-02
 -4.67720941E-02 -7.74689573E-02 -3.69851931E-02 -1.12309241E-01  1.01422996E-01
  2.29093597E-01 -5.52661685E-02 -1.63449917E-01  1.56028137E-01  3.04265381E-01
 -6.38470432E-02 -1.28113217E-01  1.35520468E-01  6.66705332E-02 -2.11544953E-03
 -4.79006738E-03  9.87232243E-03  8.19378765E-03  1.46059247E-02  1.57108236E-02
  5.96302311E-03 -6.07650736E-03  4.30549205E-02  7.13478635E-02 -2.05741476E-02
 -6.54381713E-03  1.46723837E-01 -2.11107582E-01 -3.07506278E-02 -1.61403854E-02
  2.19097750E-01 -2.78017794E-01 -4.42605590E-02 -2.47249429E-02  1.85576353E-01
 -6.01549431E-02 -2.11195437E-03 -4.90049418E-03  1.29345576E-02  1.47641126E-02
 -1.18270042E-02  7.85432992E-03  6.42295043E-03  8.88731869E-03 -6.63819650E-02
 -1.10953546E-01 -9.52745146E-02 -8.26311352E-03  1.57576167E-03  2.14716573E-03
  6.39900581E-02  1.05580527E-01  8.62449008E-02 -7.09915203E-03 -2.89709177E-03
  5.90955493E-04 -2.06024032E-02 -3.42149961E-02 -1.33116407E-01 -1.15123967E-01
 -3.97870902E-02  1.01193692E-01 -2.04786236E-01 -1.74020379E-01 -6.40371299E-02
  1.59645571E-01 -1.74988211E-01 -1.77979106E-01 -6.56361244E-02  4.15928487E-02
 -2.10413214E-02 -2.30279880E-02 -7.20706025E-03  1.20714746E-02 -5.77322768E-03
  1.51109591E-03 -1.17027927E-03 -2.16723591E-02 -2.15080727E-02 -3.57720693E-02
  1.35675204E-01 -1.03073135E-01 -7.87117581E-02  1.07118310E-01  2.08855739E-01
 -1.58051358E-01 -1.16861837E-01  1.56609782E-01  1.86754113E-01 -1.65406959E-01
 -1.20601002E-01  1.55359562E-02  3.05630759E-02 -2.13504599E-02 -1.68526318E-02
 -7.80404241E-04  1.33915777E-02 -1.00564100E-02 -7.53209538E-03  1.70093115E-02
 -1.30497689E-02 -1.90280407E-02 -1.28437666E-03 -1.26730932E-02 -5.93213420E-03
 -4.69469573E-03 -1.54150889E-02 -1.93560796E-02 -3.49677282E-03  1.27745296E-02
 -6.96143987E-03 -2.83982369E-03 -1.33804791E-02 -2.22168215E-02 -5.97930299E-02
 -1.43278936E-02  1.44620953E-01  5.83906408E-02 -9.60452920E-02 -1.16114469E-02
  2.22497367E-01  1.81246943E-01 -1.09092198E-01  1.69511879E-02  2.47270647E-01
  9.64952865E-02 -4.38690307E-02 -2.07811606E-02  1.50850666E-01 -6.24013669E-04
 -5.54353394E-03  1.33555533E-02 -4.13828894E-04  1.14822241E-02 -9.33018943E-03
 -1.55020761E-02  5.21960042E-02  1.55820124E-01 -1.11896085E-01  3.96381474E-02
  8.51325939E-02  2.46375934E-01 -1.67674792E-01  1.36427609E-01  9.64672721E-02
  3.02741669E-01 -1.71932420E-01  1.10017180E-01  3.07197474E-02  1.65477048E-01
 -1.15426909E-01 -1.13864599E-02 -9.16111004E-03  6.30548227E-03 -8.02760010E-03
 -1.23513528E-03 -5.06701124E-02 -1.10615087E-01 -1.49566654E-01 -4.09499965E-03
  7.85529900E-03  1.05010872E-02 -3.60498206E-02 -8.10663034E-02 -1.18362637E-01
  4.88292068E-03  1.84136097E-02 -5.01048803E-03  1.24743574E-02  2.07008601E-02
  1.01441391E-03  1.15743313E-01  1.59336949E-01 -5.95655727E-02 -2.10331734E-03
  1.73322762E-01  2.51549121E-01 -1.24929312E-01  2.34272973E-02  1.92409552E-01
  3.10893848E-01  2.32519501E-02  1.63027371E-02  1.50833500E-01  1.71583036E-01
 -1.01597744E-02  4.09348564E-03  5.79909666E-03 -1.00682810E-02 -1.19100137E-02
 -1.62539306E-02 -2.69763020E-02  2.60585562E-02 -1.55836476E-01 -1.49828900E-02
  7.55729925E-02  3.80409417E-02 -2.38953250E-01 -1.39558076E-02  1.83744495E-01
  7.35562523E-02 -2.81839742E-01  1.54734847E-02  1.87299223E-02  3.50461158E-02
 -1.86511393E-01 -3.32790732E-02 -1.40280925E-03 -1.49621171E-02 -1.29738126E-02
  2.34199628E-03 -6.92768564E-03  3.55559287E-02  7.76984531E-02  9.17567540E-02
 -1.19329597E-03  7.13729896E-03  1.91700553E-02 -4.89981285E-02 -1.10914105E-01
 -1.42603983E-01  1.95710242E-03 -1.45344799E-02  5.67493036E-03  1.82663847E-02
  3.00480683E-02  3.64968490E-02 -3.01940785E-02 -1.08852845E-02 -7.29425468E-02
  4.75065413E-02 -7.11602876E-02  2.43953191E-03 -4.05793810E-01  1.00250576E-01
 -5.43976037E-02 -6.13161767E-02  1.42834330E+00  2.74888670E-02  4.70447051E-01
 -3.41322946E-01  6.04475188E-03 -3.66245734E-03  6.85573305E-03  4.88485587E-03
  5.61840727E-03  2.45636288E-02  4.07929436E-02 -3.13737151E-02 -3.03065120E-02
 -1.94973755E-02 -1.08407621E-01 -3.88566595E-02 -4.97609618E-02 -6.25209960E-02
 -4.58672363E-01 -1.14178408E-01 -8.92897820E-02 -1.75201927E-02  6.03748128E-01
  4.89309753E-01  1.73580913E-01  6.77156367E-01 -9.38676924E-03 -8.93512809E-03
 -7.63607617E-03 -7.50371786E-04 -2.12104368E-03 -1.44860152E-02  1.23527903E-01
 -4.89950636E-01  1.75513143E-03  2.19137040E-03 -1.19185128E-03 -1.86859096E-02
  1.45799647E-01 -5.53127709E-01  1.14095965E-03  7.43225439E-04  3.17485211E-03
  2.90200015E-02  4.90302391E-02 -2.56550656E-02 -2.75243534E-02  7.80091833E-03
 -1.53367656E-01 -6.22469550E-02 -5.12040117E-02  1.52807728E-02 -3.12006439E-01
  5.87350137E-02 -9.76534822E-02  2.50639774E-02 -2.98823081E+00 -1.85294991E+00
  5.30447150E-01 -6.88786868E-02 -4.69854085E-03  1.09991968E-03  5.05119350E-03
  1.74540266E-02  9.79824105E-04 -2.37465728E-02 -4.04230197E-02 -3.09160308E-02
  1.69100970E-03  2.53523229E-02  1.32969259E-01 -6.71033723E-02  6.59297083E-03
  3.90580922E-02  1.93248671E-01  4.13995155E-02  1.46403535E-02  1.02473017E-01
  3.25636009E+00 -1.85023898E+00 -2.71953537E-01 -2.72203519E-01  1.15500227E-02
 -7.49946869E-04  1.84838327E-03 -1.32911657E-02  1.06150028E-03 -1.15604087E-02
  8.84504699E-02 -2.09306800E-01 -1.36111618E-02  2.86011297E-03 -1.84945159E-03
  5.36139554E-03 -6.33161391E-02  6.27041226E-02 -1.45826863E-02 -4.97174157E-04
 -1.88391777E-03  8.56437639E-03  1.45422254E-02 -1.19030914E-02  2.56376556E-02
 -6.32518174E-02 -5.53671018E-02 -3.27069059E-02  3.63670400E-02 -6.72310716E-02
 -8.75423458E-03  2.76656000E-02  1.05363882E-01 -2.59968810E-01 -4.49106345E+00
 -1.76870582E+00 -5.78918549E-01  4.68482237E-01 -6.56432086E-03 -3.44422654E-03
 -1.16013958E-02 -9.12392537E-04  2.71743616E-04 -7.71943087E-03 -1.31844547E-02
 -1.32226115E-02  3.58533591E-02 -6.16622338E-02  5.18087383E-02 -3.30564580E-02
  3.13604333E-02 -7.08824729E-02 -9.91471829E-03  1.91175622E-02  1.48382123E-01
 -2.56032485E-01  4.52239346E+00 -1.70830073E+00 -4.13181961E-02  7.56738972E-01
 -8.30050267E-03  8.00603994E-04 -4.25983510E-03 -8.83470644E-03 -3.24087017E-03
  1.39461390E-02 -9.33776880E-02  3.65037645E-01 -3.79935478E-03 -2.03030024E-03
  2.04774359E-03 -1.44455288E-02  8.53984798E-02 -3.40539396E-01 -4.27232734E-03
 -2.19219475E-04  3.37467868E-03 -9.05416611E-03 -1.49666468E-02 -2.81892464E-02
 -5.48794819E-02 -3.85552287E-02  4.12562690E-02 -1.34530116E-02 -4.72785297E-02
 -3.66358385E-02  1.77391505E-01 -1.39296111E-01 -2.38885340E-01 -1.69753870E-01
 -3.85680030E-01  4.92025637E-01  4.81565669E-01  2.94905023E-01  4.81517275E-03
 -2.62087766E-03 -8.32691188E-04  1.02151377E-03 -8.91611871E-03 -8.67450995E-03
 -1.44011132E-02  2.92872278E-02 -6.57829062E-02 -2.31263203E-02  4.08312001E-02
  1.55477477E-02 -5.97007382E-02 -1.79635348E-02  1.59916527E-01  1.38163225E-01
 -2.90041618E-01 -1.04626278E-01 -2.86031490E-01 -5.31710164E-01  5.76608480E-01
  2.36866827E-01  2.46239698E-04  5.40292913E-03 -4.88721873E-03 -1.03355037E-03
  7.27775449E-03 -2.24079090E-03  2.33526687E-02 -1.00818666E-01  5.31294726E-04
  4.44815843E-03  3.02111083E-04 -2.64237683E-03  2.72234250E-02 -8.18968071E-02
 -1.28431112E-04  3.39535368E-03  3.93213126E-03 -1.50790544E-02 -2.37653995E-02
  2.21875338E-02 -1.03018169E-02  2.75113251E-03  4.49198620E-02  1.10642208E-02
  1.36126550E-02 -7.28208563E-03  4.97892181E-01  1.13695076E-01 -1.00924913E-01
  5.33714444E-02  3.75842205E-01 -8.89440146E-01  5.95009483E-01 -5.26799057E-01
 -5.79789543E-03  1.36905380E-03  4.12488963E-03  1.72315056E-02  1.99516600E-05
 -1.43533967E-02 -2.26366759E-02 -2.42285823E-02  2.31688649E-03 -1.48183277E-02
  4.20458897E-02 -1.35224202E-02  1.07996415E-02  9.50325750E-03  4.78576009E-01
 -1.21062265E-01  2.35375494E-03 -1.42450014E-01 -6.04369897E-01  1.19856900E+00
 -2.38057737E-01  6.64827054E-01 -1.08673796E-02  2.37411131E-03 -1.16800631E-03
  1.34138923E-02 -1.82200350E-03 -2.08325807E-02 -2.82535864E-04 -2.18173921E-01
 -1.03564293E-02 -1.65404992E-03  4.38351980E-04 -1.33796676E-02  2.56959946E-03
 -6.27183737E-02  1.08503304E-02 -7.29625742E-04 -2.30795230E-04 -6.14521055E-03
 -1.06269177E-02  4.15949930E-03 -5.08419214E-02 -4.82084044E-02  4.37726157E-02
  2.06689726E-02 -6.67438384E-02 -3.69915640E-02  1.11377114E-03 -4.29972920E-02
 -1.75123384E-01 -2.51325484E-01  5.59268865E+00  2.09944805E+00  1.72355368E+00
  5.95630859E-01  1.16174335E-02 -7.11175543E-03  6.15259546E-03  3.51555980E-03
  2.38542531E-03  7.64166824E-03  1.29006304E-02  1.23833725E-02  8.29513782E-02
 -9.51176472E-03 -4.61070798E-02  2.38443689E-02  8.29350917E-02  3.40931449E-03
 -7.02681763E-02 -2.24982842E-03  3.69132196E-01 -8.95216348E-02 -5.56266401E+00
  1.78092586E+00 -1.74767613E+00 -5.47606686E-01  3.78704575E-03  7.47274601E-03
  1.09050462E-02  3.05292892E-03 -3.55171567E-03 -2.34063043E-02  5.10622885E-02
 -6.63804982E-01  2.06031948E-03 -5.11356359E-04  1.57387727E-03  2.13145742E-02
 -3.71046769E-02  5.85029688E-01  1.11386301E-03 -1.07047186E-03  2.43896096E-03
  2.02312947E-03  3.29036585E-03  3.06672603E-02  4.56913418E-03 -8.48759663E-02
 -6.89813177E-03  1.93636934E-02  9.99017936E-03 -8.26848341E-02 -5.51555660E-02
  1.48713146E-01  3.29843650E-03 -3.89214165E-01  6.83625941E-01 -2.80789490E-01
 -4.12977642E-01  1.67725143E+00 -9.87341019E-04 -5.18495863E-03 -8.48462289E-03