Title Card Required                                                     
FOpt      UM062X                                                      6-311+G(d,p)        
Number of atoms                            I                6
Info1-9                                    I   N=           9
          15          15           0           0           0         110
           2          18        -502
Full Title                                 C   N=           2
Title Card Required     
Route                                      C   N=           5
#p opt UM062X/6-311+G** nosymm int=superfine SCF=NoVarAcc   
Charge                                     I                0
Multiplicity                               I                1
Number of electrons                        I               16
Number of alpha electrons                  I                8
Number of beta electrons                   I                8
Number of basis functions                  I               68
Number of independent functions            I               68
Number of point charges in /Mol/           I                0
Number of translation vectors              I                0
Atomic numbers                             I   N=           6
           6           6           1           1           1           1
Nuclear charges                            R   N=           6
  6.00000000E+00  6.00000000E+00  1.00000000E+00  1.00000000E+00  1.00000000E+00
  1.00000000E+00
Current cartesian coordinates              R   N=          18
 -7.62616930E+00  0.00000000E+00  0.00000000E+00  7.62616930E+00  0.00000000E+00
  0.00000000E+00 -8.94698797E+00 -1.62691669E+00  9.86171568E-10 -8.94693267E+00
  1.62694859E+00  3.24365909E-10  8.94698797E+00  1.62691669E+00  9.55673145E-10
  8.94693267E+00 -1.62694859E+00  2.93878981E-10
Number of symbols in /Mol/                 I                0
Force Field                                I                0
Atom Types                                 C   N=           6
                                                            
            
Int Atom Types                             I   N=           6
           0           0           0           0           0           0
MM charges                                 R   N=           6
  0.00000000E+00  0.00000000E+00  0.00000000E+00  0.00000000E+00  0.00000000E+00
  0.00000000E+00
Integer atomic weights                     I   N=           6
          12          12           1           1           1           1
Real atomic weights                        R   N=           6
  1.20000000E+01  1.20000000E+01  1.00782504E+00  1.00782504E+00  1.00782504E+00
  1.00782504E+00
Atom fragment info                         I   N=           6
           0           0           0           0           0           0
Atom residue num                           I   N=           6
           0           0           0           0           0           0
Nuclear spins                              I   N=           6
           0           0           1           1           1           1
Nuclear ZEff                               R   N=           6
 -3.60000000E+00 -3.60000000E+00 -1.00000000E+00 -1.00000000E+00 -1.00000000E+00
 -1.00000000E+00
Nuclear ZNuc                               R   N=           6
  6.00000000E+00  6.00000000E+00  1.00000000E+00  1.00000000E+00  1.00000000E+00
  1.00000000E+00
Nuclear QMom                               R   N=           6
  0.00000000E+00  0.00000000E+00  0.00000000E+00  0.00000000E+00  0.00000000E+00
  0.00000000E+00
Nuclear GFac                               R   N=           6
  0.00000000E+00  0.00000000E+00  2.79284600E+00  2.79284600E+00  2.79284600E+00
  2.79284600E+00
MicOpt                                     I   N=           6
          -2          -2          -1          -1          -1          -1
Number of residues                         I                0
Number of secondary structures             I                0
Redundant internal dimensions              I   N=           4
          20          10           6           4
Redundant internal coordinate indices      I   N=          80
           1          -1           0           0           1          -2
           0           0           1          -3           0           0
           2          -1           0           0           2          -2
           0           0           2          -3           0           0
           1           3           0           0           1           4
           0           0           2           5           0           0
           2           6           0           0           2           1
           3           0           2           1           4           0
           3           1           4           0           1           2
           5           0           1           2           6           0
           5           2           6           0           3           1
           2           5           3           1           2           6
           4           1           2           5           4           1
           2           6
Redundant internal coordinates             R   N=          20
 -7.62616930E+00  0.00000000E+00  0.00000000E+00  7.62616930E+00  0.00000000E+00
  0.00000000E+00  2.09557149E+00  2.09556140E+00  2.09557149E+00  2.09556140E+00
  2.25272358E+00  2.25269350E+00  1.77776823E+00  2.25272358E+00  2.25269350E+00
  1.77776823E+00  3.14159265E+00  0.00000000E+00  0.00000000E+00  3.14159265E+00
ZRed-IntVec                                I   N=          20
          -1          -1          -1          -1          -1          -1
           0           0           0           0           0           0
           0           0           0           0           0           0
           0           0
ZRed-FPVec                                 R   N=          20
  0.00000000E+00  0.00000000E+00  0.00000000E+00  0.00000000E+00  0.00000000E+00
  0.00000000E+00  0.00000000E+00  0.00000000E+00  0.00000000E+00  0.00000000E+00
  0.00000000E+00  0.00000000E+00  0.00000000E+00  0.00000000E+00  0.00000000E+00
  0.00000000E+00  0.00000000E+00  0.00000000E+00  0.00000000E+00  0.00000000E+00
ZRed-Constraint1                           R   N=          20
 -7.62616930E+00  0.00000000E+00  0.00000000E+00  7.62616930E+00  0.00000000E+00
  0.00000000E+00  2.03694512E+00  2.03669844E+00  2.03694512E+00  2.03669844E+00
  2.00316847E+00  2.00313852E+00  2.27687832E+00  2.00316847E+00  2.00313852E+00
  2.27687832E+00  3.14159265E+00  0.00000000E+00  0.00000000E+00  3.14159265E+00
ZRed-Constraint2                           R   N=          20
 -7.62616930E+00  0.00000000E+00  0.00000000E+00  7.62616930E+00  0.00000000E+00
  0.00000000E+00  0.00000000E+00  0.00000000E+00  0.00000000E+00  0.00000000E+00
  0.00000000E+00  0.00000000E+00  0.00000000E+00  0.00000000E+00  0.00000000E+00
  0.00000000E+00  0.00000000E+00  0.00000000E+00  0.00000000E+00  0.00000000E+00
Number of contracted shells                I               28
Number of primitive shells                 I               50
Pure/Cartesian d shells                    I                0
Pure/Cartesian f shells                    I                0
Highest angular momentum                   I                2
Largest degree of contraction              I                6
Shell types                                I   N=          28
           0          -1          -1          -1          -1          -2
           0          -1          -1          -1          -1          -2
           0           0           0           1           0           0
           0           1           0           0           0           1
           0           0           0           1
Number of primitives per shell             I   N=          28
           6           3           1           1           1           1
           6           3           1           1           1           1
           3           1           1           1           3           1
           1           1           3           1           1           1
           3           1           1           1
Shell to atom map                          I   N=          28
           1           1           1           1           1           1
           2           2           2           2           2           2
           3           3           3           3           4           4
           4           4           5           5           5           5
           6           6           6           6
Primitive exponents                        R   N=          50
  4.56324000E+03  6.82024000E+02  1.54973000E+02  4.44553000E+01  1.30290000E+01
  1.82773000E+00  2.09642000E+01  4.80331000E+00  1.45933000E+00  4.83456000E-01
  1.45585000E-01  4.38000000E-02  6.26000000E-01  4.56324000E+03  6.82024000E+02
  1.54973000E+02  4.44553000E+01  1.30290000E+01  1.82773000E+00  2.09642000E+01
  4.80331000E+00  1.45933000E+00  4.83456000E-01  1.45585000E-01  4.38000000E-02
  6.26000000E-01  3.38650000E+01  5.09479000E+00  1.15879000E+00  3.25840000E-01
  1.02741000E-01  7.50000000E-01  3.38650000E+01  5.09479000E+00  1.15879000E+00
  3.25840000E-01  1.02741000E-01  7.50000000E-01  3.38650000E+01  5.09479000E+00
  1.15879000E+00  3.25840000E-01  1.02741000E-01  7.50000000E-01  3.38650000E+01
  5.09479000E+00  1.15879000E+00  3.25840000E-01  1.02741000E-01  7.50000000E-01
Contraction coefficients                   R   N=          50
  1.96665025E-03  1.52306019E-02  7.61269097E-02  2.60801033E-01  6.16462078E-01
  2.21006028E-01  1.14660081E-01  9.19999648E-01 -3.03068213E-03  1.00000000E+00
  1.00000000E+00  1.00000000E+00  1.00000000E+00  1.96665025E-03  1.52306019E-02
  7.61269097E-02  2.60801033E-01  6.16462078E-01  2.21006028E-01  1.14660081E-01
  9.19999648E-01 -3.03068213E-03  1.00000000E+00  1.00000000E+00  1.00000000E+00
  1.00000000E+00  2.54938145E-02  1.90373109E-01  8.52161486E-01  1.00000000E+00
  1.00000000E+00  1.00000000E+00  2.54938145E-02  1.90373109E-01  8.52161486E-01
  1.00000000E+00  1.00000000E+00  1.00000000E+00  2.54938145E-02  1.90373109E-01
  8.52161486E-01  1.00000000E+00  1.00000000E+00  1.00000000E+00  2.54938145E-02
  1.90373109E-01  8.52161486E-01  1.00000000E+00  1.00000000E+00  1.00000000E+00
P(S=P) Contraction coefficients            R   N=          50
  0.00000000E+00  0.00000000E+00  0.00000000E+00  0.00000000E+00  0.00000000E+00
  0.00000000E+00  4.02486927E-02  2.37593957E-01  8.15853851E-01  1.00000000E+00
  1.00000000E+00  1.00000000E+00  0.00000000E+00  0.00000000E+00  0.00000000E+00
  0.00000000E+00  0.00000000E+00  0.00000000E+00  0.00000000E+00  4.02486927E-02
  2.37593957E-01  8.15853851E-01  1.00000000E+00  1.00000000E+00  1.00000000E+00
  0.00000000E+00  0.00000000E+00  0.00000000E+00  0.00000000E+00  0.00000000E+00
  0.00000000E+00  0.00000000E+00  0.00000000E+00  0.00000000E+00  0.00000000E+00
  0.00000000E+00  0.00000000E+00  0.00000000E+00  0.00000000E+00  0.00000000E+00
  0.00000000E+00  0.00000000E+00  0.00000000E+00  0.00000000E+00  0.00000000E+00
  0.00000000E+00  0.00000000E+00  0.00000000E+00  0.00000000E+00  0.00000000E+00
Coordinates of each shell                  R   N=          84
 -7.62616930E+00  0.00000000E+00  0.00000000E+00 -7.62616930E+00  0.00000000E+00
  0.00000000E+00 -7.62616930E+00  0.00000000E+00  0.00000000E+00 -7.62616930E+00
  0.00000000E+00  0.00000000E+00 -7.62616930E+00  0.00000000E+00  0.00000000E+00
 -7.62616930E+00  0.00000000E+00  0.00000000E+00  7.62616930E+00  0.00000000E+00
  0.00000000E+00  7.62616930E+00  0.00000000E+00  0.00000000E+00  7.62616930E+00
  0.00000000E+00  0.00000000E+00  7.62616930E+00  0.00000000E+00  0.00000000E+00
  7.62616930E+00  0.00000000E+00  0.00000000E+00  7.62616930E+00  0.00000000E+00
  0.00000000E+00 -8.94698797E+00 -1.62691669E+00  9.86171568E-10 -8.94698797E+00
 -1.62691669E+00  9.86171568E-10 -8.94698797E+00 -1.62691669E+00  9.86171568E-10
 -8.94698797E+00 -1.62691669E+00  9.86171568E-10 -8.94693267E+00  1.62694859E+00
  3.24365909E-10 -8.94693267E+00  1.62694859E+00  3.24365909E-10 -8.94693267E+00
  1.62694859E+00  3.24365909E-10 -8.94693267E+00  1.62694859E+00  3.24365909E-10
  8.94698797E+00  1.62691669E+00  9.55673145E-10  8.94698797E+00  1.62691669E+00
  9.55673145E-10  8.94698797E+00  1.62691669E+00  9.55673145E-10  8.94698797E+00
  1.62691669E+00  9.55673145E-10  8.94693267E+00 -1.62694859E+00  2.93878981E-10
  8.94693267E+00 -1.62694859E+00  2.93878981E-10  8.94693267E+00 -1.62694859E+00
  2.93878981E-10  8.94693267E+00 -1.62694859E+00  2.93878981E-10
Num ILSW                                   I              100
ILSW                                       I   N=         100
           1           0           0           0           2           0
           0           0           0           0        4336          -1
           7           0           0           0           2           0
           0           0           0           0           1           0
           1           1           0           0           0           0
           0           0      100000           0          -1           0
           0           0           0           0           0           0
           0           0           0           1           0           0
           0 -2000000000           1           0           0           0
           0           0           4          52           0           0
           0           0          55           0           0           0
           0           0           0           6           0           1
           0           0           0           0           0           0
           0           0           0           0           0           0
           0           0           0           0           0           0
           0           0           0           0           0           0
           0           0           0           0
Num RLSW                                   I               52
RLSW                                       R   N=          52
  1.00000000E+00  1.00000000E+00  1.00000000E+00  1.00000000E+00  5.40000000E-01
  0.00000000E+00  0.00000000E+00  1.00000000E+00  0.00000000E+00  0.00000000E+00
  0.00000000E+00  0.00000000E+00  1.00000000E+00  0.00000000E+00  0.00000000E+00
  0.00000000E+00  0.00000000E+00  1.00000000E+00  0.00000000E+00  0.00000000E+00
  0.00000000E+00  0.00000000E+00  1.00000000E+00  0.00000000E+00  0.00000000E+00
  0.00000000E+00  0.00000000E+00  1.00000000E+00  0.00000000E+00  0.00000000E+00
  0.00000000E+00  0.00000000E+00  1.00000000E+00  0.00000000E+00  0.00000000E+00
  0.00000000E+00  0.00000000E+00  0.00000000E+00  1.00000000E+00  1.00000000E+00
  0.00000000E+00  1.00000000E+00  0.00000000E+00  0.00000000E+00  0.00000000E+00
  0.00000000E+00  0.00000000E+00  0.00000000E+00  0.00000000E+00  0.00000000E+00
  0.00000000E+00  0.00000000E+00
MxBond                                     I                3
NBond                                      I   N=           6
           3           3           1           1           1           1
IBond                                      I   N=          18
           2           3           4           1           5           6
           1           0           0           1           0           0
           2           0           0           2           0           0
RBond                                      R   N=          18
  1.00000000E-01  1.00000000E+00  1.00000000E+00  1.00000000E-01  1.00000000E+00
  1.00000000E+00  1.00000000E+00  0.00000000E+00  0.00000000E+00  1.00000000E+00
  0.00000000E+00  0.00000000E+00  1.00000000E+00  0.00000000E+00  0.00000000E+00
  1.00000000E+00  0.00000000E+00  0.00000000E+00
Virial Ratio                               R      2.003498625240586E+00
SCF Energy                                 R     -7.823722977647074E+01
Total Energy                               R     -7.823722977647074E+01
S**2                                       R     -3.552713678800501E-14
S**2 after annihilation                    R      1.438849039914174E-13
RMS Force                                  R      1.534761338971717E-04
RMS Density                                R      1.721421049545157E-09
Job Status                                 I                1
Nuclear derivative order                   I                1
External E-field                           R   N=          35
  0.00000000E+00  0.00000000E+00  0.00000000E+00  0.00000000E+00  0.00000000E+00
  0.00000000E+00  0.00000000E+00  0.00000000E+00  0.00000000E+00  0.00000000E+00
  0.00000000E+00  0.00000000E+00  0.00000000E+00  0.00000000E+00  0.00000000E+00
  0.00000000E+00  0.00000000E+00  0.00000000E+00  0.00000000E+00  0.00000000E+00
  0.00000000E+00  0.00000000E+00  0.00000000E+00  0.00000000E+00  0.00000000E+00
  0.00000000E+00  0.00000000E+00  0.00000000E+00  0.00000000E+00  0.00000000E+00
  0.00000000E+00  0.00000000E+00  0.00000000E+00  0.00000000E+00  0.00000000E+00
IOpCl                                      I                1
IROHF                                      I                0
Alpha Orbital Energies                     R   N=          68
 -1.06055398E+01 -1.06055395E+01 -7.54892594E-01 -7.54892011E-01 -4.73600592E-01
 -4.73600575E-01 -3.11592676E-01 -3.11540538E-01 -8.00270145E-02 -7.99469159E-02
  2.49560963E-02  2.59394580E-02  6.63694989E-02  7.05736089E-02  8.03662903E-02
  8.60559606E-02  8.94946575E-02  1.13174580E-01  1.77497754E-01  1.79557960E-01
  1.96900371E-01  1.97126150E-01  4.40711262E-01  4.46988468E-01  4.85669654E-01
  4.89425058E-01  5.88775777E-01  5.91631290E-01  6.25555709E-01  6.25768517E-01
  6.31506535E-01  6.45949018E-01  7.27843779E-01  7.39591905E-01  1.09385208E+00
  1.09390417E+00  1.10637650E+00  1.10637650E+00  1.19481514E+00  1.19483521E+00
  1.55561170E+00  1.55608690E+00  1.56934169E+00  1.57032349E+00  1.63031095E+00
  1.63246285E+00  1.86815165E+00  1.86815166E+00  1.88109592E+00  1.88131609E+00
  2.13679378E+00  2.13806499E+00  2.36787920E+00  2.36812610E+00  2.45343796E+00
  2.45746688E+00  2.50350683E+00  2.50396337E+00  2.55874765E+00  2.55944437E+00
  2.75225722E+00  2.75404206E+00  3.06397043E+00  3.07815374E+00  3.59329412E+00
  3.59329496E+00  2.37710150E+01  2.37730406E+01
Beta Orbital Energies                      R   N=          68
 -1.06055398E+01 -1.06055395E+01 -7.54892594E-01 -7.54892011E-01 -4.73600592E-01
 -4.73600575E-01 -3.11592676E-01 -3.11540538E-01 -8.00270145E-02 -7.99469159E-02
  2.49560963E-02  2.59394580E-02  6.63694989E-02  7.05736089E-02  8.03662903E-02
  8.60559606E-02  8.94946575E-02  1.13174580E-01  1.77497754E-01  1.79557960E-01
  1.96900371E-01  1.97126150E-01  4.40711262E-01  4.46988468E-01  4.85669654E-01
  4.89425058E-01  5.88775777E-01  5.91631290E-01  6.25555709E-01  6.25768517E-01
  6.31506535E-01  6.45949018E-01  7.27843779E-01  7.39591905E-01  1.09385208E+00
  1.09390417E+00  1.10637650E+00  1.10637650E+00  1.19481514E+00  1.19483521E+00
  1.55561170E+00  1.55608690E+00  1.56934169E+00  1.57032349E+00  1.63031095E+00
  1.63246285E+00  1.86815165E+00  1.86815166E+00  1.88109592E+00  1.88131609E+00
  2.13679378E+00  2.13806499E+00  2.36787920E+00  2.36812610E+00  2.45343796E+00
  2.45746688E+00  2.50350683E+00  2.50396337E+00  2.55874765E+00  2.55944437E+00
  2.75225722E+00  2.75404206E+00  3.06397043E+00  3.07815374E+00  3.59329412E+00
  3.59329496E+00  2.37710150E+01  2.37730406E+01
Alpha MO coefficients                      R   N=        4624
  3.98868157E-01  3.28256969E-01 -1.51775787E-03  1.98659462E-08  6.95359821E-13
  7.75584203E-03 -1.16385851E-03  6.34958821E-08  5.90172275E-13 -2.74808024E-03
 -7.46266775E-05 -1.04696960E-09  1.38920991E-14 -4.83308070E-04  6.42222184E-04
 -1.45457090E-08 -2.96924327E-13 -7.00301240E-04 -4.78637786E-13 -3.15598216E-13
 -2.51215455E-04 -1.66081128E-08 -3.98868157E-01 -3.28256968E-01 -1.51775786E-03
  1.98659463E-08 -6.72796420E-13 -7.75584202E-03 -1.16385851E-03  6.34958844E-08
 -5.56723232E-13  2.74808023E-03 -7.46266775E-05 -1.04697027E-09 -1.68033149E-14
  4.83308069E-04  6.42222183E-04 -1.45457093E-08  2.84434105E-13  7.00301238E-04
 -4.55413029E-13 -3.15590400E-13  2.51215454E-04  1.66081137E-08  2.46664157E-04
 -1.94094437E-03  1.65263785E-03 -7.81446392E-04 -1.01016907E-03  5.88883841E-13
  2.46653654E-04 -1.94102022E-03  1.65268022E-03 -7.81445540E-04  1.01022591E-03
  1.88363964E-13 -2.46664157E-04  1.94094437E-03 -1.65263784E-03 -7.81446390E-04
 -1.01016907E-03 -5.71391487E-13 -2.46653654E-04  1.94102021E-03 -1.65268022E-03
 -7.81445538E-04  1.01022591E-03 -1.70908220E-13  3.98868049E-01  3.28259614E-01
 -1.50912651E-03  1.96681549E-08  6.94409342E-13  7.73435536E-03 -1.19605065E-03
  6.46514239E-08  5.93225920E-13 -2.68168602E-03 -8.14646633E-06 -1.61904065E-09
  1.06535362E-14 -5.08124720E-04  5.49629989E-04 -1.63207458E-08 -2.85742980E-13
 -7.01210099E-04 -4.79092751E-13 -3.15944019E-13 -2.53245086E-04 -1.70800636E-08
  3.98868050E-01  3.28259615E-01  1.50912652E-03 -1.96681553E-08  6.72116064E-13
  7.73435537E-03  1.19605066E-03 -6.46514249E-08  5.61031121E-13 -2.68168603E-03
  8.14646651E-06  1.61903506E-09  1.26724546E-14 -5.08124721E-04 -5.49629990E-04
  1.63207461E-08 -2.74643690E-13 -7.01210101E-04  4.56376599E-13  3.15589942E-13
 -2.53245087E-04 -1.70800659E-08  2.42410729E-04 -1.92849869E-03  1.62430469E-03
 -7.86218345E-04 -1.01274362E-03  5.90598053E-13  2.42400785E-04 -1.92857875E-03
  1.62435499E-03 -7.86217897E-04  1.01280102E-03  1.88582208E-13  2.42410729E-04
 -1.92849869E-03  1.62430470E-03  7.86218347E-04  1.01274362E-03  5.73746955E-13
  2.42400786E-04 -1.92857875E-03  1.62435500E-03  7.86217899E-04 -1.01280102E-03
  1.70455671E-13 -7.40773099E-02 -1.19218004E-01 -4.81536094E-02  1.29290741E-06
  2.37420741E-11  3.25316634E-01 -7.18932288E-02  1.73876699E-06  3.47624951E-11
  2.22371159E-01 -3.19653788E-02  6.95223364E-07  1.60021002E-11  4.27649477E-03
 -2.39502115E-03  2.43619386E-08  5.72551488E-13 -5.16608444E-03 -4.48195139E-12
 -1.79156693E-12 -6.14688403E-05 -1.21877635E-07  7.40773096E-02  1.19218004E-01
 -4.81536092E-02  1.29290742E-06 -2.26954537E-11 -3.25316633E-01 -7.18932285E-02
  1.73876699E-06 -3.32546190E-11 -2.22371158E-01 -3.19653787E-02  6.95223381E-07
 -1.53238303E-11 -4.27649476E-03 -2.39502114E-03  2.43619528E-08 -5.43816727E-13
  5.16608442E-03 -4.26335508E-12 -1.79073954E-12  6.14688401E-05  1.21877635E-07
  8.08187747E-02  9.78968987E-02  5.86570765E-03  6.68766892E-03  1.17998337E-02
 -5.70453090E-12  8.08198723E-02  9.78979553E-02  5.86580692E-03  6.68739355E-03
 -1.18001093E-02 -9.79777877E-13 -8.08187744E-02 -9.78968983E-02 -5.86570763E-03
  6.68766889E-03  1.17998336E-02  5.54661536E-12 -8.08198720E-02 -9.78979549E-02
 -5.86580690E-03  6.68739352E-03 -1.18001093E-02  8.21712316E-13 -7.40779224E-02
 -1.19222595E-01 -4.81668377E-02  1.29318548E-06  2.37417145E-11  3.25377388E-01
 -7.18270869E-02  1.73675031E-06  3.47613301E-11  2.22143499E-01 -3.21799666E-02
  6.97225970E-07  1.60014981E-11  4.28561815E-03 -1.99272588E-03  2.94727548E-08
  5.27435955E-13 -5.16817522E-03 -4.48449651E-12 -1.79142353E-12 -5.84838990E-05
 -1.21001832E-07 -7.40779227E-02 -1.19222596E-01  4.81668379E-02 -1.29318550E-06
  2.26960851E-11  3.25377390E-01  7.18270872E-02 -1.73675033E-06  3.32557696E-11
  2.22143500E-01  3.21799668E-02 -6.97225996E-07  1.53245338E-11  4.28561817E-03
  1.99272589E-03 -2.94727689E-08  4.99621377E-13 -5.16817524E-03  4.26604000E-12
  1.79115291E-12 -5.84838993E-05 -1.21001833E-07  8.08287695E-02  9.78321358E-02
  6.03402200E-03  6.69725747E-03  1.18018916E-02 -5.70671276E-12  8.08298662E-02
  9.78332019E-02  6.03409705E-03  6.69698285E-03 -1.18021682E-02 -9.81355370E-13
  8.08287699E-02  9.78321362E-02  6.03402202E-03 -6.69725750E-03 -1.18018917E-02
 -5.54916970E-12  8.08298665E-02  9.78332023E-02  6.03409707E-03 -6.69698288E-03
  1.18021683E-02 -8.23357030E-13  2.12120818E-07  3.54724517E-07  1.99126489E-06
  1.46252896E-01 -2.96861643E-11 -1.00001962E-06  3.14932794E-06  2.18098316E-01
 -4.41441899E-11 -1.90790856E-06  1.92977864E-06  1.18352765E-01 -2.45601227E-11
 -2.50763124E-07  1.47045423E-08 -1.29441968E-03  1.04836216E-12 -2.73485472E-08
  6.56181890E-12  1.56665786E-11 -9.91874717E-07 -3.24209429E-02  2.12120790E-07
  3.54724469E-07 -1.99126467E-06 -1.46252877E-01 -2.96850736E-11 -1.00001949E-06
 -3.14932759E-06 -2.18098287E-01 -4.41429886E-11 -1.90790830E-06 -1.92977842E-06
 -1.18352750E-01 -2.45575475E-11 -2.50763071E-07 -1.47045355E-08  1.29441952E-03
  1.04854085E-12 -2.73485432E-08 -6.56175706E-12 -1.50080521E-11 -9.91874606E-07
 -3.24209386E-02 -1.03855807E-01 -1.59909058E-01 -8.12815230E-02 -8.20146001E-03
 -3.20213763E-03  4.73291638E-12  1.03855560E-01  1.59908476E-01  8.12815135E-02
  8.20134917E-03 -3.20230324E-03 -3.32701090E-12 -1.03855793E-01 -1.59909037E-01
 -8.12815124E-02  8.20145894E-03  3.20213722E-03  4.55421246E-12  1.03855547E-01
  1.59908455E-01  8.12815029E-02 -8.20134810E-03  3.20230282E-03 -3.14819901E-12
  2.12151455E-07  3.54876748E-07  1.99154613E-06  1.46253170E-01 -2.96869610E-11
 -1.00187152E-06  3.14746745E-06  2.18091641E-01 -4.41371910E-11 -1.90133075E-06
  1.93575115E-06  1.18340139E-01 -2.45771997E-11 -2.50825645E-07  3.75977290E-09
 -1.18943906E-03  1.05799711E-12 -2.72608412E-08  6.56069945E-12  1.56631790E-11
 -9.91709881E-07 -3.24137489E-02 -2.12151482E-07 -3.54876793E-07  1.99154643E-06
  1.46253190E-01  2.96860656E-11  1.00187165E-06  3.14746793E-06  2.18091670E-01
  4.41348228E-11  1.90133100E-06  1.93575144E-06  1.18340154E-01  2.45765294E-11
  2.50825655E-07  3.75976741E-09 -1.18943923E-03 -1.05932321E-12  2.72608439E-08
  6.56069390E-12  1.50046667E-11  9.91710028E-07  3.24137531E-02 -1.03851687E-01
 -1.59947160E-01 -8.11746509E-02 -8.20433753E-03 -3.20417301E-03  4.73571476E-12
  1.03851440E-01  1.59946582E-01  8.11746312E-02  8.20422616E-03 -3.20433869E-03
 -3.32699216E-12  1.03851701E-01  1.59947181E-01  8.11746616E-02 -8.20433860E-03
 -3.20417343E-03 -4.55755693E-12 -1.03851454E-01 -1.59946603E-01 -8.11746418E-02
  8.20422723E-03 -3.20433911E-03  3.14874103E-12 -3.91074468E-02 -6.49524111E-02
  1.61983831E-01 -2.45938617E-06 -7.83674828E-11  1.88997363E-01  2.33408039E-01
 -3.39065498E-06 -1.12513909E-10  2.96735631E-01  2.12698884E-01 -3.04961056E-06
 -1.02035938E-10  4.17479662E-02  3.62870913E-02 -5.39934119E-07 -1.81414461E-11
  1.76676017E-02  2.25689263E-11  2.76951252E-12 -1.66926922E-02  5.02246480E-07
 -3.91074468E-02 -6.49524111E-02 -1.61983831E-01  2.45938621E-06 -7.50768408E-11
  1.88997363E-01 -2.33408039E-01  3.39065505E-06 -1.07797719E-10  2.96735631E-01
 -2.12698884E-01  3.04961061E-06 -9.78584240E-11  4.17479662E-02 -3.62870913E-02
  5.39934112E-07 -1.74083236E-11  1.76676017E-02 -2.16537615E-11 -2.75818506E-12
 -1.66926922E-02  5.02246490E-07 -4.88251974E-02 -9.04354682E-02 -6.13943219E-02
  7.29341879E-03 -9.91678899E-03 -1.44349071E-12 -4.88250293E-02 -9.04351083E-02
 -6.13938360E-02  7.29373938E-03  9.91659913E-03 -5.41816355E-12 -4.88251974E-02
 -9.04354682E-02 -6.13943219E-02 -7.29341879E-03  9.91678899E-03 -1.31464549E-12
 -4.88250293E-02 -9.04351083E-02 -6.13938360E-02 -7.29373938E-03 -9.91659913E-03
 -5.28579595E-12 -3.91262791E-02 -6.49936813E-02  1.61989676E-01 -2.45900285E-06
 -7.83952484E-11  1.89269089E-01  2.33684866E-01 -3.39722085E-06 -1.12565140E-10
  2.96088873E-01  2.11960363E-01 -3.04297799E-06 -1.02048824E-10  4.18405726E-02
  3.79349856E-02 -5.21172621E-07 -1.83651269E-11  1.76691808E-02  2.25703460E-11
  2.76932416E-12 -1.66935742E-02  5.04964874E-07  3.91262791E-02  6.49936813E-02
  1.61989676E-01 -2.45900290E-06  7.51035707E-11 -1.89269089E-01  2.33684866E-01
 -3.39722093E-06  1.07848973E-10 -2.96088873E-01  2.11960363E-01 -3.04297804E-06
  9.78645961E-11 -4.18405726E-02  3.79349856E-02 -5.21172609E-07  1.76297908E-11
 -1.76691808E-02  2.16547317E-11  2.75796507E-12  1.66935742E-02 -5.04964885E-07
 -4.88099759E-02 -9.06660168E-02 -6.08611543E-02  7.32879091E-03 -9.91491563E-03
 -1.45221834E-12 -4.88098100E-02 -9.06656256E-02 -6.08607541E-02  7.32911395E-03
  9.91472289E-03 -5.42577506E-12  4.88099759E-02  9.06660168E-02  6.08611543E-02
  7.32879091E-03 -9.91491563E-03  1.32320917E-12  4.88098100E-02  9.06656257E-02
  6.08607541E-02  7.32911395E-03  9.91472289E-03  5.29321427E-12  2.98260414E-13
  4.24968060E-13  7.85497471E-11  3.27654086E-11  1.61946770E-01 -5.80868596E-13
  1.25512047E-10  5.30084365E-11  2.56191850E-01 -6.65355778E-12  1.47717583E-10
  6.06684453E-11  3.01673615E-01 -2.37193578E-12  9.05944028E-11  3.98928507E-11
  1.81630823E-01  1.48268755E-11 -1.73266421E-02  3.03272046E-07 -8.20375787E-12
 -3.91156219E-12  2.42570383E-13  3.37252859E-13 -7.51012253E-11 -3.27619733E-11
  1.61946770E-01 -4.01755820E-13 -1.20045365E-10 -5.29998377E-11  2.56191850E-01
 -5.60932685E-12 -1.40960365E-10 -6.06396275E-11  3.01673615E-01 -1.21597436E-12
 -8.64140090E-11 -4.00805311E-11  1.81630823E-01  1.42337330E-11  1.73266421E-02
 -3.03272049E-07 -7.83673433E-12 -3.90350809E-12  7.87067634E-13  1.84424713E-12
  5.28315820E-12  8.46071249E-12  3.85912679E-12  1.63376356E-02  4.96595298E-13
  1.43936255E-12  1.08897325E-12  8.00444362E-12  3.34613164E-12  1.63377021E-02
  6.51450510E-13  1.57298566E-12  4.51395985E-12 -8.09082695E-12 -3.83687884E-12
  1.63376356E-02  3.49358983E-13  1.24228128E-12  4.41012791E-14 -7.63989068E-12
 -3.36579051E-12  1.63377021E-02  1.63423319E-13  2.01972646E-13  7.90014787E-11
  3.27963178E-11  1.62160750E-01 -2.07993223E-14  1.25692040E-10  5.29794436E-11
  2.56354995E-01 -4.99950588E-12  1.49755902E-10  6.08243268E-11  3.02633090E-01
 -7.69818647E-12  8.91062366E-11  4.07100850E-11  1.80377115E-01  1.48516891E-11
 -1.73544633E-02  3.03727503E-07 -8.28310737E-12 -3.87282300E-12 -1.01813177E-13
 -1.04114586E-13  7.55673734E-11  3.27931568E-11 -1.62160750E-01 -1.77903056E-13
  1.20233123E-10  5.29705001E-11 -2.56354995E-01  3.83523733E-12  1.43044186E-10