Title Card Required                                                     
FOpt      UM062X                                                      6-311+G(d,p)        
Number of atoms                            I                4
Info1-9                                    I   N=           9
          13          13           0           0           0         110
           2          18        -502
Full Title                                 C   N=           2
Title Card Required     
Route                                      C   N=           5
#p opt UM062X/6-311+G** nosymm int=superfine SCF=NoVarAcc   
Charge                                     I                0
Multiplicity                               I                1
Number of electrons                        I               14
Number of alpha electrons                  I                7
Number of beta electrons                   I                7
Number of basis functions                  I               56
Number of independent functions            I               56
Number of point charges in /Mol/           I                0
Number of translation vectors              I                0
Atomic numbers                             I   N=           4
           6           6           1           1
Nuclear charges                            R   N=           4
  6.00000000E+00  6.00000000E+00  1.00000000E+00  1.00000000E+00
Current cartesian coordinates              R   N=          12
 -1.02661734E+01  0.00000000E+00  0.00000000E+00  1.02661734E+01  0.00000000E+00
  0.00000000E+00 -1.23831753E+01 -1.32000336E-05  1.32000016E-05  1.23831748E+01
  9.00932041E-06 -9.00927920E-06
Number of symbols in /Mol/                 I                0
Force Field                                I                0
Atom Types                                 C   N=           4
                                                
Int Atom Types                             I   N=           4
           0           0           0           0
MM charges                                 R   N=           4
  0.00000000E+00  0.00000000E+00  0.00000000E+00  0.00000000E+00
Integer atomic weights                     I   N=           4
          12          12           1           1
Real atomic weights                        R   N=           4
  1.20000000E+01  1.20000000E+01  1.00782504E+00  1.00782504E+00
Atom fragment info                         I   N=           4
           0           0           0           0
Atom residue num                           I   N=           4
           0           0           0           0
Nuclear spins                              I   N=           4
           0           0           1           1
Nuclear ZEff                               R   N=           4
 -3.60000000E+00 -3.60000000E+00 -1.00000000E+00 -1.00000000E+00
Nuclear ZNuc                               R   N=           4
  6.00000000E+00  6.00000000E+00  1.00000000E+00  1.00000000E+00
Nuclear QMom                               R   N=           4
  0.00000000E+00  0.00000000E+00  0.00000000E+00  0.00000000E+00
Nuclear GFac                               R   N=           4
  0.00000000E+00  0.00000000E+00  2.79284600E+00  2.79284600E+00
MicOpt                                     I   N=           4
          -2          -2          -1          -1
Number of residues                         I                0
Number of secondary structures             I                0
Redundant internal dimensions              I   N=           4
          12           8           4           0
Redundant internal coordinate indices      I   N=          48
           1          -1           0           0           1          -2
           0           0           1          -3           0           0
           2          -1           0           0           2          -2
           0           0           2          -3           0           0
           1           3           0           0           2           4
           0           0           2           1           3          -4
           1           2           4          -4           2           1
           3          -8           1           2           4          -8
Redundant internal coordinates             R   N=          12
 -1.02661734E+01  0.00000000E+00  0.00000000E+00  1.02661734E+01  0.00000000E+00
  0.00000000E+00  2.11700191E+00  2.11700141E+00  3.14158642E+00  3.14158840E+00
  3.14158642E+00  3.14158840E+00
ZRed-IntVec                                I   N=          12
          -1          -1          -1          -1          -1          -1
           0           0           0           0           0           0
ZRed-FPVec                                 R   N=          12
  0.00000000E+00  0.00000000E+00  0.00000000E+00  0.00000000E+00  0.00000000E+00
  0.00000000E+00  0.00000000E+00  0.00000000E+00  0.00000000E+00  0.00000000E+00
  0.00000000E+00  0.00000000E+00
ZRed-Constraint1                           R   N=          12
 -1.02661734E+01  0.00000000E+00  0.00000000E+00  1.02661734E+01  0.00000000E+00
  0.00000000E+00  2.12190166E+00  2.12189977E+00  3.14158731E+00  3.14158909E+00
  3.14158731E+00  3.14158909E+00
ZRed-Constraint2                           R   N=          12
 -1.02661734E+01  0.00000000E+00  0.00000000E+00  1.02661734E+01  0.00000000E+00
  0.00000000E+00  0.00000000E+00  0.00000000E+00  0.00000000E+00  0.00000000E+00
  0.00000000E+00  0.00000000E+00
Number of contracted shells                I               20
Number of primitive shells                 I               38
Pure/Cartesian d shells                    I                0
Pure/Cartesian f shells                    I                0
Highest angular momentum                   I                2
Largest degree of contraction              I                6
Shell types                                I   N=          20
           0          -1          -1          -1          -1          -2
           0          -1          -1          -1          -1          -2
           0           0           0           1           0           0
           0           1
Number of primitives per shell             I   N=          20
           6           3           1           1           1           1
           6           3           1           1           1           1
           3           1           1           1           3           1
           1           1
Shell to atom map                          I   N=          20
           1           1           1           1           1           1
           2           2           2           2           2           2
           3           3           3           3           4           4
           4           4
Primitive exponents                        R   N=          38
  4.56324000E+03  6.82024000E+02  1.54973000E+02  4.44553000E+01  1.30290000E+01
  1.82773000E+00  2.09642000E+01  4.80331000E+00  1.45933000E+00  4.83456000E-01
  1.45585000E-01  4.38000000E-02  6.26000000E-01  4.56324000E+03  6.82024000E+02
  1.54973000E+02  4.44553000E+01  1.30290000E+01  1.82773000E+00  2.09642000E+01
  4.80331000E+00  1.45933000E+00  4.83456000E-01  1.45585000E-01  4.38000000E-02
  6.26000000E-01  3.38650000E+01  5.09479000E+00  1.15879000E+00  3.25840000E-01
  1.02741000E-01  7.50000000E-01  3.38650000E+01  5.09479000E+00  1.15879000E+00
  3.25840000E-01  1.02741000E-01  7.50000000E-01
Contraction coefficients                   R   N=          38
  1.96665025E-03  1.52306019E-02  7.61269097E-02  2.60801033E-01  6.16462078E-01
  2.21006028E-01  1.14660081E-01  9.19999648E-01 -3.03068213E-03  1.00000000E+00
  1.00000000E+00  1.00000000E+00  1.00000000E+00  1.96665025E-03  1.52306019E-02
  7.61269097E-02  2.60801033E-01  6.16462078E-01  2.21006028E-01  1.14660081E-01
  9.19999648E-01 -3.03068213E-03  1.00000000E+00  1.00000000E+00  1.00000000E+00
  1.00000000E+00  2.54938145E-02  1.90373109E-01  8.52161486E-01  1.00000000E+00
  1.00000000E+00  1.00000000E+00  2.54938145E-02  1.90373109E-01  8.52161486E-01
  1.00000000E+00  1.00000000E+00  1.00000000E+00
P(S=P) Contraction coefficients            R   N=          38
  0.00000000E+00  0.00000000E+00  0.00000000E+00  0.00000000E+00  0.00000000E+00
  0.00000000E+00  4.02486927E-02  2.37593957E-01  8.15853851E-01  1.00000000E+00
  1.00000000E+00  1.00000000E+00  0.00000000E+00  0.00000000E+00  0.00000000E+00
  0.00000000E+00  0.00000000E+00  0.00000000E+00  0.00000000E+00  4.02486927E-02
  2.37593957E-01  8.15853851E-01  1.00000000E+00  1.00000000E+00  1.00000000E+00
  0.00000000E+00  0.00000000E+00  0.00000000E+00  0.00000000E+00  0.00000000E+00
  0.00000000E+00  0.00000000E+00  0.00000000E+00  0.00000000E+00  0.00000000E+00
  0.00000000E+00  0.00000000E+00  0.00000000E+00
Coordinates of each shell                  R   N=          60
 -1.02661734E+01  0.00000000E+00  0.00000000E+00 -1.02661734E+01  0.00000000E+00
  0.00000000E+00 -1.02661734E+01  0.00000000E+00  0.00000000E+00 -1.02661734E+01
  0.00000000E+00  0.00000000E+00 -1.02661734E+01  0.00000000E+00  0.00000000E+00
 -1.02661734E+01  0.00000000E+00  0.00000000E+00  1.02661734E+01  0.00000000E+00
  0.00000000E+00  1.02661734E+01  0.00000000E+00  0.00000000E+00  1.02661734E+01
  0.00000000E+00  0.00000000E+00  1.02661734E+01  0.00000000E+00  0.00000000E+00
  1.02661734E+01  0.00000000E+00  0.00000000E+00  1.02661734E+01  0.00000000E+00
  0.00000000E+00 -1.23831753E+01 -1.32000336E-05  1.32000016E-05 -1.23831753E+01
 -1.32000336E-05  1.32000016E-05 -1.23831753E+01 -1.32000336E-05  1.32000016E-05
 -1.23831753E+01 -1.32000336E-05  1.32000016E-05  1.23831748E+01  9.00932041E-06
 -9.00927920E-06  1.23831748E+01  9.00932041E-06 -9.00927920E-06  1.23831748E+01
  9.00932041E-06 -9.00927920E-06  1.23831748E+01  9.00932041E-06 -9.00927920E-06
Num ILSW                                   I              100
ILSW                                       I   N=         100
           1           0           0           1           2           0
           0           0           0           0        4336          -1
           7           0           0           0           2           0
           0           0           0           0           1           0
           1           1           0           0           0           0
           0           0      100000           0          -1           0
           0           0           0           0           0           0
           0           0           0           1           0           0
           0 -2000000000           1           0           0           0
           0           0           4          52           0           0
           0           0          55           0           0           0
           0           0           0           4           0           1
           0           0           0           0           0           0
           0           0           0           0           0           0
           0           0           0           0           0           0
           0           0           0           0           0           0
           0           0           0           0
Num RLSW                                   I               52
RLSW                                       R   N=          52
  1.00000000E+00  1.00000000E+00  1.00000000E+00  1.00000000E+00  5.40000000E-01
  0.00000000E+00  0.00000000E+00  1.00000000E+00  0.00000000E+00  0.00000000E+00
  0.00000000E+00  0.00000000E+00  1.00000000E+00  0.00000000E+00  0.00000000E+00
  0.00000000E+00  0.00000000E+00  1.00000000E+00  0.00000000E+00  0.00000000E+00
  0.00000000E+00  0.00000000E+00  1.00000000E+00  0.00000000E+00  0.00000000E+00
  0.00000000E+00  0.00000000E+00  1.00000000E+00  0.00000000E+00  0.00000000E+00
  0.00000000E+00  0.00000000E+00  1.00000000E+00  0.00000000E+00  0.00000000E+00
  0.00000000E+00  0.00000000E+00  0.00000000E+00  1.00000000E+00  1.00000000E+00
  0.00000000E+00  1.00000000E+00  0.00000000E+00  0.00000000E+00  0.00000000E+00
  0.00000000E+00  0.00000000E+00  0.00000000E+00  0.00000000E+00  0.00000000E+00
  0.00000000E+00  0.00000000E+00
MxBond                                     I                2
NBond                                      I   N=           4
           2           2           1           1
IBond                                      I   N=           8
           2           3           1           4           1           0
           2           0
RBond                                      R   N=           8
  1.00000000E-01  1.00000000E+00  1.00000000E-01  1.00000000E+00  1.00000000E+00
  0.00000000E+00  1.00000000E+00  0.00000000E+00
Virial Ratio                               R      2.003134372140948E+00
SCF Energy                                 R     -7.681676375609719E+01
Total Energy                               R     -7.681676375609719E+01
S**2                                       R      2.527755782466556E-12
S**2 after annihilation                    R     -1.572075802871197E-13
RMS Force                                  R      3.084597662786059E-05
RMS Density                                R      4.491557182175242E-09
Job Status                                 I                1
Nuclear derivative order                   I                1
External E-field                           R   N=          35
  0.00000000E+00  0.00000000E+00  0.00000000E+00  0.00000000E+00  0.00000000E+00
  0.00000000E+00  0.00000000E+00  0.00000000E+00  0.00000000E+00  0.00000000E+00
  0.00000000E+00  0.00000000E+00  0.00000000E+00  0.00000000E+00  0.00000000E+00
  0.00000000E+00  0.00000000E+00  0.00000000E+00  0.00000000E+00  0.00000000E+00
  0.00000000E+00  0.00000000E+00  0.00000000E+00  0.00000000E+00  0.00000000E+00
  0.00000000E+00  0.00000000E+00  0.00000000E+00  0.00000000E+00  0.00000000E+00
  0.00000000E+00  0.00000000E+00  0.00000000E+00  0.00000000E+00  0.00000000E+00
IOpCl                                      I                1
IROHF                                      I                0
Alpha Orbital Energies                     R   N=          56
 -1.06669430E+01 -1.06669427E+01 -7.24793444E-01 -7.24756383E-01 -3.86569655E-01
 -3.86549778E-01 -1.94239968E-01 -1.68189192E-01 -9.68129073E-02 -9.68104708E-02
  3.32506261E-02  3.33637392E-02  8.13619515E-02  8.14702493E-02  8.18504771E-02
  8.38193600E-02  8.96174805E-02  8.97297979E-02  1.73675080E-01  1.73897275E-01
  4.53952206E-01  4.54910204E-01  5.72236397E-01  5.72309682E-01  5.77708897E-01
  5.77785184E-01  6.12718503E-01  6.12814609E-01  6.84459327E-01  6.85322986E-01
  1.12625071E+00  1.12625116E+00  1.13650422E+00  1.13655391E+00  1.33376508E+00
  1.33378962E+00  1.34615425E+00  1.34617887E+00  1.58045593E+00  1.58075004E+00
  1.84846877E+00  1.84847115E+00  1.85938642E+00  1.85939354E+00  2.38414249E+00
  2.38424406E+00  2.48779571E+00  2.48815287E+00  2.70438005E+00  2.70442116E+00
  2.70839874E+00  2.70843995E+00  3.17001165E+00  3.17039187E+00  2.35097074E+01
  2.35099068E+01
Beta Orbital Energies                      R   N=          56
 -1.06669430E+01 -1.06669427E+01 -7.24793444E-01 -7.24756383E-01 -3.86569655E-01
 -3.86549778E-01 -1.94239968E-01 -1.68189192E-01 -9.68129074E-02 -9.68104709E-02
  3.32506256E-02  3.33637388E-02  8.13619514E-02  8.14702492E-02  8.18504772E-02
  8.38193601E-02  8.96174799E-02  8.97297972E-02  1.73675080E-01  1.73897274E-01
  4.53952206E-01  4.54910204E-01  5.72236397E-01  5.72309682E-01  5.77708897E-01
  5.77785184E-01  6.12718503E-01  6.12814609E-01  6.84459326E-01  6.85322986E-01
  1.12625071E+00  1.12625116E+00  1.13650422E+00  1.13655391E+00  1.33376508E+00
  1.33378962E+00  1.34615425E+00  1.34617887E+00  1.58045593E+00  1.58075004E+00
  1.84846877E+00  1.84847115E+00  1.85938642E+00  1.85939354E+00  2.38414249E+00
  2.38424406E+00  2.48779571E+00  2.48815287E+00  2.70438005E+00  2.70442116E+00
  2.70839874E+00  2.70843995E+00  3.17001165E+00  3.17039187E+00  2.35097074E+01
  2.35099068E+01
Alpha MO coefficients                      R   N=        3136
  4.18273578E-01  3.44591199E-01 -1.33878977E-03 -8.37182992E-09  8.37180143E-09
  7.01045546E-03 -1.01838281E-03 -6.33967163E-09  6.33965616E-09 -2.93454889E-03
 -4.46887101E-05 -2.90017162E-10  2.90018117E-10  3.11839818E-04  4.84316229E-04
  3.03098549E-09 -3.03097768E-09 -3.99445820E-04 -8.35247651E-09 -4.44492922E-05
  6.91886542E-04  8.35266171E-09  3.78362754E-01  3.11711017E-01  1.21102156E-03
  5.17381941E-09 -5.17379481E-09  6.34140884E-03  9.21274968E-04  3.91113421E-09
 -3.91111506E-09 -2.65420347E-03  4.02280390E-05  1.80871099E-10 -1.80874901E-10
  2.82267310E-04 -4.37598644E-04 -1.87130888E-09  1.87130040E-09 -3.61316834E-04
 -5.15646133E-09 -4.01921612E-05  6.25842702E-04  5.15658768E-09  2.45439920E-04
 -2.05397925E-03  1.66745283E-03 -1.43517720E-03 -8.94870236E-09  8.94868117E-09
  2.21955105E-04 -1.85768972E-03  1.50766853E-03  1.29823880E-03  5.52511905E-09
 -5.52509438E-09 -3.78362783E-01 -3.11710852E-01  1.21128011E-03  7.57188676E-09
 -7.57185652E-09 -6.34278257E-03  9.20593115E-04  5.73996982E-09 -5.73995559E-09
  2.65790507E-03  4.23902896E-05  2.55124171E-10 -2.55120818E-10 -2.80248768E-04
 -4.43160763E-04 -2.75215846E-09  2.75215203E-09  3.61484335E-04  7.55754844E-09
  4.03669158E-05 -6.26132925E-04 -7.55771585E-09  4.18273604E-01  3.44591050E-01
  1.33902344E-03  5.71865249E-09 -5.71862013E-09  7.01170193E-03  1.01777096E-03
  4.32788633E-09 -4.32786279E-09 -2.93789655E-03  4.66444430E-05  1.93953605E-10
 -1.93950864E-10  3.10012119E-04 -4.89348282E-04 -2.07592418E-09  2.07591560E-09
 -3.99598551E-04 -5.70191828E-09 -4.46073942E-05  6.92151173E-04  5.70205762E-09
 -2.22671505E-04  1.86105712E-03 -1.51516363E-03  1.29822030E-03  8.09548714E-09
 -8.09546762E-09  2.46087217E-04 -2.05703199E-03  1.67423659E-03  1.43516408E-03
  6.10843716E-09 -6.10840943E-09 -7.65621561E-02 -1.23911996E-01 -5.44445134E-02
 -3.39419987E-07  3.39419298E-07  3.52578333E-01 -8.20226907E-02 -5.11244962E-07
  5.11243860E-07  2.45530416E-01 -3.29408971E-02 -2.04747747E-07  2.04747633E-07
 -6.42718177E-04 -8.69803638E-04 -5.38182413E-09  5.38188993E-09 -5.16698817E-03
 -9.16629999E-08 -3.19434811E-03  8.95136150E-03  9.16750375E-08 -7.66871869E-02
 -1.24114351E-01  5.45334746E-02  2.32013978E-07 -2.32013179E-07  3.53154113E-01
  8.21566999E-02  3.49476110E-07 -3.49474871E-07  2.45931291E-01  3.29946724E-02
  1.39820402E-07 -1.39820295E-07 -6.43877563E-04  8.71236829E-04  3.65848390E-09
 -3.65860266E-09 -5.17543349E-03 -6.26562959E-08 -3.19958216E-03  8.96599230E-03
  6.26647129E-08  1.02405440E-01  1.30385928E-01  1.56635051E-02  1.58141827E-02
  9.86472418E-08 -9.86469812E-08  1.02572737E-01  1.30598945E-01  1.56891467E-02
 -1.58400175E-02 -6.74498092E-08  6.74494757E-08 -7.66859221E-02 -1.24112622E-01
 -5.45433100E-02 -3.40032912E-07  3.40031785E-07  3.53158252E-01 -8.21726882E-02
 -5.12164015E-07  5.12162242E-07  2.45902152E-01 -3.29794799E-02 -2.05001547E-07
  2.05000690E-07 -7.10239644E-04 -8.79123763E-04 -5.34395882E-09  5.34382999E-09
 -5.17779494E-03 -9.17993657E-08 -3.20993928E-03  8.97008853E-03  9.18114582E-08
  7.65608785E-02  1.23910243E-01 -5.44544218E-02 -2.31675850E-07  2.31674415E-07
 -3.52582392E-01 -8.20387589E-02 -3.48963800E-07  3.48961587E-07 -2.45501094E-01
 -3.29256845E-02 -1.39538322E-07  1.39537134E-07  7.09191163E-04 -8.77702998E-04
 -3.62076564E-09  3.62058659E-09  5.16935935E-03  6.25450459E-08  3.20472262E-03
 -8.95547460E-03 -6.25534842E-08  1.02580882E-01  1.30627131E-01  1.57268188E-02
  1.58423257E-02  9.88220062E-08 -9.88217685E-08 -1.02413677E-01 -1.30414219E-01
 -1.57012369E-02  1.58165025E-02  6.73491542E-08 -6.73488599E-08 -4.28964693E-02
 -7.08558828E-02  1.53565958E-01  9.58372608E-07 -9.58369643E-07  2.08554295E-01
  2.21274074E-01  1.38095452E-06 -1.38095024E-06  2.98010428E-01  1.45728429E-01
  9.10457280E-07 -9.10453995E-07  4.24712967E-02  9.38757517E-03  5.93140162E-08
 -5.93136534E-08  1.23748617E-02  2.85189786E-07 -2.86171752E-03 -2.14322090E-02
 -2.85180026E-07 -4.28995089E-02 -7.08609039E-02 -1.53576820E-01 -6.54307868E-07
  6.54304119E-07  2.08569071E-01 -2.21289709E-01 -9.42813453E-07  9.42808014E-07
  2.98031583E-01 -1.45738712E-01 -6.21802426E-07  6.21798318E-07  4.24743087E-02
 -9.38823695E-03 -4.06515038E-08  4.06510192E-08  1.23757366E-02  1.94669101E-07
 -2.86192176E-03 -2.14337243E-02 -1.94662816E-07 -9.49082805E-02 -1.75828447E-01
 -1.16128389E-01 -7.22434522E-03 -4.51262398E-08  4.51261896E-08 -9.49149771E-02
 -1.75840852E-01 -1.16136587E-01  7.22485426E-03  3.08216442E-08 -3.08215735E-08
 -4.29082364E-02 -7.08755445E-02  1.53575172E-01  9.58444618E-07 -9.58442519E-07
  2.08620631E-01  2.21284838E-01  1.38104006E-06 -1.38103711E-06  2.98049550E-01
  1.45763232E-01  9.10711334E-07 -9.10709521E-07  4.23787420E-02  9.39629422E-03
  5.94435762E-08 -5.94436153E-08  1.23737805E-02  2.85227749E-07 -2.87143120E-03
 -2.14303307E-02 -2.85217916E-07  4.29052114E-02  7.08705480E-02  1.53564326E-01
  6.54264607E-07 -6.54262128E-07 -2.08605921E-01  2.21269193E-01  9.42738676E-07
 -9.42735182E-07 -2.98028575E-01  1.45752912E-01  6.21888213E-07 -6.21886262E-07
 -4.23757568E-02  9.39562837E-03  4.07363769E-08 -4.07365004E-08 -1.23729062E-02
 -1.94667538E-07  2.87123023E-03  2.14288165E-02  1.94661163E-07 -9.49051515E-02
 -1.75824434E-01 -1.16077838E-01 -7.22229394E-03 -4.51141532E-08  4.51140388E-08
  9.48984321E-02  1.75811984E-01  1.16069624E-01 -7.22178190E-03 -3.08090768E-08
  3.08089078E-08 -1.86607566E-13 -3.03764043E-13 -2.43859676E-10  1.32248293E-01
  1.32209477E-01  1.08506298E-12 -3.73631822E-10  2.02566992E-01  2.02507538E-01
  6.09740797E-13 -4.12610235E-10  2.24134398E-01  2.24068614E-01 -3.38107069E-12
 -1.24300044E-10  6.75969780E-02  6.75771384E-02  1.25555616E-07 -1.14970422E-02
  2.10720479E-11  7.25321656E-08 -1.15004176E-02  1.09114112E-13  1.77518059E-13
 -1.67672073E-10  1.32248067E-01  1.32209252E-01 -6.52200013E-13 -2.56879589E-10
  2.02566648E-01  2.02507194E-01 -2.27958011E-13 -2.83775415E-10  2.24134033E-01
  2.24068249E-01  2.06596720E-12 -8.52990727E-11  6.75968844E-02  6.75770449E-02
 -8.56660402E-08  1.14970247E-02 -1.42786284E-11 -4.94885975E-08  1.15004001E-02
  1.47138115E-13  4.10144948E-13  1.95865578E-12 -2.27905479E-11  1.23798523E-02
  1.23762187E-02 -1.12764937E-13 -2.54334677E-13 -1.38871341E-12 -1.56696242E-11
  1.23798345E-02  1.23762010E-02  4.02406920E-13  6.86106767E-13 -2.44554036E-10
  1.32222399E-01  1.32183591E-01 -2.31454839E-12 -3.74398767E-10  2.02524536E-01
  2.02465095E-01 -2.18281854E-12 -4.14999114E-10  2.24058588E-01  2.23992826E-01
  4.49909394E-12 -1.25348818E-10  6.77339576E-02  6.77140778E-02  1.25299233E-07
 -1.17371850E-02  2.10560027E-11  7.23849345E-08 -1.17406309E-02  2.88485456E-13
  4.92036459E-13  1.68134126E-10 -1.32222608E-01 -1.32183801E-01 -1.66639572E-12
  2.57404030E-10 -2.02524858E-01 -2.02465417E-01 -1.54322474E-12  2.85328747E-10
 -2.24058959E-01 -2.23993197E-01  3.29059713E-12  8.62464470E-11 -6.77340888E-02
 -6.77142091E-02  8.54947658E-08 -1.17372057E-02  1.42645062E-11  4.93902528E-08
 -1.17406515E-02  2.21455006E-13  5.23056993E-13 -1.69904049E-12 -2.31175980E-11
  1.25109365E-02  1.25072645E-02  1.53237385E-13  3.76402574E-13 -1.28833048E-12
  1.58954648E-11 -1.25109596E-02 -1.25072876E-02 -8.77659441E-10 -1.43019985E-09
  1.53101957E-06 -1.22656346E-01  1.22692356E-01  4.23770779E-09  2.41885040E-06
 -1.93848986E-01  1.93905898E-01  9.15136381E-09  2.69153117E-06 -2.15423246E-01
  2.15486491E-01 -1.49835492E-08  1.31971731E-06 -1.06094920E-01  1.06126069E-01
  1.13865424E-07 -1.05399198E-02 -1.31178086E-07 -1.97182788E-07  1.05368262E-02
  8.02255303E-10  1.30139110E-09  1.04259320E-06 -1.22343586E-01  1.22379504E-01
 -3.75549789E-09  1.64686641E-06 -1.93354708E-01  1.93411475E-01 -8.98978401E-09
  1.83387810E-06 -2.14873905E-01  2.14936989E-01  1.38738034E-08  8.96189480E-07
 -1.05824514E-01  1.05855583E-01 -7.75424892E-08  1.05130458E-02  8.92653307E-08
  1.34281915E-07 -1.05099602E-02 -5.59595715E-10 -5.65453144E-10  1.57045770E-09
  1.50657345E-07 -1.20767125E-02  1.20802581E-02  5.30050073E-10  1.50741466E-10
 -4.74396096E-10  1.02572136E-07 -1.20459223E-02  1.20494588E-02  8.07687574E-10
  1.34423606E-09 -1.52691100E-06  1.22347976E-01 -1.22383896E-01 -4.38523111E-09
 -2.41270940E-06  1.93355513E-01 -1.93412280E-01 -5.90993475E-09 -2.68315618E-06
  2.14899480E-01 -2.14962572E-01  1.57930152E-08 -1.32297478E-06  1.05784974E-01
 -1.05816032E-01 -1.13511046E-07  1.05134601E-02  1.30824741E-07  1.96569101E-07
 -1.05103744E-02  7.05094951E-10  1.18225823E-09  1.04492856E-06 -1.22660716E-01
  1.22696727E-01 -3.97140999E-09  1.65113113E-06 -1.93849774E-01  1.93906686E-01
 -4.46119647E-09  1.83615136E-06 -2.15448760E-01  2.15512013E-01  1.46685533E-08
  9.07927613E-07 -1.06055500E-01  1.06086637E-01 -7.76524120E-08  1.05403358E-02
  8.94618656E-08  1.34472270E-07 -1.05372422E-02  2.79294364E-10  1.97884912E-09
 -7.57892235E-09 -1.50290939E-07  1.20457820E-02 -1.20493185E-02  1.52711821E-10
  2.05117105E-09 -8.48682564E-09  1.02866748E-07 -1.20765769E-02  1.20801224E-02
  2.12082050E-02  3.46648357E-02  3.44701057E-02  2.06330121E-07 -2.06329451E-07
 -8.42805328E-02  7.92866279E-02  4.85528219E-07 -4.85526629E-07 -4.26505485E-01
  7.57389051E-02  4.38097237E-07 -4.38095674E-07  1.09496252E+00 -5.41800413E-01
 -3.31701653E-06  3.31700763E-06  8.51882985E-03  1.73774355E-07  1.51974780E-03
 -1.47559384E-02 -1.73780380E-07  2.12092650E-02  3.46665693E-02 -3.44717818E-02
 -1.39143507E-07  1.39142851E-07 -8.42847585E-02 -7.92905723E-02 -3.29577869E-07
  3.29576351E-07 -4.26526783E-01 -7.57424733E-02 -2.92588504E-07  2.92586385E-07
  1.09501730E+00  5.41827150E-01  2.25248156E-06 -2.25246878E-06  8.51925701E-03
  1.18463180E-07  1.51982264E-03 -1.47566783E-02 -1.18467553E-07 -1.81545140E-02
  1.16906187E-01 -4.17775314E-01 -2.61728246E-04 -1.76135630E-09  1.76134719E-09
 -1.81554255E-02  1.16911992E-01 -4.17796188E-01  2.61724946E-04  1.23512525E-09
 -1.23508063E-09  2.13413917E-02  3.48648845E-02  3.42002115E-02  2.10179552E-07
 -2.10178377E-07 -8.45183474E-02  7.93515172E-02  4.90192646E-07 -4.90190147E-07
 -4.30849516E-01  7.39603940E-02  4.52517249E-07 -4.52515672E-07  1.09774070E+00
 -5.34775593E-01 -3.31866736E-06  3.31866099E-06  8.46856538E-03  1.73188711E-07
  1.51643350E-03 -1.46688758E-02 -1.73194823E-07 -2.13403308E-02 -3.48631524E-02
  3.41984647E-02  1.42173984E-07 -1.42172268E-07  8.45141594E-02  7.93475543E-02
  3.33049141E-07 -3.33045896E-07  4.30828079E-01  7.39565007E-02  3.04319643E-07
 -3.04316379E-07 -1.09768619E+00 -5.34748672E-01 -2.25678837E-06  2.25677792E-06
 -8.46814585E-03 -1.18087747E-07 -1.51635700E-03  1.46681491E-02  1.18092263E-07
 -1.79196160E-02  1.16385380E-01 -4.13667473E-01 -2.16248156E-04 -1.51980219E-09
  1.51989141E-09  1.79187296E-02 -1.16379558E-01  4.13646908E-01 -2.16221004E-04
 -1.07303912E-09  1.07314538E-09 -4.48929727E-08 -7.17212063E-08 -7.47656018E-07
  7.07185110E-02 -7.07392791E-02  1.58925400E-07 -8.14920641E-07  7.09675759E-02
 -7.09884166E-02  1.05203155E-06 -2.96002622E-06  2.92186791E-01 -2.92272599E-01
 -1.14423046E-06  5.36860943E-06 -6.06462636E-01  6.06640743E-01 -4.90597581E-08
  5.88197997E-03  6.96972000E-08  8.49548987E-08 -5.88025310E-03  1.12180492E-07
  1.79293394E-07 -2.85025318E-07  7.07172721E-02 -7.07380397E-02 -3.98940867E-07
 -4.47654171E-07  7.09663344E-02 -7.09871746E-02 -2.63134621E-06 -8.60995807E-07
  2.92181676E-01 -2.92267483E-01  2.85668968E-06 -1.18912589E-07 -6.06452003E-01
  6.06630106E-01  8.83527806E-09 -5.88187895E-03 -4.10780690E-08 -1.52940332E-08
  5.88015212E-03 -6.23223782E-08  3.93821462E-08 -5.56240864E-07 -1.64603964E-08
 -2.28641146E-04  2.28708365E-04  1.51192201E-07 -9.21891040E-08  1.40298899E-06
 -4.32446779E-08 -2.28634493E-04  2.28701710E-04 -1.18923407E-07 -1.90188951E-07
  1.19330980E-06 -7.07229877E-02  7.07437570E-02  4.25652076E-07  1.02713073E-06
 -7.10176611E-02  7.10385165E-02  2.79205184E-06  5.25527083E-06 -2.92102250E-01
  2.92188033E-01 -3.02383480E-06 -1.28932392E-05  6.06509975E-01 -6.06688095E-01
  9.80021573E-08 -5.88172367E-03 -8.26788893E-08 -1.69717991E-07  5.87999687E-03
 -1.40226339E-07 -2.24245755E-07 -9.72596732E-07  7.07242282E-02 -7.07449978E-02
  5.01580560E-07 -7.74779255E-07  7.10189086E-02 -7.10397642E-02  3.29143979E-06
 -4.40347661E-06  2.92107378E-01 -2.92193162E-01 -3.56726576E-06  1.14839439E-05
 -6.06520605E-01  6.06698728E-01  8.43032845E-08 -5.88182887E-03 -6.10955387E-08
 -1.45996692E-07  5.88010205E-03 -1.54304621E-07  8.88789574E-08 -1.50475101E-06
 -4.66490246E-08  2.27438625E-04 -2.27505491E-04 -1.82745366E-07  1.05700956E-07
 -1.77000108E-06  5.41950632E-08 -2.27439966E-04  2.27506832E-04  1.74465162E-02
  2.79050282E-02 -4.79643828E-02 -9.50908886E-07  9.51109364E-07 -6.24663980E-02
 -2.31796741E-02 -8.02338905E-07  8.02540060E-07 -4.08121728E-01 -2.46532391E-01
 -4.22172594E-06  4.22255423E-06  4.44630851E-01  8.04997593E-01  1.06034037E-05
 -1.06051289E-05 -5.23895721E-03 -1.76009980E-07  1.38652339E-03  9.07332602E-03
  1.75988485E-07  1.74464933E-02  2.79049917E-02  4.79643224E-02  5.84246383E-07
 -5.84362145E-07 -6.24663124E-02  2.31796370E-02  4.82811890E-07 -4.82928245E-07
 -4.08121197E-01  2.46532093E-01  2.61327840E-06 -2.61375667E-06  4.44630433E-01
 -8.04996381E-01 -6.68013841E-06  6.68113254E-06 -5.23894788E-03 -1.14748226E-07
  1.38652148E-03  9.07330986E-03  1.14735435E-07  2.31163988E-02 -1.33926715E-02
  2.16780708E-01  6.79726703E-03  4.42887285E-08 -4.42894082E-08  2.31163631E-02
 -1.33926388E-02  2.16780206E-01 -6.79726302E-03 -2.99895385E-08  2.99898890E-08
  1.72653707E-02  2.76705432E-02 -4.91510191E-02  6.28749585E-08 -6.30245985E-08
 -6.28048841E-02 -2.53357364E-02  2.16282686E-07 -2.16430234E-07 -3.98504774E-01
 -2.49806526E-01 -3.94543618E-08  3.88319068E-08  4.43226458E-01  8.06879508E-01
  1.85649210E-06 -1.85515916E-06 -5.25976424E-03 -9.14783226E-08  1.36362793E-03