Title Card Required                                                     
FOpt      UM062X                                                      6-311+G(d,p)        
Number of atoms                            I                6
Info1-9                                    I   N=           9
          15          15           0           0           0         110
           2          18        -502
Full Title                                 C   N=           2
Title Card Required     
Route                                      C   N=           4
#p opt UM062X/6-311+G** int=superfine           
Charge                                     I                1
Multiplicity                               I                2
Number of electrons                        I               15
Number of alpha electrons                  I                8
Number of beta electrons                   I                7
Number of basis functions                  I               68
Number of independent functions            I               68
Number of point charges in /Mol/           I                0
Number of translation vectors              I                0
Atomic numbers                             I   N=           6
           6           6           1           1           1           1
Nuclear charges                            R   N=           6
  6.00000000E+00  6.00000000E+00  1.00000000E+00  1.00000000E+00  1.00000000E+00
  1.00000000E+00
Current cartesian coordinates              R   N=          18
 -1.81324623E-18  1.33595154E+00 -2.46519033E-32  1.66611808E-16 -1.33595154E+00
 -9.86076132E-32 -1.76616869E+00  2.38291437E+00 -9.86076132E-32  1.76672888E+00
  2.38203747E+00 -9.86076132E-32  1.76616869E+00 -2.38291437E+00  0.00000000E+00
 -1.76672888E+00 -2.38203747E+00 -9.86076132E-32
Number of symbols in /Mol/                 I                0
Force Field                                I                0
Atom Types                                 C   N=           6
                                                            
            
Int Atom Types                             I   N=           6
           0           0           0           0           0           0
MM charges                                 R   N=           6
  0.00000000E+00  0.00000000E+00  0.00000000E+00  0.00000000E+00  0.00000000E+00
  0.00000000E+00
Integer atomic weights                     I   N=           6
          12          12           1           1           1           1
Real atomic weights                        R   N=           6
  1.20000000E+01  1.20000000E+01  1.00782504E+00  1.00782504E+00  1.00782504E+00
  1.00782504E+00
Atom fragment info                         I   N=           6
           0           0           0           0           0           0
Atom residue num                           I   N=           6
           0           0           0           0           0           0
Nuclear spins                              I   N=           6
           0           0           1           1           1           1
Nuclear ZEff                               R   N=           6
 -3.60000000E+00 -3.60000000E+00 -1.00000000E+00 -1.00000000E+00 -1.00000000E+00
 -1.00000000E+00
Nuclear ZNuc                               R   N=           6
  6.00000000E+00  6.00000000E+00  1.00000000E+00  1.00000000E+00  1.00000000E+00
  1.00000000E+00
Nuclear QMom                               R   N=           6
  0.00000000E+00  0.00000000E+00  0.00000000E+00  0.00000000E+00  0.00000000E+00
  0.00000000E+00
Nuclear GFac                               R   N=           6
  0.00000000E+00  0.00000000E+00  2.79284600E+00  2.79284600E+00  2.79284600E+00
  2.79284600E+00
MicOpt                                     I   N=           6
          -1          -1          -1          -1          -1          -1
Number of residues                         I                0
Number of secondary structures             I                0
Redundant internal dimensions              I   N=           4
          15           5           6           4
Redundant internal coordinate indices      I   N=          60
           1           2           0           0           1           3
           0           0           1           4           0           0
           2           5           0           0           2           6
           0           0           2           1           3           0
           2           1           4           0           3           1
           4           0           1           2           5           0
           1           2           6           0           5           2
           6           0           3           1           2           5
           3           1           2           6           4           1
           2           5           4           1           2           6
Redundant internal coordinates             R   N=          15
  2.67190308E+00  2.05316414E+00  2.05319914E+00  2.05316414E+00  2.05319914E+00
  2.10589568E+00  2.10538917E+00  2.07190046E+00  2.10589568E+00  2.10538917E+00
  2.07190046E+00  3.14159265E+00 -0.00000000E+00  0.00000000E+00  3.14159265E+00
ZRed-IntVec                                I   N=          15
           0           0           0           0           0           0
           0           0           0           0           0           0
           0           0           0
ZRed-FPVec                                 R   N=          15
  0.00000000E+00  0.00000000E+00  0.00000000E+00  0.00000000E+00  0.00000000E+00
  0.00000000E+00  0.00000000E+00  0.00000000E+00  0.00000000E+00  0.00000000E+00
  0.00000000E+00  0.00000000E+00  0.00000000E+00  0.00000000E+00  0.00000000E+00
ZRed-Constraint1                           R   N=          15
  2.67166456E+00  2.05113231E+00  2.05505319E+00  2.05113231E+00  2.05505319E+00
  2.10840953E+00  2.10376057E+00  2.07101521E+00  2.10840953E+00  2.10376057E+00
  2.07101521E+00  3.14159265E+00  0.00000000E+00  0.00000000E+00  3.14159265E+00
ZRed-Constraint2                           R   N=          15
  0.00000000E+00  0.00000000E+00  0.00000000E+00  0.00000000E+00  0.00000000E+00
  0.00000000E+00  0.00000000E+00  0.00000000E+00  0.00000000E+00  0.00000000E+00
  0.00000000E+00  0.00000000E+00  0.00000000E+00  0.00000000E+00  0.00000000E+00
SymInf integers                            I   N=          26
           2           4           1           1           1          -1
          -1           1           1           1          -1          -1
          -1          -1           0           0           0           0
           0           0           0           0           0           0
           0           0
RotTr to input orientation                 R   N=          12
  1.43042264E-03  9.99998977E-01  1.65922885E-21 -9.99998977E-01  1.43042264E-03
 -1.22464680E-16 -1.22464557E-16  1.73517023E-19  1.00000000E+00  5.55111512E-17
  2.77555756E-17 -7.39557099E-32
Number of contracted shells                I               28
Number of primitive shells                 I               50
Pure/Cartesian d shells                    I                0
Pure/Cartesian f shells                    I                0
Highest angular momentum                   I                2
Largest degree of contraction              I                6
Shell types                                I   N=          28
           0          -1          -1          -1          -1          -2
           0          -1          -1          -1          -1          -2
           0           0           0           1           0           0
           0           1           0           0           0           1
           0           0           0           1
Number of primitives per shell             I   N=          28
           6           3           1           1           1           1
           6           3           1           1           1           1
           3           1           1           1           3           1
           1           1           3           1           1           1
           3           1           1           1
Shell to atom map                          I   N=          28
           1           1           1           1           1           1
           2           2           2           2           2           2
           3           3           3           3           4           4
           4           4           5           5           5           5
           6           6           6           6
Primitive exponents                        R   N=          50
  4.56324000E+03  6.82024000E+02  1.54973000E+02  4.44553000E+01  1.30290000E+01
  1.82773000E+00  2.09642000E+01  4.80331000E+00  1.45933000E+00  4.83456000E-01
  1.45585000E-01  4.38000000E-02  6.26000000E-01  4.56324000E+03  6.82024000E+02
  1.54973000E+02  4.44553000E+01  1.30290000E+01  1.82773000E+00  2.09642000E+01
  4.80331000E+00  1.45933000E+00  4.83456000E-01  1.45585000E-01  4.38000000E-02
  6.26000000E-01  3.38650000E+01  5.09479000E+00  1.15879000E+00  3.25840000E-01
  1.02741000E-01  7.50000000E-01  3.38650000E+01  5.09479000E+00  1.15879000E+00
  3.25840000E-01  1.02741000E-01  7.50000000E-01  3.38650000E+01  5.09479000E+00
  1.15879000E+00  3.25840000E-01  1.02741000E-01  7.50000000E-01  3.38650000E+01
  5.09479000E+00  1.15879000E+00  3.25840000E-01  1.02741000E-01  7.50000000E-01
Contraction coefficients                   R   N=          50
  1.96665025E-03  1.52306019E-02  7.61269097E-02  2.60801033E-01  6.16462078E-01
  2.21006028E-01  1.14660081E-01  9.19999648E-01 -3.03068213E-03  1.00000000E+00
  1.00000000E+00  1.00000000E+00  1.00000000E+00  1.96665025E-03  1.52306019E-02
  7.61269097E-02  2.60801033E-01  6.16462078E-01  2.21006028E-01  1.14660081E-01
  9.19999648E-01 -3.03068213E-03  1.00000000E+00  1.00000000E+00  1.00000000E+00
  1.00000000E+00  2.54938145E-02  1.90373109E-01  8.52161486E-01  1.00000000E+00
  1.00000000E+00  1.00000000E+00  2.54938145E-02  1.90373109E-01  8.52161486E-01
  1.00000000E+00  1.00000000E+00  1.00000000E+00  2.54938145E-02  1.90373109E-01
  8.52161486E-01  1.00000000E+00  1.00000000E+00  1.00000000E+00  2.54938145E-02
  1.90373109E-01  8.52161486E-01  1.00000000E+00  1.00000000E+00  1.00000000E+00
P(S=P) Contraction coefficients            R   N=          50
  0.00000000E+00  0.00000000E+00  0.00000000E+00  0.00000000E+00  0.00000000E+00
  0.00000000E+00  4.02486927E-02  2.37593957E-01  8.15853851E-01  1.00000000E+00
  1.00000000E+00  1.00000000E+00  0.00000000E+00  0.00000000E+00  0.00000000E+00
  0.00000000E+00  0.00000000E+00  0.00000000E+00  0.00000000E+00  4.02486927E-02
  2.37593957E-01  8.15853851E-01  1.00000000E+00  1.00000000E+00  1.00000000E+00
  0.00000000E+00  0.00000000E+00  0.00000000E+00  0.00000000E+00  0.00000000E+00
  0.00000000E+00  0.00000000E+00  0.00000000E+00  0.00000000E+00  0.00000000E+00
  0.00000000E+00  0.00000000E+00  0.00000000E+00  0.00000000E+00  0.00000000E+00
  0.00000000E+00  0.00000000E+00  0.00000000E+00  0.00000000E+00  0.00000000E+00
  0.00000000E+00  0.00000000E+00  0.00000000E+00  0.00000000E+00  0.00000000E+00
Coordinates of each shell                  R   N=          84
 -1.37954274E-18  1.33595154E+00 -4.93038066E-32 -1.37954274E-18  1.33595154E+00
 -4.93038066E-32 -1.37954274E-18  1.33595154E+00 -4.93038066E-32 -1.37954274E-18
  1.33595154E+00 -4.93038066E-32 -1.37954274E-18  1.33595154E+00 -4.93038066E-32
 -1.37954274E-18  1.33595154E+00 -4.93038066E-32  1.66178104E-16 -1.33595154E+00
 -7.39557099E-32  1.66178104E-16 -1.33595154E+00 -7.39557099E-32  1.66178104E-16
 -1.33595154E+00 -7.39557099E-32  1.66178104E-16 -1.33595154E+00 -7.39557099E-32
  1.66178104E-16 -1.33595154E+00 -7.39557099E-32  1.66178104E-16 -1.33595154E+00
 -7.39557099E-32 -1.76616869E+00  2.38291437E+00 -1.47911420E-31 -1.76616869E+00
  2.38291437E+00 -1.47911420E-31 -1.76616869E+00  2.38291437E+00 -1.47911420E-31
 -1.76616869E+00  2.38291437E+00 -1.47911420E-31  1.76672888E+00  2.38203747E+00
 -9.86076132E-32  1.76672888E+00  2.38203747E+00 -9.86076132E-32  1.76672888E+00
  2.38203747E+00 -9.86076132E-32  1.76672888E+00  2.38203747E+00 -9.86076132E-32
  1.76616869E+00 -2.38291437E+00 -9.86076132E-32  1.76616869E+00 -2.38291437E+00
 -9.86076132E-32  1.76616869E+00 -2.38291437E+00 -9.86076132E-32  1.76616869E+00
 -2.38291437E+00 -9.86076132E-32 -1.76672888E+00 -2.38203747E+00 -1.47911420E-31
 -1.76672888E+00 -2.38203747E+00 -1.47911420E-31 -1.76672888E+00 -2.38203747E+00
 -1.47911420E-31 -1.76672888E+00 -2.38203747E+00 -1.47911420E-31
Num ILSW                                   I              100
ILSW                                       I   N=         100
           1           0           0           1           2           0
           0           0           0           0        4336          -1
           7           0           0           0           2           0
           0           0           0           0           1           0
           1           0           0           0           0           0
           0           0      100000           0          -1           0
           0           0           0           0           0           0
           0           0           0           1           0           0
           0 -2000000000           1           0           0           0
           0           0           4          52           0           0
           0           0          55           0           0           0
           0           0           0           6           0           1
           0           0           0           0           0           0
           0           0           0           0           0           0
           0           0           0           0           0           0
           0           0           0           0           0           0
           0           0           0           0
Num RLSW                                   I               52
RLSW                                       R   N=          52
  1.00000000E+00  1.00000000E+00  1.00000000E+00  1.00000000E+00  5.40000000E-01
  0.00000000E+00  0.00000000E+00  1.00000000E+00  0.00000000E+00  0.00000000E+00
  0.00000000E+00  0.00000000E+00  1.00000000E+00  0.00000000E+00  0.00000000E+00
  0.00000000E+00  0.00000000E+00  1.00000000E+00  0.00000000E+00  0.00000000E+00
  0.00000000E+00  0.00000000E+00  1.00000000E+00  0.00000000E+00  0.00000000E+00
  0.00000000E+00  0.00000000E+00  1.00000000E+00  0.00000000E+00  0.00000000E+00
  0.00000000E+00  0.00000000E+00  1.00000000E+00  0.00000000E+00  0.00000000E+00
  0.00000000E+00  0.00000000E+00  0.00000000E+00  1.00000000E+00  1.00000000E+00
  0.00000000E+00  1.00000000E+00  0.00000000E+00  0.00000000E+00  0.00000000E+00
  0.00000000E+00  0.00000000E+00  0.00000000E+00  0.00000000E+00  0.00000000E+00
  0.00000000E+00  0.00000000E+00
MxBond                                     I                3
NBond                                      I   N=           6
           3           3           1           1           1           1
IBond                                      I   N=          18
           2           3           4           1           5           6
           1           0           0           1           0           0
           2           0           0           2           0           0
RBond                                      R   N=          18
  1.50000000E+00  1.00000000E+00  1.00000000E+00  1.50000000E+00  1.00000000E+00
  1.00000000E+00  1.00000000E+00  0.00000000E+00  0.00000000E+00  1.00000000E+00
  0.00000000E+00  0.00000000E+00  1.00000000E+00  0.00000000E+00  0.00000000E+00
  1.00000000E+00  0.00000000E+00  0.00000000E+00
Virial Ratio                               R      2.004118982124282E+00
SCF Energy                                 R     -7.818417669393673E+01
Total Energy                               R     -7.818417669393673E+01
S**2                                       R      7.525170905011915E-01
S**2 after annihilation                    R      7.500050773401916E-01
RMS Force                                  R      4.938285922192985E-05
RMS Density                                R      8.700363900609639E-09
Job Status                                 I                1
Nuclear derivative order                   I                1
External E-field                           R   N=          35
  0.00000000E+00  0.00000000E+00  0.00000000E+00  0.00000000E+00  0.00000000E+00
  0.00000000E+00  0.00000000E+00  0.00000000E+00  0.00000000E+00  0.00000000E+00
  0.00000000E+00  0.00000000E+00  0.00000000E+00  0.00000000E+00  0.00000000E+00
  0.00000000E+00  0.00000000E+00  0.00000000E+00  0.00000000E+00  0.00000000E+00
  0.00000000E+00  0.00000000E+00  0.00000000E+00  0.00000000E+00  0.00000000E+00
  0.00000000E+00  0.00000000E+00  0.00000000E+00  0.00000000E+00  0.00000000E+00
  0.00000000E+00  0.00000000E+00  0.00000000E+00  0.00000000E+00  0.00000000E+00
IOpCl                                      I                1
IROHF                                      I                0
Alpha Orbital Energies                     R   N=          68
 -1.08960580E+01 -1.08952753E+01 -1.18475020E+00 -9.77401463E-01 -8.47414623E-01
 -7.94968689E-01 -7.28485825E-01 -6.66980269E-01 -2.94638868E-01 -1.46899934E-01
 -1.26323990E-01 -1.24501411E-01 -9.70857453E-02 -7.77275688E-02 -6.88452547E-02
 -4.80783680E-02 -4.46453130E-02 -2.52009121E-02 -5.45615765E-03  1.91909513E-02
  7.47556768E-02  1.07945404E-01  2.03331052E-01  2.28481975E-01  2.82971628E-01
  2.92346608E-01  3.14272753E-01  3.78001524E-01  4.01478583E-01  4.54367038E-01
  4.60503836E-01  4.86465685E-01  5.62475992E-01  5.99107956E-01  7.45536869E-01
  7.96329548E-01  8.60000066E-01  1.13074701E+00  1.16058176E+00  1.19361200E+00
  1.29831596E+00  1.31299064E+00  1.35506694E+00  1.36487563E+00  1.49590969E+00
  1.55031500E+00  1.69159069E+00  1.75119575E+00  1.76081243E+00  1.84971751E+00
  1.86978225E+00  1.92206074E+00  2.13342066E+00  2.17092858E+00  2.28081965E+00
  2.32148263E+00  2.40088408E+00  2.42289238E+00  2.43035552E+00  2.52576324E+00
  2.57260625E+00  2.77432507E+00  2.98621147E+00  3.40032048E+00  3.54021153E+00
  3.84668120E+00  2.35195287E+01  2.37420228E+01
Beta Orbital Energies                      R   N=          68
 -1.08937507E+01 -1.08931077E+01 -1.14496764E+00 -9.58148952E-01 -8.36329372E-01
 -7.85516585E-01 -7.25285801E-01 -4.21131894E-01 -2.23834672E-01 -1.64428930E-01
 -1.25788608E-01 -1.25776520E-01 -1.02100265E-01 -8.64379263E-02 -6.94549255E-02
 -4.76768362E-02 -3.66872742E-02 -2.02706310E-02 -8.61989600E-03  2.22095613E-02
  8.87791721E-02  1.12530519E-01  1.96666795E-01  2.22642323E-01  2.98233175E-01
  3.00345290E-01  3.01351742E-01  3.69202047E-01  4.13030615E-01  4.70794013E-01
  4.71882377E-01  4.99129456E-01  5.32847594E-01  5.89193242E-01  7.80476697E-01
  8.34305441E-01  8.84064179E-01  1.17078854E+00  1.17782885E+00  1.20232556E+00
  1.32931490E+00  1.34208768E+00  1.36880096E+00  1.37366602E+00  1.51134034E+00
  1.57193713E+00  1.71718788E+00  1.77584221E+00  1.78220644E+00  1.87113103E+00
  1.88609600E+00  1.95989552E+00  2.16696338E+00  2.20170874E+00  2.29022187E+00
  2.32745741E+00  2.41320822E+00  2.44010582E+00  2.46833574E+00  2.54922051E+00
  2.61917431E+00  2.81306793E+00  3.01452391E+00  3.44762976E+00  3.58733901E+00
  3.90169693E+00  2.35320784E+01  2.37577689E+01
Alpha MO coefficients                      R   N=        4624
  3.98918507E-01  3.27947945E-01 -1.09957191E-07 -8.21883460E-04  0.00000000E+00
  8.74065812E-03  1.81648650E-07  1.77260344E-03  0.00000000E+00 -2.27790056E-03
 -7.93489035E-07  1.00788519E-04  0.00000000E+00 -6.27987010E-04  3.70085699E-07
 -6.60554871E-04  0.00000000E+00 -6.80228919E-04  0.00000000E+00  0.00000000E+00
  8.28716322E-04 -9.11676846E-07  3.98918507E-01  3.27947945E-01  1.09957191E-07
  8.21883460E-04  0.00000000E+00  8.74065812E-03 -1.81648650E-07 -1.77260344E-03
  0.00000000E+00 -2.27790056E-03  7.93489035E-07 -1.00788519E-04  0.00000000E+00
 -6.27987010E-04 -3.70085699E-07  6.60554871E-04  0.00000000E+00 -6.80228919E-04
  0.00000000E+00  0.00000000E+00  8.28716322E-04 -9.11676846E-07  1.67908743E-04
 -2.39327652E-03  1.61366423E-03 -1.27609054E-03  7.22791336E-04  0.00000000E+00
  1.67940412E-04 -2.39172124E-03  1.61319393E-03  1.27601807E-03  7.21915053E-04
  0.00000000E+00  1.67908743E-04 -2.39327652E-03  1.61366423E-03  1.27609054E-03
 -7.22791336E-04  0.00000000E+00  1.67940412E-04 -2.39172124E-03  1.61319393E-03
 -1.27601807E-03 -7.21915053E-04  0.00000000E+00  3.99003417E-01  3.27934411E-01
 -1.94228489E-08  1.47399982E-04  0.00000000E+00  8.49724317E-03 -2.10919722E-08
 -1.30376584E-03  0.00000000E+00 -3.58965899E-03  4.93029435E-08  1.09166846E-03
  0.00000000E+00  3.49248502E-03 -5.60148074E-08 -1.37453669E-03  0.00000000E+00
 -1.17712157E-03  0.00000000E+00  0.00000000E+00 -8.60732076E-04 -3.14638446E-07
 -3.99003417E-01 -3.27934411E-01 -1.94228489E-08  1.47399982E-04  0.00000000E+00
 -8.49724317E-03 -2.10919722E-08 -1.30376584E-03  0.00000000E+00  3.58965899E-03
  4.93029435E-08  1.09166846E-03  0.00000000E+00 -3.49248502E-03 -5.60148074E-08
 -1.37453669E-03  0.00000000E+00  1.17712157E-03  0.00000000E+00  0.00000000E+00
  8.60732076E-04  3.14638446E-07  3.18049859E-04 -1.37035312E-03  1.02681897E-03
 -8.28565971E-04  3.37353151E-04  0.00000000E+00  3.18241820E-04 -1.37005097E-03
  1.02665107E-03  8.28382732E-04  3.37115687E-04  0.00000000E+00 -3.18049859E-04
  1.37035312E-03 -1.02681897E-03 -8.28565971E-04  3.37353151E-04  0.00000000E+00
 -3.18241820E-04  1.37005097E-03 -1.02665107E-03  8.28382732E-04  3.37115687E-04
  0.00000000E+00 -8.55606655E-02 -1.38574707E-01  3.91193401E-06 -5.06783583E-02
  0.00000000E+00  3.71627795E-01  2.22375298E-06 -7.68158804E-02  0.00000000E+00
  1.98799195E-01  2.24308308E-06 -2.03991813E-02  0.00000000E+00  1.46964532E-04
 -8.06303630E-07  1.07468041E-02  0.00000000E+00 -6.28762043E-03  0.00000000E+00
  0.00000000E+00 -1.05743221E-02 -2.99354717E-06 -8.55606655E-02 -1.38574707E-01
 -3.91193401E-06  5.06783583E-02  0.00000000E+00  3.71627795E-01 -2.22375298E-06
  7.68158804E-02  0.00000000E+00  1.98799195E-01 -2.24308308E-06  2.03991813E-02
  0.00000000E+00  1.46964532E-04  8.06303630E-07 -1.07468041E-02  0.00000000E+00
 -6.28762043E-03  0.00000000E+00  0.00000000E+00 -1.05743221E-02 -2.99354717E-06
  4.89433059E-02  5.19201724E-02 -1.00906012E-02  8.54848882E-03 -6.62298610E-03
  0.00000000E+00  4.89518869E-02  5.19272320E-02 -1.00899746E-02 -8.55508584E-03
 -6.62090341E-03  0.00000000E+00  4.89433059E-02  5.19201724E-02 -1.00906012E-02
 -8.54848882E-03  6.62298610E-03  0.00000000E+00  4.89518869E-02  5.19272320E-02
 -1.00899746E-02  8.55508584E-03  6.62090341E-03  0.00000000E+00 -7.13708800E-02
 -1.17213016E-01  3.65360335E-06  7.30588933E-02  0.00000000E+00  3.23632177E-01
  5.82447484E-06  1.09429322E-01  0.00000000E+00  2.72189442E-01  4.54132858E-06
  2.64244391E-02  0.00000000E+00 -8.09048496E-02  1.99958227E-07  2.57404096E-02
  0.00000000E+00 -6.03276348E-04  0.00000000E+00  0.00000000E+00  1.19026614E-02
 -5.00283676E-06  7.13708800E-02  1.17213016E-01  3.65360335E-06  7.30588933E-02
  0.00000000E+00 -3.23632177E-01  5.82447484E-06  1.09429322E-01  0.00000000E+00
 -2.72189442E-01  4.54132858E-06  2.64244391E-02  0.00000000E+00  8.09048496E-02
  1.99958227E-07  2.57404096E-02  0.00000000E+00  6.03276348E-04  0.00000000E+00
  0.00000000E+00 -1.19026614E-02  5.00283676E-06  8.68195354E-02  1.02865415E-01
 -2.75025795E-03  1.35486216E-02 -5.03637950E-03  0.00000000E+00  8.68005932E-02
  1.02840665E-01 -2.75034046E-03 -1.35482833E-02 -5.02817165E-03  0.00000000E+00
 -8.68195354E-02 -1.02865415E-01  2.75025795E-03  1.35486216E-02 -5.03637950E-03
  0.00000000E+00 -8.68005932E-02 -1.02840665E-01  2.75034046E-03 -1.35482833E-02
 -5.02817165E-03  0.00000000E+00 -1.31371249E-07 -3.09424496E-07  1.59892725E-01
 -1.38710831E-05  0.00000000E+00  2.32176862E-07  2.40302009E-01 -1.30871101E-05
  0.00000000E+00  2.18790863E-05  1.39563831E-01 -2.00328914E-05  0.00000000E+00
  8.53282993E-05  4.32230756E-03 -2.42962645E-05  0.00000000E+00 -1.39454752E-06
  0.00000000E+00  0.00000000E+00  9.79388788E-06 -5.45505680E-03  1.31371249E-07
  3.09424496E-07  1.59892725E-01 -1.38710831E-05  0.00000000E+00 -2.32176862E-07
  2.40302009E-01 -1.30871101E-05  0.00000000E+00 -2.18790863E-05  1.39563831E-01
 -2.00328914E-05  0.00000000E+00 -8.53282993E-05  4.32230756E-03 -2.42962645E-05
  0.00000000E+00  1.39454752E-06  0.00000000E+00  0.00000000E+00 -9.79388788E-06
  5.45505680E-03 -9.43634076E-02 -1.17579995E-01  3.39848948E-03 -9.42177316E-03
  9.22465661E-03  0.00000000E+00  9.43801859E-02  1.17599323E-01 -3.40205442E-03
 -9.42508796E-03 -9.21795703E-03  0.00000000E+00  9.43634076E-02  1.17579995E-01
 -3.39848948E-03 -9.42177316E-03  9.22465661E-03  0.00000000E+00 -9.43801859E-02
 -1.17599323E-01  3.40205442E-03 -9.42508796E-03 -9.21795703E-03  0.00000000E+00
 -1.11552282E-03 -1.85805997E-03 -7.54816721E-05  1.94401118E-01  0.00000000E+00
 -6.25965273E-04 -1.04089470E-04  2.89821339E-01  0.00000000E+00  5.18299360E-02
 -9.57496677E-05  1.36086437E-01  0.00000000E+00  3.06385564E-03 -2.66746126E-05
 -9.56852545E-03  0.00000000E+00  1.33872386E-03  0.00000000E+00  0.00000000E+00
  2.16166358E-02 -1.82644588E-05 -1.11552282E-03 -1.85805997E-03  7.54816721E-05
 -1.94401118E-01  0.00000000E+00 -6.25965273E-04  1.04089470E-04 -2.89821339E-01
  0.00000000E+00  5.18299360E-02  9.57496677E-05 -1.36086437E-01  0.00000000E+00
  3.06385564E-03  2.66746126E-05  9.56852545E-03  0.00000000E+00  1.33872386E-03
  0.00000000E+00  0.00000000E+00  2.16166358E-02 -1.82644588E-05  7.64421302E-02
  1.04609141E-01  1.75384654E-02  1.13653630E-02  1.87435523E-03  0.00000000E+00
  7.62893371E-02  1.04414587E-01  1.75588071E-02 -1.13502626E-02  1.89501959E-03
  0.00000000E+00  7.64421302E-02  1.04609141E-01  1.75384654E-02 -1.13653630E-02
 -1.87435523E-03  0.00000000E+00  7.62893371E-02  1.04414587E-01  1.75588071E-02
  1.13502626E-02 -1.89501959E-03  0.00000000E+00  5.96486997E-06  1.00100489E-05
  1.57567042E-01  1.06754723E-04  0.00000000E+00 -3.49421983E-05  2.36334366E-01
  1.63281729E-04  0.00000000E+00 -9.92504279E-06  1.83512372E-01  7.33237023E-05
  0.00000000E+00 -1.80709451E-06  1.72104592E-02 -1.45908768E-05  0.00000000E+00
 -6.97972601E-07  0.00000000E+00  0.00000000E+00  2.47569449E-05  3.04382958E-02
  5.96486997E-06  1.00100489E-05 -1.57567042E-01 -1.06754723E-04  0.00000000E+00
 -3.49421983E-05 -2.36334366E-01 -1.63281729E-04  0.00000000E+00 -9.92504279E-06
 -1.83512372E-01 -7.33237023E-05  0.00000000E+00 -1.80709451E-06 -1.72104592E-02
  1.45908768E-05  0.00000000E+00 -6.97972601E-07  0.00000000E+00  0.00000000E+00
  2.47569449E-05  3.04382958E-02 -1.14036910E-01 -1.55088048E-01 -1.97347343E-02
 -6.33957176E-03  8.99622935E-03  0.00000000E+00  1.14137671E-01  1.55237789E-01
  1.97856936E-02 -6.36054280E-03 -8.98858936E-03  0.00000000E+00 -1.14036910E-01
 -1.55088048E-01 -1.97347343E-02  6.33957176E-03 -8.99622935E-03  0.00000000E+00
  1.14137671E-01  1.55237789E-01  1.97856936E-02  6.36054280E-03  8.98858936E-03
  0.00000000E+00  0.00000000E+00  0.00000000E+00  0.00000000E+00  0.00000000E+00
  1.87486347E-01  0.00000000E+00  0.00000000E+00  0.00000000E+00  3.15150889E-01
  0.00000000E+00  0.00000000E+00  0.00000000E+00  2.34661349E-01  0.00000000E+00
  0.00000000E+00  0.00000000E+00 -4.87979206E-03  0.00000000E+00  8.64994379E-07
 -3.11579635E-02  0.00000000E+00  0.00000000E+00  0.00000000E+00  0.00000000E+00
  0.00000000E+00  0.00000000E+00  1.87486347E-01  0.00000000E+00  0.00000000E+00
  0.00000000E+00  3.15150889E-01  0.00000000E+00  0.00000000E+00  0.00000000E+00
  2.34661349E-01  0.00000000E+00  0.00000000E+00  0.00000000E+00 -4.87979206E-03
  0.00000000E+00 -8.64994379E-07  3.11579635E-02  0.00000000E+00  0.00000000E+00
  0.00000000E+00  0.00000000E+00  0.00000000E+00  0.00000000E+00  0.00000000E+00
  9.68620922E-03  0.00000000E+00  0.00000000E+00  0.00000000E+00  0.00000000E+00
  0.00000000E+00  9.68563799E-03  0.00000000E+00  0.00000000E+00  0.00000000E+00
  0.00000000E+00  0.00000000E+00  9.68620922E-03  0.00000000E+00  0.00000000E+00
  0.00000000E+00  0.00000000E+00  0.00000000E+00  9.68563799E-03  0.00000000E+00
  0.00000000E+00  0.00000000E+00  0.00000000E+00  2.05261792E-01  0.00000000E+00
  0.00000000E+00  0.00000000E+00  3.40134802E-01  0.00000000E+00  0.00000000E+00
  0.00000000E+00  4.64687239E-01  0.00000000E+00  0.00000000E+00  0.00000000E+00
  1.39594017E-01  0.00000000E+00  1.04681829E-06  2.43363426E-02  0.00000000E+00
  0.00000000E+00  0.00000000E+00  0.00000000E+00  0.00000000E+00  0.00000000E+00
 -2.05261792E-01  0.00000000E+00  0.00000000E+00  0.00000000E+00 -3.40134802E-01
  0.00000000E+00  0.00000000E+00  0.00000000E+00 -4.64687239E-01  0.00000000E+00
  0.00000000E+00  0.00000000E+00 -1.39594017E-01  0.00000000E+00  1.04681829E-06
  2.43363426E-02  0.00000000E+00  0.00000000E+00  0.00000000E+00  0.00000000E+00
  0.00000000E+00  0.00000000E+00  0.00000000E+00  1.85369193E-02  0.00000000E+00
  0.00000000E+00  0.00000000E+00  0.00000000E+00  0.00000000E+00  1.85325939E-02
  0.00000000E+00  0.00000000E+00  0.00000000E+00  0.00000000E+00  0.00000000E+00
 -1.85369193E-02  0.00000000E+00  0.00000000E+00  0.00000000E+00  0.00000000E+00
  0.00000000E+00 -1.85325939E-02  3.02030132E-02  5.23535454E-02 -1.59814122E-05
 -4.55202831E-02  0.00000000E+00 -1.66469178E-01 -1.84215446E-05 -6.85003682E-02
  0.00000000E+00 -6.55432898E-01 -1.83677120E-04 -2.13080172E-01  0.00000000E+00
  8.42372578E-01 -2.76540811E-04  1.33171440E-01  0.00000000E+00  1.05383779E-02
  0.00000000E+00  0.00000000E+00  5.58996241E-03  5.01155474E-06  3.02030132E-02
  5.23535454E-02  1.59814122E-05  4.55202831E-02  0.00000000E+00 -1.66469178E-01
  1.84215446E-05  6.85003682E-02  0.00000000E+00 -6.55432898E-01  1.83677120E-04