Title Card Required                                                     
FOpt      UM062X                                                      6-311+G(d,p)        
Number of atoms                            I                4
Info1-9                                    I   N=           9
          13          13           0           0           0         110
           2          18        -502
Full Title                                 C   N=           2
Title Card Required     
Route                                      C   N=           4
#p opt UM062X/6-311+G** nosymm int=superfine    
Charge                                     I                1
Multiplicity                               I                2
Number of electrons                        I               13
Number of alpha electrons                  I                7
Number of beta electrons                   I                6
Number of basis functions                  I               56
Number of independent functions            I               56
Number of point charges in /Mol/           I                0
Number of translation vectors              I                0
Atomic numbers                             I   N=           4
           6           6           1           1
Nuclear charges                            R   N=           4
  6.00000000E+00  6.00000000E+00  1.00000000E+00  1.00000000E+00
Current cartesian coordinates              R   N=          12
 -4.07644161E+00  0.00000000E+00  0.00000000E+00  4.07644161E+00  0.00000000E+00
  0.00000000E+00 -6.18822955E+00 -4.45020482E-08  4.45025650E-08  6.18822793E+00
 -7.06330497E-14 -3.83993790E-14
Number of symbols in /Mol/                 I                0
Force Field                                I                0
Atom Types                                 C   N=           4
                                                
Int Atom Types                             I   N=           4
           0           0           0           0
MM charges                                 R   N=           4
  0.00000000E+00  0.00000000E+00  0.00000000E+00  0.00000000E+00
Integer atomic weights                     I   N=           4
          12          12           1           1
Real atomic weights                        R   N=           4
  1.20000000E+01  1.20000000E+01  1.00782504E+00  1.00782504E+00
Atom fragment info                         I   N=           4
           0           0           0           0
Atom residue num                           I   N=           4
           0           0           0           0
Nuclear spins                              I   N=           4
           0           0           1           1
Nuclear ZEff                               R   N=           4
 -3.60000000E+00 -3.60000000E+00 -1.00000000E+00 -1.00000000E+00
Nuclear ZNuc                               R   N=           4
  6.00000000E+00  6.00000000E+00  1.00000000E+00  1.00000000E+00
Nuclear QMom                               R   N=           4
  0.00000000E+00  0.00000000E+00  0.00000000E+00  0.00000000E+00
Nuclear GFac                               R   N=           4
  0.00000000E+00  0.00000000E+00  2.79284600E+00  2.79284600E+00
MicOpt                                     I   N=           4
          -2          -2          -1          -1
Number of residues                         I                0
Number of secondary structures             I                0
Redundant internal dimensions              I   N=           4
          12           8           4           0
Redundant internal coordinate indices      I   N=          48
           1          -1           0           0           1          -2
           0           0           1          -3           0           0
           2          -1           0           0           2          -2
           0           0           2          -3           0           0
           1           3           0           0           2           4
           0           0           2           1           3          -4
           1           2           4          -4           2           1
           3          -8           1           2           4          -8
Redundant internal coordinates             R   N=          12
 -4.07644161E+00  0.00000000E+00  0.00000000E+00  4.07644161E+00  0.00000000E+00
  0.00000000E+00  2.11178794E+00  2.11178633E+00  3.14159263E+00  3.14159265E+00
  3.14159263E+00  3.14159265E+00
ZRed-IntVec                                I   N=          12
          -1          -1          -1          -1          -1          -1
           0           0           0           0           0           0
ZRed-FPVec                                 R   N=          12
  0.00000000E+00  0.00000000E+00  0.00000000E+00  0.00000000E+00  0.00000000E+00
  0.00000000E+00  0.00000000E+00  0.00000000E+00  0.00000000E+00  0.00000000E+00
  0.00000000E+00  0.00000000E+00
ZRed-Constraint1                           R   N=          12
 -4.07644161E+00  0.00000000E+00  0.00000000E+00  4.07644161E+00  0.00000000E+00
  0.00000000E+00  2.08057524E+00  2.08053366E+00  3.14159263E+00  3.14159265E+00
  3.14159263E+00  3.14159265E+00
ZRed-Constraint2                           R   N=          12
 -4.07644161E+00  0.00000000E+00  0.00000000E+00  4.07644161E+00  0.00000000E+00
  0.00000000E+00  0.00000000E+00  0.00000000E+00  0.00000000E+00  0.00000000E+00
  0.00000000E+00  0.00000000E+00
Number of contracted shells                I               20
Number of primitive shells                 I               38
Pure/Cartesian d shells                    I                0
Pure/Cartesian f shells                    I                0
Highest angular momentum                   I                2
Largest degree of contraction              I                6
Shell types                                I   N=          20
           0          -1          -1          -1          -1          -2
           0          -1          -1          -1          -1          -2
           0           0           0           1           0           0
           0           1
Number of primitives per shell             I   N=          20
           6           3           1           1           1           1
           6           3           1           1           1           1
           3           1           1           1           3           1
           1           1
Shell to atom map                          I   N=          20
           1           1           1           1           1           1
           2           2           2           2           2           2
           3           3           3           3           4           4
           4           4
Primitive exponents                        R   N=          38
  4.56324000E+03  6.82024000E+02  1.54973000E+02  4.44553000E+01  1.30290000E+01
  1.82773000E+00  2.09642000E+01  4.80331000E+00  1.45933000E+00  4.83456000E-01
  1.45585000E-01  4.38000000E-02  6.26000000E-01  4.56324000E+03  6.82024000E+02
  1.54973000E+02  4.44553000E+01  1.30290000E+01  1.82773000E+00  2.09642000E+01
  4.80331000E+00  1.45933000E+00  4.83456000E-01  1.45585000E-01  4.38000000E-02
  6.26000000E-01  3.38650000E+01  5.09479000E+00  1.15879000E+00  3.25840000E-01
  1.02741000E-01  7.50000000E-01  3.38650000E+01  5.09479000E+00  1.15879000E+00
  3.25840000E-01  1.02741000E-01  7.50000000E-01
Contraction coefficients                   R   N=          38
  1.96665025E-03  1.52306019E-02  7.61269097E-02  2.60801033E-01  6.16462078E-01
  2.21006028E-01  1.14660081E-01  9.19999648E-01 -3.03068213E-03  1.00000000E+00
  1.00000000E+00  1.00000000E+00  1.00000000E+00  1.96665025E-03  1.52306019E-02
  7.61269097E-02  2.60801033E-01  6.16462078E-01  2.21006028E-01  1.14660081E-01
  9.19999648E-01 -3.03068213E-03  1.00000000E+00  1.00000000E+00  1.00000000E+00
  1.00000000E+00  2.54938145E-02  1.90373109E-01  8.52161486E-01  1.00000000E+00
  1.00000000E+00  1.00000000E+00  2.54938145E-02  1.90373109E-01  8.52161486E-01
  1.00000000E+00  1.00000000E+00  1.00000000E+00
P(S=P) Contraction coefficients            R   N=          38
  0.00000000E+00  0.00000000E+00  0.00000000E+00  0.00000000E+00  0.00000000E+00
  0.00000000E+00  4.02486927E-02  2.37593957E-01  8.15853851E-01  1.00000000E+00
  1.00000000E+00  1.00000000E+00  0.00000000E+00  0.00000000E+00  0.00000000E+00
  0.00000000E+00  0.00000000E+00  0.00000000E+00  0.00000000E+00  4.02486927E-02
  2.37593957E-01  8.15853851E-01  1.00000000E+00  1.00000000E+00  1.00000000E+00
  0.00000000E+00  0.00000000E+00  0.00000000E+00  0.00000000E+00  0.00000000E+00
  0.00000000E+00  0.00000000E+00  0.00000000E+00  0.00000000E+00  0.00000000E+00
  0.00000000E+00  0.00000000E+00  0.00000000E+00
Coordinates of each shell                  R   N=          60
 -4.07644161E+00  0.00000000E+00  0.00000000E+00 -4.07644161E+00  0.00000000E+00
  0.00000000E+00 -4.07644161E+00  0.00000000E+00  0.00000000E+00 -4.07644161E+00
  0.00000000E+00  0.00000000E+00 -4.07644161E+00  0.00000000E+00  0.00000000E+00
 -4.07644161E+00  0.00000000E+00  0.00000000E+00  4.07644161E+00  0.00000000E+00
  0.00000000E+00  4.07644161E+00  0.00000000E+00  0.00000000E+00  4.07644161E+00
  0.00000000E+00  0.00000000E+00  4.07644161E+00  0.00000000E+00  0.00000000E+00
  4.07644161E+00  0.00000000E+00  0.00000000E+00  4.07644161E+00  0.00000000E+00
  0.00000000E+00 -6.18822955E+00 -4.45020482E-08  4.45025650E-08 -6.18822955E+00
 -4.45020482E-08  4.45025650E-08 -6.18822955E+00 -4.45020482E-08  4.45025650E-08
 -6.18822955E+00 -4.45020482E-08  4.45025650E-08  6.18822793E+00 -7.06330497E-14
 -3.83993790E-14  6.18822793E+00 -7.06330497E-14 -3.83993790E-14  6.18822793E+00
 -7.06330497E-14 -3.83993790E-14  6.18822793E+00 -7.06330497E-14 -3.83993790E-14
Num ILSW                                   I              100
ILSW                                       I   N=         100
           1           0           0           0           2           0
           0           0           0           0        4336          -1
           7           0           0           0           2           0
           0           0           0           0           1           0
           1           1           0           0           0           0
           0           0      100000           0          -1           0
           0           0           0           0           0           0
           0           0           0           1           0           0
           0 -2000000000           1           0           0           0
           0           0           4          52           0           0
           0           0          55           0           0           0
           0           0           0           4           0           1
           0           0           0           0           0           0
           0           0           0           0           0           0
           0           0           0           0           0           0
           0           0           0           0           0           0
           0           0           0           0
Num RLSW                                   I               52
RLSW                                       R   N=          52
  1.00000000E+00  1.00000000E+00  1.00000000E+00  1.00000000E+00  5.40000000E-01
  0.00000000E+00  0.00000000E+00  1.00000000E+00  0.00000000E+00  0.00000000E+00
  0.00000000E+00  0.00000000E+00  1.00000000E+00  0.00000000E+00  0.00000000E+00
  0.00000000E+00  0.00000000E+00  1.00000000E+00  0.00000000E+00  0.00000000E+00
  0.00000000E+00  0.00000000E+00  1.00000000E+00  0.00000000E+00  0.00000000E+00
  0.00000000E+00  0.00000000E+00  1.00000000E+00  0.00000000E+00  0.00000000E+00
  0.00000000E+00  0.00000000E+00  1.00000000E+00  0.00000000E+00  0.00000000E+00
  0.00000000E+00  0.00000000E+00  0.00000000E+00  1.00000000E+00  1.00000000E+00
  0.00000000E+00  1.00000000E+00  0.00000000E+00  0.00000000E+00  0.00000000E+00
  0.00000000E+00  0.00000000E+00  0.00000000E+00  0.00000000E+00  0.00000000E+00
  0.00000000E+00  0.00000000E+00
MxBond                                     I                2
NBond                                      I   N=           4
           2           2           1           1
IBond                                      I   N=           8
           2           3           1           4           1           0
           2           0
RBond                                      R   N=           8
  1.00000000E-01  1.00000000E+00  1.00000000E-01  1.00000000E+00  1.00000000E+00
  0.00000000E+00  1.00000000E+00  0.00000000E+00
Virial Ratio                               R      2.002877147650057E+00
SCF Energy                                 R     -7.658410100559189E+01
Total Energy                               R     -7.658410100559189E+01
S**2                                       R      7.513482119778692E-01
S**2 after annihilation                    R      7.500013097689617E-01
RMS Force                                  R      1.213638354714292E-04
RMS Density                                R      4.546621943823561E-09
Job Status                                 I                1
Nuclear derivative order                   I                1
External E-field                           R   N=          35
  0.00000000E+00  0.00000000E+00  0.00000000E+00  0.00000000E+00  0.00000000E+00
  0.00000000E+00  0.00000000E+00  0.00000000E+00  0.00000000E+00  0.00000000E+00
  0.00000000E+00  0.00000000E+00  0.00000000E+00  0.00000000E+00  0.00000000E+00
  0.00000000E+00  0.00000000E+00  0.00000000E+00  0.00000000E+00  0.00000000E+00
  0.00000000E+00  0.00000000E+00  0.00000000E+00  0.00000000E+00  0.00000000E+00
  0.00000000E+00  0.00000000E+00  0.00000000E+00  0.00000000E+00  0.00000000E+00
  0.00000000E+00  0.00000000E+00  0.00000000E+00  0.00000000E+00  0.00000000E+00
IOpCl                                      I                1
IROHF                                      I                0
Alpha Orbital Energies                     R   N=          56
 -1.09398278E+01 -1.09398237E+01 -9.76809214E-01 -9.76137314E-01 -6.31694963E-01
 -6.26318731E-01 -4.71426217E-01 -4.06218669E-01 -3.27737395E-01 -3.26099226E-01
 -1.19113655E-01 -1.11257979E-01 -7.43397429E-02 -7.09486712E-02 -5.88118335E-02
 -4.60942468E-02 -4.30116642E-02 -1.58597363E-02 -2.11667233E-03  5.43832627E-02
  2.84438135E-01  2.84907679E-01  3.70806292E-01  3.79343878E-01  3.79430504E-01
  3.79493149E-01  3.88794305E-01  4.38587248E-01  5.14562922E-01  5.92417754E-01
  8.98840292E-01  9.00396236E-01  9.01224524E-01  9.02127214E-01  1.08213272E+00
  1.08252161E+00  1.09264734E+00  1.09303223E+00  1.36010643E+00  1.36343139E+00
  1.63272860E+00  1.63368622E+00  1.63556255E+00  1.63663996E+00  2.15804279E+00
  2.18527049E+00  2.28464205E+00  2.29942626E+00  2.44176345E+00  2.45034239E+00
  2.45598589E+00  2.46465874E+00  2.93751354E+00  2.96290063E+00  2.32544663E+01
  2.32745953E+01
Beta Orbital Energies                      R   N=          56
 -1.09356815E+01 -1.09356793E+01 -9.52899910E-01 -9.52737934E-01 -6.18110201E-01
 -6.12306508E-01 -3.09091396E-01 -3.06972031E-01 -2.92985196E-01 -2.90487335E-01
 -1.23396078E-01 -1.10617562E-01 -6.70594117E-02 -6.30283035E-02 -5.84959416E-02
 -3.82215842E-02 -2.87093724E-02 -1.88966531E-02  1.39308432E-02  7.19147781E-02
  2.76476727E-01  2.78986163E-01  3.73753039E-01  3.76755092E-01  3.87062016E-01
  3.88470636E-01  4.15929274E-01  4.61148637E-01  5.33668309E-01  6.18141036E-01
  9.71483505E-01  9.73278033E-01  9.80578122E-01  9.82316284E-01  1.11505679E+00
  1.11506082E+00  1.11516175E+00  1.11516195E+00  1.36474056E+00  1.36709929E+00
  1.65050628E+00  1.65139404E+00  1.65718442E+00  1.65810265E+00  2.31500767E+00
  2.32804031E+00  2.33343447E+00  2.36602639E+00  2.46767818E+00  2.47645572E+00
  2.49114179E+00  2.49985921E+00  3.04272702E+00  3.06019735E+00  2.32677309E+01
  2.32878938E+01
Alpha MO coefficients                      R   N=        3136
  4.04747921E-01  3.33441283E-01 -1.43138794E-03 -2.32284265E-11  1.67334820E-11
  6.78568723E-03 -8.30435415E-04 -2.40770775E-11  2.96729608E-11 -2.99776153E-03
 -1.96403696E-04  2.33019718E-12 -5.69765324E-12  1.18202447E-04  6.28724149E-04
  1.12004914E-11 -9.96264886E-12 -3.57457951E-04 -3.08184645E-11  9.76936493E-06
  6.01655123E-04  2.79847565E-11  3.92817239E-01  3.23613084E-01  1.38935292E-03
 -3.40426988E-12  8.69843058E-12  6.57979635E-03  8.06221699E-04  1.86798416E-12
 -3.96201434E-12 -2.87935144E-03  2.00376536E-04  1.19090653E-13  1.12295559E-12
  8.63679079E-05 -5.79664106E-04 -2.75517884E-12  2.23373069E-12 -3.47653569E-04
 -2.01097756E-12  9.41775173E-06  5.85302783E-04  9.66491569E-13  2.96707726E-04
 -2.04958963E-03  1.86824253E-03 -1.32544804E-03 -2.83921472E-11  2.86612204E-11
  2.88180271E-04 -1.99459025E-03  1.79206967E-03  1.28878546E-03 -5.77037055E-14
  1.54686865E-13 -3.92818456E-01 -3.23593754E-01  1.38392618E-03  2.24663518E-11
 -1.62302818E-11 -6.78217776E-03  7.97377463E-04  2.31370730E-11 -2.85812756E-11
  3.91385402E-03 -1.35766484E-04 -9.30641939E-12  1.24573736E-11 -1.06243956E-03
 -1.63082009E-03 -1.45743236E-11  1.35993491E-11  3.22506283E-04  2.69096860E-11
 -1.16083934E-05 -5.37819260E-04 -2.40843683E-11  4.04749102E-01  3.33422521E-01
  1.42612123E-03 -3.62374708E-12  8.74960359E-12  6.98211671E-03  8.21867821E-04
  3.69748812E-12 -6.30406298E-12 -4.00176850E-03 -1.29831570E-04 -3.10880256E-12
  3.87726835E-12  1.06549712E-03 -1.64889705E-03  4.13325302E-12 -4.39536052E-12
 -3.33055896E-04 -1.70944396E-12  1.18953863E-05  5.55578211E-04  7.12225553E-13
 -2.80613774E-04  1.80848563E-03 -2.51890589E-03  1.20610712E-03  2.50231694E-11
 -2.52966030E-11  2.89361699E-04 -1.86899228E-03  2.57366618E-03  1.24521920E-03
 -7.59743020E-14  1.66467992E-13 -7.99580607E-02 -1.30519946E-01 -5.56782669E-02
 -8.04535642E-10  3.84896683E-10  3.84715061E-01 -8.58738287E-02 -1.21542251E-09
  5.68146852E-10  2.44078385E-01 -2.88617667E-02 -4.32807188E-10  1.50046689E-10
 -3.55003673E-03 -2.96125325E-03 -9.97168539E-11  1.36121989E-10 -3.86668960E-03
 -3.94987946E-10 -3.43801489E-04  7.31386862E-03  3.50385178E-10 -7.99809667E-02
 -1.30557307E-01  5.56944692E-02 -1.79286740E-10  3.72634530E-10  3.84824659E-01
  8.58986797E-02 -2.82371116E-10  5.81571076E-10  2.44151662E-01  2.88712209E-02
 -1.66698086E-10  3.29627796E-10 -3.55421925E-03  2.96624203E-03  4.83801400E-11
 -6.15643414E-11 -3.86790990E-03 -4.19714008E-11 -3.43867102E-04  7.31610008E-03
  2.22635335E-11  9.78718485E-02  1.22755575E-01 -4.12080604E-03  1.69918520E-02
  3.26303653E-10 -2.94321103E-10  9.79001273E-02  1.22790663E-01 -4.12500622E-03
 -1.69965773E-02  1.18489055E-11 -2.39295968E-11 -7.99121245E-02 -1.30351688E-01
 -5.61722049E-02 -8.23093093E-10  4.18101922E-10  3.82547361E-01 -8.63336925E-02
 -1.24012120E-09  6.14051578E-10  2.56132008E-01 -3.29433345E-02 -5.35525804E-10
  2.69984105E-10 -1.46415457E-02 -1.74323169E-02 -1.50443568E-10  1.78499825E-10
 -4.22344775E-03 -4.25003627E-10 -2.23653734E-04  7.71640463E-03  3.76417847E-10
  7.98891648E-02  1.30314206E-01 -5.61563190E-02  1.17458260E-10 -2.37844790E-10
 -3.82436835E-01 -8.63091426E-02  2.04829418E-10 -3.88310509E-10 -2.56061797E-01
 -3.29350639E-02  3.22408918E-11 -9.64090028E-11  1.46405215E-02 -1.74314642E-02
  5.11661217E-11 -3.73714600E-11  4.22234802E-03  3.91885435E-11  2.23556489E-04
 -7.71432560E-03 -2.12002834E-11  9.81600580E-02  1.22042625E-01 -1.46217718E-02
  1.64442593E-02  3.09925940E-10 -2.76941123E-10 -9.81320977E-02 -1.22007473E-01
  1.46206029E-02  1.64393906E-02 -1.35587004E-11  2.91503303E-11 -4.14260726E-02
 -6.89907369E-02  1.66203236E-01  5.79501330E-09 -8.52034810E-09  2.12667724E-01
  2.45555228E-01  8.66987143E-09 -1.28106808E-08  2.56142741E-01  1.48255112E-01
  5.56729355E-09 -8.59407587E-09  1.82304811E-02 -2.75148759E-03 -9.53662670E-11
  1.36228578E-10  1.45442096E-02  1.09189915E-09 -6.74074490E-05 -2.50705782E-02
 -1.07801308E-09 -4.14262574E-02 -6.89910467E-02 -1.66203877E-01 -1.02530361E-09
  2.12570220E-09  2.12668674E-01 -2.45556132E-01 -1.57647330E-09  3.25127702E-09
  2.56143996E-01 -1.48255581E-01 -1.18817563E-09  2.47337857E-09  1.82305638E-02
  2.75150092E-03  1.59402019E-11 -4.99431404E-11  1.45442700E-02 -1.88206693E-11
 -6.74077390E-05 -2.50706823E-02  8.04778903E-12 -9.52599787E-02 -1.66807533E-01
 -7.17825050E-02 -8.10088377E-03 -2.26975720E-11 -1.42403944E-10 -9.52603100E-02
 -1.66808095E-01 -7.17827768E-02  8.10090260E-03 -5.97055106E-11  1.25761378E-10
 -4.27481992E-02 -7.13051158E-02  1.67799556E-01  5.93413733E-09 -8.71868403E-09
  2.21607096E-01  2.48057394E-01  8.87717109E-09 -1.30994101E-08  2.58402005E-01
  1.46009800E-01  5.74230554E-09 -8.84608910E-09  1.77386417E-02  1.28177292E-03
 -4.84071429E-11  9.41637997E-11  1.49473427E-02  1.10939283E-09  6.72462632E-05
 -2.60102127E-02 -1.09404759E-09  4.27480684E-02  7.13048995E-02  1.67798950E-01
  8.14633949E-10 -1.64142882E-09 -2.21606419E-01  2.48056454E-01  1.23472461E-09
 -2.47417884E-09 -2.58401319E-01  1.46009172E-01  9.08866919E-10 -1.80525801E-09
 -1.77385992E-02  1.28178112E-03 -3.06161533E-11  5.89939810E-11 -1.49472933E-02
  4.26974060E-11 -6.72458651E-05  2.60101264E-02 -1.93643861E-11 -9.56670383E-02
 -1.70538979E-01 -7.00002923E-02 -7.81871068E-03 -1.32128715E-11 -1.54733931E-10
  9.56666552E-02  1.70538277E-01  7.00000193E-02 -7.81866929E-03  4.53092855E-11
 -9.36228097E-11 -1.05215179E-09 -1.67354339E-09  9.00957902E-09 -8.47710268E-02
  1.89826798E-01  4.34337858E-09  1.41167397E-08 -1.33351025E-01  2.98610828E-01
  7.48878327E-09  1.20398425E-08 -1.21060646E-01  2.71088505E-01  2.03171254E-09
  1.49130043E-09 -9.43144381E-03  2.11192656E-02  4.23135926E-10 -1.54991500E-02
 -1.25878883E-10 -1.01784571E-09  6.92135395E-03  5.30612764E-10  8.65190393E-10
  1.48174230E-09 -8.47710217E-02  1.89826824E-01 -2.53629926E-09  2.35973029E-09
 -1.33351021E-01  2.98610879E-01 -3.22997841E-09  1.31178435E-09 -1.21060644E-01
  2.71088555E-01 -7.93025671E-10  6.97522540E-10 -9.43144361E-03  2.11192694E-02
  5.06161314E-11  1.54991670E-02 -1.83998185E-10  2.22346114E-10 -6.92136015E-03
 -1.85298855E-09 -3.41698229E-09 -2.13271737E-09  3.47306967E-10 -6.35069229E-03
  1.42209332E-02  8.27432481E-10  1.65295816E-09  8.81688496E-10 -1.33982126E-11
 -6.35069708E-03  1.42209467E-02 -1.22661926E-09 -1.96846208E-09  9.34360526E-09
 -8.49867186E-02  1.90310731E-01  5.35512122E-09  1.46455718E-08 -1.33975102E-01
  3.00009850E-01  8.39067710E-09  1.19474351E-08 -1.20643478E-01  2.70155718E-01
  1.85365540E-09  1.66802451E-09 -1.11551200E-02  2.49793898E-02  5.19015670E-10
 -1.77871029E-02 -1.28088857E-10 -1.17737576E-09  7.94305885E-03 -3.73321901E-10
 -5.87029414E-10 -1.09299900E-09  8.49866877E-02 -1.90310701E-01  1.41357774E-09
 -1.71574624E-09  1.33975057E-01 -3.00009811E-01  3.32747601E-09 -1.18450482E-09
  1.20643439E-01 -2.70155687E-01  8.39764817E-11  7.10277171E-10  1.11551162E-02
 -2.49793857E-02 -1.04220180E-10 -1.77871146E-02  1.68957608E-10 -1.02722568E-10
  7.94306250E-03 -2.03409805E-09 -3.93156719E-09 -2.59709612E-09  3.82067839E-10
 -6.76324503E-03  1.51448311E-02 -6.39088892E-10 -1.08401378E-09 -1.57952055E-09
  4.57299781E-11  6.76324768E-03 -1.51448401E-02  6.76058885E-12  9.08383041E-12
 -2.10702986E-09  1.77825944E-01  7.94122718E-02 -1.63739471E-11 -3.40457313E-09
  2.86971779E-01  1.28153569E-01  6.34824652E-11 -3.20611324E-09  2.75470213E-01
  1.23017039E-01 -3.88299191E-10 -8.89885976E-10  5.06243854E-02  2.26071526E-02
 -7.65419004E-11 -6.81200930E-03 -1.41901780E-10  3.14192166E-10 -1.52537330E-02
 -4.19467970E-11 -7.09310062E-11 -8.94985543E-11  1.77822664E-01  7.94107908E-02
  2.75021794E-10 -1.50126182E-10  2.86966475E-01  1.28151174E-01 -9.68162268E-12
 -5.14543166E-11  2.75465194E-01  1.23014773E-01  1.37722213E-10 -4.20656211E-10
  5.06233977E-02  2.26067067E-02  1.67719248E-10  6.81188391E-03  1.40928600E-10
  6.68674669E-11  1.52534554E-02  2.14762123E-11  7.21105435E-11 -4.54365030E-11
 -1.79237344E-10  1.53441755E-02  6.85224782E-03 -4.58353946E-11 -1.69039154E-10
  2.42807262E-10 -1.59606327E-11  1.53439015E-02  6.85212402E-03 -3.69683021E-12
 -3.87120440E-12  2.11559911E-09 -1.79256215E-01 -8.00505343E-02  7.95314434E-13
  3.42182117E-09 -2.90065254E-01 -1.29534321E-01 -9.87236636E-11  3.25355262E-09
 -2.75563787E-01 -1.23058131E-01  3.53916088E-10  8.75493374E-10 -5.47794525E-02
 -2.44627002E-02  7.46297541E-11  7.03793642E-03  1.41532547E-10 -3.16623290E-10
  1.57597605E-02  4.05870453E-12  1.18002720E-11 -4.50536607E-12  1.79259459E-01
  8.00519670E-02 -7.97161270E-11  5.65398635E-12  2.90070491E-01  1.29536635E-01
  1.14475383E-10 -1.31367860E-10  2.75568836E-01  1.23060361E-01 -2.70421963E-10
  3.34918730E-10  5.47803898E-02  2.44631143E-02  1.42254799E-10  7.03806410E-03
  1.34190754E-10  1.00763802E-10  1.57600494E-02 -1.14055160E-11 -1.72868915E-11
  6.33380689E-11  1.82666973E-10 -1.56068635E-02 -6.96951873E-03  3.69778056E-12
  6.06423629E-11 -4.73559232E-11 -1.13087012E-12  1.56071549E-02  6.96964748E-03
  2.94845562E-02  4.97024523E-02  3.09014502E-02  1.11864018E-09 -8.77446182E-10
 -1.51445373E-01  8.00880302E-02  2.53547924E-09 -2.36309422E-09 -5.39105686E-01
  8.86559977E-02  2.73798682E-09 -1.95926187E-09  9.71054957E-01 -2.39678580E-01
 -6.23076609E-09  3.84734869E-09  5.07540163E-03  3.66991237E-10 -1.52652288E-03
 -6.05448715E-03 -3.62118129E-10  2.94844322E-02  4.97022449E-02 -3.09009931E-02
  1.58567641E-10 -6.01087780E-11 -1.51444712E-01 -8.00873609E-02  2.17351995E-10
 -4.57802238E-11 -5.39103783E-01 -8.86546695E-02  1.63245049E-10  1.96076704E-10
  9.71052395E-01  2.39675240E-01 -2.21912153E-10 -5.90562158E-10  5.07539500E-03
 -5.16429068E-11 -1.52651726E-03 -6.05448496E-03  4.73132601E-11  5.94170955E-03
  1.47058848E-01 -8.61096128E-02 -2.55716604E-03 -1.80852033E-12 -5.51611488E-12
  5.94161095E-03  1.47058087E-01 -8.61097253E-02  2.55705905E-03  1.80245576E-11
 -1.05119821E-11 -2.21381475E-02 -3.81706868E-02 -5.98331761E-02 -9.37477157E-10
  8.51233315E-10  1.32854536E-01 -1.06986857E-01 -2.06008900E-09  2.01100441E-09
  3.01615760E-01 -1.60826482E-01 -1.83811688E-09  1.53299227E-09 -6.54595324E-01
  7.52586272E-01  9.05297501E-09 -8.05010937E-09 -6.28080612E-03 -3.62259057E-10
  1.10314221E-03  8.90128319E-03  3.76647671E-10  2.21382780E-02  3.81709113E-02
 -5.98331538E-02 -6.60739132E-11  3.26804468E-12 -1.32855279E-01 -1.06987079E-01
 -1.68349806E-10  1.62633902E-10 -3.01617833E-01 -1.60826196E-01  7.50827665E-11
 -4.24055991E-10  6.54601019E-01  7.52587736E-01 -7.44113091E-10  1.53147662E-09
  6.28085173E-03  4.52736983E-14 -1.10315011E-03 -8.90134742E-03 -2.32533587E-11
  4.08911234E-03 -1.35033302E-01  2.27974677E-01  1.05955671E-02  1.76792603E-10
 -1.78149504E-10 -4.08921854E-03  1.35033798E-01 -2.27976533E-01  1.05955372E-02
 -2.24123103E-11  2.98655118E-11  1.76263821E-10  2.94322954E-10  8.21616971E-10
 -7.97767509E-02 -3.56231759E-02 -8.38936277E-10  1.08570987E-09 -9.27914166E-02
 -4.14351297E-02 -4.12752616E-09  3.57380277E-09 -2.69477889E-01 -1.20330638E-01
  8.26523650E-10 -3.07635264E-09  6.87099430E-01  3.06811848E-01 -5.74704267E-11
  3.93525056E-03  2.17224043E-11 -4.84507401E-11  8.81280040E-03  3.59488765E-11
  5.52811671E-11  5.53451805E-11 -7.97767149E-02 -3.56231587E-02 -1.11335177E-10
  4.95752737E-11 -9.27913774E-02 -4.14351100E-02 -1.15497238E-09 -8.37334474E-12
 -2.69477783E-01 -1.20330588E-01  1.77154326E-09 -1.71612711E-09  6.87099053E-01
  3.06811674E-01 -3.92126539E-11 -3.93525335E-03 -3.33668507E-11 -3.53972681E-11
 -8.81280683E-03  3.30871152E-10  7.33785999E-10  4.97511820E-09  5.72768646E-12
  5.78020120E-04  2.58064851E-04  2.35903467E-11  1.72011167E-10  5.65153825E-10
 -2.65159647E-11  5.78007744E-04  2.58059409E-04 -5.02300875E-10 -8.56750036E-10
  8.64654199E-10  3.25596119E-02 -7.29171678E-02  2.76607930E-09  5.93867355E-10
  3.23558864E-02 -7.24620041E-02  9.05871050E-09  2.57196437E-09  1.15088482E-01
 -2.57738459E-01 -3.88932003E-09 -1.63676447E-08 -3.08148084E-01  6.90090984E-01
  2.59151328E-10  8.16236762E-03  8.78040821E-11 -4.35318436E-10 -3.64471538E-03
 -2.65492909E-10 -4.37207396E-10 -2.19017794E-09  3.25595968E-02 -7.29171312E-02
  1.26582211E-09 -2.47975091E-09  3.23558734E-02 -7.24619694E-02  2.91756007E-09
 -7.90848712E-09  1.15088436E-01 -2.57738349E-01  1.12334840E-09  2.07575863E-08
 -3.08147930E-01  6.90090622E-01  2.14578268E-10 -8.16237426E-03  4.30768078E-11
 -4.49959654E-10  3.64471844E-03 -1.14307028E-09  5.38933437E-10 -8.47836902E-09
 -4.22749942E-10 -9.11427374E-04  2.04103645E-03 -6.31972966E-10  8.11321296E-10
 -2.11382979E-09  2.51757082E-10 -9.11421946E-04  2.04102448E-03  9.60500371E-03
  1.65173947E-02 -8.82503876E-02  1.67410425E-10 -1.00715488E-09 -6.18193325E-02
 -9.36645523E-02  4.45540053E-10 -1.34123754E-09 -2.32569008E-02 -3.59597218E-01
 -9.21075191E-10 -2.22827097E-09  1.16605806E-01  6.85431447E-01  1.49280098E-09
  5.66647765E-09 -8.16902338E-03 -3.00261223E-11 -4.69863942E-04  1.49915042E-02
  2.34043759E-10  9.60500488E-03  1.65173963E-02  8.82502543E-02  1.48387826E-09
 -2.84434579E-09 -6.18193148E-02  9.36643836E-02  1.46394435E-09 -2.73323941E-09
 -2.32569873E-02  3.59596665E-01  5.25448024E-09 -9.93901833E-09  1.16604489E-01
 -6.85431482E-01 -1.57023023E-08  2.93219351E-08 -8.16904079E-03 -1.90351655E-10
 -4.69862283E-04  1.49915316E-02  8.55827507E-11  1.48860397E-02 -3.91086264E-02
 -1.63371801E-01  1.03388303E-02  2.98734680E-10 -3.15853194E-10  1.48861557E-02
 -3.91084677E-02 -1.63370681E-01 -1.03388152E-02 -8.90861466E-11  1.53346407E-10
  1.22266726E-11  2.58619599E-11  2.86236804E-10 -7.96093834E-02 -3.55508536E-02
 -2.18592052E-10  3.10378927E-10 -8.85199509E-02 -3.95300495E-02  1.40220820E-09
  5.47693901E-11 -2.97627024E-01 -1.32909644E-01  4.47301647E-09 -7.43850197E-09
  8.93855727E-01  3.99164990E-01 -2.18424786E-12  1.25415822E-03  1.61671300E-11