Title Card Required                                                     
FOpt      UM062X                                                      6-311+G(d,p)        
Number of atoms                            I                4
Info1-9                                    I   N=           9
          13          13           0           0           0         100
           2          18        -502
Full Title                                 C   N=           2
Title Card Required     
Route                                      C   N=           4
#p opt UM062X/6-311+G** nosymm int=superfine    
Charge                                     I                1
Multiplicity                               I                2
Number of electrons                        I               13
Number of alpha electrons                  I                7
Number of beta electrons                   I                6
Number of basis functions                  I               56
Number of independent functions            I               56
Number of point charges in /Mol/           I                0
Number of translation vectors              I                0
Atomic numbers                             I   N=           4
           6           6           1           1
Nuclear charges                            R   N=           4
  6.00000000E+00  6.00000000E+00  1.00000000E+00  1.00000000E+00
Current cartesian coordinates              R   N=          12
 -2.84811963E+00  0.00000000E+00  0.00000000E+00  2.84811963E+00  0.00000000E+00
  0.00000000E+00 -4.92869486E+00  0.00000000E+00  0.00000000E+00  4.92865329E+00
  0.00000000E+00  0.00000000E+00
Number of symbols in /Mol/                 I                0
Force Field                                I                0
Atom Types                                 C   N=           4
                                                
Int Atom Types                             I   N=           4
           0           0           0           0
MM charges                                 R   N=           4
  0.00000000E+00  0.00000000E+00  0.00000000E+00  0.00000000E+00
Integer atomic weights                     I   N=           4
          12          12           1           1
Real atomic weights                        R   N=           4
  1.20000000E+01  1.20000000E+01  1.00782504E+00  1.00782504E+00
Atom fragment info                         I   N=           4
           0           0           0           0
Atom residue num                           I   N=           4
           0           0           0           0
Nuclear spins                              I   N=           4
           0           0           1           1
Nuclear ZEff                               R   N=           4
 -3.60000000E+00 -3.60000000E+00 -1.00000000E+00 -1.00000000E+00
Nuclear ZNuc                               R   N=           4
  6.00000000E+00  6.00000000E+00  1.00000000E+00  1.00000000E+00
Nuclear QMom                               R   N=           4
  0.00000000E+00  0.00000000E+00  0.00000000E+00  0.00000000E+00
Nuclear GFac                               R   N=           4
  0.00000000E+00  0.00000000E+00  2.79284600E+00  2.79284600E+00
MicOpt                                     I   N=           4
          -2          -2          -1          -1
Number of residues                         I                0
Number of secondary structures             I                0
Redundant internal dimensions              I   N=           4
          12           8           4           0
Redundant internal coordinate indices      I   N=          48
           1          -1           0           0           1          -2
           0           0           1          -3           0           0
           2          -1           0           0           2          -2
           0           0           2          -3           0           0
           1           3           0           0           2           4
           0           0           2           1           3          -4
           1           2           4          -4           2           1
           3          -8           1           2           4          -8
Redundant internal coordinates             R   N=          12
 -2.84811963E+00  0.00000000E+00  0.00000000E+00  2.84811963E+00  0.00000000E+00
  0.00000000E+00  2.08057524E+00  2.08053366E+00  3.14159265E+00  3.14159265E+00
  3.14159265E+00  3.14159265E+00
ZRed-IntVec                                I   N=          12
          -1          -1          -1          -1          -1          -1
           0           0           0           0           0           0
ZRed-FPVec                                 R   N=          12
  0.00000000E+00  0.00000000E+00  0.00000000E+00  0.00000000E+00  0.00000000E+00
  0.00000000E+00  0.00000000E+00  0.00000000E+00  0.00000000E+00  0.00000000E+00
  0.00000000E+00  0.00000000E+00
ZRed-Constraint1                           R   N=          12
 -2.84811963E+00  0.00000000E+00  0.00000000E+00  2.84811963E+00  0.00000000E+00
  0.00000000E+00  2.08057524E+00  2.08053366E+00  3.14159265E+00  3.14159265E+00
  3.14159265E+00  3.14159265E+00
ZRed-Constraint2                           R   N=          12
 -2.84811963E+00  0.00000000E+00  0.00000000E+00  2.84811963E+00  0.00000000E+00
  0.00000000E+00  0.00000000E+00  0.00000000E+00  0.00000000E+00  0.00000000E+00
  0.00000000E+00  0.00000000E+00
Number of contracted shells                I               20
Number of primitive shells                 I               38
Pure/Cartesian d shells                    I                0
Pure/Cartesian f shells                    I                0
Highest angular momentum                   I                2
Largest degree of contraction              I                6
Shell types                                I   N=          20
           0          -1          -1          -1          -1          -2
           0          -1          -1          -1          -1          -2
           0           0           0           1           0           0
           0           1
Number of primitives per shell             I   N=          20
           6           3           1           1           1           1
           6           3           1           1           1           1
           3           1           1           1           3           1
           1           1
Shell to atom map                          I   N=          20
           1           1           1           1           1           1
           2           2           2           2           2           2
           3           3           3           3           4           4
           4           4
Primitive exponents                        R   N=          38
  4.56324000E+03  6.82024000E+02  1.54973000E+02  4.44553000E+01  1.30290000E+01
  1.82773000E+00  2.09642000E+01  4.80331000E+00  1.45933000E+00  4.83456000E-01
  1.45585000E-01  4.38000000E-02  6.26000000E-01  4.56324000E+03  6.82024000E+02
  1.54973000E+02  4.44553000E+01  1.30290000E+01  1.82773000E+00  2.09642000E+01
  4.80331000E+00  1.45933000E+00  4.83456000E-01  1.45585000E-01  4.38000000E-02
  6.26000000E-01  3.38650000E+01  5.09479000E+00  1.15879000E+00  3.25840000E-01
  1.02741000E-01  7.50000000E-01  3.38650000E+01  5.09479000E+00  1.15879000E+00
  3.25840000E-01  1.02741000E-01  7.50000000E-01
Contraction coefficients                   R   N=          38
  1.96665025E-03  1.52306019E-02  7.61269097E-02  2.60801033E-01  6.16462078E-01
  2.21006028E-01  1.14660081E-01  9.19999648E-01 -3.03068213E-03  1.00000000E+00
  1.00000000E+00  1.00000000E+00  1.00000000E+00  1.96665025E-03  1.52306019E-02
  7.61269097E-02  2.60801033E-01  6.16462078E-01  2.21006028E-01  1.14660081E-01
  9.19999648E-01 -3.03068213E-03  1.00000000E+00  1.00000000E+00  1.00000000E+00
  1.00000000E+00  2.54938145E-02  1.90373109E-01  8.52161486E-01  1.00000000E+00
  1.00000000E+00  1.00000000E+00  2.54938145E-02  1.90373109E-01  8.52161486E-01
  1.00000000E+00  1.00000000E+00  1.00000000E+00
P(S=P) Contraction coefficients            R   N=          38
  0.00000000E+00  0.00000000E+00  0.00000000E+00  0.00000000E+00  0.00000000E+00
  0.00000000E+00  4.02486927E-02  2.37593957E-01  8.15853851E-01  1.00000000E+00
  1.00000000E+00  1.00000000E+00  0.00000000E+00  0.00000000E+00  0.00000000E+00
  0.00000000E+00  0.00000000E+00  0.00000000E+00  0.00000000E+00  4.02486927E-02
  2.37593957E-01  8.15853851E-01  1.00000000E+00  1.00000000E+00  1.00000000E+00
  0.00000000E+00  0.00000000E+00  0.00000000E+00  0.00000000E+00  0.00000000E+00
  0.00000000E+00  0.00000000E+00  0.00000000E+00  0.00000000E+00  0.00000000E+00
  0.00000000E+00  0.00000000E+00  0.00000000E+00
Coordinates of each shell                  R   N=          60
 -2.84811963E+00  0.00000000E+00  0.00000000E+00 -2.84811963E+00  0.00000000E+00
  0.00000000E+00 -2.84811963E+00  0.00000000E+00  0.00000000E+00 -2.84811963E+00
  0.00000000E+00  0.00000000E+00 -2.84811963E+00  0.00000000E+00  0.00000000E+00
 -2.84811963E+00  0.00000000E+00  0.00000000E+00  2.84811963E+00  0.00000000E+00
  0.00000000E+00  2.84811963E+00  0.00000000E+00  0.00000000E+00  2.84811963E+00
  0.00000000E+00  0.00000000E+00  2.84811963E+00  0.00000000E+00  0.00000000E+00
  2.84811963E+00  0.00000000E+00  0.00000000E+00  2.84811963E+00  0.00000000E+00
  0.00000000E+00 -4.92869486E+00  0.00000000E+00  0.00000000E+00 -4.92869486E+00
  0.00000000E+00  0.00000000E+00 -4.92869486E+00  0.00000000E+00  0.00000000E+00
 -4.92869486E+00  0.00000000E+00  0.00000000E+00  4.92865329E+00  0.00000000E+00
  0.00000000E+00  4.92865329E+00  0.00000000E+00  0.00000000E+00  4.92865329E+00
  0.00000000E+00  0.00000000E+00  4.92865329E+00  0.00000000E+00  0.00000000E+00
Num ILSW                                   I              100
ILSW                                       I   N=         100
           1           0           0           0           0           0
           0           0           0           0        4336          -1
           7           0           0           0           0           0
           0           0           0           0           1           0
           1           1           0           0           0           0
           0           0      100000           0          -1           0
           0           0           0           0           0           0
           0           0           0           1           0           0
           0 -2000000000           1           0           0           0
           0           0           4          52           0           0
           0           0          55           0           0           0
           0           0           0           4           0           1
           0           0           0           0           0           0
           0           0           0           0           0           0
           0           0           0           0           0           0
           0           0           0           0           0           0
           0           0           0           0
Num RLSW                                   I               52
RLSW                                       R   N=          52
  1.00000000E+00  1.00000000E+00  1.00000000E+00  1.00000000E+00  5.40000000E-01
  0.00000000E+00  0.00000000E+00  1.00000000E+00  0.00000000E+00  0.00000000E+00
  0.00000000E+00  0.00000000E+00  1.00000000E+00  0.00000000E+00  0.00000000E+00
  0.00000000E+00  0.00000000E+00  1.00000000E+00  0.00000000E+00  0.00000000E+00
  0.00000000E+00  0.00000000E+00  1.00000000E+00  0.00000000E+00  0.00000000E+00
  0.00000000E+00  0.00000000E+00  1.00000000E+00  0.00000000E+00  0.00000000E+00
  0.00000000E+00  0.00000000E+00  1.00000000E+00  0.00000000E+00  0.00000000E+00
  0.00000000E+00  0.00000000E+00  0.00000000E+00  1.00000000E+00  1.00000000E+00
  0.00000000E+00  1.00000000E+00  0.00000000E+00  0.00000000E+00  0.00000000E+00
  0.00000000E+00  0.00000000E+00  0.00000000E+00  0.00000000E+00  0.00000000E+00
  0.00000000E+00  0.00000000E+00
MxBond                                     I                2
NBond                                      I   N=           4
           2           2           1           1
IBond                                      I   N=           8
           2           3           1           4           1           0
           2           0
RBond                                      R   N=           8
  1.00000000E-01  1.00000000E+00  1.00000000E-01  1.00000000E+00  1.00000000E+00
  0.00000000E+00  1.00000000E+00  0.00000000E+00
Virial Ratio                               R      2.002207669278786E+00
SCF Energy                                 R     -7.658645539252382E+01
Total Energy                               R     -7.658645539252382E+01
S**2                                       R      7.511270862137636E-01
S**2 after annihilation                    R      7.500008949729470E-01
RMS Force                                  R      4.666713178420226E-03
RMS Density                                R      9.584190413098821E-09
Job Status                                 I                3
Nuclear derivative order                   I                1
External E-field                           R   N=          35
  0.00000000E+00  0.00000000E+00  0.00000000E+00  0.00000000E+00  0.00000000E+00
  0.00000000E+00  0.00000000E+00  0.00000000E+00  0.00000000E+00  0.00000000E+00
  0.00000000E+00  0.00000000E+00  0.00000000E+00  0.00000000E+00  0.00000000E+00
  0.00000000E+00  0.00000000E+00  0.00000000E+00  0.00000000E+00  0.00000000E+00
  0.00000000E+00  0.00000000E+00  0.00000000E+00  0.00000000E+00  0.00000000E+00
  0.00000000E+00  0.00000000E+00  0.00000000E+00  0.00000000E+00  0.00000000E+00
  0.00000000E+00  0.00000000E+00  0.00000000E+00  0.00000000E+00  0.00000000E+00
IOpCl                                      I                1
IROHF                                      I                0
Alpha Orbital Energies                     R   N=          56
 -1.09523598E+01 -1.09523479E+01 -9.90775960E-01 -9.85336234E-01 -6.66985096E-01
 -6.17276474E-01 -5.01505993E-01 -4.00730346E-01 -3.46545562E-01 -3.33716917E-01
 -1.29188979E-01 -1.16397279E-01 -8.05842115E-02 -7.52430526E-02 -5.77111065E-02
 -5.10334366E-02 -4.70539514E-02 -1.36400447E-02  5.80075195E-03  5.98308096E-02
  2.37178939E-01  3.13884661E-01  3.37481754E-01  3.45408412E-01  3.72535492E-01
  3.89395820E-01  3.96835796E-01  5.31466699E-01  5.70657861E-01  6.28603072E-01
  8.81020126E-01  8.82093143E-01  8.98361133E-01  9.01696828E-01  1.06874230E+00
  1.07026361E+00  1.07924674E+00  1.08075417E+00  1.31925136E+00  1.37695544E+00
  1.61354178E+00  1.61673176E+00  1.62786201E+00  1.63041371E+00  2.14122680E+00
  2.19288191E+00  2.27916973E+00  2.35214754E+00  2.41795456E+00  2.43287664E+00
  2.45347319E+00  2.46758261E+00  2.92996870E+00  3.05842892E+00  2.32453097E+01
  2.32724351E+01
Beta Orbital Energies                      R   N=          56
 -1.09484037E+01 -1.09483979E+01 -9.66679879E-01 -9.63096200E-01 -6.54002270E-01
 -6.02846546E-01 -3.29399316E-01 -3.14553305E-01 -3.13756729E-01 -2.97970114E-01
 -1.34701164E-01 -1.15620797E-01 -7.60205856E-02 -6.88830713E-02 -6.61187055E-02
 -4.40683849E-02 -3.49565763E-02 -2.08175092E-02  2.30569174E-02  7.29110154E-02
  2.29485474E-01  3.31403384E-01  3.46628830E-01  3.46905009E-01  3.89840601E-01
  3.93350946E-01  3.96258873E-01  5.59035076E-01  5.78579383E-01  6.35221688E-01
  9.51337579E-01  9.60573056E-01  9.69136082E-01  9.77885495E-01  1.10162395E+00
  1.10172096E+00  1.10201430E+00  1.10214667E+00  1.32405818E+00  1.38074122E+00
  1.63086561E+00  1.63751108E+00  1.64501182E+00  1.65157605E+00  2.29409403E+00
  2.30765794E+00  2.37361064E+00  2.39321910E+00  2.44476146E+00  2.46841425E+00
  2.47803958E+00  2.49992124E+00  3.01600095E+00  3.16101580E+00  2.32583683E+01
  2.32853497E+01
Alpha MO coefficients                      R   N=        3136
  4.52108981E-01  3.72443091E-01 -1.58507297E-03  4.64018815E-17 -2.20502170E-16
  7.83574466E-03 -1.17514192E-03 -1.52824189E-16  3.42935477E-16 -3.97953727E-03
  1.62857020E-04  1.32281734E-16 -3.00895812E-16  2.25638025E-04  1.24893758E-03
 -9.64661923E-17  1.62422951E-16 -4.28079694E-04 -2.03680009E-17  1.20094564E-05
  7.43469107E-04  9.07593862E-17  3.37207276E-01  2.77796202E-01  1.16269974E-03
 -3.01967844E-16 -4.42937785E-16  5.78303751E-03  9.66747587E-04  3.56293395E-16
  6.68546466E-16 -2.84700548E-03 -2.84525387E-04 -2.38230268E-16 -4.81656119E-16
 -6.08584863E-04 -5.81551627E-04  1.12693047E-16  1.95307690E-16 -3.30868225E-04
  3.10792468E-17  6.87913427E-06  5.74233516E-04 -3.96767276E-17  2.87846775E-04
 -2.41888087E-03  2.88282984E-03 -1.57915414E-03  1.09011850E-16 -5.45943497E-17
  2.00746324E-04 -1.80497376E-03  2.27479251E-03  1.19810465E-03  3.63588531E-17
 -1.02866660E-16 -3.37209033E-01 -2.77761305E-01  1.25075237E-03 -2.39868754E-16
 -3.20628890E-16 -6.05989049E-03  5.60588627E-04  2.63890853E-16  3.68753814E-16
  3.39298906E-03  4.50383561E-04 -3.65795930E-17 -2.77938358E-16 -2.89278140E-03
 -2.15901885E-03 -1.62402420E-17  1.76025780E-16  2.78827635E-04 -3.68937530E-18
 -1.62440677E-05 -4.85667975E-04  5.09453410E-18  4.52110284E-01  3.72417011E-01
  1.65075056E-03  1.68104359E-16  2.39799858E-16  8.04258102E-03  8.72601013E-04
 -1.84882045E-16 -2.64172375E-16 -4.38670064E-03  3.85259298E-04  7.77615194E-17
  1.45255668E-16  2.83697498E-03 -2.42550423E-03 -2.30126130E-17 -8.37481179E-17
 -3.89362052E-04 -4.36454888E-17  1.89928204E-05  6.77579973E-04 -8.30032734E-18
 -2.63471578E-04  1.80210194E-03 -1.71361616E-03  1.10719265E-03  2.85753822E-18
 -2.72917998E-17  3.34557720E-04 -2.41726808E-03  2.46455732E-03  1.51164810E-03
  2.37263818E-17 -7.49100012E-18 -8.00019505E-02 -1.30424358E-01 -5.47206276E-02
  5.64580978E-17  3.20548601E-16  3.82365704E-01 -8.34067953E-02 -1.16193885E-16
 -2.57174321E-16  2.49120517E-01 -2.74035063E-02 -1.94426583E-16 -4.13147662E-17
 -7.14621824E-04 -7.87575075E-03  5.24603620E-16  1.58735964E-16 -4.24281812E-03
 -1.11844096E-17 -5.91296922E-04  7.24961065E-03 -9.03014730E-17 -8.00770413E-02
 -1.30546663E-01  5.47795322E-02  1.77824897E-16  4.14357366E-16  3.82722403E-01
  8.34951234E-02 -5.91316591E-17 -5.71607459E-16  2.49358276E-01  2.74385630E-02
  1.26926976E-17  4.46326117E-16 -7.51888149E-04  7.90312269E-03 -1.34521753E-16
 -3.59882852E-16 -4.24759361E-03 -6.50049866E-18 -5.91496495E-04  7.25784863E-03
 -5.41826752E-17  9.84793232E-02  1.21887995E-01 -1.23951430E-02  1.68345135E-02
 -9.48956428E-17 -1.06343535E-17  9.85788009E-02  1.22006538E-01 -1.24102387E-02
 -1.68504710E-02  8.97668871E-17  4.24264790E-17 -7.95004355E-02 -1.29583179E-01
 -5.97370290E-02  1.66131497E-17 -1.84989613E-16  3.79269059E-01 -9.09501428E-02
  4.06131452E-16  2.58792109E-16  2.55645282E-01 -3.70560838E-02  1.04524092E-16
 -5.48633626E-17 -4.07209827E-02 -2.98323360E-02 -1.86275714E-16  2.04755658E-17
 -4.76871993E-03 -1.56464303E-16 -1.47921100E-04  8.23489244E-03 -6.19064922E-17
  7.94239456E-02  1.29458392E-01 -5.96874989E-02  9.44487714E-17 -3.86378149E-16
 -3.78901951E-01 -9.08733135E-02 -3.16363164E-16  5.58364236E-16 -2.55403652E-01
 -3.70303764E-02  3.06487441E-16 -2.72042424E-16  4.07202931E-02 -2.98245567E-02
 -7.05504094E-17  2.71045175E-16  4.76498467E-03 -8.73964353E-17  1.47411860E-04
 -8.22850821E-03 -5.14466810E-17  1.01498208E-01  1.22889224E-01 -1.59563532E-02
  1.65549488E-02 -1.47407019E-16 -1.91018939E-16 -1.01407897E-01 -1.22775124E-01
  1.59445721E-02  1.65391460E-02  5.76911105E-17  2.71648999E-17  3.74584177E-02
  6.23890142E-02 -1.64674953E-01 -2.98331277E-16  1.72841525E-16 -1.92466400E-01
 -2.41761365E-01 -4.16955560E-16  3.44373700E-16 -2.24407694E-01 -1.45255271E-01
 -3.12436534E-16 -3.03117683E-16 -1.56843813E-02 -2.69638926E-03  1.17455317E-16
  3.61564529E-16 -1.39113730E-02  8.26720472E-17  2.44546978E-04  2.41361457E-02
  2.22691828E-16  3.74595582E-02  6.23909559E-02  1.64676662E-01  1.13389952E-16
  7.16007068E-17 -1.92472108E-01  2.41762805E-01 -1.05005772E-16 -2.91108969E-16
 -2.24418010E-01  1.45254344E-01  1.19583119E-16 -4.52596797E-17 -1.56839188E-02
  2.69524919E-03 -1.67596155E-16 -5.65629840E-17 -1.39115960E-02 -1.26931472E-16
  2.44559161E-04  2.41365339E-02 -2.36189023E-17  9.37358313E-02  1.58968802E-01
  5.41887665E-02  8.17656212E-03  9.84563452E-17  2.25253982E-17  9.37360116E-02
  1.58968324E-01  5.41900614E-02 -8.17638391E-03  5.38950254E-17  1.55596938E-16
  4.70570857E-02  7.84614892E-02 -1.72477198E-01 -4.26779199E-16 -2.93037476E-17
 -2.43541613E-01 -2.46566451E-01 -1.22806658E-16  3.53727683E-16 -2.80365969E-01
 -1.77902480E-01 -5.16160237E-16  3.11963211E-17 -2.80497965E-02 -1.31995349E-02
  1.09703611E-16  1.01109624E-16 -1.65916132E-02 -1.99804961E-18 -3.44848562E-04
  2.86795588E-02 -8.46783094E-17 -4.70572135E-02 -7.84617467E-02 -1.72476253E-01
 -3.88885918E-18  1.16515469E-16  2.43542004E-01 -2.46563887E-01  1.43423624E-16
  1.06713862E-16  2.80370115E-01 -1.77900256E-01 -1.82112769E-16  5.42906320E-17
  2.80502860E-02 -1.31992065E-02  1.25017121E-16 -1.04800653E-16  1.65915715E-02
  4.13561348E-18  3.44821447E-04 -2.86794912E-02  5.26693571E-17  9.74124102E-02
  1.68265787E-01  5.40492120E-02  7.09978840E-03 -1.43957338E-16 -5.15347619E-17
 -9.74109264E-02 -1.68261792E-01 -5.40479507E-02  7.09949796E-03 -6.74548568E-17
  5.02114885E-18  6.39202675E-18 -8.13455665E-17 -3.01958143E-17  1.50618257E-01
 -1.38510781E-01  8.10235232E-16 -7.00559444E-16  2.36440979E-01 -2.17434800E-01
 -1.69320078E-15  7.78396565E-16  2.18284062E-01 -2.00737231E-01 -2.20663376E-15
 -7.58806863E-16  1.47261163E-02 -1.35423485E-02 -2.38200790E-16  9.49477187E-03
 -2.74442727E-17  6.62911382E-17 -1.03247766E-02 -5.20409838E-17 -1.80998220E-16
 -4.19598567E-17  1.50619045E-01 -1.38511506E-01  1.03628414E-15  2.73212268E-16
  2.36442385E-01 -2.17436093E-01 -6.87041324E-16  5.95308417E-16  2.18285451E-01
 -2.00738509E-01  3.18349719E-15 -4.43714942E-16  1.47262265E-02 -1.35424499E-02
 -1.41576664E-16 -9.49511053E-03  7.51800523E-17 -1.07914275E-16  1.03251448E-02
  2.59849918E-16 -6.22512775E-16  2.45731458E-15 -1.71523661E-16  1.07293362E-02
 -9.86686258E-03  1.32546719E-16 -4.39497182E-16 -1.93798857E-15  1.55532399E-16
  1.07296288E-02 -9.86713172E-03  7.63333990E-17  1.08504064E-16 -1.65897036E-16
  1.54723631E-01 -1.42286210E-01 -4.06738686E-16 -3.90435041E-16  2.42803850E-01
 -2.23286298E-01 -2.44781364E-16 -9.90456079E-16  2.22767902E-01 -2.04860735E-01
  4.43446313E-15  2.24982362E-15  2.56789639E-02 -2.36147819E-02 -3.40439064E-16
  1.45511948E-02  1.21836806E-17 -1.75113493E-17 -1.58231790E-02  1.70096058E-18
  5.07919348E-17 -5.47345131E-17 -1.54722533E-01  1.42285201E-01 -6.37009629E-16
 -2.26101332E-16 -2.42802293E-01  2.23284866E-01  2.35364186E-15  8.57250568E-16
 -2.22766580E-01  2.04859519E-01 -4.70045969E-15  1.72315967E-15 -2.56788302E-02
  2.36146591E-02 -3.89773328E-17  1.45513730E-02  2.12915371E-17  7.09571942E-17
 -1.58233727E-02  1.42157192E-17 -4.02923972E-17 -1.40766668E-15 -1.59720968E-16
  1.26199341E-02 -1.16054890E-02  1.67239605E-16 -6.97771763E-16  2.96388513E-16
  1.19656284E-16 -1.26200762E-02  1.16056198E-02  4.77829054E-18 -1.21408559E-17
 -1.10337503E-17  1.29371505E-01  1.40680024E-01 -5.14869100E-18  6.64394279E-17
  2.08368837E-01  2.26582795E-01  1.01324547E-15 -5.57226469E-16  2.02798953E-01
  2.20525812E-01 -5.56178245E-16 -2.27288210E-15  3.43419088E-02  3.73437782E-02
 -6.76170712E-17 -1.07502119E-02 -1.30935926E-16 -3.07708172E-17 -9.88610525E-03
  1.06467363E-17  1.41826207E-17 -5.17374208E-17  1.29361611E-01  1.40669265E-01
 -1.33427883E-16  3.20394790E-16  2.08352957E-01  2.26565525E-01  8.04008870E-18
 -1.10165514E-16  2.02784132E-01  2.20509695E-01  9.17529132E-16 -1.68011971E-15
  3.43388990E-02  3.73405051E-02 -5.49164421E-17  1.07494041E-02 -9.01814362E-18
  7.55008777E-17  9.88536239E-03 -6.10826508E-17  6.91640749E-16 -3.01224576E-15
 -3.96692754E-17  1.08538638E-02  1.18026206E-02  1.61362886E-16 -8.11210543E-16
  1.58489652E-15  6.46049624E-17  1.08532080E-02  1.18019073E-02 -1.71634651E-17
 -5.64755176E-17 -2.49532391E-17 -1.34902980E-01 -1.46694931E-01  4.63002004E-16
 -6.39302213E-18 -2.17266802E-01 -2.36258417E-01 -1.18765550E-15  6.03322307E-17
 -2.09428393E-01 -2.27734622E-01  1.86821327E-15  1.06094576E-15 -4.58511018E-02
 -4.98590096E-02  6.54997426E-18  1.38937955E-02  7.07545216E-17 -4.56732439E-18
  1.27769972E-02  1.33131788E-17  4.13706638E-17 -4.80015296E-17  1.34911989E-01
  1.46704727E-01 -8.40355381E-17  2.79832642E-16  2.17281366E-01  2.36274254E-01
  6.43643156E-17 -5.38732662E-17  2.09443100E-01  2.27750615E-01 -1.37680224E-15
  7.19011791E-16  4.58538400E-02  4.98619870E-02  9.72166953E-17  1.38947364E-02
 -1.36208453E-17  1.12326719E-16  1.27778624E-02 -1.42078808E-17 -2.84953106E-16
  4.87450820E-16 -2.53545814E-17 -1.18759458E-02 -1.29140358E-02  7.94285670E-17
 -2.65967995E-16  3.35688778E-16  1.55372010E-16  1.18769153E-02  1.29150900E-02
  2.92813800E-02  4.99898835E-02  3.31778262E-02  1.63904558E-16  5.86197254E-17
 -1.63945494E-01  7.87761946E-02  1.71913885E-16 -2.23260277E-17 -4.56414216E-01
  8.05869764E-02  4.58125394E-16 -6.70826798E-17  9.79119868E-01 -4.00071401E-01
 -1.13368610E-15 -2.26745703E-16  4.83929211E-03 -1.25307902E-16 -2.12259569E-03
 -8.73809303E-03  1.92289017E-16  2.92798017E-02  4.99872725E-02 -3.31688166E-02
  1.40477258E-17 -1.53000678E-16 -1.63937024E-01 -7.87639911E-02 -1.30098340E-16
 -7.76612273E-17 -4.56391909E-01 -8.05640232E-02  7.67075009E-17 -5.83865517E-16
  9.79139175E-01  3.99991246E-01  7.82302350E-17  1.52587428E-15  4.83938430E-03
  1.50525993E-16 -2.12250946E-03 -8.73823824E-03  9.98152492E-17  1.31820014E-03
  1.44553096E-01 -1.98083621E-01 -4.71368901E-03 -1.72496269E-16  1.20152800E-16
  1.31628037E-03  1.44543267E-01 -1.98090480E-01  4.71126965E-03  1.20352325E-16
  4.37612924E-17 -1.84964583E-02 -3.23267720E-02 -6.46967317E-02  4.01175041E-17
  7.13461698E-17  1.22932907E-01 -1.13806955E-01 -1.57180848E-16 -2.19750237E-16
  1.81252806E-01 -1.25518679E-01 -7.54115151E-16 -3.53265761E-16  2.78074148E-03
  1.10984896E+00  2.15911699E-15  1.11560148E-15 -4.87344481E-03  2.39763000E-17
  1.21937333E-03  8.64566357E-03 -2.05326685E-16  1.84981595E-02  3.23297638E-02
 -6.46948269E-02  1.07037352E-16  5.70268447E-17 -1.22944011E-01 -1.13807663E-01
 -9.88273956E-18  1.60557785E-16 -1.81270367E-01 -1.25504313E-01  2.16151964E-16
  1.21724235E-16 -2.68571592E-03  1.10988137E+00 -8.84499053E-16 -7.71006813E-16
  4.87430570E-03  1.28237124E-16 -1.21956272E-03 -8.64718646E-03  2.27104879E-16
  7.97870513E-03 -1.00782528E-01  2.63695583E-01  1.40645772E-02 -1.71782987E-16
 -2.53147565E-17 -7.98217550E-03  1.00784640E-01 -2.63745874E-01  1.40639555E-02
 -1.95959694E-16 -1.63344829E-16 -1.46505025E-17 -2.14032232E-17  1.53531929E-16
 -6.31694585E-02 -6.86920484E-02 -6.21695963E-17  6.64008274E-17 -7.51796916E-02
 -8.17521746E-02  1.28576867E-15  7.17243518E-16 -2.10987828E-01 -2.29433745E-01
 -7.77362126E-15 -4.57517965E-15  4.75531426E-01  5.17105783E-01 -1.63286938E-16
  7.57130530E-03  6.59479492E-17 -2.62455064E-17  6.96261746E-03  2.14842475E-19
 -4.85390874E-18  2.39336981E-16 -6.31687867E-02 -6.86913178E-02  1.31455833E-16
  5.09137600E-17 -7.51789393E-02 -8.17513565E-02 -7.28981320E-16  1.24056596E-15
 -2.10985875E-01 -2.29431621E-01  8.91245218E-15 -4.08539317E-15  4.75522235E-01
  5.17095789E-01 -6.91779001E-17 -7.57146777E-03  5.21314492E-18 -1.91221778E-16
 -6.96276686E-03  7.64205877E-17 -2.41354771E-16  1.26178271E-15 -1.01851581E-16
 -3.77056974E-04 -4.09999035E-04 -1.59494350E-16  3.62695839E-16 -3.29196624E-15
 -1.45646410E-16 -3.77340687E-04 -4.10307547E-04  4.98877110E-17  7.18494742E-17
  1.78809308E-16 -6.36665039E-02  5.85477236E-02 -1.16769000E-16  2.18491963E-16
 -6.77028103E-02  6.22593925E-02 -2.04354237E-15  9.11591021E-16 -2.15427057E-01
  1.98107027E-01 -1.43942500E-15  1.15557245E-15  5.17647059E-01 -4.76029284E-01
 -4.79851441E-17 -6.47388332E-03 -5.43464120E-18  4.34449726E-17  7.03990560E-03
  3.67889099E-17  3.43685467E-17 -2.83520615E-18 -6.36657550E-02  5.85470349E-02
  4.50725645E-18  1.87258400E-16 -6.77020929E-02  6.22587328E-02 -1.03454823E-15
 -1.40161608E-16 -2.15424815E-01  1.98104965E-01  1.78222880E-16 -6.50515631E-16
  5.17637877E-01 -4.76020840E-01 -2.08686799E-17  6.47403227E-03 -2.14642786E-17
  5.97541946E-17 -7.04006758E-03  1.26316422E-16 -2.71040586E-16  4.36301742E-15
 -6.09441797E-17  6.19246174E-04 -5.69481519E-04  2.72497675E-17 -1.31519584E-16
  1.01012816E-15  9.04121207E-17  6.18947970E-04 -5.69207294E-04 -5.49633871E-03
 -9.07006040E-03  9.76358985E-02 -6.99374101E-16 -6.64778115E-16  2.99596611E-02
  1.06514060E-01 -1.06158113E-15 -1.55657292E-15 -8.04354637E-05  5.65404145E-01
  1.71788447E-15  1.79394659E-15 -4.87270837E-01 -5.73503316E-01 -5.07984986E-16
  2.09664133E-15 -3.61405501E-03  2.21556777E-16  1.71972940E-03  6.54837274E-03
  6.06677477E-17 -5.49619988E-03 -9.06981100E-03 -9.76296113E-02 -2.04242377E-16
 -4.91681487E-18  2.99583408E-02 -1.06505957E-01 -8.92622489E-16 -9.27569841E-16
 -8.39100354E-05 -5.65382118E-01  1.53773839E-15  2.71999587E-15 -4.87186379E-01
  5.73518840E-01 -1.04750587E-15 -3.71353225E-15 -3.61329564E-03  5.10156028E-17
  1.71963064E-03  6.54704089E-03  1.02243066E-16  1.72709100E-02  1.37264717E-01
  6.49476603E-01 -1.53724909E-02 -1.51173631E-17  9.46891782E-17  1.72650577E-02
  1.37257159E-01  6.49412665E-01  1.53719857E-02  3.48375770E-17 -2.04302712E-17
 -5.60128661E-17 -8.00599971E-17 -2.31787536E-16  5.55856591E-02  6.04458651E-02
  7.57374494E-17 -5.21235822E-17  6.29981711E-02  6.85062406E-02  2.77610724E-15
 -1.59832168E-15  2.10342778E-01  2.28734919E-01  6.01435336E-15 -1.14504002E-15
 -7.94126043E-01 -8.63563617E-01 -5.43871496E-16  9.38866478E-04  5.91537892E-17