Title Card Required                                                     
Force     UM062X                                                      6-311+G(d,p)        
Number of atoms                            I                4
Info1-9                                    I   N=           9
          13          13           0           0           0         100
           5          18        -502
Full Title                                 C   N=           2
Title Card Required     
Route                                      C   N=           4
#p UM062X/6-311+G** force int=superfine         
Charge                                     I                1
Multiplicity                               I                2
Number of electrons                        I               13
Number of alpha electrons                  I                7
Number of beta electrons                   I                6
Number of basis functions                  I               56
Number of independent functions            I               56
Number of point charges in /Mol/           I                0
Number of translation vectors              I                0
Atomic numbers                             I   N=           4
           6           6           1           1
Nuclear charges                            R   N=           4
  6.00000000E+00  6.00000000E+00  1.00000000E+00  1.00000000E+00
Current cartesian coordinates              R   N=          12
  0.00000000E+00  0.00000000E+00  7.04500698E-01  0.00000000E+00  0.00000000E+00
 -7.04501778E-01  0.00000000E+00  0.00000000E+00  2.56664816E+00  0.00000000E+00
  0.00000000E+00 -2.56664168E+00
Number of symbols in /Mol/                 I                0
Force Field                                I                0
Atom Types                                 C   N=           4
                                                
Int Atom Types                             I   N=           4
           0           0           0           0
MM charges                                 R   N=           4
  0.00000000E+00  0.00000000E+00  0.00000000E+00  0.00000000E+00
Integer atomic weights                     I   N=           4
          12          12           1           1
Real atomic weights                        R   N=           4
  1.20000000E+01  1.20000000E+01  1.00782504E+00  1.00782504E+00
Atom fragment info                         I   N=           4
           0           0           0           0
Atom residue num                           I   N=           4
           0           0           0           0
Nuclear spins                              I   N=           4
           0           0           1           1
Nuclear ZEff                               R   N=           4
 -3.60000000E+00 -3.60000000E+00 -1.00000000E+00 -1.00000000E+00
Nuclear ZNuc                               R   N=           4
  6.00000000E+00  6.00000000E+00  1.00000000E+00  1.00000000E+00
Nuclear QMom                               R   N=           4
  0.00000000E+00  0.00000000E+00  0.00000000E+00  0.00000000E+00
Nuclear GFac                               R   N=           4
  0.00000000E+00  0.00000000E+00  2.79284600E+00  2.79284600E+00
MicOpt                                     I   N=           4
          -1          -1          -1          -1
Number of residues                         I                0
Number of secondary structures             I                0
SymInf integers                            I   N=          26
           1           4           1           1           1          -1
          -1           1          -1           1           1           1
          -1           1           0           0           0           0
           0           0           0           0           0           0
           0           0
RotTr to input orientation                 R   N=          12
  0.00000000E+00  0.00000000E+00  1.00000000E+00  0.00000000E+00  1.00000000E+00
  0.00000000E+00 -1.00000000E+00 -0.00000000E+00 -0.00000000E+00 -5.39921750E-07
  0.00000000E+00  0.00000000E+00
Number of contracted shells                I               20
Number of primitive shells                 I               38
Pure/Cartesian d shells                    I                0
Pure/Cartesian f shells                    I                0
Highest angular momentum                   I                2
Largest degree of contraction              I                6
Shell types                                I   N=          20
           0          -1          -1          -1          -1          -2
           0          -1          -1          -1          -1          -2
           0           0           0           1           0           0
           0           1
Number of primitives per shell             I   N=          20
           6           3           1           1           1           1
           6           3           1           1           1           1
           3           1           1           1           3           1
           1           1
Shell to atom map                          I   N=          20
           1           1           1           1           1           1
           2           2           2           2           2           2
           3           3           3           3           4           4
           4           4
Primitive exponents                        R   N=          38
  4.56324000E+03  6.82024000E+02  1.54973000E+02  4.44553000E+01  1.30290000E+01
  1.82773000E+00  2.09642000E+01  4.80331000E+00  1.45933000E+00  4.83456000E-01
  1.45585000E-01  4.38000000E-02  6.26000000E-01  4.56324000E+03  6.82024000E+02
  1.54973000E+02  4.44553000E+01  1.30290000E+01  1.82773000E+00  2.09642000E+01
  4.80331000E+00  1.45933000E+00  4.83456000E-01  1.45585000E-01  4.38000000E-02
  6.26000000E-01  3.38650000E+01  5.09479000E+00  1.15879000E+00  3.25840000E-01
  1.02741000E-01  7.50000000E-01  3.38650000E+01  5.09479000E+00  1.15879000E+00
  3.25840000E-01  1.02741000E-01  7.50000000E-01
Contraction coefficients                   R   N=          38
  1.96665025E-03  1.52306019E-02  7.61269097E-02  2.60801033E-01  6.16462078E-01
  2.21006028E-01  1.14660081E-01  9.19999648E-01 -3.03068213E-03  1.00000000E+00
  1.00000000E+00  1.00000000E+00  1.00000000E+00  1.96665025E-03  1.52306019E-02
  7.61269097E-02  2.60801033E-01  6.16462078E-01  2.21006028E-01  1.14660081E-01
  9.19999648E-01 -3.03068213E-03  1.00000000E+00  1.00000000E+00  1.00000000E+00
  1.00000000E+00  2.54938145E-02  1.90373109E-01  8.52161486E-01  1.00000000E+00
  1.00000000E+00  1.00000000E+00  2.54938145E-02  1.90373109E-01  8.52161486E-01
  1.00000000E+00  1.00000000E+00  1.00000000E+00
P(S=P) Contraction coefficients            R   N=          38
  0.00000000E+00  0.00000000E+00  0.00000000E+00  0.00000000E+00  0.00000000E+00
  0.00000000E+00  4.02486927E-02  2.37593957E-01  8.15853851E-01  1.00000000E+00
  1.00000000E+00  1.00000000E+00  0.00000000E+00  0.00000000E+00  0.00000000E+00
  0.00000000E+00  0.00000000E+00  0.00000000E+00  0.00000000E+00  4.02486927E-02
  2.37593957E-01  8.15853851E-01  1.00000000E+00  1.00000000E+00  1.00000000E+00
  0.00000000E+00  0.00000000E+00  0.00000000E+00  0.00000000E+00  0.00000000E+00
  0.00000000E+00  0.00000000E+00  0.00000000E+00  0.00000000E+00  0.00000000E+00
  0.00000000E+00  0.00000000E+00  0.00000000E+00
Coordinates of each shell                  R   N=          60
  0.00000000E+00  0.00000000E+00  7.04500698E-01  0.00000000E+00  0.00000000E+00
  7.04500698E-01  0.00000000E+00  0.00000000E+00  7.04500698E-01  0.00000000E+00
  0.00000000E+00  7.04500698E-01  0.00000000E+00  0.00000000E+00  7.04500698E-01
  0.00000000E+00  0.00000000E+00  7.04500698E-01  0.00000000E+00  0.00000000E+00
 -7.04501778E-01  0.00000000E+00  0.00000000E+00 -7.04501778E-01  0.00000000E+00
  0.00000000E+00 -7.04501778E-01  0.00000000E+00  0.00000000E+00 -7.04501778E-01
  0.00000000E+00  0.00000000E+00 -7.04501778E-01  0.00000000E+00  0.00000000E+00
 -7.04501778E-01  0.00000000E+00  0.00000000E+00  2.56664816E+00  0.00000000E+00
  0.00000000E+00  2.56664816E+00  0.00000000E+00  0.00000000E+00  2.56664816E+00
  0.00000000E+00  0.00000000E+00  2.56664816E+00  0.00000000E+00  0.00000000E+00
 -2.56664168E+00  0.00000000E+00  0.00000000E+00 -2.56664168E+00  0.00000000E+00
  0.00000000E+00 -2.56664168E+00  0.00000000E+00  0.00000000E+00 -2.56664168E+00
Num ILSW                                   I              100
ILSW                                       I   N=         100
           1           0           0           0           2           0
           0           0           0           0        4336          -1
           7           0           0           0           2           0
           0           0           0           0           1           0
           1           0           0           0           0           0
           0           0      100000           0          -1           0
           0           0           0           0           0           0
           0           0           0           1           0           0
           0 -2000000000           1           0           0           0
           0           0           4          52           0           0
           0           0          55           0           0           0
           0           0           0           4           0           1
           0           0           0           0           0           0
           0           0           0           0           0           0
           0           0           0           0           0           0
           0           0           0           0           0           0
           0           0           0           0
Num RLSW                                   I               52
RLSW                                       R   N=          52
  1.00000000E+00  1.00000000E+00  1.00000000E+00  1.00000000E+00  5.40000000E-01
  0.00000000E+00  0.00000000E+00  1.00000000E+00  0.00000000E+00  0.00000000E+00
  0.00000000E+00  0.00000000E+00  1.00000000E+00  0.00000000E+00  0.00000000E+00
  0.00000000E+00  0.00000000E+00  1.00000000E+00  0.00000000E+00  0.00000000E+00
  0.00000000E+00  0.00000000E+00  1.00000000E+00  0.00000000E+00  0.00000000E+00
  0.00000000E+00  0.00000000E+00  1.00000000E+00  0.00000000E+00  0.00000000E+00
  0.00000000E+00  0.00000000E+00  1.00000000E+00  0.00000000E+00  0.00000000E+00
  0.00000000E+00  0.00000000E+00  0.00000000E+00  1.00000000E+00  1.00000000E+00
  0.00000000E+00  1.00000000E+00  0.00000000E+00  0.00000000E+00  0.00000000E+00
  0.00000000E+00  0.00000000E+00  0.00000000E+00  0.00000000E+00  0.00000000E+00
  0.00000000E+00  0.00000000E+00
MxBond                                     I                2
NBond                                      I   N=           4
           2           2           1           1
IBond                                      I   N=           8
           2           3           1           4           1           0
           2           0
RBond                                      R   N=           8
  3.00000000E+00  1.00000000E+00  3.00000000E+00  1.00000000E+00  1.00000000E+00
  0.00000000E+00  1.00000000E+00  0.00000000E+00
Virial Ratio                               R      1.927091025488667E+00
SCF Energy                                 R     -7.564627326909120E+01
Total Energy                               R     -7.564627326909120E+01
S**2                                       R      7.520181461386226E-01
S**2 after annihilation                    R      7.500028944648367E-01
RMS Force                                  R      1.725946715873534E+00
RMS Density                                R      2.450994449621608E-09
Job Status                                 I                1
Nuclear derivative order                   I                1
External E-field                           R   N=          35
  0.00000000E+00  0.00000000E+00  0.00000000E+00  0.00000000E+00  0.00000000E+00
  0.00000000E+00  0.00000000E+00  0.00000000E+00  0.00000000E+00  0.00000000E+00
  0.00000000E+00  0.00000000E+00  0.00000000E+00  0.00000000E+00  0.00000000E+00
  0.00000000E+00  0.00000000E+00  0.00000000E+00  0.00000000E+00  0.00000000E+00
  0.00000000E+00  0.00000000E+00  0.00000000E+00  0.00000000E+00  0.00000000E+00
  0.00000000E+00  0.00000000E+00  0.00000000E+00  0.00000000E+00  0.00000000E+00
  0.00000000E+00  0.00000000E+00  0.00000000E+00  0.00000000E+00  0.00000000E+00
IOpCl                                      I                1
IROHF                                      I                0
Alpha Orbital Energies                     R   N=          56
 -1.10110590E+01 -1.08850941E+01 -1.32482871E+00 -9.72004724E-01 -9.62021750E-01
 -9.48432712E-01 -9.26643166E-01 -1.54143026E-01 -1.31430030E-01 -1.27408183E-01
 -1.26936297E-01 -1.23285843E-01 -1.20720555E-01 -1.02260380E-01 -2.97409553E-03
  7.05770543E-03  8.46121880E-03  4.18255781E-02  4.68474436E-02  1.74913390E-01
  2.12271427E-01  2.22132383E-01  2.57881481E-01  4.68287123E-01  4.85383480E-01
  4.92751798E-01  5.01200221E-01  6.41170569E-01  7.67726633E-01  7.69039056E-01
  8.69219970E-01  9.56142941E-01  9.69202858E-01  1.37425998E+00  1.42433678E+00
  1.43187730E+00  1.44546085E+00  1.47558013E+00  1.48286936E+00  1.88746477E+00
  1.90954715E+00  2.14910667E+00  2.37085572E+00  2.41442076E+00  2.48051309E+00
  2.49485929E+00  2.53356561E+00  2.64131869E+00  2.79350814E+00  3.01191942E+00
  3.03696672E+00  3.04766813E+00  3.45006297E+00  5.38930799E+00  2.44099951E+01
  2.55377053E+01
Beta Orbital Energies                      R   N=          56
 -1.10037344E+01 -1.08801576E+01 -1.24973899E+00 -9.46742027E-01 -9.36718341E-01
 -8.97513023E-01 -6.18170266E-01 -1.57407714E-01 -1.26331167E-01 -1.25498558E-01
 -1.23409518E-01 -1.16477426E-01 -1.14498712E-01 -1.02390427E-01  6.48121535E-03
  1.46054823E-02  2.48984459E-02  4.88151016E-02  5.17595087E-02  1.76987153E-01
  2.03378217E-01  2.18988955E-01  2.61368597E-01  4.65671871E-01  4.94071549E-01
  5.14151308E-01  5.24897299E-01  6.36038066E-01  8.11300697E-01  8.28477463E-01
  8.68888877E-01  9.74188725E-01  9.86233413E-01  1.38717575E+00  1.43839076E+00
  1.44539287E+00  1.47282834E+00  1.49663316E+00  1.50567365E+00  1.90965145E+00
  1.91854695E+00  2.15839615E+00  2.41715957E+00  2.42107049E+00  2.49713059E+00
  2.51228368E+00  2.53316288E+00  2.69082308E+00  2.85549837E+00  3.03118957E+00
  3.04512000E+00  3.07002560E+00  3.48281050E+00  5.44227361E+00  2.44205634E+01
  2.55523387E+01
Alpha MO coefficients                      R   N=        3136
  3.93390367E-01  3.22693793E-01  0.00000000E+00  0.00000000E+00 -1.10374504E-02
  1.22764335E-02  0.00000000E+00  0.00000000E+00  7.78050632E-03  3.11663487E-03
  0.00000000E+00  0.00000000E+00  3.77822427E-04 -2.01662949E-03  0.00000000E+00
  0.00000000E+00  1.54994512E-04  9.54296373E-03  0.00000000E+00  0.00000000E+00
  9.51484955E-05  0.00000000E+00  3.93389498E-01  3.22693070E-01  0.00000000E+00
  0.00000000E+00  1.10374331E-02  1.22765060E-02  0.00000000E+00  0.00000000E+00
 -7.78058421E-03  3.11368505E-03  0.00000000E+00  0.00000000E+00 -3.78835742E-04
 -2.01901628E-03  0.00000000E+00  0.00000000E+00 -1.55364774E-04  9.54298224E-03
  0.00000000E+00  0.00000000E+00  9.51481736E-05  0.00000000E+00 -2.59340003E-03
 -1.21744353E-02  4.33097705E-03  0.00000000E+00  0.00000000E+00  5.73277199E-03
 -2.59344001E-03 -1.21746119E-02  4.33081621E-03  0.00000000E+00  0.00000000E+00
 -5.73277031E-03  4.00393032E-01  3.30411987E-01  0.00000000E+00  0.00000000E+00
 -6.73041409E-03  1.28122432E-01  0.00000000E+00  0.00000000E+00 -6.80577619E-02
  3.33510484E-02  0.00000000E+00  0.00000000E+00 -6.40792699E-03 -8.51583085E-02
  0.00000000E+00  0.00000000E+00  1.31730512E-02  1.59301929E-02  0.00000000E+00
  0.00000000E+00  1.30300191E-04  0.00000000E+00 -4.00393881E-01 -3.30412678E-01
  0.00000000E+00  0.00000000E+00 -6.73043339E-03 -1.28122459E-01  0.00000000E+00
  0.00000000E+00 -6.80577407E-02 -3.33510182E-02  0.00000000E+00  0.00000000E+00
 -6.40799244E-03  8.51583190E-02  0.00000000E+00  0.00000000E+00  1.31730368E-02
 -1.59302379E-02  0.00000000E+00  0.00000000E+00 -1.30300384E-04  0.00000000E+00
 -7.71545001E-04  3.49369569E-03 -3.17343244E-03  0.00000000E+00  0.00000000E+00
  5.70166616E-04  7.71574188E-04 -3.49369300E-03  3.17338972E-03  0.00000000E+00
  0.00000000E+00  5.70192738E-04 -1.26947421E-01 -2.05795927E-01  0.00000000E+00
  0.00000000E+00 -1.58543962E-01  3.80266186E-01  0.00000000E+00  0.00000000E+00
 -1.00456985E-01  1.38338608E-01  0.00000000E+00  0.00000000E+00 -3.07966687E-02
 -6.87317111E-03  0.00000000E+00  0.00000000E+00  2.59465316E-02  1.94653114E-02
  0.00000000E+00  0.00000000E+00  8.44429143E-03  0.00000000E+00 -1.26947497E-01
 -2.05796062E-01  0.00000000E+00  0.00000000E+00  1.58543800E-01  3.80267163E-01
  0.00000000E+00  0.00000000E+00  1.00457430E-01  1.38336240E-01  0.00000000E+00
  0.00000000E+00  3.07957749E-02 -6.87307160E-03  0.00000000E+00  0.00000000E+00
 -2.59465799E-02  1.94653632E-02  0.00000000E+00  0.00000000E+00  8.44429945E-03
  0.00000000E+00  2.54020873E-02  2.06791668E-02 -4.88135610E-03  0.00000000E+00
  0.00000000E+00 -2.16568484E-07  2.54023269E-02  2.06794986E-02 -4.88172628E-03
  0.00000000E+00  0.00000000E+00  3.85185755E-07  0.00000000E+00  0.00000000E+00
  2.56064130E-01  0.00000000E+00  0.00000000E+00  0.00000000E+00  2.92981833E-01
  0.00000000E+00  0.00000000E+00  0.00000000E+00  1.02956612E-01  0.00000000E+00
  0.00000000E+00  0.00000000E+00 -8.78121314E-03  0.00000000E+00  0.00000000E+00
  0.00000000E+00 -4.76375172E-02  0.00000000E+00  0.00000000E+00  0.00000000E+00
  0.00000000E+00  0.00000000E+00  2.56064158E-01  0.00000000E+00  0.00000000E+00
  0.00000000E+00  2.92982098E-01  0.00000000E+00  0.00000000E+00  0.00000000E+00
  1.02956465E-01  0.00000000E+00  0.00000000E+00  0.00000000E+00 -8.78112847E-03
  0.00000000E+00  0.00000000E+00  0.00000000E+00  4.76376968E-02  0.00000000E+00
  0.00000000E+00  0.00000000E+00  0.00000000E+00  0.00000000E+00  0.00000000E+00
  1.60096617E-02  0.00000000E+00  0.00000000E+00  0.00000000E+00  0.00000000E+00
  0.00000000E+00  1.60098263E-02  0.00000000E+00  0.00000000E+00  6.08981312E-02
  1.02468575E-01  0.00000000E+00  0.00000000E+00 -1.09688218E-01 -2.89532291E-01
  0.00000000E+00  0.00000000E+00 -1.20604194E-01 -8.07518517E-01  0.00000000E+00
  0.00000000E+00  1.30161761E-01  8.51263213E-01  0.00000000E+00  0.00000000E+00
 -1.27315796E-01 -1.17309405E-02  0.00000000E+00  0.00000000E+00 -5.78766978E-03
  0.00000000E+00 -6.08964960E-02 -1.02466248E-01  0.00000000E+00  0.00000000E+00
 -1.09717654E-01  2.89538106E-01  0.00000000E+00  0.00000000E+00 -1.20628166E-01
  8.07528589E-01  0.00000000E+00  0.00000000E+00  1.30152550E-01 -8.51262105E-01
  0.00000000E+00  0.00000000E+00 -1.27316659E-01  1.17289635E-02  0.00000000E+00
  0.00000000E+00  5.78767236E-03  0.00000000E+00 -1.43342737E-01 -1.94168268E-01
 -2.07447541E-02  0.00000000E+00  0.00000000E+00  2.58951160E-02  1.43359359E-01
  1.94191116E-01  2.07433848E-02  0.00000000E+00  0.00000000E+00  2.58992647E-02
  1.41443236E-02  1.99266742E-02  0.00000000E+00  0.00000000E+00  2.62199271E-01
  5.86168772E-02  0.00000000E+00  0.00000000E+00  2.19030497E-01  1.02382963E-01
  0.00000000E+00  0.00000000E+00  9.04930650E-02  1.07336456E-02  0.00000000E+00
  0.00000000E+00  9.74658253E-03 -1.80332151E-02  0.00000000E+00  0.00000000E+00
  1.11825340E-04  0.00000000E+00  1.41510000E-02  1.99379251E-02  0.00000000E+00
  0.00000000E+00 -2.62187320E-01  5.85870562E-02  0.00000000E+00  0.00000000E+00
 -2.19014859E-01  1.02304433E-01  0.00000000E+00  0.00000000E+00 -9.05032309E-02
  1.08412816E-02  0.00000000E+00  0.00000000E+00 -9.73043150E-03 -1.80343632E-02
  0.00000000E+00  0.00000000E+00  1.11182298E-04  0.00000000E+00  1.45874253E-01
  2.04449863E-01 -1.51088189E-02  0.00000000E+00  0.00000000E+00 -3.64679126E-02
  1.45858972E-01  2.04429231E-01 -1.51107592E-02  0.00000000E+00  0.00000000E+00
  3.64652470E-02  0.00000000E+00  0.00000000E+00  0.00000000E+00  2.55652746E-01
  0.00000000E+00  0.00000000E+00  0.00000000E+00  2.90469341E-01  0.00000000E+00
  0.00000000E+00  0.00000000E+00  1.08507640E-01  0.00000000E+00  0.00000000E+00
  0.00000000E+00 -8.06786793E-03  0.00000000E+00  0.00000000E+00  0.00000000E+00
 -4.33207652E-02  0.00000000E+00  0.00000000E+00  0.00000000E+00  0.00000000E+00
  0.00000000E+00  2.55652775E-01  0.00000000E+00  0.00000000E+00  0.00000000E+00
  2.90469604E-01  0.00000000E+00  0.00000000E+00  0.00000000E+00  1.08507499E-01
  0.00000000E+00  0.00000000E+00  0.00000000E+00 -8.06778782E-03  0.00000000E+00
  0.00000000E+00  0.00000000E+00  4.33209498E-02  0.00000000E+00  0.00000000E+00
  0.00000000E+00  0.00000000E+00  0.00000000E+00  0.00000000E+00  1.68397496E-02
  0.00000000E+00  0.00000000E+00  0.00000000E+00  0.00000000E+00  0.00000000E+00
  1.68399174E-02  0.00000000E+00  1.94442464E-02  3.66520097E-02  0.00000000E+00
  0.00000000E+00 -3.79163111E-02 -1.04285477E-01  0.00000000E+00  0.00000000E+00
 -5.59737512E-02 -2.37797221E-01  0.00000000E+00  0.00000000E+00 -3.26067922E-03
  9.16338575E-01  0.00000000E+00  0.00000000E+00  5.63477723E-01 -2.06337281E-02
  0.00000000E+00  0.00000000E+00 -1.73974900E-04  0.00000000E+00  1.94441427E-02
  3.66518318E-02  0.00000000E+00  0.00000000E+00  3.79161881E-02 -1.04286282E-01
  0.00000000E+00  0.00000000E+00  5.59724809E-02 -2.37833830E-01  0.00000000E+00
  0.00000000E+00  3.24603527E-03  9.16539570E-01  0.00000000E+00  0.00000000E+00
 -5.63447622E-01 -2.06339114E-02  0.00000000E+00  0.00000000E+00 -1.73957997E-04
  0.00000000E+00 -2.90978507E-02  1.10804805E-03 -3.21980610E-01  0.00000000E+00
  0.00000000E+00  8.48904503E-03 -2.90980143E-02  1.10640849E-03 -3.21986260E-01
  0.00000000E+00  0.00000000E+00 -8.48901516E-03  0.00000000E+00  0.00000000E+00
  1.17169155E-01  0.00000000E+00  0.00000000E+00  0.00000000E+00  2.28147262E-01
  0.00000000E+00  0.00000000E+00  0.00000000E+00  7.91801481E-01  0.00000000E+00
  0.00000000E+00  0.00000000E+00  1.70810049E+00  0.00000000E+00  0.00000000E+00
  0.00000000E+00  4.61143325E-02  0.00000000E+00  0.00000000E+00  0.00000000E+00
  0.00000000E+00  0.00000000E+00 -1.17170253E-01  0.00000000E+00  0.00000000E+00
  0.00000000E+00 -2.28148311E-01  0.00000000E+00  0.00000000E+00  0.00000000E+00
 -7.91802486E-01  0.00000000E+00  0.00000000E+00  0.00000000E+00 -1.70809148E+00
  0.00000000E+00  0.00000000E+00  0.00000000E+00  4.61139673E-02  0.00000000E+00
  0.00000000E+00  0.00000000E+00  0.00000000E+00  0.00000000E+00  0.00000000E+00
  3.31016882E-02  0.00000000E+00  0.00000000E+00  0.00000000E+00  0.00000000E+00
  0.00000000E+00 -3.31015298E-02  0.00000000E+00  0.00000000E+00  0.00000000E+00
  0.00000000E+00 -6.80521880E-02  0.00000000E+00  0.00000000E+00  0.00000000E+00
 -6.41931287E-02  0.00000000E+00  0.00000000E+00  0.00000000E+00 -6.90004508E-02
  0.00000000E+00  0.00000000E+00  0.00000000E+00  5.47199308E-01  0.00000000E+00
  0.00000000E+00  0.00000000E+00  2.26432264E-02  0.00000000E+00  0.00000000E+00
  0.00000000E+00  0.00000000E+00  0.00000000E+00 -6.80502074E-02  0.00000000E+00
  0.00000000E+00  0.00000000E+00 -6.41893741E-02  0.00000000E+00  0.00000000E+00
  0.00000000E+00 -6.89869879E-02  0.00000000E+00  0.00000000E+00  0.00000000E+00
  5.47227020E-01  0.00000000E+00  0.00000000E+00  0.00000000E+00 -2.26440497E-02
  0.00000000E+00  0.00000000E+00  0.00000000E+00  0.00000000E+00  0.00000000E+00
  0.00000000E+00  8.75430216E-03  0.00000000E+00  0.00000000E+00  0.00000000E+00
  0.00000000E+00  0.00000000E+00  8.75475508E-03  0.00000000E+00  0.00000000E+00
 -2.35701581E-02 -4.24701471E-02  0.00000000E+00  0.00000000E+00  4.23100146E-02
  1.43852197E-01  0.00000000E+00  0.00000000E+00  4.09918506E-02  3.13639862E+00
  0.00000000E+00  0.00000000E+00 -8.40085548E-01  3.42583446E+01  0.00000000E+00
  0.00000000E+00 -5.72632864E+00 -4.59357731E-03  0.00000000E+00  0.00000000E+00
  2.34832896E-03  0.00000000E+00  2.35704425E-02  4.24706485E-02  0.00000000E+00
  0.00000000E+00  4.23073980E-02 -1.43852063E-01  0.00000000E+00  0.00000000E+00
  4.09892141E-02 -3.13639028E+00  0.00000000E+00  0.00000000E+00 -8.40091556E-01
 -3.42583388E+01  0.00000000E+00  0.00000000E+00 -5.72630345E+00  4.59260302E-03
  0.00000000E+00  0.00000000E+00 -2.34826286E-03  0.00000000E+00  2.18237445E-03
  8.67776165E-03  1.27432780E-01  0.00000000E+00  0.00000000E+00 -2.47428866E-02
 -2.18364351E-03 -8.68234197E-03 -1.27448225E-01  0.00000000E+00  0.00000000E+00
 -2.47424745E-02  0.00000000E+00  0.00000000E+00  0.00000000E+00 -6.74095440E-02
  0.00000000E+00  0.00000000E+00  0.00000000E+00 -6.87763102E-02  0.00000000E+00
  0.00000000E+00  0.00000000E+00 -7.06696498E-02  0.00000000E+00  0.00000000E+00
  0.00000000E+00  5.48213727E-01  0.00000000E+00  0.00000000E+00  0.00000000E+00
  2.09051083E-02  0.00000000E+00  0.00000000E+00  0.00000000E+00  0.00000000E+00
  0.00000000E+00 -6.74123036E-02  0.00000000E+00  0.00000000E+00  0.00000000E+00
 -6.87812807E-02  0.00000000E+00  0.00000000E+00  0.00000000E+00 -7.06895437E-02
  0.00000000E+00  0.00000000E+00  0.00000000E+00  5.48161930E-01  0.00000000E+00
  0.00000000E+00  0.00000000E+00 -2.09038400E-02  0.00000000E+00  0.00000000E+00
  0.00000000E+00  0.00000000E+00  0.00000000E+00  0.00000000E+00  8.54076548E-03
  0.00000000E+00  0.00000000E+00  0.00000000E+00  0.00000000E+00  0.00000000E+00
  8.53981707E-03  0.00000000E+00  0.00000000E+00  0.00000000E+00  0.00000000E+00
 -1.03893682E-01  0.00000000E+00  0.00000000E+00  0.00000000E+00 -1.84231582E-01
  0.00000000E+00  0.00000000E+00  0.00000000E+00 -7.51481971E-01  0.00000000E+00
  0.00000000E+00  0.00000000E+00 -1.91482588E+00  0.00000000E+00  0.00000000E+00
  0.00000000E+00 -4.87889973E-02  0.00000000E+00  0.00000000E+00  0.00000000E+00
  0.00000000E+00  0.00000000E+00  1.03891845E-01  0.00000000E+00  0.00000000E+00
  0.00000000E+00  1.84229711E-01  0.00000000E+00  0.00000000E+00  0.00000000E+00
  7.51479956E-01  0.00000000E+00  0.00000000E+00  0.00000000E+00  1.91484065E+00
  0.00000000E+00  0.00000000E+00  0.00000000E+00 -4.87895603E-02  0.00000000E+00
  0.00000000E+00  0.00000000E+00  0.00000000E+00  0.00000000E+00  0.00000000E+00
 -3.19502067E-02  0.00000000E+00  0.00000000E+00  0.00000000E+00  0.00000000E+00
  0.00000000E+00  3.19504106E-02  0.00000000E+00  1.41510079E-02  2.55428820E-02
  0.00000000E+00  0.00000000E+00  1.18548180E-01 -9.67188742E-03  0.00000000E+00
  0.00000000E+00  1.02866616E-01  2.56175725E-01  0.00000000E+00  0.00000000E+00
  1.84412363E-01  2.49634652E-01  0.00000000E+00  0.00000000E+00 -1.65956401E+00
 -5.22263823E-02  0.00000000E+00  0.00000000E+00  3.27111750E-03  0.00000000E+00
  1.41508832E-02  2.55426507E-02  0.00000000E+00  0.00000000E+00 -1.18548476E-01
 -9.66888919E-03  0.00000000E+00  0.00000000E+00 -1.02865169E-01  2.56264920E-01
  0.00000000E+00  0.00000000E+00 -1.84383038E-01  2.50167120E-01  0.00000000E+00
  0.00000000E+00  1.65965882E+00 -5.22260201E-02  0.00000000E+00  0.00000000E+00
  3.27111393E-03  0.00000000E+00 -4.62140237E-02 -1.49226840E-01 -7.34005669E-01
  0.00000000E+00  0.00000000E+00 -2.77243038E-02 -4.62130375E-02 -1.49223257E-01
 -7.33993710E-01  0.00000000E+00  0.00000000E+00  2.77246526E-02  0.00000000E+00
  0.00000000E+00 -1.28589837E-01  0.00000000E+00  0.00000000E+00  0.00000000E+00
 -1.98476669E-01  0.00000000E+00  0.00000000E+00  0.00000000E+00 -1.19613248E+00
  0.00000000E+00  0.00000000E+00  0.00000000E+00  3.49307058E+00  0.00000000E+00
  0.00000000E+00  0.00000000E+00 -6.05905668E-02  0.00000000E+00  0.00000000E+00
  0.00000000E+00  0.00000000E+00  0.00000000E+00  1.28589838E-01  0.00000000E+00
  0.00000000E+00  0.00000000E+00  1.98476806E-01  0.00000000E+00  0.00000000E+00
  0.00000000E+00  1.19613220E+00  0.00000000E+00  0.00000000E+00  0.00000000E+00
 -3.49307054E+00  0.00000000E+00  0.00000000E+00  0.00000000E+00 -6.05906428E-02
  0.00000000E+00  0.00000000E+00  0.00000000E+00  0.00000000E+00  0.00000000E+00
  0.00000000E+00 -1.42916698E-02  0.00000000E+00  0.00000000E+00  0.00000000E+00
  0.00000000E+00  0.00000000E+00  1.42917053E-02  0.00000000E+00  0.00000000E+00
 -6.93023614E-03 -1.24478683E-02  0.00000000E+00  0.00000000E+00  4.31122943E-03
 -2.07405456E-01  0.00000000E+00  0.00000000E+00  1.63400727E-01 -5.77673610E+00
  0.00000000E+00  0.00000000E+00  2.23846825E+00  1.95118246E+02  0.00000000E+00
  0.00000000E+00 -2.84294679E+01 -5.47893889E-02  0.00000000E+00  0.00000000E+00
  2.43883566E-03  0.00000000E+00  6.93013142E-03  1.24476618E-02  0.00000000E+00
  0.00000000E+00  4.31001877E-03  2.07405967E-01  0.00000000E+00  0.00000000E+00
  1.63399714E-01  5.77674077E+00  0.00000000E+00  0.00000000E+00  2.23846691E+00
 -1.95118240E+02  0.00000000E+00  0.00000000E+00 -2.84295099E+01  5.47893287E-02
  0.00000000E+00  0.00000000E+00 -2.43880959E-03  0.00000000E+00 -4.37287674E-02
 -1.94688322E-01 -2.17130922E+00  0.00000000E+00  0.00000000E+00 -1.01002845E-02
  4.37280597E-02  1.94686675E-01  2.17130204E+00  0.00000000E+00  0.00000000E+00
 -1.01002588E-02  0.00000000E+00  0.00000000E+00  0.00000000E+00 -1.30322283E-01
  0.00000000E+00  0.00000000E+00  0.00000000E+00 -1.78551971E-01  0.00000000E+00
  0.00000000E+00  0.00000000E+00 -1.30603658E+00  0.00000000E+00  0.00000000E+00
  0.00000000E+00  3.40768570E+00  0.00000000E+00  0.00000000E+00  0.00000000E+00
 -7.13746271E-02  0.00000000E+00  0.00000000E+00  0.00000000E+00  0.00000000E+00
  0.00000000E+00  1.30322279E-01  0.00000000E+00  0.00000000E+00  0.00000000E+00
  1.78552098E-01  0.00000000E+00  0.00000000E+00  0.00000000E+00  1.30603628E+00
  0.00000000E+00  0.00000000E+00  0.00000000E+00 -3.40768562E+00  0.00000000E+00
  0.00000000E+00  0.00000000E+00 -7.13746995E-02  0.00000000E+00  0.00000000E+00
  0.00000000E+00  0.00000000E+00  0.00000000E+00  0.00000000E+00 -1.68866065E-02