NBO Analysis                                                            
SP        UM062X                                                      CBSB2**             
Number of atoms                            I                4
Info1-9                                    I   N=           9
          17          12           0           0           0         110
           1          18        -502
Full Title                                 C   N=           1
NBO Analysis
Route                                      C   N=           3
#p UM062X/6-311+G** Pop=NBO Read    
Charge                                     I                0
Multiplicity                               I                1
Number of electrons                        I               26
Number of alpha electrons                  I               13
Number of beta electrons                   I               13
Number of basis functions                  I               52
Number of independent functions            I               52
Number of point charges in /Mol/           I                0
Number of translation vectors              I                0
Atomic numbers                             I   N=           4
           8          16           1           1
Nuclear charges                            R   N=           4
  8.00000000E+00  1.60000000E+01  1.00000000E+00  1.00000000E+00
Current cartesian coordinates              R   N=          12
 -7.75845862E-21  1.85631990E-20  2.71299657E+00 -8.67809460E-21  4.56781632E-21
 -1.39151314E+00  9.11836624E-20 -1.18218231E-19  4.54896763E+00  1.08251213E-19
 -9.65961553E-20 -3.98872996E+00
Number of symbols in /Mol/                 I                0
Force Field                                I                0
Atom Types                                 C   N=           4
                                                
Int Atom Types                             I   N=           4
           0           0           0           0
MM charges                                 R   N=           4
  0.00000000E+00  0.00000000E+00  0.00000000E+00  0.00000000E+00
Integer atomic weights                     I   N=           4
          16          32           1           1
Real atomic weights                        R   N=           4
  1.59949146E+01  3.19720718E+01  1.00782504E+00  1.00782504E+00
Atom fragment info                         I   N=           4
           0           0           0           0
Atom residue num                           I   N=           4
           0           0           0           0
Nuclear spins                              I   N=           4
           0           0           1           1
Nuclear ZEff                               R   N=           4
 -5.60000000E+00 -1.36000000E+01 -1.00000000E+00 -1.00000000E+00
Nuclear ZNuc                               R   N=           4
  8.00000000E+00  1.60000000E+01  1.00000000E+00  1.00000000E+00
Nuclear QMom                               R   N=           4
  0.00000000E+00  0.00000000E+00  0.00000000E+00  0.00000000E+00
Nuclear GFac                               R   N=           4
  0.00000000E+00  0.00000000E+00  2.79284600E+00  2.79284600E+00
MicOpt                                     I   N=           4
          -1          -1          -1          -1
Number of residues                         I                0
Number of secondary structures             I                0
SymInf integers                            I   N=          26
           1           4           1           1           1          -1
          -1           1          -1           1           1           1
          -1           1           0           0           0           0
           0           0           0           0           0           0
           0           0
RotTr to input orientation                 R   N=          12
  4.74435716E-07  2.84232720E-06  1.00000000E+00  2.84232720E-06  1.00000000E+00
 -2.84232855E-06 -1.00000000E+00  2.84232855E-06  4.74427637E-07  6.60741715E-01
 -1.35707048E-04 -5.78546921E-07
Number of contracted shells                I               17
Number of primitive shells                 I               40
Pure/Cartesian d shells                    I                1
Pure/Cartesian f shells                    I                0
Highest angular momentum                   I                2
Largest degree of contraction              I                6
Shell types                                I   N=          17
           0          -1          -1          -1           2           0
          -1          -1          -1          -1           2           0
           0           1           0           0           1
Number of primitives per shell             I   N=          17
           6           3           1           1           1           6
           6           3           1           1           1           3
           1           1           3           1           1
Shell to atom map                          I   N=          17
           1           1           1           1           1           2
           2           2           2           2           2           3
           3           3           4           4           4
Primitive exponents                        R   N=          40
  5.48467166E+03  8.25234946E+02  1.88046958E+02  5.29645000E+01  1.68975704E+01
  5.79963534E+00  1.55396162E+01  3.59993359E+00  1.01376175E+00  2.70005823E-01
  8.45000000E-02  1.29200000E+00  2.19171000E+04  3.30149000E+03  7.54146000E+02
  2.12711000E+02  6.79896000E+01  2.30515000E+01  4.23735000E+02  1.00710000E+02
  3.21599000E+01  1.18079000E+01  4.63110000E+00  1.87025000E+00  2.61584000E+00
  9.22167000E-01  3.41287000E-01  1.17167000E-01  4.05000000E-02  6.50000000E-01
  1.87311370E+01  2.82539436E+00  6.40121692E-01  1.61277759E-01  7.50000000E-01
  1.87311370E+01  2.82539436E+00  6.40121692E-01  1.61277759E-01  7.50000000E-01
Contraction coefficients                   R   N=          40
  1.83107443E-03  1.39501722E-02  6.84450781E-02  2.32714336E-01  4.70192898E-01
  3.58520853E-01 -1.10777550E-01 -1.48026263E-01  1.13076702E+00  1.00000000E+00
  1.00000000E+00  1.00000000E+00  1.86924085E-03  1.42303065E-02  6.96962317E-02
  2.38487108E-01  4.83307220E-01  3.38074154E-01 -2.37677050E-03 -3.16930067E-02
 -1.13317024E-01  5.60900118E-02  5.92255124E-01  4.55006095E-01 -2.50373114E-01
  6.69567631E-02  1.05450627E+00  1.00000000E+00  1.00000000E+00  1.00000000E+00
  3.34946043E-02  2.34726953E-01  8.13757326E-01  1.00000000E+00  1.00000000E+00
  3.34946043E-02  2.34726953E-01  8.13757326E-01  1.00000000E+00  1.00000000E+00
P(S=P) Contraction coefficients            R   N=          40
  0.00000000E+00  0.00000000E+00  0.00000000E+00  0.00000000E+00  0.00000000E+00
  0.00000000E+00  7.08742682E-02  3.39752839E-01  7.27158577E-01  1.00000000E+00
  1.00000000E+00  0.00000000E+00  0.00000000E+00  0.00000000E+00  0.00000000E+00
  0.00000000E+00  0.00000000E+00  0.00000000E+00  4.06100998E-03  3.06812999E-02
  1.30451999E-01  3.27204999E-01  4.52850998E-01  2.56041999E-01 -1.45104895E-02
  3.10262776E-01  7.54482456E-01  1.00000000E+00  1.00000000E+00  0.00000000E+00
  0.00000000E+00  0.00000000E+00  0.00000000E+00  0.00000000E+00  0.00000000E+00
  0.00000000E+00  0.00000000E+00  0.00000000E+00  0.00000000E+00  0.00000000E+00
Coordinates of each shell                  R   N=          51
 -7.80858498E-21  6.77626358E-21  2.71299657E+00 -7.80858498E-21  6.77626358E-21
  2.71299657E+00 -7.80858498E-21  6.77626358E-21  2.71299657E+00 -7.80858498E-21
  6.77626358E-21  2.71299657E+00 -7.80858498E-21  6.77626358E-21  2.71299657E+00
 -8.57620859E-21  6.77626358E-21 -1.39151314E+00 -8.57620859E-21  6.77626358E-21
 -1.39151314E+00 -8.57620859E-21  6.77626358E-21 -1.39151314E+00 -8.57620859E-21
  6.77626358E-21 -1.39151314E+00 -8.57620859E-21  6.77626358E-21 -1.39151314E+00
 -8.57620859E-21  6.77626358E-21 -1.39151314E+00  9.09501627E-20 -1.08420217E-19
  4.54896763E+00  9.09501627E-20 -1.08420217E-19  4.54896763E+00  9.09501627E-20
 -1.08420217E-19  4.54896763E+00  1.08420217E-19 -1.08420217E-19 -3.98872996E+00
  1.08420217E-19 -1.08420217E-19 -3.98872996E+00  1.08420217E-19 -1.08420217E-19
 -3.98872996E+00
Num ILSW                                   I              100
ILSW                                       I   N=         100
           1           1           0           0           2           0
           0           0           0           0        4336          -1
           5           0           0           0           0           0
           0           0           0           0           0           0
           1           0           0           0           0           0
           0           0      100000           0          -1           0
           0           0           0           0           0           0
           0           0           0           1           0           0
           0 -2000000000           1           0           0           0
           0           0           4          52           0           0
           0           0          55           0           0           0
           0           0           0           4           0           1
           0           0           0           0           0           0
           0           0           0           0           0           0
           0           0           0           0           0           0
           0           0           0           0           0           0
           0           0           0           0
Num RLSW                                   I               52
RLSW                                       R   N=          52
  1.00000000E+00  1.00000000E+00  1.00000000E+00  1.00000000E+00  5.40000000E-01
  0.00000000E+00  0.00000000E+00  1.00000000E+00  0.00000000E+00  0.00000000E+00
  0.00000000E+00  0.00000000E+00  1.00000000E+00  0.00000000E+00  0.00000000E+00
  0.00000000E+00  0.00000000E+00  1.00000000E+00  0.00000000E+00  0.00000000E+00
  0.00000000E+00  0.00000000E+00  1.00000000E+00  0.00000000E+00  0.00000000E+00
  0.00000000E+00  0.00000000E+00  1.00000000E+00  0.00000000E+00  0.00000000E+00
  0.00000000E+00  0.00000000E+00  1.00000000E+00  0.00000000E+00  0.00000000E+00
  0.00000000E+00  0.00000000E+00  0.00000000E+00  1.00000000E+00  1.00000000E+00
  0.00000000E+00  1.00000000E+00  0.00000000E+00  0.00000000E+00  0.00000000E+00
  0.00000000E+00  0.00000000E+00  0.00000000E+00  0.00000000E+00  0.00000000E+00
  0.00000000E+00  0.00000000E+00
MxBond                                     I                1
NBond                                      I   N=           4
           1           1           1           1
IBond                                      I   N=           4
           3           4           1           2
RBond                                      R   N=           4
  1.00000000E+00  1.00000000E+00  1.00000000E+00  1.00000000E+00
Virial Ratio                               R      2.003653755670019E+00
SCF Energy                                 R     -4.743309332661740E+02
Total Energy                               R     -4.743309332661740E+02
S**2                                       R      5.329070518200751E-15
S**2 after annihilation                    R     -1.792344050954867E-12
RMS Density                                R      8.523722859642162E-09
Job Status                                 I                1
Nuclear derivative order                   I                0
External E-field                           R   N=          35
  0.00000000E+00  0.00000000E+00  0.00000000E+00  0.00000000E+00  0.00000000E+00
  0.00000000E+00  0.00000000E+00  0.00000000E+00  0.00000000E+00  0.00000000E+00
  0.00000000E+00  0.00000000E+00  0.00000000E+00  0.00000000E+00  0.00000000E+00
  0.00000000E+00  0.00000000E+00  0.00000000E+00  0.00000000E+00  0.00000000E+00
  0.00000000E+00  0.00000000E+00  0.00000000E+00  0.00000000E+00  0.00000000E+00
  0.00000000E+00  0.00000000E+00  0.00000000E+00  0.00000000E+00  0.00000000E+00
  0.00000000E+00  0.00000000E+00  0.00000000E+00  0.00000000E+00  0.00000000E+00
IOpCl                                      I                1
IROHF                                      I                0
Alpha Orbital Energies                     R   N=          52
 -9.00034108E+01 -1.96687589E+01 -8.34221724E+00 -6.26324218E+00 -6.25976230E+00
 -6.25236363E+00 -1.07785224E+00 -8.24371010E-01 -5.75079720E-01 -4.09005858E-01
 -3.96734569E-01 -3.60736354E-01 -3.30928499E-01 -1.92644190E-01  2.20371479E-02
  5.53945445E-02  6.56471645E-02  7.39989675E-02  9.41622109E-02  1.77646380E-01
  2.11767098E-01  2.15975077E-01  3.07348569E-01  3.44765470E-01  4.74133942E-01
  5.09416278E-01  5.21873503E-01  6.74093031E-01  7.22538793E-01  7.42817718E-01
  7.44333002E-01  7.95151853E-01  7.96299943E-01  1.11315465E+00  1.12503333E+00
  1.22019996E+00  1.22513280E+00  1.41399032E+00  1.42070158E+00  1.46739363E+00
  1.47853227E+00  1.54905556E+00  1.64660460E+00  2.13338919E+00  2.29221767E+00
  2.88812819E+00  2.89727939E+00  3.16804045E+00  3.18679097E+00  3.92096938E+00
  3.95605642E+00  6.15251349E+00
Beta Orbital Energies                      R   N=          52
 -9.00034108E+01 -1.96687589E+01 -8.34221724E+00 -6.26324218E+00 -6.25976230E+00
 -6.25236363E+00 -1.07785224E+00 -8.24371010E-01 -5.75079720E-01 -4.09005858E-01
 -3.96734569E-01 -3.60736354E-01 -3.30928499E-01 -1.92644190E-01  2.20371479E-02
  5.53945445E-02  6.56471645E-02  7.39989675E-02  9.41622109E-02  1.77646380E-01
  2.11767098E-01  2.15975077E-01  3.07348569E-01  3.44765470E-01  4.74133942E-01
  5.09416278E-01  5.21873503E-01  6.74093031E-01  7.22538793E-01  7.42817718E-01
  7.44333002E-01  7.95151853E-01  7.96299943E-01  1.11315465E+00  1.12503333E+00
  1.22019996E+00  1.22513280E+00  1.41399032E+00  1.42070158E+00  1.46739363E+00
  1.47853227E+00  1.54905556E+00  1.64660460E+00  2.13338919E+00  2.29221767E+00
  2.88812819E+00  2.89727939E+00  3.16804045E+00  3.18679097E+00  3.92096938E+00
  3.95605642E+00  6.15251349E+00
Alpha MO coefficients                      R   N=        2704
 -5.87820146E-06 -6.13350338E-05  0.00000000E+00  0.00000000E+00 -8.26171798E-07
  1.19333028E-04  0.00000000E+00  0.00000000E+00 -8.14241390E-05 -1.52034779E-04
  0.00000000E+00  0.00000000E+00  4.06731536E-04 -2.82773629E-05 -2.85347419E-05
  7.45849550E-05  0.00000000E+00  0.00000000E+00  0.00000000E+00  9.96069102E-01
  1.49625699E-02  0.00000000E+00  0.00000000E+00 -3.94090824E-05 -2.40506962E-02
  0.00000000E+00  0.00000000E+00 -5.72327795E-05  4.04472332E-03  0.00000000E+00
  0.00000000E+00  1.46321354E-04 -6.86595567E-04  0.00000000E+00  0.00000000E+00
 -1.48575647E-05  8.31055543E-03  8.32185995E-03  8.34116873E-03  0.00000000E+00
  0.00000000E+00  0.00000000E+00  3.57832936E-05 -2.16508335E-04  0.00000000E+00
  0.00000000E+00  1.79030660E-05  9.86238980E-05 -1.58524281E-04  0.00000000E+00
  0.00000000E+00 -8.41836119E-05  9.94213111E-01  3.06093093E-02  0.00000000E+00
  0.00000000E+00  1.21629922E-03 -3.86011207E-03  0.00000000E+00  0.00000000E+00
 -3.74881418E-04  2.79369345E-03  0.00000000E+00  0.00000000E+00 -1.30538422E-03
 -5.07337097E-03 -5.07674886E-03 -4.73052576E-03  0.00000000E+00  0.00000000E+00
  0.00000000E+00 -5.64271614E-08  1.09614110E-05  0.00000000E+00  0.00000000E+00
 -1.90513579E-05 -4.93582957E-05  0.00000000E+00  0.00000000E+00  7.68003557E-05
 -4.88509789E-04  0.00000000E+00  0.00000000E+00 -9.63124159E-04 -9.67574969E-04
  0.00000000E+00  0.00000000E+00 -6.19442723E-04  1.09135880E-05  2.13640410E-05
  1.44482479E-04  0.00000000E+00  0.00000000E+00  0.00000000E+00 -1.22489893E-04
  7.12043631E-04  0.00000000E+00  0.00000000E+00  6.11168147E-04  2.35256950E-05
 -5.30147564E-04  0.00000000E+00  0.00000000E+00 -5.18175929E-05  5.90327026E-05
  2.35100593E-04  0.00000000E+00  0.00000000E+00 -1.07941682E-04 -1.38928486E-03
  0.00000000E+00  0.00000000E+00 -2.34104889E-04  1.55868548E-03  0.00000000E+00
  0.00000000E+00 -4.04225219E-03  2.18347562E-04  2.31983187E-04 -3.58187953E-05
  0.00000000E+00  0.00000000E+00  0.00000000E+00 -2.80418099E-01  1.02420680E+00
  0.00000000E+00  0.00000000E+00 -6.39441975E-03  6.99870885E-02  0.00000000E+00
  0.00000000E+00 -7.90241571E-04 -2.04475321E-02  0.00000000E+00  0.00000000E+00
 -2.40789811E-03  3.96748757E-03  0.00000000E+00  0.00000000E+00  5.45376258E-05
 -1.65535332E-02 -1.53795797E-02 -1.51928717E-02  0.00000000E+00  0.00000000E+00
  0.00000000E+00 -1.90028505E-04  2.74534031E-03  0.00000000E+00  0.00000000E+00
 -1.38908984E-04 -6.27302970E-04 -2.40939510E-04  0.00000000E+00  0.00000000E+00
 -7.34014069E-04  0.00000000E+00  0.00000000E+00  0.00000000E+00 -3.14275692E-05
  0.00000000E+00  0.00000000E+00  0.00000000E+00  3.43418550E-04  0.00000000E+00
  0.00000000E+00  0.00000000E+00 -2.36056327E-05  0.00000000E+00  0.00000000E+00
  0.00000000E+00  0.00000000E+00  0.00000000E+00  0.00000000E+00 -4.82182429E-06
  0.00000000E+00  0.00000000E+00  0.00000000E+00  9.92360577E-01  0.00000000E+00
  0.00000000E+00  0.00000000E+00  2.59347977E-02  0.00000000E+00  0.00000000E+00
  0.00000000E+00 -9.76004886E-03  0.00000000E+00  0.00000000E+00  0.00000000E+00
  3.45121516E-03  0.00000000E+00  0.00000000E+00  0.00000000E+00  0.00000000E+00
  0.00000000E+00  0.00000000E+00 -7.81527019E-04  0.00000000E+00  0.00000000E+00
  0.00000000E+00 -1.14919174E-04  0.00000000E+00  0.00000000E+00  0.00000000E+00
  0.00000000E+00 -4.04902512E-04  0.00000000E+00  1.00218140E-04  3.48249683E-04
  0.00000000E+00  0.00000000E+00 -1.99023003E-04 -1.55830109E-03  0.00000000E+00
  0.00000000E+00  4.17333800E-04  6.13530578E-03  0.00000000E+00  0.00000000E+00
 -5.32095271E-03  3.52139382E-04  3.58366376E-04  9.82181935E-05  0.00000000E+00
  0.00000000E+00  0.00000000E+00 -1.90582212E-03  7.30280430E-03  0.00000000E+00
  0.00000000E+00  9.92388620E-01 -5.96317278E-04  0.00000000E+00  0.00000000E+00
  2.63727483E-02 -2.16384894E-03  0.00000000E+00  0.00000000E+00 -1.50273356E-02
 -2.20584693E-03  0.00000000E+00  0.00000000E+00  1.61526359E-03  7.53822970E-04
  6.70919691E-04 -1.04528150E-03  0.00000000E+00  0.00000000E+00  0.00000000E+00
 -2.97977663E-04  1.38953937E-03  0.00000000E+00  0.00000000E+00  1.17204848E-04
  1.57587747E-03 -4.04716670E-03  0.00000000E+00  0.00000000E+00  1.32582110E-03
  0.00000000E+00  0.00000000E+00 -5.87189588E-06  0.00000000E+00  0.00000000E+00
  0.00000000E+00  2.72155818E-04  0.00000000E+00  0.00000000E+00  0.00000000E+00
 -8.98753489E-06  0.00000000E+00  0.00000000E+00  0.00000000E+00  0.00000000E+00
  0.00000000E+00  0.00000000E+00 -2.03849289E-06  0.00000000E+00  0.00000000E+00
  0.00000000E+00  9.93428430E-01  0.00000000E+00  0.00000000E+00  0.00000000E+00
  2.22852715E-02  0.00000000E+00  0.00000000E+00  0.00000000E+00 -7.92431243E-03
  0.00000000E+00  0.00000000E+00  0.00000000E+00  2.75275502E-03  0.00000000E+00
  0.00000000E+00  0.00000000E+00  0.00000000E+00  0.00000000E+00  0.00000000E+00
 -5.84180975E-04  0.00000000E+00  0.00000000E+00  0.00000000E+00 -9.08472381E-05
  0.00000000E+00  0.00000000E+00  0.00000000E+00  0.00000000E+00 -3.02543557E-04
  0.00000000E+00  0.00000000E+00 -2.21393050E-01  5.02504104E-01  0.00000000E+00
  0.00000000E+00  8.59152518E-02  5.01171647E-01  0.00000000E+00  0.00000000E+00
  7.47854485E-03 -5.15324563E-02  0.00000000E+00  0.00000000E+00  3.08877814E-02
 -1.99676743E-02 -1.28356810E-02 -3.13043645E-03  0.00000000E+00  0.00000000E+00
  0.00000000E+00  6.72647834E-03 -3.04002255E-02  0.00000000E+00  0.00000000E+00
 -1.05020159E-02  6.12835852E-02  0.00000000E+00  0.00000000E+00  2.31424143E-02
  2.41277248E-02  0.00000000E+00  0.00000000E+00  1.36376518E-02  2.58408567E-02
  0.00000000E+00  0.00000000E+00  1.80943578E-02 -3.77735324E-03 -1.00011576E-03
  4.96699429E-03  0.00000000E+00  0.00000000E+00  0.00000000E+00  1.66256437E-01
  2.11671427E-02  0.00000000E+00  0.00000000E+00 -3.20346502E-02  3.76028087E-03
  7.53642781E-03  0.00000000E+00  0.00000000E+00  5.33067600E-04  1.64340206E-02
 -4.02516136E-02  0.00000000E+00  0.00000000E+00 -7.57189952E-02 -3.85884347E-02
  0.00000000E+00  0.00000000E+00 -3.84226399E-02 -4.38205783E-03  0.00000000E+00
  0.00000000E+00 -5.36422533E-03  1.38355975E-03  1.36193817E-03  6.38728853E-04
  0.00000000E+00  0.00000000E+00  0.00000000E+00  7.45625889E-02 -3.38884779E-01
  0.00000000E+00  0.00000000E+00  4.11587991E-02  7.17076038E-01  0.00000000E+00
  0.00000000E+00 -9.85452150E-02  2.42021028E-01  0.00000000E+00  0.00000000E+00
 -1.58628219E-02 -5.98336723E-03  0.00000000E+00  0.00000000E+00  4.81444544E-03
 -2.34182347E-02 -1.20427619E-03  1.97441474E-02  0.00000000E+00  0.00000000E+00
  0.00000000E+00 -4.47139512E-02 -5.55836357E-03  0.00000000E+00  0.00000000E+00
  5.64487874E-03  1.50427739E-01  7.35313384E-02  0.00000000E+00  0.00000000E+00
  1.62326591E-02  4.02348374E-02 -9.21994821E-02  0.00000000E+00  0.00000000E+00
  4.35414941E-01 -1.73595859E-01  0.00000000E+00  0.00000000E+00  2.38701583E-01
 -2.83035762E-02  0.00000000E+00  0.00000000E+00  1.97189542E-02 -9.29493132E-04
 -2.12694686E-03  1.61424490E-02  0.00000000E+00  0.00000000E+00  0.00000000E+00
 -3.19803789E-03  1.39415464E-02  0.00000000E+00  0.00000000E+00  1.33846261E-01
 -3.76177987E-02  0.00000000E+00  0.00000000E+00 -3.38549854E-01 -3.48414826E-02
  0.00000000E+00  0.00000000E+00 -5.87686437E-02 -1.95765565E-03  0.00000000E+00
  0.00000000E+00 -1.04669765E-03 -4.54759227E-03 -5.81595060E-03  1.42066758E-02
  0.00000000E+00  0.00000000E+00  0.00000000E+00  2.19663554E-01  1.20154745E-01
  0.00000000E+00  0.00000000E+00 -1.73940083E-02  1.51699598E-01  1.40795387E-01
  0.00000000E+00  0.00000000E+00  1.40902616E-02  6.31425745E-02 -1.48487404E-01
  0.00000000E+00  0.00000000E+00  3.06153172E-01 -2.72370953E-01  0.00000000E+00
  0.00000000E+00  2.09534655E-01 -1.00345329E-01  0.00000000E+00  0.00000000E+00
  5.51450202E-02  1.71100459E-03  1.88317567E-04  2.26663490E-02  0.00000000E+00
  0.00000000E+00  0.00000000E+00  3.29289840E-02 -1.51905152E-01  0.00000000E+00
  0.00000000E+00 -1.60365676E-01  3.51844280E-01  0.00000000E+00  0.00000000E+00
  4.23396187E-01  3.40986902E-01  0.00000000E+00  0.00000000E+00  1.27838242E-01
  2.75420554E-02  0.00000000E+00  0.00000000E+00  2.63826302E-02  2.54742456E-02
  3.96334012E-02 -8.75227606E-02  0.00000000E+00  0.00000000E+00  0.00000000E+00
  1.63996741E-01  1.20071843E-01  0.00000000E+00  0.00000000E+00 -3.99150959E-03
 -2.49978899E-01 -3.29269294E-01  0.00000000E+00  0.00000000E+00 -1.60821821E-02
  0.00000000E+00  0.00000000E+00  5.86671168E-01  0.00000000E+00  0.00000000E+00
  0.00000000E+00  3.82335310E-01  0.00000000E+00  0.00000000E+00  0.00000000E+00
  9.19066471E-02  0.00000000E+00  0.00000000E+00  0.00000000E+00  0.00000000E+00
  0.00000000E+00  0.00000000E+00  9.26017876E-03  0.00000000E+00  0.00000000E+00
  0.00000000E+00 -1.03651820E-01  0.00000000E+00  0.00000000E+00  0.00000000E+00
  2.79383436E-01  0.00000000E+00  0.00000000E+00  0.00000000E+00  1.24752136E-01
  0.00000000E+00  0.00000000E+00  0.00000000E+00  8.18665533E-03  0.00000000E+00
  0.00000000E+00  0.00000000E+00  0.00000000E+00  0.00000000E+00  0.00000000E+00
  5.92991054E-03  0.00000000E+00  0.00000000E+00  0.00000000E+00  3.02923318E-02
  0.00000000E+00  0.00000000E+00  0.00000000E+00  0.00000000E+00  6.37525508E-03
  0.00000000E+00  0.00000000E+00  0.00000000E+00  0.00000000E+00  0.00000000E+00
  4.92496336E-01  0.00000000E+00  0.00000000E+00  0.00000000E+00  3.37963706E-01
  0.00000000E+00  0.00000000E+00  0.00000000E+00  9.74594853E-02  0.00000000E+00
  0.00000000E+00  0.00000000E+00  0.00000000E+00  0.00000000E+00  0.00000000E+00
  6.74335288E-03  0.00000000E+00  0.00000000E+00  0.00000000E+00 -1.52657867E-01
  0.00000000E+00  0.00000000E+00  0.00000000E+00  4.05713525E-01  0.00000000E+00
  0.00000000E+00  0.00000000E+00  2.09944525E-01  0.00000000E+00  0.00000000E+00
  0.00000000E+00  1.22416943E-02  0.00000000E+00  0.00000000E+00  0.00000000E+00
  0.00000000E+00  0.00000000E+00  0.00000000E+00  8.13436645E-03  0.00000000E+00
  0.00000000E+00  0.00000000E+00  2.29177409E-02  0.00000000E+00  0.00000000E+00
  0.00000000E+00  0.00000000E+00  7.27822552E-03  0.00000000E+00  0.00000000E+00
  0.00000000E+00 -2.82893817E-01  0.00000000E+00  0.00000000E+00  0.00000000E+00
 -1.88330537E-01  0.00000000E+00  0.00000000E+00  0.00000000E+00 -8.11424254E-02
  0.00000000E+00  0.00000000E+00  0.00000000E+00  0.00000000E+00  0.00000000E+00
  0.00000000E+00 -7.90091682E-03  0.00000000E+00  0.00000000E+00  0.00000000E+00
 -2.49279014E-01  0.00000000E+00  0.00000000E+00  0.00000000E+00  6.80455430E-01
  0.00000000E+00  0.00000000E+00  0.00000000E+00  3.56341442E-01  0.00000000E+00
  0.00000000E+00  0.00000000E+00  4.92441692E-02  0.00000000E+00  0.00000000E+00
  0.00000000E+00  0.00000000E+00  0.00000000E+00  0.00000000E+00 -2.88060161E-02
  0.00000000E+00  0.00000000E+00  0.00000000E+00 -1.61400686E-02  0.00000000E+00
  0.00000000E+00  0.00000000E+00  0.00000000E+00  2.05819230E-02  0.00000000E+00
  0.00000000E+00  0.00000000E+00  0.00000000E+00  0.00000000E+00 -3.85601948E-01
  0.00000000E+00  0.00000000E+00  0.00000000E+00 -2.67352196E-01  0.00000000E+00
  0.00000000E+00  0.00000000E+00 -1.37132993E-01  0.00000000E+00  0.00000000E+00
  0.00000000E+00  0.00000000E+00  0.00000000E+00  0.00000000E+00 -1.12757451E-02
  0.00000000E+00  0.00000000E+00  0.00000000E+00 -2.15992653E-01  0.00000000E+00
  0.00000000E+00  0.00000000E+00  5.77498845E-01  0.00000000E+00  0.00000000E+00
  0.00000000E+00  3.46263597E-01  0.00000000E+00  0.00000000E+00  0.00000000E+00
  7.09253194E-02  0.00000000E+00  0.00000000E+00  0.00000000E+00  0.00000000E+00
  0.00000000E+00  0.00000000E+00 -3.67222100E-02  0.00000000E+00  0.00000000E+00
  0.00000000E+00 -2.26167008E-02  0.00000000E+00  0.00000000E+00  0.00000000E+00
  0.00000000E+00  1.80949840E-02  0.00000000E+00  2.50233292E-02 -6.91795124E-02
  0.00000000E+00  0.00000000E+00 -8.57103840E-03 -8.90294818E-02  0.00000000E+00
  0.00000000E+00  2.89441371E-02 -6.35066617E-02  0.00000000E+00  0.00000000E+00
  5.64616445E-01  1.65285537E-03  8.03655784E-04  7.05138762E-03  0.00000000E+00
  0.00000000E+00  0.00000000E+00 -1.72311246E-02  8.26737165E-02  0.00000000E+00
  0.00000000E+00 -7.85441518E-02 -1.82238817E-01  0.00000000E+00  0.00000000E+00
  2.08476070E-01 -5.96330428E-01  0.00000000E+00  0.00000000E+00  6.17105074E-01
  1.45551182E+00  0.00000000E+00  0.00000000E+00 -4.73635421E-01  1.45308650E-02
  3.23649624E-03 -4.83843954E-03  0.00000000E+00  0.00000000E+00  0.00000000E+00
  3.46282594E-02 -2.56643754E-01  0.00000000E+00  0.00000000E+00  1.91278194E-02
  3.23815000E-02  2.65593892E-01  0.00000000E+00  0.00000000E+00 -1.32871967E-02
  1.50549222E-02 -8.15971381E-02  0.00000000E+00  0.00000000E+00 -1.13968604E-01
  1.54107086E-01  0.00000000E+00  0.00000000E+00 -1.15115255E-01 -9.75846538E-01
  0.00000000E+00  0.00000000E+00  9.87678827E-01 -3.41671661E-03 -4.41249859E-03
 -1.09118590E-02  0.00000000E+00  0.00000000E+00  0.00000000E+00 -6.34150201E-03
  2.27078464E-02  0.00000000E+00  0.00000000E+00  6.58586474E-02 -9.27412915E-02
  0.00000000E+00  0.00000000E+00 -1.92140213E-01  5.72813753E-02  0.00000000E+00
  0.00000000E+00  1.50917556E-01  1.08124471E+00  0.00000000E+00  0.00000000E+00
  1.45855224E+00 -1.60900257E-04 -1.46439238E-03 -1.38402427E-03  0.00000000E+00
  0.00000000E+00  0.00000000E+00 -5.23007091E-03 -3.76008349E-01  0.00000000E+00
  0.00000000E+00  2.91128823E-02 -3.07091004E-03  2.48564645E-01  0.00000000E+00
  0.00000000E+00  1.91341393E-02  0.00000000E+00  0.00000000E+00  0.00000000E+00
 -3.48835298E-02  0.00000000E+00  0.00000000E+00  0.00000000E+00  2.82478602E-03
  0.00000000E+00  0.00000000E+00  0.00000000E+00 -1.82009202E-01  0.00000000E+00
  0.00000000E+00  0.00000000E+00  0.00000000E+00  0.00000000E+00  0.00000000E+00
  3.13058343E-04  0.00000000E+00  0.00000000E+00  0.00000000E+00  7.67339614E-02
  0.00000000E+00  0.00000000E+00  0.00000000E+00 -1.90623492E-01  0.00000000E+00
  0.00000000E+00  0.00000000E+00 -5.48289668E-01  0.00000000E+00  0.00000000E+00
  0.00000000E+00  1.37086829E+00  0.00000000E+00  0.00000000E+00  0.00000000E+00
  0.00000000E+00  0.00000000E+00  0.00000000E+00 -2.29012725E-03  0.00000000E+00
  0.00000000E+00  0.00000000E+00 -3.29567248E-05  0.00000000E+00  0.00000000E+00
  0.00000000E+00  0.00000000E+00  7.33859047E-03  0.00000000E+00  0.00000000E+00
  0.00000000E+00 -3.98559390E-02  0.00000000E+00  0.00000000E+00  0.00000000E+00
 -2.63464101E-03  0.00000000E+00  0.00000000E+00  0.00000000E+00 -1.76760032E-01
  0.00000000E+00  0.00000000E+00  0.00000000E+00  0.00000000E+00  0.00000000E+00
  0.00000000E+00 -8.99770456E-05  0.00000000E+00  0.00000000E+00  0.00000000E+00
  7.05880587E-02  0.00000000E+00  0.00000000E+00  0.00000000E+00 -1.75509711E-01
  0.00000000E+00  0.00000000E+00  0.00000000E+00 -5.40203329E-01  0.00000000E+00
  0.00000000E+00  0.00000000E+00  1.36986334E+00  0.00000000E+00  0.00000000E+00
  0.00000000E+00  0.00000000E+00  0.00000000E+00  0.00000000E+00 -3.24055690E-03
  0.00000000E+00  0.00000000E+00  0.00000000E+00 -4.78506585E-04  0.00000000E+00
  0.00000000E+00  0.00000000E+00  0.00000000E+00  7.44216489E-03  0.00000000E+00
  0.00000000E+00  5.18944423E-02 -1.17698581E-01  0.00000000E+00  0.00000000E+00
 -1.02227307E-01 -3.85898813E-01  0.00000000E+00  0.00000000E+00 -1.36578190E-01
  4.69896932E-01  0.00000000E+00  0.00000000E+00  9.61806232E-01  6.33427501E-03
  3.87671107E-03  2.21437000E-02  0.00000000E+00  0.00000000E+00  0.00000000E+00
  3.97290177E-04 -7.00429509E-03  0.00000000E+00  0.00000000E+00 -1.15391104E-01
 -5.17160951E-03  0.00000000E+00  0.00000000E+00  3.25716806E-01  2.56653541E-01
  0.00000000E+00  0.00000000E+00  1.06949417E+00 -8.40730792E-01  0.00000000E+00
  0.00000000E+00 -2.55008768E-01 -5.33818506E-02 -6.06352498E-02  8.90193372E-02