Title Card Required                                                     
FOpt      UM062X                                                      6-311+G(d,p)        
Number of atoms                            I                4
Info1-9                                    I   N=           9
          13          13           0           0           0         110
           2          18        -502
Full Title                                 C   N=           2
Title Card Required     
Route                                      C   N=           5
#p opt UM062X/6-311+G** nosymm int=superfine SCF=NoVarAcc   
Charge                                     I                1
Multiplicity                               I                2
Number of electrons                        I               13
Number of alpha electrons                  I                7
Number of beta electrons                   I                6
Number of basis functions                  I               56
Number of independent functions            I               56
Number of point charges in /Mol/           I                0
Number of translation vectors              I                0
Atomic numbers                             I   N=           4
           6           6           1           1
Nuclear charges                            R   N=           4
  6.00000000E+00  6.00000000E+00  1.00000000E+00  1.00000000E+00
Current cartesian coordinates              R   N=          12
 -7.33621917E+00  0.00000000E+00  0.00000000E+00  7.33621917E+00  0.00000000E+00
  0.00000000E+00 -9.44856030E+00 -1.10866403E-10 -1.49925401E-10  9.44855865E+00
 -2.26841970E-11 -1.54667402E-10
Number of symbols in /Mol/                 I                0
Force Field                                I                0
Atom Types                                 C   N=           4
                                                
Int Atom Types                             I   N=           4
           0           0           0           0
MM charges                                 R   N=           4
  0.00000000E+00  0.00000000E+00  0.00000000E+00  0.00000000E+00
Integer atomic weights                     I   N=           4
          12          12           1           1
Real atomic weights                        R   N=           4
  1.20000000E+01  1.20000000E+01  1.00782504E+00  1.00782504E+00
Atom fragment info                         I   N=           4
           0           0           0           0
Atom residue num                           I   N=           4
           0           0           0           0
Nuclear spins                              I   N=           4
           0           0           1           1
Nuclear ZEff                               R   N=           4
 -3.60000000E+00 -3.60000000E+00 -1.00000000E+00 -1.00000000E+00
Nuclear ZNuc                               R   N=           4
  6.00000000E+00  6.00000000E+00  1.00000000E+00  1.00000000E+00
Nuclear QMom                               R   N=           4
  0.00000000E+00  0.00000000E+00  0.00000000E+00  0.00000000E+00
Nuclear GFac                               R   N=           4
  0.00000000E+00  0.00000000E+00  2.79284600E+00  2.79284600E+00
MicOpt                                     I   N=           4
          -2          -2          -1          -1
Number of residues                         I                0
Number of secondary structures             I                0
Redundant internal dimensions              I   N=           4
          12           8           4           0
Redundant internal coordinate indices      I   N=          48
           1          -1           0           0           1          -2
           0           0           1          -3           0           0
           2          -1           0           0           2          -2
           0           0           2          -3           0           0
           1           3           0           0           2           4
           0           0           2           1           3          -4
           1           2           4          -4           2           1
           3          -8           1           2           4          -8
Redundant internal coordinates             R   N=          12
 -7.33621917E+00  0.00000000E+00  0.00000000E+00  7.33621917E+00  0.00000000E+00
  0.00000000E+00  2.11234113E+00  2.11233947E+00  3.14159265E+00  3.14159265E+00
  3.14159265E+00  3.14159265E+00
ZRed-IntVec                                I   N=          12
          -1          -1          -1          -1          -1          -1
           0           0           0           0           0           0
ZRed-FPVec                                 R   N=          12
  0.00000000E+00  0.00000000E+00  0.00000000E+00  0.00000000E+00  0.00000000E+00
  0.00000000E+00  0.00000000E+00  0.00000000E+00  0.00000000E+00  0.00000000E+00
  0.00000000E+00  0.00000000E+00
ZRed-Constraint1                           R   N=          12
 -7.33621917E+00  0.00000000E+00  0.00000000E+00  7.33621917E+00  0.00000000E+00
  0.00000000E+00  2.08057524E+00  2.08053366E+00  3.14159265E+00  3.14159265E+00
  3.14159265E+00  3.14159265E+00
ZRed-Constraint2                           R   N=          12
 -7.33621917E+00  0.00000000E+00  0.00000000E+00  7.33621917E+00  0.00000000E+00
  0.00000000E+00  0.00000000E+00  0.00000000E+00  0.00000000E+00  0.00000000E+00
  0.00000000E+00  0.00000000E+00
Number of contracted shells                I               20
Number of primitive shells                 I               38
Pure/Cartesian d shells                    I                0
Pure/Cartesian f shells                    I                0
Highest angular momentum                   I                2
Largest degree of contraction              I                6
Shell types                                I   N=          20
           0          -1          -1          -1          -1          -2
           0          -1          -1          -1          -1          -2
           0           0           0           1           0           0
           0           1
Number of primitives per shell             I   N=          20
           6           3           1           1           1           1
           6           3           1           1           1           1
           3           1           1           1           3           1
           1           1
Shell to atom map                          I   N=          20
           1           1           1           1           1           1
           2           2           2           2           2           2
           3           3           3           3           4           4
           4           4
Primitive exponents                        R   N=          38
  4.56324000E+03  6.82024000E+02  1.54973000E+02  4.44553000E+01  1.30290000E+01
  1.82773000E+00  2.09642000E+01  4.80331000E+00  1.45933000E+00  4.83456000E-01
  1.45585000E-01  4.38000000E-02  6.26000000E-01  4.56324000E+03  6.82024000E+02
  1.54973000E+02  4.44553000E+01  1.30290000E+01  1.82773000E+00  2.09642000E+01
  4.80331000E+00  1.45933000E+00  4.83456000E-01  1.45585000E-01  4.38000000E-02
  6.26000000E-01  3.38650000E+01  5.09479000E+00  1.15879000E+00  3.25840000E-01
  1.02741000E-01  7.50000000E-01  3.38650000E+01  5.09479000E+00  1.15879000E+00
  3.25840000E-01  1.02741000E-01  7.50000000E-01
Contraction coefficients                   R   N=          38
  1.96665025E-03  1.52306019E-02  7.61269097E-02  2.60801033E-01  6.16462078E-01
  2.21006028E-01  1.14660081E-01  9.19999648E-01 -3.03068213E-03  1.00000000E+00
  1.00000000E+00  1.00000000E+00  1.00000000E+00  1.96665025E-03  1.52306019E-02
  7.61269097E-02  2.60801033E-01  6.16462078E-01  2.21006028E-01  1.14660081E-01
  9.19999648E-01 -3.03068213E-03  1.00000000E+00  1.00000000E+00  1.00000000E+00
  1.00000000E+00  2.54938145E-02  1.90373109E-01  8.52161486E-01  1.00000000E+00
  1.00000000E+00  1.00000000E+00  2.54938145E-02  1.90373109E-01  8.52161486E-01
  1.00000000E+00  1.00000000E+00  1.00000000E+00
P(S=P) Contraction coefficients            R   N=          38
  0.00000000E+00  0.00000000E+00  0.00000000E+00  0.00000000E+00  0.00000000E+00
  0.00000000E+00  4.02486927E-02  2.37593957E-01  8.15853851E-01  1.00000000E+00
  1.00000000E+00  1.00000000E+00  0.00000000E+00  0.00000000E+00  0.00000000E+00
  0.00000000E+00  0.00000000E+00  0.00000000E+00  0.00000000E+00  4.02486927E-02
  2.37593957E-01  8.15853851E-01  1.00000000E+00  1.00000000E+00  1.00000000E+00
  0.00000000E+00  0.00000000E+00  0.00000000E+00  0.00000000E+00  0.00000000E+00
  0.00000000E+00  0.00000000E+00  0.00000000E+00  0.00000000E+00  0.00000000E+00
  0.00000000E+00  0.00000000E+00  0.00000000E+00
Coordinates of each shell                  R   N=          60
 -7.33621917E+00  0.00000000E+00  0.00000000E+00 -7.33621917E+00  0.00000000E+00
  0.00000000E+00 -7.33621917E+00  0.00000000E+00  0.00000000E+00 -7.33621917E+00
  0.00000000E+00  0.00000000E+00 -7.33621917E+00  0.00000000E+00  0.00000000E+00
 -7.33621917E+00  0.00000000E+00  0.00000000E+00  7.33621917E+00  0.00000000E+00
  0.00000000E+00  7.33621917E+00  0.00000000E+00  0.00000000E+00  7.33621917E+00
  0.00000000E+00  0.00000000E+00  7.33621917E+00  0.00000000E+00  0.00000000E+00
  7.33621917E+00  0.00000000E+00  0.00000000E+00  7.33621917E+00  0.00000000E+00
  0.00000000E+00 -9.44856030E+00 -1.10866403E-10 -1.49925401E-10 -9.44856030E+00
 -1.10866403E-10 -1.49925401E-10 -9.44856030E+00 -1.10866403E-10 -1.49925401E-10
 -9.44856030E+00 -1.10866403E-10 -1.49925401E-10  9.44855865E+00 -2.26841970E-11
 -1.54667402E-10  9.44855865E+00 -2.26841970E-11 -1.54667402E-10  9.44855865E+00
 -2.26841970E-11 -1.54667402E-10  9.44855865E+00 -2.26841970E-11 -1.54667402E-10
Num ILSW                                   I              100
ILSW                                       I   N=         100
           1           0           0           0           2           0
           0           0           0           0        4336          -1
           7           0           0           0           2           0
           0           0           0           0           1           0
           1           1           0           0           0           0
           0           0      100000           0          -1           0
           0           0           0           0           0           0
           0           0           0           1           0           0
           0 -2000000000           1           0           0           0
           0           0           4          52           0           0
           0           0          55           0           0           0
           0           0           0           4           0           1
           0           0           0           0           0           0
           0           0           0           0           0           0
           0           0           0           0           0           0
           0           0           0           0           0           0
           0           0           0           0
Num RLSW                                   I               52
RLSW                                       R   N=          52
  1.00000000E+00  1.00000000E+00  1.00000000E+00  1.00000000E+00  5.40000000E-01
  0.00000000E+00  0.00000000E+00  1.00000000E+00  0.00000000E+00  0.00000000E+00
  0.00000000E+00  0.00000000E+00  1.00000000E+00  0.00000000E+00  0.00000000E+00
  0.00000000E+00  0.00000000E+00  1.00000000E+00  0.00000000E+00  0.00000000E+00
  0.00000000E+00  0.00000000E+00  1.00000000E+00  0.00000000E+00  0.00000000E+00
  0.00000000E+00  0.00000000E+00  1.00000000E+00  0.00000000E+00  0.00000000E+00
  0.00000000E+00  0.00000000E+00  1.00000000E+00  0.00000000E+00  0.00000000E+00
  0.00000000E+00  0.00000000E+00  0.00000000E+00  1.00000000E+00  1.00000000E+00
  0.00000000E+00  1.00000000E+00  0.00000000E+00  0.00000000E+00  0.00000000E+00
  0.00000000E+00  0.00000000E+00  0.00000000E+00  0.00000000E+00  0.00000000E+00
  0.00000000E+00  0.00000000E+00
MxBond                                     I                2
NBond                                      I   N=           4
           2           2           1           1
IBond                                      I   N=           8
           2           3           1           4           1           0
           2           0
RBond                                      R   N=           8
  1.00000000E-01  1.00000000E+00  1.00000000E-01  1.00000000E+00  1.00000000E+00
  0.00000000E+00  1.00000000E+00  0.00000000E+00
Virial Ratio                               R      2.002712710893465E+00
SCF Energy                                 R     -7.658344624316564E+01
Total Energy                               R     -7.658344624316564E+01
S**2                                       R      7.513094963754181E-01
S**2 after annihilation                    R      7.500012337214919E-01
RMS Force                                  R      1.344291661071869E-04
RMS Density                                R      8.908428339504274E-09
Job Status                                 I                1
Nuclear derivative order                   I                1
External E-field                           R   N=          35
  0.00000000E+00  0.00000000E+00  0.00000000E+00  0.00000000E+00  0.00000000E+00
  0.00000000E+00  0.00000000E+00  0.00000000E+00  0.00000000E+00  0.00000000E+00
  0.00000000E+00  0.00000000E+00  0.00000000E+00  0.00000000E+00  0.00000000E+00
  0.00000000E+00  0.00000000E+00  0.00000000E+00  0.00000000E+00  0.00000000E+00
  0.00000000E+00  0.00000000E+00  0.00000000E+00  0.00000000E+00  0.00000000E+00
  0.00000000E+00  0.00000000E+00  0.00000000E+00  0.00000000E+00  0.00000000E+00
  0.00000000E+00  0.00000000E+00  0.00000000E+00  0.00000000E+00  0.00000000E+00
IOpCl                                      I                1
IROHF                                      I                0
Alpha Orbital Energies                     R   N=          56
 -1.09215722E+01 -1.09215719E+01 -9.59291236E-01 -9.59201531E-01 -6.10207155E-01
 -6.10150842E-01 -4.39186548E-01 -4.02884037E-01 -3.08985400E-01 -3.08974841E-01
 -9.77701050E-02 -9.71306600E-02 -6.34035650E-02 -4.78249374E-02 -4.62252378E-02
 -4.37379594E-02 -4.19795705E-02 -2.92720144E-02  1.46828581E-02  1.92596039E-02
  2.93370176E-01  3.04960785E-01  3.88447397E-01  3.92410484E-01  3.97443371E-01
  4.01526398E-01  4.24279512E-01  4.27193646E-01  4.80470462E-01  5.11912580E-01
  9.16278136E-01  9.16290657E-01  9.18180514E-01  9.18323099E-01  1.10039356E+00
  1.10046277E+00  1.11078896E+00  1.11085702E+00  1.37449130E+00  1.37933241E+00
  1.64946087E+00  1.64961472E+00  1.65227263E+00  1.65243736E+00  2.17966736E+00
  2.18147357E+00  2.29896441E+00  2.30382313E+00  2.46071552E+00  2.46337763E+00
  2.47500099E+00  2.47768227E+00  2.95079344E+00  2.96401610E+00  2.32589338E+01
  2.32665352E+01
Beta Orbital Energies                      R   N=          56
 -1.09174211E+01 -1.09174203E+01 -9.35598234E-01 -9.35595234E-01 -5.96303187E-01
 -5.96292046E-01 -2.90119223E-01 -2.90104381E-01 -2.73783692E-01 -2.73763627E-01
 -9.99489911E-02 -9.96113152E-02 -6.23377784E-02 -3.99255057E-02 -3.57723107E-02
 -3.06751904E-02 -2.95553104E-02 -2.65373255E-02  3.22662497E-02  3.78347109E-02
  2.86361888E-01  2.98724321E-01  3.92723069E-01  3.95415583E-01  3.97425166E-01
  3.99836453E-01  4.50367315E-01  4.60186550E-01  5.05971492E-01  5.30839359E-01
  9.87940493E-01  9.87957351E-01  9.96984074E-01  9.97000077E-01  1.13309940E+00
  1.13310195E+00  1.13320307E+00  1.13320311E+00  1.37848610E+00  1.38345801E+00
  1.66681445E+00  1.66696797E+00  1.67356488E+00  1.67371743E+00  2.33861634E+00
  2.34274418E+00  2.34817851E+00  2.34911033E+00  2.48677746E+00  2.48946707E+00
  2.51034842E+00  2.51299336E+00  3.04528946E+00  3.06023390E+00  2.32721142E+01
  2.32797104E+01
Alpha MO coefficients                      R   N=        3136
  4.73650691E-01  3.90227522E-01 -1.68826240E-03 -8.61710472E-14 -1.22541329E-13
  7.83773277E-03 -1.01133301E-03 -4.95098738E-14 -6.18226761E-14 -3.28643190E-03
 -3.64384817E-05 -6.34739134E-15 -1.02469268E-14  3.64425546E-04  4.87796992E-04
  2.82943177E-14  3.82049148E-14 -3.99797913E-04  1.42953352E-13  1.56513106E-05
  7.05876920E-04  9.92808666E-14  3.06227182E-01  2.52294683E-01  1.08792511E-03
 -1.18314090E-14 -8.37910991E-14  5.04837276E-03  6.65207058E-04 -2.36948735E-15
 -3.51271375E-14 -2.07226148E-03 -4.83923977E-06  3.96006730E-15 -8.88762322E-15
  2.38778722E-04 -2.46363198E-04  1.80736034E-15  2.43318658E-14 -2.57831894E-04
 -9.40811163E-14  9.95753980E-06  4.55107315E-04 -1.42186355E-14  3.03041198E-04
 -2.18689246E-03  1.77931153E-03 -1.55633656E-03 -7.27233359E-14 -9.64603804E-14
  1.88473651E-04 -1.38208883E-03  1.07390043E-03  1.00841356E-03 -3.16440665E-14
 -6.72728414E-14 -3.06227778E-01 -2.52285912E-01  1.10022741E-03  5.55957667E-14
  7.93235379E-14 -5.11341333E-03  6.26204987E-04  3.33981803E-14  3.97586891E-14
  2.25267440E-03  9.27462171E-05  2.50545215E-15  7.00687083E-15 -2.27885822E-04
 -4.83511873E-04 -2.06986517E-14 -3.01690603E-14  2.60061652E-04 -9.26297887E-14
 -1.05121804E-05 -4.59445055E-04 -6.46373967E-14  4.73651076E-01  3.90221850E-01
  1.69621626E-03 -1.87239613E-14 -1.29459407E-13  7.87979511E-03  9.86131287E-04
 -3.01113467E-15 -5.54908126E-14 -3.40307131E-03  9.95297184E-05  5.40990453E-15
 -1.19958450E-14  3.57378026E-04 -6.41121679E-04  4.85781371E-15  4.48546618E-14
 -4.01242974E-04 -1.46265267E-13  1.60097965E-05  7.08687613E-04 -2.18004976E-14
 -2.14073403E-04  1.49136562E-03 -1.33669517E-03  1.00085897E-03  4.66027811E-14
  6.21796898E-14  3.19589933E-04 -2.25756235E-03  1.94922610E-03  1.55146326E-03
 -4.91513840E-14 -1.03420713E-13 -7.97186886E-02 -1.30154642E-01 -5.62029685E-02
 -2.82869342E-12 -3.72129000E-12  3.83889177E-01 -8.61257460E-02 -4.05348434E-12
 -5.32482811E-12  2.42360775E-01 -3.20444832E-02 -1.45681570E-12 -1.95479270E-12
 -5.42405627E-03 -1.71858270E-03 -8.34163806E-14 -1.14191537E-13 -4.38529274E-03
  8.07628511E-13 -3.60614434E-04  7.28615099E-03  4.99884193E-13 -7.99016374E-02
 -1.30453300E-01  5.63320590E-02 -4.94137845E-13 -3.50048492E-12  3.84769651E-01
  8.63238875E-02 -6.73500314E-13 -4.92250565E-12  2.42918669E-01  3.21169201E-02
 -1.42648637E-13 -1.78966634E-12 -5.43644290E-03  1.72578752E-03  3.61494228E-14
 -1.42043286E-13 -4.39533268E-03 -9.35848790E-13 -3.61383024E-04  7.30287624E-03
 -2.22491065E-13  9.83188116E-02  1.21879147E-01 -1.82349441E-03  1.68827922E-02
  7.39552392E-13  1.02438388E-12  9.85444938E-02  1.22160258E-01 -1.83085377E-03
 -1.69215309E-02  5.52136413E-14  1.01893853E-12 -7.98949003E-02 -1.30427618E-01
 -5.63290857E-02 -2.86863226E-12 -3.71145868E-12  3.84534082E-01 -8.64818314E-02
 -4.10813276E-12 -5.30281422E-12  2.43695967E-01 -3.16288780E-02 -1.51244119E-12
 -1.93732634E-12 -5.41314406E-03 -3.14391763E-03 -1.07657155E-13 -1.46157913E-13
 -4.37844818E-03  8.04840013E-13 -3.35259327E-04  7.29604826E-03  4.98991188E-13
  7.97119014E-02  1.30128836E-01 -5.62001726E-02  4.95012298E-13  3.49400358E-12
 -3.83652785E-01 -8.62842331E-02  6.74621314E-13  4.90710257E-12 -2.43139473E-01
 -3.15553315E-02  1.46371190E-13  1.79257931E-12  5.40068445E-03 -3.13997075E-03
 -2.88684277E-14  1.75153427E-13  4.36839542E-03  9.31021271E-13  3.34432535E-04
 -7.27934075E-03  2.20404223E-13  9.84931979E-02  1.22714746E-01 -3.20475879E-03
  1.69122317E-02  7.39578394E-13  1.02706705E-12 -9.82676471E-02 -1.22435073E-01
  3.20058654E-03  1.68734882E-02 -5.48806691E-14 -1.01758973E-12 -4.24956365E-02
 -7.08494327E-02  1.66418024E-01  9.24196510E-12  1.40476168E-11  2.19552429E-01
  2.46252504E-01  1.33963397E-11  2.04115779E-11  2.61367960E-01  1.42418694E-01
  8.25354413E-12  1.26995317E-11  1.78935583E-02 -1.07923692E-03 -4.74602081E-13
 -6.84678872E-13  1.48266345E-02 -3.89722133E-12 -1.65481253E-05 -2.56946073E-02
 -2.69922000E-12 -4.25137643E-02 -7.08796537E-02 -1.66488904E-01  1.71661492E-12
  1.66161296E-11  2.19646032E-01 -2.46357299E-01  2.65416964E-12  2.45400369E-11
  2.61479783E-01 -1.42479407E-01  1.04125584E-12  1.54759281E-11  1.79012035E-02
  1.08015142E-03 -2.45824239E-13 -6.61819510E-13  1.48329582E-02  4.03313257E-12
 -1.65462029E-05 -2.57055586E-02  3.07591884E-13 -9.53781049E-02 -1.71116339E-01
 -7.56396675E-02 -7.91428432E-03 -3.67721410E-13 -4.61905495E-13 -9.54186968E-02
 -1.71188957E-01 -7.56722895E-02  7.91764283E-03  2.30631093E-14 -3.38074433E-13
 -4.25354911E-02 -7.09076861E-02  1.66509657E-01  9.08299472E-12  1.41624971E-11
  2.19644794E-01  2.46287202E-01  1.31485556E-11  2.05919147E-11  2.62074634E-01
  1.42855157E-01  8.02654049E-12  1.28669019E-11  1.79038096E-02 -2.13393380E-03
 -5.13176330E-13 -7.11538921E-13  1.48485902E-02 -3.91002450E-12  6.15945491E-06
 -2.57131546E-02 -2.69298259E-12  4.25174233E-02  7.08775647E-02  1.66438819E-01
 -1.68116044E-12 -1.66380118E-11 -2.19551442E-01  2.46182336E-01 -2.59698100E-12
 -2.45751769E-11 -2.61963641E-01  1.42794436E-01 -9.95284190E-13 -1.55156655E-11
 -1.78962166E-02 -2.13348006E-03  2.63263023E-13  6.94897935E-13 -1.48422819E-02
 -4.03637834E-12 -6.16577926E-06  2.57022230E-02 -3.06196520E-13 -9.54456310E-02
 -1.70809486E-01 -7.66432242E-02 -7.91668046E-03 -3.79245400E-13 -4.54857887E-13
  9.54049942E-02  1.70736556E-01  7.66110230E-02 -7.91330014E-03 -2.04704001E-14
  3.34698342E-13 -1.58187945E-13 -2.88099535E-13 -3.28766853E-13  1.73860775E-01
 -1.14602500E-01  1.03462255E-12 -1.39339162E-12  2.73724690E-01 -1.80429303E-01
 -2.33043059E-13  5.70712866E-13  2.47636490E-01 -1.63233078E-01 -2.57846590E-12
  1.22438008E-12  2.03307981E-02 -1.34013345E-02  1.14061809E-12  1.01590218E-02
 -5.08769957E-13  9.64765597E-13 -1.54120665E-02 -4.36384934E-13 -7.45800482E-13
 -8.29201901E-12  1.73861130E-01 -1.14601981E-01  2.96974535E-12 -1.34739570E-11
  2.73725258E-01 -1.80428492E-01 -5.12609924E-12 -1.58670046E-11  2.47637007E-01
 -1.63232346E-01 -7.65073825E-12 -6.98498293E-12  2.03308390E-02 -1.34012734E-02
  1.44499700E-12 -1.01589851E-02 -8.43988415E-13 -1.09327792E-12  1.54121120E-02
 -1.56098270E-13 -2.20780512E-12  5.27128690E-12 -3.27024096E-13  1.34809024E-02
 -8.88612307E-03  2.30810905E-13 -2.79675863E-12  1.83387324E-11 -1.39653519E-12
  1.34809409E-02 -8.88609003E-03 -1.70928085E-13 -3.14442988E-13 -3.03053415E-13
  1.73809514E-01 -1.14568597E-01  1.18400779E-12 -1.29815792E-12  2.73633429E-01
 -1.80368968E-01 -5.06418742E-13  3.62633800E-13  2.47574645E-01 -1.63192127E-01
 -2.61955185E-12  1.92274421E-12  2.05386393E-02 -1.35383305E-02  1.13365642E-12
  1.05348839E-02 -5.06261402E-13  9.69227158E-13 -1.59822911E-02  5.00265150E-13
  8.54326056E-13  8.44270078E-12 -1.73809835E-01  1.14568056E-01 -3.34796168E-12
  1.37019783E-11 -2.73633943E-01  1.80368122E-01  4.87456314E-12  1.59671784E-11
 -2.47575114E-01  1.63191363E-01  7.91285511E-12  7.08999644E-12 -2.05386765E-02
  1.35382663E-02 -1.47217851E-12  1.05348434E-02  8.42048968E-13  1.14774654E-12
 -1.59823346E-02 -1.55410257E-13 -2.46936469E-12  5.86680930E-12 -3.27298222E-13
  1.37395197E-02 -9.05658523E-03 -1.62065098E-13  3.01075418E-12 -1.85083893E-11
  1.40451685E-12 -1.37395560E-02  9.05654964E-03  4.15517960E-13  6.64827534E-13
 -1.78508416E-11  1.07733514E-01  1.63439499E-01 -2.46654269E-12 -3.12917182E-11
  1.74062430E-01  2.64065614E-01  4.54012327E-12 -3.17814363E-11  1.66358530E-01
  2.52378511E-01  3.68526586E-12 -1.03354862E-11  3.14496581E-02  4.77114515E-02
 -2.49965152E-12 -1.46306967E-02 -1.43323030E-12  3.33665880E-12 -9.64406715E-03
  7.61862712E-13  1.25174970E-12  1.45745470E-11  1.07482707E-01  1.63060078E-01
 -3.55378693E-12  2.44610311E-11  1.73657180E-01  2.63452551E-01 -2.98913267E-12
  2.38257696E-11  1.65971326E-01  2.51792748E-01 -4.67233683E-13  6.29046273E-12
  3.13763687E-02  4.76005789E-02 -2.00763221E-12  1.45967388E-02 -6.75393652E-13
  1.85391573E-12  9.62162000E-03  3.01889692E-13 -1.59327297E-12 -1.04314831E-11
 -2.99204354E-12  9.44940434E-03  1.43354545E-02  1.43028939E-12  6.41369424E-13
 -6.85026276E-13  1.49456540E-12  9.42740980E-03  1.43021811E-02 -4.20439085E-13
 -6.75700012E-13  1.78143576E-11 -1.07492504E-01 -1.63074042E-01  2.53440234E-12
  3.12597775E-11 -1.73685577E-01 -2.63494190E-01 -4.66567643E-12  3.15868306E-11
 -1.65955511E-01 -2.51767298E-01 -3.78122327E-12  1.07200371E-11 -3.14134964E-02
 -4.76567095E-02  2.49103037E-12  1.45995508E-02  1.43131968E-12 -3.32484124E-12
  9.62352524E-03  7.70282561E-13  1.27045305E-12  1.46076723E-11  1.07742291E-01
  1.63454061E-01 -3.67370125E-12  2.45763525E-11  1.74089154E-01  2.64108182E-01
 -2.71506427E-12  2.36491564E-11  1.66341236E-01  2.52354132E-01 -3.22994906E-13
  7.05888105E-12  3.14864205E-02  4.77676542E-02 -2.00745835E-12  1.46335797E-02
 -6.78138755E-13  1.84834263E-12  9.64589261E-03 -2.93134430E-13  1.45861946E-12
  1.07681575E-11  2.98655820E-12 -9.42962146E-03 -1.43054585E-02  1.41480149E-12
  8.72173657E-13 -1.33895001E-12  1.50033520E-12  9.45153767E-03  1.43388012E-02
  2.56919942E-02  4.31373379E-02  4.85431866E-02  2.47311786E-12  3.42878051E-12
 -1.27703615E-01  1.01864379E-01  4.68544168E-12  6.29597379E-12 -5.08979857E-01
  1.26885647E-01  7.91155224E-12  1.06272532E-11  9.56157211E-01 -3.84572891E-01
 -2.10025548E-11 -2.88224725E-11  5.76452061E-03 -1.49717889E-12 -1.70675603E-03
 -1.14486427E-02 -1.04520741E-12 -2.56904821E-02 -4.31348152E-02  4.85404782E-02
 -4.87735169E-13 -3.47586080E-12  1.27696350E-01  1.01858544E-01 -1.15402807E-12
 -6.39480906E-12  5.08948877E-01  1.26879056E-01 -3.71809035E-13 -1.07055461E-11
 -9.56103408E-01 -3.84556150E-01  2.92894147E-12  2.87447942E-11 -5.76424838E-03
 -1.51171971E-12  1.70665141E-03  1.14481060E-02 -1.44537515E-13 -6.57133860E-04
  1.35453004E-01 -1.02437413E-01 -4.41611392E-03 -5.18942535E-13 -7.43331310E-13
  6.57350568E-04 -1.35445736E-01  1.02435378E-01 -4.41583882E-03 -5.32554151E-14
  4.39562485E-13  2.66461910E-02  4.45588852E-02  4.53325922E-02  2.70534308E-12
  3.90890393E-12 -1.29414465E-01  1.01415465E-01  4.99766735E-12  6.95478927E-12
 -5.42530875E-01  1.06676633E-01  8.37483662E-12  1.19452031E-11  9.73846931E-01
 -3.07375144E-01 -2.07956867E-11 -2.98021683E-11  5.17286208E-03 -1.37093377E-12
 -1.78902963E-03 -1.04944446E-02 -9.32513935E-13  2.66476145E-02  4.45612811E-02
 -4.53351454E-02  6.30579349E-13  3.94430585E-12 -1.29421615E-01 -1.01421026E-01
  1.28843741E-12  7.03299071E-12 -5.42558894E-01 -1.06683129E-01  1.06530153E-12
  1.20562556E-11  9.73901400E-01  3.07397199E-01 -4.00309459E-12 -2.97379103E-11
  5.17320308E-03  1.39648112E-12 -1.78912093E-03 -1.04951390E-02  1.44953890E-13
  1.43325590E-03  1.27522675E-01 -6.25253906E-02 -3.93150526E-03 -4.51903864E-13
 -6.47535052E-13  1.43308285E-03  1.27530157E-01 -6.25326252E-02  3.93169717E-03
  4.97060317E-14 -4.12658240E-13  1.07890572E-02  1.73082315E-02 -5.54015312E-02
  1.38506657E-12  1.76883994E-12 -3.98663027E-02 -4.69822710E-02  3.13822914E-12
  4.53929715E-12 -2.63247675E-01 -2.28551475E-01  1.81245939E-13  2.52038688E-13
  2.88717852E-01  7.91576536E-01  6.02328516E-12  9.96333079E-12 -5.54306932E-03
  1.09511453E-12 -6.31834925E-04  9.05879508E-03  8.01226679E-13  1.07890581E-02
  1.73082334E-02  5.54014715E-02  1.87242017E-13  1.65149472E-12 -3.98662887E-02
  4.69821740E-02  4.47241718E-13  4.33823915E-12 -2.63247818E-01  2.28551252E-01
  9.81687646E-13  3.89334793E-13  2.88717804E-01 -7.91576136E-01  2.26260613E-12
  1.10937042E-11 -5.54306853E-03 -9.63489083E-13 -6.31832837E-04  9.05878660E-03
 -8.44856807E-14  1.72865955E-02 -2.91686761E-02  1.60304134E-01  9.45030449E-03
  1.04325087E-12  1.47465278E-12  1.72866213E-02 -2.91685521E-02  1.60304149E-01
 -9.45030793E-03  8.71994433E-14  7.93905929E-13  7.88152134E-13  1.45826759E-12
  1.00084278E-12 -4.71311208E-02 -7.14808982E-02 -6.26127268E-12  7.05365479E-12
 -5.25262473E-02 -7.96674294E-02  7.90862958E-13 -1.56580451E-11 -1.70131939E-01
 -2.58024443E-01  6.65708466E-11 -3.07847803E-11  4.62206232E-01  7.00981112E-01
  9.51429516E-13  5.84245570E-03  4.56091077E-13 -1.34417910E-12  3.85221129E-03
  5.94470589E-13  1.09510161E-12 -1.53714201E-12 -4.71308910E-02 -7.14807146E-02
 -4.44393626E-12 -6.05605033E-12 -5.25259615E-02 -7.96672383E-02 -4.28755682E-12
  4.73804655E-12 -1.70131168E-01 -2.58023800E-01  4.24593160E-11  2.11955533E-11
  4.62204137E-01  7.00979266E-01  8.83431539E-13 -5.84244956E-03  2.10581058E-13
 -9.32640937E-13 -3.85219777E-03 -9.01224362E-13 -4.85845230E-12 -5.34498268E-11
  2.41883523E-12  1.54756593E-03  2.34660607E-03 -5.98504302E-13 -7.59366467E-13
 -2.77942028E-11 -1.85278247E-12  1.54755495E-03  2.34658773E-03  4.78810882E-14
  1.00420217E-13 -7.28310771E-13 -6.56786728E-02  4.33075372E-02 -5.64517130E-13
 -2.68995019E-13 -6.12612551E-02  4.03976232E-02  2.37599948E-12 -5.12300939E-12
 -2.50001199E-01  1.64844007E-01  9.68802480E-12 -2.19727434E-13  7.04422991E-01
 -4.64472584E-01 -3.58354598E-13 -3.38982507E-03  1.63961406E-13 -3.74796339E-13
  5.14083955E-03 -2.08930597E-13 -4.09868851E-13 -1.08637625E-12 -6.56783653E-02
  4.33075732E-02  2.65132276E-12  3.00655056E-13 -6.12609170E-02  4.03977232E-02
 -9.34924596E-12 -1.63892698E-11 -2.50000129E-01  1.64844094E-01 -3.52736319E-11
 -1.27245963E-11  7.04419996E-01 -4.64472683E-01 -2.99807574E-13  3.38983479E-03
  3.49343725E-13  5.81728174E-14 -5.14082350E-03 -2.48890349E-13  1.72833550E-14
 -1.24236364E-11  3.00420251E-13  3.68492412E-03 -2.42943505E-03  5.51325242E-13
  7.21692834E-12  3.79913991E-11  6.29984280E-13  3.68490338E-03 -2.42942255E-03
 -7.80138404E-13 -1.46062396E-12  8.35561758E-13  4.77652573E-02  7.24616455E-02
  6.57613029E-12 -5.16746952E-12  5.44546966E-02  8.26101443E-02 -5.30924675E-12
  2.49279179E-11  1.69046627E-01  2.56450167E-01 -7.82456513E-11  2.36742378E-11
 -4.66636681E-01 -7.07904150E-01 -9.55624309E-13 -5.85196043E-03 -4.51414308E-13