 running on   28 total cores
 distrk:  each k-point on   28 cores,    1 groups
 distr:  one band on   14 cores,    2 groups
 vasp.6.3.1 04May22 (build Aug 04 2022 13:02:54) complex                        
  
 POSCAR found type information on POSCAR C 
 POSCAR found :  1 types and       2 ions
 scaLAPACK will be used
 -----------------------------------------------------------------------------
|                                                                             |
|           W    W    AA    RRRRR   N    N  II  N    N   GGGG   !!!           |
|           W    W   A  A   R    R  NN   N  II  NN   N  G    G  !!!           |
|           W    W  A    A  R    R  N N  N  II  N N  N  G       !!!           |
|           W WW W  AAAAAA  RRRRR   N  N N  II  N  N N  G  GGG   !            |
|           WW  WW  A    A  R   R   N   NN  II  N   NN  G    G                |
|           W    W  A    A  R    R  N    N  II  N    N   GGGG   !!!           |
|                                                                             |
|     For optimal performance we recommend to set                             |
|       NCORE = 2 up to number-of-cores-per-socket                            |
|     NCORE specifies how many cores store one orbital (NPAR=cpu/NCORE).      |
|     This setting can greatly improve the performance of VASP for DFT.       |
|     The default, NCORE=1 might be grossly inefficient on modern             |
|     multi-core architectures or massively parallel machines. Do your        |
|     own testing! More info at https://www.vasp.at/wiki/index.php/NCORE      |
|     Unfortunately you need to use the default for GW and RPA                |
|     calculations (for HF NCORE is supported but not extensively tested      |
|     yet).                                                                   |
|                                                                             |
 -----------------------------------------------------------------------------

 LDA part: xc-table for Pade appr. of Perdew
 POSCAR, INCAR and KPOINTS ok, starting setup
 FFT: planning ... GRIDC
 FFT: planning ... GRID_SOFT
 FFT: planning ... GRID
 WAVECAR not read
 WARNING: random wavefunctions but no delay for mixing, default for NELMDL
 entering main loop
       N       E                     dE             d eps       ncg     rms          rms(c)
DAV:   1     0.413924174693E+02    0.41392E+02   -0.22206E+03   656   0.611E+02
DAV:   2     0.297857033990E+00   -0.41095E+02   -0.40074E+02  1104   0.831E+01
DAV:   3    -0.450093969397E+01   -0.47988E+01   -0.43523E+01  1056   0.394E+01
DAV:   4    -0.462727826802E+01   -0.12634E+00   -0.12047E+00   976   0.617E+00
DAV:   5    -0.462936416947E+01   -0.20859E-02   -0.20858E-02   896   0.599E-01    0.204E+00
DAV:   6    -0.457302305000E+01    0.56341E-01   -0.53036E-02   864   0.152E+00    0.106E+00
DAV:   7    -0.455709921990E+01    0.15924E-01   -0.52060E-02   712   0.152E+00    0.171E-01
DAV:   8    -0.455733392373E+01   -0.23470E-03   -0.25209E-03   936   0.360E-01    0.901E-02
DAV:   9    -0.455730692420E+01    0.27000E-04   -0.22617E-05  1040   0.469E-02    0.727E-02
DAV:  10    -0.455743352029E+01   -0.12660E-03   -0.32106E-04   744   0.847E-02    0.441E-02
DAV:  11    -0.455742084632E+01    0.12674E-04   -0.29870E-04  1048   0.526E-02    0.144E-02
DAV:  12    -0.455746194134E+01   -0.41095E-04   -0.23266E-05   656   0.308E-02    0.193E-02
DAV:  13    -0.455750633452E+01   -0.44393E-04   -0.30456E-05   656   0.274E-02    0.455E-03
DAV:  14    -0.455752568974E+01   -0.19355E-04   -0.35258E-06   656   0.122E-02    0.292E-03
DAV:  15    -0.455755762984E+01   -0.31940E-04   -0.10473E-05   656   0.127E-02    0.161E-03
DAV:  16    -0.455758690856E+01   -0.29279E-04   -0.18081E-06   656   0.489E-03    0.732E-04
DAV:  17    -0.455760147415E+01   -0.14566E-04   -0.14091E-06   984   0.391E-03    0.604E-04
DAV:  18    -0.455760657846E+01   -0.51043E-05   -0.37054E-07   656   0.229E-03    0.235E-04
DAV:  19    -0.455760798867E+01   -0.14102E-05   -0.11567E-07   952   0.965E-04    0.160E-04
DAV:  20    -0.455760827013E+01   -0.28146E-06   -0.10490E-08   584   0.287E-04    0.367E-05
DAV:  21    -0.455760829457E+01   -0.24439E-07   -0.45442E-10   328   0.107E-04    0.295E-05
DAV:  22    -0.455760830259E+01   -0.80187E-08   -0.24768E-10   328   0.577E-05
   1 F= -.46396209E+01 E0= -.46366605E+01  d E =-.592068E-02
