Title Card Required                                                     
Force     UM062X                                                      6-311+G(d,p)        
Number of atoms                            I                6
Info1-9                                    I   N=           9
          15          15           0           0           0         100
           5          18        -502
Full Title                                 C   N=           2
Title Card Required     
Route                                      C   N=           4
#p UM062X/6-311+G** force int=superfine         
Charge                                     I                0
Multiplicity                               I                1
Number of electrons                        I               16
Number of alpha electrons                  I                8
Number of beta electrons                   I                8
Number of basis functions                  I               68
Number of independent functions            I               68
Number of point charges in /Mol/           I                0
Number of translation vectors              I                0
Atomic numbers                             I   N=           6
           6           6           1           1           1           1
Nuclear charges                            R   N=           6
  6.00000000E+00  6.00000000E+00  1.00000000E+00  1.00000000E+00  1.00000000E+00
  1.00000000E+00
Current cartesian coordinates              R   N=          18
 -1.62169420E-20  1.65349335E+00  0.00000000E+00 -2.02467506E-16 -1.65349335E+00
  0.00000000E+00  1.80691077E+00  2.59850003E+00  0.00000000E+00 -1.80673124E+00
  2.59854728E+00  0.00000000E+00 -1.80691077E+00 -2.59850003E+00  0.00000000E+00
  1.80673124E+00 -2.59854728E+00  0.00000000E+00
Number of symbols in /Mol/                 I                0
Force Field                                I                0
Atom Types                                 C   N=           6
                                                            
            
Int Atom Types                             I   N=           6
           0           0           0           0           0           0
MM charges                                 R   N=           6
  0.00000000E+00  0.00000000E+00  0.00000000E+00  0.00000000E+00  0.00000000E+00
  0.00000000E+00
Integer atomic weights                     I   N=           6
          12          12           1           1           1           1
Real atomic weights                        R   N=           6
  1.20000000E+01  1.20000000E+01  1.00782504E+00  1.00782504E+00  1.00782504E+00
  1.00782504E+00
Atom fragment info                         I   N=           6
           0           0           0           0           0           0
Atom residue num                           I   N=           6
           0           0           0           0           0           0
Nuclear spins                              I   N=           6
           0           0           1           1           1           1
Nuclear ZEff                               R   N=           6
 -3.60000000E+00 -3.60000000E+00 -1.00000000E+00 -1.00000000E+00 -1.00000000E+00
 -1.00000000E+00
Nuclear ZNuc                               R   N=           6
  6.00000000E+00  6.00000000E+00  1.00000000E+00  1.00000000E+00  1.00000000E+00
  1.00000000E+00
Nuclear QMom                               R   N=           6
  0.00000000E+00  0.00000000E+00  0.00000000E+00  0.00000000E+00  0.00000000E+00
  0.00000000E+00
Nuclear GFac                               R   N=           6
  0.00000000E+00  0.00000000E+00  2.79284600E+00  2.79284600E+00  2.79284600E+00
  2.79284600E+00
MicOpt                                     I   N=           6
          -1          -1          -1          -1          -1          -1
Number of residues                         I                0
Number of secondary structures             I                0
SymInf integers                            I   N=          26
           2           4           1           1           1          -1
          -1           1           1           1          -1          -1
          -1          -1           0           0           0           0
           0           0           0           0           0           0
           0           0
RotTr to input orientation                 R   N=          12
  3.62749735E-17 -1.00000000E+00 -1.99642824E-21 -1.00000000E+00 -3.62717043E-17
 -1.22464680E-16  1.22464680E-16  1.99642824E-21 -1.00000000E+00  2.77555756E-17
  0.00000000E+00  0.00000000E+00
Number of contracted shells                I               28
Number of primitive shells                 I               50
Pure/Cartesian d shells                    I                0
Pure/Cartesian f shells                    I                0
Highest angular momentum                   I                2
Largest degree of contraction              I                6
Shell types                                I   N=          28
           0          -1          -1          -1          -1          -2
           0          -1          -1          -1          -1          -2
           0           0           0           1           0           0
           0           1           0           0           0           1
           0           0           0           1
Number of primitives per shell             I   N=          28
           6           3           1           1           1           1
           6           3           1           1           1           1
           3           1           1           1           3           1
           1           1           3           1           1           1
           3           1           1           1
Shell to atom map                          I   N=          28
           1           1           1           1           1           1
           2           2           2           2           2           2
           3           3           3           3           4           4
           4           4           5           5           5           5
           6           6           6           6
Primitive exponents                        R   N=          50
  4.56324000E+03  6.82024000E+02  1.54973000E+02  4.44553000E+01  1.30290000E+01
  1.82773000E+00  2.09642000E+01  4.80331000E+00  1.45933000E+00  4.83456000E-01
  1.45585000E-01  4.38000000E-02  6.26000000E-01  4.56324000E+03  6.82024000E+02
  1.54973000E+02  4.44553000E+01  1.30290000E+01  1.82773000E+00  2.09642000E+01
  4.80331000E+00  1.45933000E+00  4.83456000E-01  1.45585000E-01  4.38000000E-02
  6.26000000E-01  3.38650000E+01  5.09479000E+00  1.15879000E+00  3.25840000E-01
  1.02741000E-01  7.50000000E-01  3.38650000E+01  5.09479000E+00  1.15879000E+00
  3.25840000E-01  1.02741000E-01  7.50000000E-01  3.38650000E+01  5.09479000E+00
  1.15879000E+00  3.25840000E-01  1.02741000E-01  7.50000000E-01  3.38650000E+01
  5.09479000E+00  1.15879000E+00  3.25840000E-01  1.02741000E-01  7.50000000E-01
Contraction coefficients                   R   N=          50
  1.96665025E-03  1.52306019E-02  7.61269097E-02  2.60801033E-01  6.16462078E-01
  2.21006028E-01  1.14660081E-01  9.19999648E-01 -3.03068213E-03  1.00000000E+00
  1.00000000E+00  1.00000000E+00  1.00000000E+00  1.96665025E-03  1.52306019E-02
  7.61269097E-02  2.60801033E-01  6.16462078E-01  2.21006028E-01  1.14660081E-01
  9.19999648E-01 -3.03068213E-03  1.00000000E+00  1.00000000E+00  1.00000000E+00
  1.00000000E+00  2.54938145E-02  1.90373109E-01  8.52161486E-01  1.00000000E+00
  1.00000000E+00  1.00000000E+00  2.54938145E-02  1.90373109E-01  8.52161486E-01
  1.00000000E+00  1.00000000E+00  1.00000000E+00  2.54938145E-02  1.90373109E-01
  8.52161486E-01  1.00000000E+00  1.00000000E+00  1.00000000E+00  2.54938145E-02
  1.90373109E-01  8.52161486E-01  1.00000000E+00  1.00000000E+00  1.00000000E+00
P(S=P) Contraction coefficients            R   N=          50
  0.00000000E+00  0.00000000E+00  0.00000000E+00  0.00000000E+00  0.00000000E+00
  0.00000000E+00  4.02486927E-02  2.37593957E-01  8.15853851E-01  1.00000000E+00
  1.00000000E+00  1.00000000E+00  0.00000000E+00  0.00000000E+00  0.00000000E+00
  0.00000000E+00  0.00000000E+00  0.00000000E+00  0.00000000E+00  4.02486927E-02
  2.37593957E-01  8.15853851E-01  1.00000000E+00  1.00000000E+00  1.00000000E+00
  0.00000000E+00  0.00000000E+00  0.00000000E+00  0.00000000E+00  0.00000000E+00
  0.00000000E+00  0.00000000E+00  0.00000000E+00  0.00000000E+00  0.00000000E+00
  0.00000000E+00  0.00000000E+00  0.00000000E+00  0.00000000E+00  0.00000000E+00
  0.00000000E+00  0.00000000E+00  0.00000000E+00  0.00000000E+00  0.00000000E+00
  0.00000000E+00  0.00000000E+00  0.00000000E+00  0.00000000E+00  0.00000000E+00
Coordinates of each shell                  R   N=          84
 -1.08112947E-20  1.65349335E+00  0.00000000E+00 -1.08112947E-20  1.65349335E+00
  0.00000000E+00 -1.08112947E-20  1.65349335E+00  0.00000000E+00 -1.08112947E-20
  1.65349335E+00  0.00000000E+00 -1.08112947E-20  1.65349335E+00  0.00000000E+00
 -1.08112947E-20  1.65349335E+00  0.00000000E+00 -2.02472911E-16 -1.65349335E+00
  0.00000000E+00 -2.02472911E-16 -1.65349335E+00  0.00000000E+00 -2.02472911E-16
 -1.65349335E+00  0.00000000E+00 -2.02472911E-16 -1.65349335E+00  0.00000000E+00
 -2.02472911E-16 -1.65349335E+00  0.00000000E+00 -2.02472911E-16 -1.65349335E+00
  0.00000000E+00  1.80691077E+00  2.59850003E+00  3.39842144E-37  1.80691077E+00
  2.59850003E+00  3.39842144E-37  1.80691077E+00  2.59850003E+00  3.39842144E-37
  1.80691077E+00  2.59850003E+00  3.39842144E-37 -1.80673124E+00  2.59854728E+00
 -3.39808379E-37 -1.80673124E+00  2.59854728E+00 -3.39808379E-37 -1.80673124E+00
  2.59854728E+00 -3.39808379E-37 -1.80673124E+00  2.59854728E+00 -3.39808379E-37
 -1.80691077E+00 -2.59850003E+00  3.39842144E-37 -1.80691077E+00 -2.59850003E+00
  3.39842144E-37 -1.80691077E+00 -2.59850003E+00  3.39842144E-37 -1.80691077E+00
 -2.59850003E+00  3.39842144E-37  1.80673124E+00 -2.59854728E+00 -3.39808379E-37
  1.80673124E+00 -2.59854728E+00 -3.39808379E-37  1.80673124E+00 -2.59854728E+00
 -3.39808379E-37  1.80673124E+00 -2.59854728E+00 -3.39808379E-37
Num ILSW                                   I              100
ILSW                                       I   N=         100
           1           0           0           0           2           0
           0           0           0           0        4336          -1
           7           0           0           0           2           0
           0           0           0           0           1           0
           1           0           0           0           0           0
           0           0      100000           0          -1           0
           0           0           0           0           0           0
           0           0           0           1           0           0
           0 -2000000000           1           0           0           0
           0           0           4          52           0           0
           0           0          55           0           0           0
           0           0           0           6           0           1
           0           0           0           0           0           0
           0           0           0           0           0           0
           0           0           0           0           0           0
           0           0           0           0           0           0
           0           0           0           0
Num RLSW                                   I               52
RLSW                                       R   N=          52
  1.00000000E+00  1.00000000E+00  1.00000000E+00  1.00000000E+00  5.40000000E-01
  0.00000000E+00  0.00000000E+00  1.00000000E+00  0.00000000E+00  0.00000000E+00
  0.00000000E+00  0.00000000E+00  1.00000000E+00  0.00000000E+00  0.00000000E+00
  0.00000000E+00  0.00000000E+00  1.00000000E+00  0.00000000E+00  0.00000000E+00
  0.00000000E+00  0.00000000E+00  1.00000000E+00  0.00000000E+00  0.00000000E+00
  0.00000000E+00  0.00000000E+00  1.00000000E+00  0.00000000E+00  0.00000000E+00
  0.00000000E+00  0.00000000E+00  1.00000000E+00  0.00000000E+00  0.00000000E+00
  0.00000000E+00  0.00000000E+00  0.00000000E+00  1.00000000E+00  1.00000000E+00
  0.00000000E+00  1.00000000E+00  0.00000000E+00  0.00000000E+00  0.00000000E+00
  0.00000000E+00  0.00000000E+00  0.00000000E+00  0.00000000E+00  0.00000000E+00
  0.00000000E+00  0.00000000E+00
MxBond                                     I                3
NBond                                      I   N=           6
           3           3           1           1           1           1
IBond                                      I   N=          18
           2           3           4           1           5           6
           1           0           0           1           0           0
           2           0           0           2           0           0
RBond                                      R   N=          18
  1.00000000E+00  1.00000000E+00  1.00000000E+00  1.00000000E+00  1.00000000E+00
  1.00000000E+00  1.00000000E+00  0.00000000E+00  0.00000000E+00  1.00000000E+00
  0.00000000E+00  0.00000000E+00  1.00000000E+00  0.00000000E+00  0.00000000E+00
  1.00000000E+00  0.00000000E+00  0.00000000E+00
Virial Ratio                               R      2.011837134775652E+00
SCF Energy                                 R     -7.846027897208894E+01
Total Energy                               R     -7.846027897208894E+01
S**2                                       R     -7.105427357601002E-15
S**2 after annihilation                    R     -1.119104808822151E-13
RMS Force                                  R      5.927254090216628E-02
RMS Density                                R      4.634778611548905E-09
Job Status                                 I                1
Nuclear derivative order                   I                1
External E-field                           R   N=          35
  0.00000000E+00  0.00000000E+00  0.00000000E+00  0.00000000E+00  0.00000000E+00
  0.00000000E+00  0.00000000E+00  0.00000000E+00  0.00000000E+00  0.00000000E+00
  0.00000000E+00  0.00000000E+00  0.00000000E+00  0.00000000E+00  0.00000000E+00
  0.00000000E+00  0.00000000E+00  0.00000000E+00  0.00000000E+00  0.00000000E+00
  0.00000000E+00  0.00000000E+00  0.00000000E+00  0.00000000E+00  0.00000000E+00
  0.00000000E+00  0.00000000E+00  0.00000000E+00  0.00000000E+00  0.00000000E+00
  0.00000000E+00  0.00000000E+00  0.00000000E+00  0.00000000E+00  0.00000000E+00
IOpCl                                      I                1
IROHF                                      I                0
Alpha Orbital Energies                     R   N=          68
 -1.05918086E+01 -1.05915715E+01 -7.93902219E-01 -6.98376773E-01 -5.29961394E-01
 -4.75736055E-01 -4.18441226E-01 -2.81004738E-01 -3.66720915E-02  3.35584220E-02
  3.36896281E-02  5.38065529E-02  7.59455641E-02  8.69209454E-02  9.76372390E-02
  1.17113147E-01  1.56254953E-01  1.66895612E-01  1.72526664E-01  2.09831010E-01
  2.26570265E-01  2.90083254E-01  4.08100213E-01  4.42652381E-01  4.72132990E-01
  5.97358307E-01  6.04785708E-01  6.20557062E-01  6.63515197E-01  6.95155710E-01
  7.08013769E-01  7.39505979E-01  7.75686283E-01  8.36589348E-01  1.07590720E+00
  1.10313236E+00  1.11820461E+00  1.36962443E+00  1.42477511E+00  1.44561625E+00
  1.49754910E+00  1.54669344E+00  1.55631394E+00  1.59055351E+00  1.74320285E+00
  1.88902966E+00  1.91510517E+00  1.94105047E+00  1.94705703E+00  2.02003990E+00
  2.08630497E+00  2.10487534E+00  2.38061759E+00  2.52742807E+00  2.54847717E+00
  2.58179845E+00  2.62572335E+00  2.63792792E+00  2.75455848E+00  2.75468304E+00
  2.79476760E+00  2.83868262E+00  2.87261117E+00  3.73473149E+00  3.79185284E+00
  3.84645802E+00  2.37960484E+01  2.38778594E+01
Beta Orbital Energies                      R   N=          68
 -1.05918086E+01 -1.05915715E+01 -7.93902219E-01 -6.98376773E-01 -5.29961394E-01
 -4.75736055E-01 -4.18441226E-01 -2.81004738E-01 -3.66720915E-02  3.35584220E-02
  3.36896281E-02  5.38065529E-02  7.59455641E-02  8.69209454E-02  9.76372390E-02
  1.17113147E-01  1.56254953E-01  1.66895612E-01  1.72526664E-01  2.09831010E-01
  2.26570265E-01  2.90083254E-01  4.08100213E-01  4.42652381E-01  4.72132990E-01
  5.97358307E-01  6.04785708E-01  6.20557062E-01  6.63515197E-01  6.95155710E-01
  7.08013769E-01  7.39505979E-01  7.75686283E-01  8.36589348E-01  1.07590720E+00
  1.10313236E+00  1.11820461E+00  1.36962443E+00  1.42477511E+00  1.44561625E+00
  1.49754910E+00  1.54669344E+00  1.55631394E+00  1.59055351E+00  1.74320285E+00
  1.88902966E+00  1.91510517E+00  1.94105047E+00  1.94705703E+00  2.02003990E+00
  2.08630497E+00  2.10487534E+00  2.38061759E+00  2.52742807E+00  2.54847717E+00
  2.58179845E+00  2.62572335E+00  2.63792792E+00  2.75455848E+00  2.75468304E+00
  2.79476760E+00  2.83868262E+00  2.87261117E+00  3.73473149E+00  3.79185284E+00
  3.84645802E+00  2.37960484E+01  2.38778594E+01
Alpha MO coefficients                      R   N=        4624
  3.98967515E-01  3.28031736E-01  5.47614183E-08 -3.37849318E-04  0.00000000E+00
  8.34987026E-03 -7.72748923E-07  1.44469513E-03  0.00000000E+00 -2.03508741E-03
 -8.78936973E-08  9.79269789E-05  0.00000000E+00 -5.80968885E-04  3.40068141E-07
 -5.19673890E-04  0.00000000E+00 -8.24883964E-04  0.00000000E+00  0.00000000E+00
  9.60479063E-04 -3.71976380E-07  3.98967515E-01  3.28031736E-01 -5.47614183E-08
  3.37849318E-04  0.00000000E+00  8.34987026E-03  7.72748923E-07 -1.44469513E-03
  0.00000000E+00 -2.03508741E-03  8.78936973E-08 -9.79269789E-05  0.00000000E+00
 -5.80968885E-04 -3.40068141E-07  5.19673890E-04  0.00000000E+00 -8.24883964E-04
  0.00000000E+00  0.00000000E+00  9.60479063E-04 -3.71976380E-07  1.31658612E-04
 -2.41245482E-03  1.53637842E-03  1.30628260E-03  7.28261603E-04  0.00000000E+00
  1.31488542E-04 -2.41389213E-03  1.53732391E-03 -1.30680137E-03  7.28644743E-04
  0.00000000E+00  1.31658612E-04 -2.41245482E-03  1.53637842E-03 -1.30628260E-03
 -7.28261603E-04  0.00000000E+00  1.31488542E-04 -2.41389213E-03  1.53732391E-03
  1.30680137E-03 -7.28644743E-04  0.00000000E+00  3.98984623E-01  3.28124996E-01
  5.26446220E-08 -2.08441289E-04  0.00000000E+00  8.10834734E-03 -7.05811549E-07
  1.66062561E-03  0.00000000E+00 -3.72421015E-03  5.05024045E-08  7.12858552E-04
  0.00000000E+00  1.74749001E-03  9.62605361E-08 -1.19529539E-03  0.00000000E+00
 -8.03145973E-04  0.00000000E+00  0.00000000E+00  9.09426199E-04 -3.29729865E-07
 -3.98984623E-01 -3.28124996E-01  5.26446220E-08 -2.08441289E-04  0.00000000E+00
 -8.10834734E-03 -7.05811549E-07  1.66062561E-03  0.00000000E+00  3.72421015E-03
  5.05024045E-08  7.12858552E-04  0.00000000E+00 -1.74749001E-03  9.62605361E-08
 -1.19529539E-03  0.00000000E+00  8.03145973E-04  0.00000000E+00  0.00000000E+00
 -9.09426199E-04  3.29729865E-07  1.23915455E-04 -2.13289362E-03  1.62064500E-03
  1.26320522E-03  6.23353974E-04  0.00000000E+00  1.23730063E-04 -2.13403979E-03
  1.62139238E-03 -1.26367957E-03  6.23696518E-04  0.00000000E+00 -1.23915455E-04
  2.13289362E-03 -1.62064500E-03  1.26320522E-03  6.23353974E-04  0.00000000E+00
 -1.23730063E-04  2.13403979E-03 -1.62139238E-03 -1.26367957E-03  6.23696518E-04
  0.00000000E+00 -7.93943340E-02 -1.27928180E-01 -5.87846198E-06 -3.95152455E-03
  0.00000000E+00  3.40562136E-01 -5.33326395E-06 -1.38005185E-02  0.00000000E+00
  2.25046547E-01 -1.74150605E-06 -4.07688524E-03  0.00000000E+00  2.20691619E-03
 -1.07286921E-06  5.09606230E-03  0.00000000E+00 -9.49339577E-03  0.00000000E+00
  0.00000000E+00 -2.23444014E-03 -9.15933972E-07 -7.93943340E-02 -1.27928180E-01
  5.87846198E-06  3.95152455E-03  0.00000000E+00  3.40562136E-01  5.33326395E-06
  1.38005185E-02  0.00000000E+00  2.25046547E-01  1.74150605E-06  4.07688524E-03
  0.00000000E+00  2.20691619E-03  1.07286921E-06 -5.09606230E-03  0.00000000E+00
 -9.49339577E-03  0.00000000E+00  0.00000000E+00 -2.23444014E-03 -9.15933972E-07
  6.76232877E-02  7.68801479E-02  2.88420135E-03 -1.02760714E-02 -5.03069283E-03
  0.00000000E+00  6.76352439E-02  7.68919851E-02  2.88259936E-03  1.02771648E-02
 -5.03234594E-03  0.00000000E+00  6.76232877E-02  7.68801479E-02  2.88420135E-03
  1.02760714E-02  5.03069283E-03  0.00000000E+00  6.76352439E-02  7.68919851E-02
  2.88259936E-03 -1.02771648E-02  5.03234594E-03  0.00000000E+00 -7.21411764E-02
 -1.16594371E-01 -1.22961736E-05  5.80142186E-02  0.00000000E+00  3.15465243E-01
 -1.38797601E-05  8.47743270E-02  0.00000000E+00  2.25396240E-01 -5.74431396E-06
  4.02786092E-02  0.00000000E+00 -3.37335661E-02 -1.21202781E-07  1.40838428E-02
  0.00000000E+00 -6.08543288E-03  0.00000000E+00  0.00000000E+00  9.67461136E-03
 -1.32582093E-06  7.21411764E-02  1.16594371E-01 -1.22961736E-05  5.80142186E-02
  0.00000000E+00 -3.15465243E-01 -1.38797601E-05  8.47743270E-02  0.00000000E+00
 -2.25396240E-01 -5.74431396E-06  4.02786092E-02  0.00000000E+00  3.37335661E-02
 -1.21202781E-07  1.40838428E-02  0.00000000E+00  6.08543288E-03  0.00000000E+00
  0.00000000E+00 -9.67461136E-03  1.32582093E-06  8.73045979E-02  1.05982850E-01
  1.37625505E-02 -1.24505249E-02 -3.41237107E-03  0.00000000E+00  8.73272193E-02
  1.06006189E-01  1.37644112E-02  1.24528306E-02 -3.41456740E-03  0.00000000E+00
 -8.73045979E-02 -1.05982850E-01 -1.37625505E-02 -1.24505249E-02 -3.41237107E-03
  0.00000000E+00 -8.73272193E-02 -1.06006189E-01 -1.37644112E-02  1.24528306E-02
 -3.41456740E-03  0.00000000E+00 -4.56491086E-06 -7.64577389E-06  1.47193023E-01
  6.71630903E-07  0.00000000E+00  2.20605979E-05  2.07765158E-01  3.78628995E-06
  0.00000000E+00  2.73080788E-05  1.23994717E-01  2.62511332E-06  0.00000000E+00
 -1.80621704E-06  4.71534692E-03  1.76490235E-06  0.00000000E+00 -3.85512108E-07
  0.00000000E+00  0.00000000E+00  1.43378024E-06  6.75192469E-03  4.56491086E-06
  7.64577389E-06  1.47193023E-01  6.71630903E-07  0.00000000E+00 -2.20605979E-05
  2.07765158E-01  3.78628995E-06  0.00000000E+00 -2.73080788E-05  1.23994717E-01
  2.62511332E-06  0.00000000E+00  1.80621704E-06  4.71534692E-03  1.76490235E-06
  0.00000000E+00  3.85512108E-07  0.00000000E+00  0.00000000E+00 -1.43378024E-06
 -6.75192469E-03  1.03796569E-01  1.41679387E-01  3.95900491E-02 -9.28724638E-03
 -7.63159409E-03  0.00000000E+00 -1.03785844E-01 -1.41659395E-01 -3.95843792E-02
 -9.28505105E-03  7.63235127E-03  0.00000000E+00 -1.03796569E-01 -1.41679387E-01
 -3.95900491E-02 -9.28724638E-03 -7.63159409E-03  0.00000000E+00  1.03785844E-01
  1.41659395E-01  3.95843792E-02 -9.28505105E-03  7.63235127E-03  0.00000000E+00
 -3.11352531E-06 -5.33950065E-06  1.49791852E-01 -3.48392447E-05  0.00000000E+00
  1.59636474E-05  2.08074634E-01 -5.04481356E-05  0.00000000E+00  2.40305458E-05
  1.35261833E-01 -3.04671059E-05  0.00000000E+00  1.60932148E-06  1.31447772E-02
 -2.84650302E-07  0.00000000E+00 -3.46711272E-07  0.00000000E+00  0.00000000E+00
 -1.94751228E-06  2.28961641E-02 -3.11352531E-06 -5.33950065E-06 -1.49791852E-01
  3.48392447E-05  0.00000000E+00  1.59636474E-05 -2.08074634E-01  5.04481356E-05
  0.00000000E+00  2.40305458E-05 -1.35261833E-01  3.04671059E-05  0.00000000E+00
  1.60932148E-06 -1.31447772E-02  2.84650302E-07  0.00000000E+00 -3.46711272E-07
  0.00000000E+00  0.00000000E+00 -1.94751228E-06  2.28961641E-02  1.13734903E-01
  1.63374116E-01  5.86280779E-02 -8.44121915E-03 -7.89579476E-03  0.00000000E+00
 -1.13754955E-01 -1.63397152E-01 -5.86361503E-02 -8.44288551E-03  7.89500643E-03
  0.00000000E+00  1.13734903E-01  1.63374116E-01  5.86280779E-02  8.44121915E-03
  7.89579476E-03  0.00000000E+00 -1.13754955E-01 -1.63397152E-01 -5.86361503E-02
  8.44288551E-03 -7.89500643E-03  0.00000000E+00  1.16605351E-02  1.95412244E-02
  2.63945147E-05  1.78648883E-01  0.00000000E+00 -5.74487360E-02  3.97260668E-05
  2.72343669E-01  0.00000000E+00 -6.74949999E-02  2.82569281E-05  1.87919312E-01
  0.00000000E+00  1.01645751E-03  3.58356960E-06  9.60196981E-03  0.00000000E+00
  5.72252196E-04  0.00000000E+00  0.00000000E+00  1.47338856E-02  3.68977960E-06
  1.16605351E-02  1.95412244E-02 -2.63945147E-05 -1.78648883E-01  0.00000000E+00
 -5.74487360E-02 -3.97260668E-05 -2.72343669E-01  0.00000000E+00 -6.74949999E-02
 -2.82569281E-05 -1.87919312E-01  0.00000000E+00  1.01645751E-03 -3.58356960E-06
 -9.60196981E-03  0.00000000E+00  5.72252196E-04  0.00000000E+00  0.00000000E+00
  1.47338856E-02  3.68977960E-06  6.32104832E-02  9.56319385E-02  4.35393223E-02
 -9.07586879E-03  5.66353024E-03  0.00000000E+00  6.31751672E-02  9.55747579E-02
  4.35117148E-02  9.07449706E-03  5.66588697E-03  0.00000000E+00  6.32104832E-02
  9.56319385E-02  4.35393223E-02  9.07586879E-03 -5.66353024E-03  0.00000000E+00
  6.31751672E-02  9.55747579E-02  4.35117148E-02 -9.07449706E-03 -5.66588697E-03
  0.00000000E+00  0.00000000E+00  0.00000000E+00  0.00000000E+00  0.00000000E+00
  1.70979959E-01  0.00000000E+00  0.00000000E+00  0.00000000E+00  2.70568726E-01
  0.00000000E+00  0.00000000E+00  0.00000000E+00  2.84270993E-01  0.00000000E+00
  0.00000000E+00  0.00000000E+00  4.89484213E-02  0.00000000E+00 -2.78702181E-07
 -1.24456537E-02  0.00000000E+00  0.00000000E+00  0.00000000E+00  0.00000000E+00
  0.00000000E+00  0.00000000E+00  1.70979959E-01  0.00000000E+00  0.00000000E+00
  0.00000000E+00  2.70568726E-01  0.00000000E+00  0.00000000E+00  0.00000000E+00
  2.84270993E-01  0.00000000E+00  0.00000000E+00  0.00000000E+00  4.89484213E-02
  0.00000000E+00  2.78702181E-07  1.24456537E-02  0.00000000E+00  0.00000000E+00
  0.00000000E+00  0.00000000E+00  0.00000000E+00  0.00000000E+00  0.00000000E+00
  1.37802323E-02  0.00000000E+00  0.00000000E+00  0.00000000E+00  0.00000000E+00
  0.00000000E+00  1.37814076E-02  0.00000000E+00  0.00000000E+00  0.00000000E+00
  0.00000000E+00  0.00000000E+00  1.37802323E-02  0.00000000E+00  0.00000000E+00
  0.00000000E+00  0.00000000E+00  0.00000000E+00  1.37814076E-02  0.00000000E+00
  0.00000000E+00  0.00000000E+00  0.00000000E+00  1.80000218E-01  0.00000000E+00
  0.00000000E+00  0.00000000E+00  2.76623541E-01  0.00000000E+00  0.00000000E+00
  0.00000000E+00  3.86729601E-01  0.00000000E+00  0.00000000E+00  0.00000000E+00
  3.76138175E-01  0.00000000E+00 -2.48639149E-07  2.10437382E-02  0.00000000E+00
  0.00000000E+00  0.00000000E+00  0.00000000E+00  0.00000000E+00  0.00000000E+00
 -1.80000218E-01  0.00000000E+00  0.00000000E+00  0.00000000E+00 -2.76623541E-01
  0.00000000E+00  0.00000000E+00  0.00000000E+00 -3.86729601E-01  0.00000000E+00
  0.00000000E+00  0.00000000E+00 -3.76138175E-01  0.00000000E+00 -2.48639149E-07
  2.10437382E-02  0.00000000E+00  0.00000000E+00  0.00000000E+00  0.00000000E+00
  0.00000000E+00  0.00000000E+00  0.00000000E+00  1.94663701E-02  0.00000000E+00
  0.00000000E+00  0.00000000E+00  0.00000000E+00  0.00000000E+00  1.94679577E-02
  0.00000000E+00  0.00000000E+00  0.00000000E+00  0.00000000E+00  0.00000000E+00
 -1.94663701E-02  0.00000000E+00  0.00000000E+00  0.00000000E+00  0.00000000E+00
  0.00000000E+00 -1.94679577E-02 -2.84721965E-02 -4.85237248E-02  1.17620255E-06
 -1.67308263E-02  0.00000000E+00  1.52844799E-01 -3.31194217E-06 -3.49493492E-02
  0.00000000E+00  2.36589268E-01  1.02602160E-05  4.88229018E-02  0.00000000E+00
  4.03568037E+00  2.20507231E-05 -2.26631776E+00  0.00000000E+00  2.41126676E-03
  0.00000000E+00  0.00000000E+00  1.55446600E-02 -2.01478271E-06  2.84721965E-02
  4.85237248E-02  1.17620255E-06 -1.67308263E-02  0.00000000E+00 -1.52844799E-01
 -3.31194217E-06 -3.49493492E-02  0.00000000E+00 -2.36589268E-01  1.02602160E-05
  4.88229018E-02  0.00000000E+00 -4.03568037E+00  2.20507231E-05 -2.26631776E+00
  0.00000000E+00 -2.41126676E-03  0.00000000E+00  0.00000000E+00 -1.55446600E-02
  2.01478271E-06  4.26576909E-03 -5.92721758E-02  1.23044423E-01 -1.23375919E-03
 -1.12598148E-02  0.00000000E+00  4.26809449E-03 -5.92824691E-02  1.23110593E-01
  1.23157730E-03 -1.12586763E-02  0.00000000E+00 -4.26576909E-03  5.92721758E-02
 -1.23044423E-01 -1.23375919E-03 -1.12598148E-02  0.00000000E+00 -4.26809449E-03
  5.92824691E-02 -1.23110593E-01  1.23157730E-03 -1.12586763E-02  0.00000000E+00
  2.04583685E-02  3.46254334E-02 -3.33156669E-06 -3.60750940E-02  0.00000000E+00
 -9.35145629E-02  5.86566659E-06 -5.35802809E-02  0.00000000E+00 -3.60737079E-01
 -3.95346371E-05 -1.23694020E-01  0.00000000E+00  1.18370926E+00 -1.14477088E-04
  5.50129140E-01  0.00000000E+00  1.39253482E-02  0.00000000E+00  0.00000000E+00
 -8.53161636E-03  2.87246664E-06  2.04583685E-02  3.46254334E-02  3.33156669E-06
  3.60750940E-02  0.00000000E+00 -9.35145629E-02 -5.86566659E-06  5.35802809E-02
  0.00000000E+00 -3.60737079E-01  3.95346371E-05  1.23694020E-01  0.00000000E+00
  1.18370926E+00  1.14477088E-04 -5.50129140E-01  0.00000000E+00  1.39253482E-02
  0.00000000E+00  0.00000000E+00 -8.53161636E-03  2.87246664E-06 -1.87453915E-02
  8.54853505E-02 -3.44502110E-01  1.60797371E-03  6.84507951E-04  0.00000000E+00
 -1.87476398E-02  8.55029243E-02 -3.44656682E-01 -1.60454602E-03  6.82957969E-04
  0.00000000E+00 -1.87453915E-02  8.54853505E-02 -3.44502110E-01 -1.60797371E-03
 -6.84507951E-04  0.00000000E+00 -1.87476398E-02  8.55029243E-02 -3.44656682E-01
  1.60454602E-03 -6.82957969E-04  0.00000000E+00  1.99474924E-06  3.09421970E-06
 -5.28334511E-02  1.52434809E-06  0.00000000E+00 -4.58604026E-06 -9.17329034E-02
  6.70327934E-06  0.00000000E+00 -3.81700876E-05 -1.65955805E-01 -1.00111368E-05
  0.00000000E+00  4.71690707E-06  8.62031171E-01  4.68042322E-06  0.00000000E+00
 -1.12432595E-06  0.00000000E+00  0.00000000E+00 -7.28316167E-07 -1.48672716E-02
 -1.99474924E-06 -3.09421970E-06 -5.28334511E-02  1.52434809E-06  0.00000000E+00
  4.58604026E-06 -9.17329034E-02  6.70327934E-06  0.00000000E+00  3.81700876E-05
 -1.65955805E-01 -1.00111368E-05  0.00000000E+00 -4.71690707E-06  8.62031171E-01
  4.68042322E-06  0.00000000E+00  1.12432595E-06  0.00000000E+00  0.00000000E+00