Title Card Required                                                     
FOpt      UM062X                                                      6-311+G(d,p)        
Number of atoms                            I                4
Info1-9                                    I   N=           9
          13          13           0           0           0         110
           2          18        -502
Full Title                                 C   N=           2
Title Card Required     
Route                                      C   N=           4
#p opt UM062X/6-311+G** nosymm int=superfine    
Charge                                     I                1
Multiplicity                               I                2
Number of electrons                        I               13
Number of alpha electrons                  I                7
Number of beta electrons                   I                6
Number of basis functions                  I               56
Number of independent functions            I               56
Number of point charges in /Mol/           I                0
Number of translation vectors              I                0
Atomic numbers                             I   N=           4
           6           6           1           1
Nuclear charges                            R   N=           4
  6.00000000E+00  6.00000000E+00  1.00000000E+00  1.00000000E+00
Current cartesian coordinates              R   N=          12
 -1.95049972E+00  0.00000000E+00  0.00000000E+00  1.95049972E+00  0.00000000E+00
  0.00000000E+00 -4.04870120E+00 -2.96861678E-14  1.50698408E-12  4.04869950E+00
 -2.94922185E-13 -1.39577590E-12
Number of symbols in /Mol/                 I                0
Force Field                                I                0
Atom Types                                 C   N=           4
                                                
Int Atom Types                             I   N=           4
           0           0           0           0
MM charges                                 R   N=           4
  0.00000000E+00  0.00000000E+00  0.00000000E+00  0.00000000E+00
Integer atomic weights                     I   N=           4
          12          12           1           1
Real atomic weights                        R   N=           4
  1.20000000E+01  1.20000000E+01  1.00782504E+00  1.00782504E+00
Atom fragment info                         I   N=           4
           0           0           0           0
Atom residue num                           I   N=           4
           0           0           0           0
Nuclear spins                              I   N=           4
           0           0           1           1
Nuclear ZEff                               R   N=           4
 -3.60000000E+00 -3.60000000E+00 -1.00000000E+00 -1.00000000E+00
Nuclear ZNuc                               R   N=           4
  6.00000000E+00  6.00000000E+00  1.00000000E+00  1.00000000E+00
Nuclear QMom                               R   N=           4
  0.00000000E+00  0.00000000E+00  0.00000000E+00  0.00000000E+00
Nuclear GFac                               R   N=           4
  0.00000000E+00  0.00000000E+00  2.79284600E+00  2.79284600E+00
MicOpt                                     I   N=           4
          -2          -2          -1          -1
Number of residues                         I                0
Number of secondary structures             I                0
Redundant internal dimensions              I   N=           4
          12           8           4           0
Redundant internal coordinate indices      I   N=          48
           1          -1           0           0           1          -2
           0           0           1          -3           0           0
           2          -1           0           0           2          -2
           0           0           2          -3           0           0
           1           3           0           0           2           4
           0           0           2           1           3          -4
           1           2           4          -4           2           1
           3          -8           1           2           4          -8
Redundant internal coordinates             R   N=          12
 -1.95049972E+00  0.00000000E+00  0.00000000E+00  1.95049972E+00  0.00000000E+00
  0.00000000E+00  2.09820148E+00  2.09819978E+00  3.14159265E+00  3.14159265E+00
  3.14159265E+00  3.14159265E+00
ZRed-IntVec                                I   N=          12
          -1          -1          -1          -1          -1          -1
           0           0           0           0           0           0
ZRed-FPVec                                 R   N=          12
  0.00000000E+00  0.00000000E+00  0.00000000E+00  0.00000000E+00  0.00000000E+00
  0.00000000E+00  0.00000000E+00  0.00000000E+00  0.00000000E+00  0.00000000E+00
  0.00000000E+00  0.00000000E+00
ZRed-Constraint1                           R   N=          12
 -1.95049972E+00  0.00000000E+00  0.00000000E+00  1.95049972E+00  0.00000000E+00
  0.00000000E+00  2.08057524E+00  2.08053366E+00  3.14159265E+00  3.14159265E+00
  3.14159265E+00  3.14159265E+00
ZRed-Constraint2                           R   N=          12
 -1.95049972E+00  0.00000000E+00  0.00000000E+00  1.95049972E+00  0.00000000E+00
  0.00000000E+00  0.00000000E+00  0.00000000E+00  0.00000000E+00  0.00000000E+00
  0.00000000E+00  0.00000000E+00
Number of contracted shells                I               20
Number of primitive shells                 I               38
Pure/Cartesian d shells                    I                0
Pure/Cartesian f shells                    I                0
Highest angular momentum                   I                2
Largest degree of contraction              I                6
Shell types                                I   N=          20
           0          -1          -1          -1          -1          -2
           0          -1          -1          -1          -1          -2
           0           0           0           1           0           0
           0           1
Number of primitives per shell             I   N=          20
           6           3           1           1           1           1
           6           3           1           1           1           1
           3           1           1           1           3           1
           1           1
Shell to atom map                          I   N=          20
           1           1           1           1           1           1
           2           2           2           2           2           2
           3           3           3           3           4           4
           4           4
Primitive exponents                        R   N=          38
  4.56324000E+03  6.82024000E+02  1.54973000E+02  4.44553000E+01  1.30290000E+01
  1.82773000E+00  2.09642000E+01  4.80331000E+00  1.45933000E+00  4.83456000E-01
  1.45585000E-01  4.38000000E-02  6.26000000E-01  4.56324000E+03  6.82024000E+02
  1.54973000E+02  4.44553000E+01  1.30290000E+01  1.82773000E+00  2.09642000E+01
  4.80331000E+00  1.45933000E+00  4.83456000E-01  1.45585000E-01  4.38000000E-02
  6.26000000E-01  3.38650000E+01  5.09479000E+00  1.15879000E+00  3.25840000E-01
  1.02741000E-01  7.50000000E-01  3.38650000E+01  5.09479000E+00  1.15879000E+00
  3.25840000E-01  1.02741000E-01  7.50000000E-01
Contraction coefficients                   R   N=          38
  1.96665025E-03  1.52306019E-02  7.61269097E-02  2.60801033E-01  6.16462078E-01
  2.21006028E-01  1.14660081E-01  9.19999648E-01 -3.03068213E-03  1.00000000E+00
  1.00000000E+00  1.00000000E+00  1.00000000E+00  1.96665025E-03  1.52306019E-02
  7.61269097E-02  2.60801033E-01  6.16462078E-01  2.21006028E-01  1.14660081E-01
  9.19999648E-01 -3.03068213E-03  1.00000000E+00  1.00000000E+00  1.00000000E+00
  1.00000000E+00  2.54938145E-02  1.90373109E-01  8.52161486E-01  1.00000000E+00
  1.00000000E+00  1.00000000E+00  2.54938145E-02  1.90373109E-01  8.52161486E-01
  1.00000000E+00  1.00000000E+00  1.00000000E+00
P(S=P) Contraction coefficients            R   N=          38
  0.00000000E+00  0.00000000E+00  0.00000000E+00  0.00000000E+00  0.00000000E+00
  0.00000000E+00  4.02486927E-02  2.37593957E-01  8.15853851E-01  1.00000000E+00
  1.00000000E+00  1.00000000E+00  0.00000000E+00  0.00000000E+00  0.00000000E+00
  0.00000000E+00  0.00000000E+00  0.00000000E+00  0.00000000E+00  4.02486927E-02
  2.37593957E-01  8.15853851E-01  1.00000000E+00  1.00000000E+00  1.00000000E+00
  0.00000000E+00  0.00000000E+00  0.00000000E+00  0.00000000E+00  0.00000000E+00
  0.00000000E+00  0.00000000E+00  0.00000000E+00  0.00000000E+00  0.00000000E+00
  0.00000000E+00  0.00000000E+00  0.00000000E+00
Coordinates of each shell                  R   N=          60
 -1.95049972E+00  0.00000000E+00  0.00000000E+00 -1.95049972E+00  0.00000000E+00
  0.00000000E+00 -1.95049972E+00  0.00000000E+00  0.00000000E+00 -1.95049972E+00
  0.00000000E+00  0.00000000E+00 -1.95049972E+00  0.00000000E+00  0.00000000E+00
 -1.95049972E+00  0.00000000E+00  0.00000000E+00  1.95049972E+00  0.00000000E+00
  0.00000000E+00  1.95049972E+00  0.00000000E+00  0.00000000E+00  1.95049972E+00
  0.00000000E+00  0.00000000E+00  1.95049972E+00  0.00000000E+00  0.00000000E+00
  1.95049972E+00  0.00000000E+00  0.00000000E+00  1.95049972E+00  0.00000000E+00
  0.00000000E+00 -4.04870120E+00 -2.96861678E-14  1.50698408E-12 -4.04870120E+00
 -2.96861678E-14  1.50698408E-12 -4.04870120E+00 -2.96861678E-14  1.50698408E-12
 -4.04870120E+00 -2.96861678E-14  1.50698408E-12  4.04869950E+00 -2.94922185E-13
 -1.39577590E-12  4.04869950E+00 -2.94922185E-13 -1.39577590E-12  4.04869950E+00
 -2.94922185E-13 -1.39577590E-12  4.04869950E+00 -2.94922185E-13 -1.39577590E-12
Num ILSW                                   I              100
ILSW                                       I   N=         100
           1           0           0           1           2           0
           0           0           0           0        4336          -1
           7           0           0           0           2           0
           0           0           0           0           1           0
           1           1           0           0           0           0
           0           0      100000           0          -1           0
           0           0           0           0           0           0
           0           0           0           1           0           0
           0 -2000000000           1           0           0           0
           0           0           4          52           0           0
           0           0          55           0           0           0
           0           0           0           4           0           1
           0           0           0           0           0           0
           0           0           0           0           0           0
           0           0           0           0           0           0
           0           0           0           0           0           0
           0           0           0           0
Num RLSW                                   I               52
RLSW                                       R   N=          52
  1.00000000E+00  1.00000000E+00  1.00000000E+00  1.00000000E+00  5.40000000E-01
  0.00000000E+00  0.00000000E+00  1.00000000E+00  0.00000000E+00  0.00000000E+00
  0.00000000E+00  0.00000000E+00  1.00000000E+00  0.00000000E+00  0.00000000E+00
  0.00000000E+00  0.00000000E+00  1.00000000E+00  0.00000000E+00  0.00000000E+00
  0.00000000E+00  0.00000000E+00  1.00000000E+00  0.00000000E+00  0.00000000E+00
  0.00000000E+00  0.00000000E+00  1.00000000E+00  0.00000000E+00  0.00000000E+00
  0.00000000E+00  0.00000000E+00  1.00000000E+00  0.00000000E+00  0.00000000E+00
  0.00000000E+00  0.00000000E+00  0.00000000E+00  1.00000000E+00  1.00000000E+00
  0.00000000E+00  1.00000000E+00  0.00000000E+00  0.00000000E+00  0.00000000E+00
  0.00000000E+00  0.00000000E+00  0.00000000E+00  0.00000000E+00  0.00000000E+00
  0.00000000E+00  0.00000000E+00
MxBond                                     I                2
NBond                                      I   N=           4
           2           2           1           1
IBond                                      I   N=           8
           2           3           1           4           1           0
           2           0
RBond                                      R   N=           8
  1.00000000E-01  1.00000000E+00  1.00000000E-01  1.00000000E+00  1.00000000E+00
  0.00000000E+00  1.00000000E+00  0.00000000E+00
Virial Ratio                               R      2.014038368963809E+00
SCF Energy                                 R     -7.656335627741309E+01
Total Energy                               R     -7.656335627741309E+01
S**2                                       R      7.528514388438960E-01
S**2 after annihilation                    R      7.500049390020965E-01
RMS Force                                  R      7.307092071030268E-05
RMS Density                                R      6.296988974001398E-09
Job Status                                 I                1
Nuclear derivative order                   I                1
External E-field                           R   N=          35
  0.00000000E+00  0.00000000E+00  0.00000000E+00  0.00000000E+00  0.00000000E+00
  0.00000000E+00  0.00000000E+00  0.00000000E+00  0.00000000E+00  0.00000000E+00
  0.00000000E+00  0.00000000E+00  0.00000000E+00  0.00000000E+00  0.00000000E+00
  0.00000000E+00  0.00000000E+00  0.00000000E+00  0.00000000E+00  0.00000000E+00
  0.00000000E+00  0.00000000E+00  0.00000000E+00  0.00000000E+00  0.00000000E+00
  0.00000000E+00  0.00000000E+00  0.00000000E+00  0.00000000E+00  0.00000000E+00
  0.00000000E+00  0.00000000E+00  0.00000000E+00  0.00000000E+00  0.00000000E+00
IOpCl                                      I                1
IROHF                                      I                0
Alpha Orbital Energies                     R   N=          56
 -1.10147865E+01 -1.10146040E+01 -1.05297334E+00 -9.98751379E-01 -7.81349266E-01
 -5.91216507E-01 -5.71588592E-01 -3.99537519E-01 -3.97696769E-01 -3.79975936E-01
 -1.40196741E-01 -1.21072364E-01 -9.60128003E-02 -8.52227880E-02 -8.30503412E-02
 -5.37533973E-02 -5.10916715E-02 -2.81493509E-03  2.53169349E-02  5.50218232E-02
  2.42733637E-01  3.01572179E-01  3.04160039E-01  3.18202901E-01  3.59370143E-01
  3.67220007E-01  4.33498471E-01  5.35362159E-01  5.38713770E-01  6.84102255E-01
  7.49349278E-01  7.59393725E-01  9.56845813E-01  9.65133444E-01  1.00900160E+00
  1.01063129E+00  1.05924572E+00  1.06030752E+00  1.09508576E+00  1.47870693E+00
  1.49818909E+00  1.50594806E+00  1.64797097E+00  1.65965616E+00  1.96129447E+00
  2.23026452E+00  2.37348232E+00  2.37425620E+00  2.39980524E+00  2.40300190E+00
  2.42780484E+00  2.48598132E+00  2.98110867E+00  2.99487369E+00  2.32017049E+01
  2.32409463E+01
Beta Orbital Energies                      R   N=          56
 -1.10119784E+01 -1.10118565E+01 -1.02182691E+00 -9.79175371E-01 -7.69606432E-01
 -5.53390729E-01 -3.79323241E-01 -3.77212378E-01 -3.62368818E-01 -3.08880399E-01
 -1.48412794E-01 -1.23966996E-01 -1.03169662E-01 -8.83445134E-02 -8.71112059E-02
 -5.43427332E-02 -5.24716203E-02 -1.22516341E-02  2.61027715E-02  5.46904709E-02
  2.41094485E-01  3.06524876E-01  3.12680625E-01  3.19431190E-01  3.46226655E-01
  3.64583581E-01  4.34497125E-01  5.37470083E-01  5.47335664E-01  6.65810596E-01
  7.72776776E-01  7.75953887E-01  9.70891304E-01  9.79258315E-01  1.03651637E+00
  1.05812271E+00  1.08286453E+00  1.10602017E+00  1.11565540E+00  1.48815032E+00
  1.50554056E+00  1.51507943E+00  1.66324864E+00  1.67118218E+00  1.98072044E+00
  2.24358744E+00  2.38682854E+00  2.40950292E+00  2.42110352E+00  2.43750393E+00
  2.44971515E+00  2.51106112E+00  2.99744017E+00  3.01292188E+00  2.32124730E+01
  2.32517425E+01
Alpha MO coefficients                      R   N=        3136
  3.98981108E-01  3.28137380E-01  9.81652091E-04  9.20514145E-16  2.82958670E-15
  6.87368159E-03 -2.12186280E-03 -3.42403578E-16 -4.79504543E-16 -3.19220006E-03
  5.53104586E-04  3.25840033E-16 -2.97375955E-16 -3.99614594E-04  1.21387594E-03
 -3.32324982E-16 -1.30504584E-15 -5.15419737E-04 -5.09140788E-16 -3.62627494E-05
  8.68622119E-04  2.29777583E-16  3.99235225E-01  3.28346371E-01 -9.82234959E-04
 -1.84144586E-16 -2.22976563E-15  6.87821739E-03  2.12326515E-03 -3.87472312E-16
 -2.20840334E-16 -3.19474804E-03 -5.51984621E-04  1.60395674E-16  5.98741069E-16
 -3.96116210E-04 -1.21562703E-03  2.81286602E-16  1.14754945E-15 -5.15731068E-04
 -4.96907291E-16 -3.62881745E-05  8.69144432E-04  1.10159753E-16  9.07370556E-05
 -2.59914119E-03  2.92984815E-03 -1.60452584E-03 -1.29383612E-16  3.64014336E-15
  9.08568538E-05 -2.60122917E-03  2.93087796E-03  1.60561486E-03 -6.04138111E-16
 -3.33678954E-15  3.99255757E-01  3.28356073E-01  9.18340028E-04  2.77082805E-16
  2.65854147E-15  7.11427314E-03 -2.19119394E-03  2.21469844E-16 -3.09390068E-16
 -4.00262279E-03 -1.75703970E-03 -2.16399953E-16  4.37122796E-16  5.51168037E-03
  2.75480307E-03  2.40132145E-16 -3.79847627E-16 -4.84971168E-04 -7.04438217E-16
 -3.60494757E-05  8.16025479E-04  2.20369125E-16 -3.99001653E-01 -3.28147086E-01
  9.17713270E-04  1.87157552E-16  2.57418621E-15 -7.10990311E-03 -2.18985069E-03
  4.46149507E-16 -2.89648377E-16  4.00058785E-03 -1.75739218E-03 -1.11549010E-16
  3.10233115E-16 -5.51193159E-03  2.75403030E-03 -1.65695764E-16 -2.89831869E-16
  4.84645566E-04  6.09524751E-16  3.60287313E-05 -8.15475291E-04 -5.28742082E-17
  1.90894380E-04 -3.26165988E-03  1.60830250E-03 -1.70166739E-03 -1.46585896E-16
  3.82936839E-15 -1.90834802E-04  3.26001652E-03 -1.60644143E-03 -1.70065141E-03
  6.82820348E-16  3.54147782E-15 -8.33953080E-02 -1.36421303E-01 -2.04620393E-02
  1.79513213E-14  3.71164729E-14  3.93470459E-01 -2.10690208E-02  3.64762752E-14
  5.15857685E-14  2.70354235E-01 -4.73999259E-03  1.65926597E-14 -1.93435586E-16
 -1.45987154E-03 -1.66291578E-02 -2.23821664E-15  1.59321741E-14 -9.30169921E-03
  1.40954433E-14 -3.86360482E-03  1.35419577E-02 -1.99606939E-15 -8.33956104E-02
 -1.36421789E-01  2.04624043E-02 -2.16122821E-14 -3.33195398E-14  3.93471844E-01
  2.10695124E-02 -3.91193865E-14 -4.56251688E-14  2.70355110E-01  4.74012127E-03
  1.65504866E-15  1.05343490E-15 -1.46020189E-03  1.66293080E-02 -5.39234943E-15
 -1.53954926E-14 -9.30175532E-03  1.55790925E-14 -3.86371650E-03  1.35419799E-02
  1.57189667E-14  8.30364902E-02  1.01315869E-01 -2.06644195E-02  1.37448707E-02
 -1.63932037E-14  2.53166681E-14  8.30370414E-02  1.01316497E-01 -2.06644790E-02
 -1.37449592E-02 -3.03781104E-14 -2.28401106E-14 -7.56574313E-02 -1.23843271E-01
 -7.22451239E-02  1.67119753E-14  5.41939739E-14  3.61796484E-01 -1.02726844E-01
  3.57254644E-14  6.75880875E-14  2.46561041E-01 -4.29891133E-02  2.46119902E-14
  4.14240930E-15 -9.45038991E-02 -4.43333741E-02 -2.86566617E-15  1.01066944E-14
 -5.73919496E-03  1.45172994E-14 -3.45278651E-03  7.64468920E-03 -4.89937487E-15
  7.56570720E-02  1.23842673E-01 -7.22452745E-02  2.15635451E-14  4.87282927E-14
 -3.61794731E-01 -1.02727062E-01  3.32698170E-14  6.05449775E-14 -2.46559686E-01
 -4.29891920E-02 -1.20155958E-15  2.06470411E-15  9.45038946E-02 -4.43332876E-02
  3.31963890E-15  9.60919148E-15  5.73918330E-03 -1.59554045E-14  3.45285365E-03
 -7.64462376E-03 -1.59004865E-14  1.11782293E-01  1.39168801E-01 -1.39397340E-02
  1.90000070E-02 -2.03677804E-14  2.96908319E-14 -1.11782165E-01 -1.39168559E-01
  1.39396527E-02  1.89999763E-02  3.23803247E-14  2.69189050E-14 -1.74044506E-02
 -2.91791763E-02  1.72500104E-01  2.77265342E-14 -6.97469996E-14  8.42411452E-02
  2.63419558E-01  4.33535680E-14 -7.39251036E-14  9.91640104E-02  1.52040661E-01
  1.32501973E-14 -1.88581769E-14 -6.69199131E-03 -4.07988787E-03  3.49451209E-17
 -1.01949368E-14 -2.91442678E-03  8.44997808E-16 -1.14639007E-03  4.28565227E-03
  1.65217021E-14 -1.74045478E-02 -2.91793378E-02 -1.72500098E-01 -1.94641704E-14
  6.18113743E-14  8.42416341E-02 -2.63419492E-01 -5.05605091E-14  6.31077916E-14
  9.91645519E-02 -1.52040612E-01 -1.75843602E-14  1.24090389E-14 -6.69219064E-03
  4.07999281E-03 -5.15761284E-16  1.01839750E-14 -2.91443203E-03  2.74314306E-15
 -1.14644287E-03  4.28562586E-03 -1.45078570E-15 -1.09658871E-01 -1.53451517E-01
 -1.32676458E-02 -1.60659203E-02  1.68515341E-14 -2.65093369E-14 -1.09658815E-01
 -1.53451345E-01 -1.32676520E-02  1.60658985E-02  6.58993615E-15  2.30356561E-14
 -4.41198546E-14 -6.82998938E-14  1.06588127E-13  1.63191553E-01 -1.17718472E-01
  3.22482440E-13  2.85601365E-13  2.57835586E-01 -1.85990068E-01 -1.09426886E-12
  1.05650072E-12  2.25035468E-01 -1.62329651E-01 -2.28858080E-13  8.87404315E-13
  1.82128311E-03 -1.31378385E-03  7.48263324E-14 -6.60360246E-03  1.07912477E-14
 -1.77890771E-13  9.15449103E-03  4.60119031E-14  5.96409511E-14  6.35232898E-14
  1.63189999E-01 -1.17717358E-01 -2.97873765E-17  4.28978515E-13  2.57833410E-01
 -1.85988508E-01 -1.49701644E-12 -1.97369360E-13  2.25033430E-01 -1.62328189E-01
 -1.41088825E-12 -8.84194465E-13  1.82124859E-03 -1.31375906E-03 -3.34163345E-14
  6.60367729E-03 -1.00994071E-14  1.01919178E-13 -9.15459560E-03 -1.00901311E-13
  4.79409867E-13  1.62604975E-12  2.40367500E-13  1.24725930E-02 -8.99712370E-03
  1.72228049E-13 -5.80928700E-13  2.57058922E-12  1.08568609E-13  1.24724665E-02
 -8.99703314E-03  3.35316278E-14  4.60655375E-14 -8.69139146E-15  1.16358133E-01
  1.61305754E-01 -4.87823038E-14 -9.77545753E-15  1.84863437E-01  2.56273731E-01
 -4.14340300E-13 -1.51882428E-12  1.62505205E-01  2.25278802E-01 -3.01763567E-12
 -1.22282745E-12  3.94099383E-03  5.46334584E-03 -1.15869127E-14  9.53478462E-03
  2.57681617E-14  4.72554085E-14  6.87793358E-03 -3.12148383E-14 -5.14293386E-14
 -5.20577961E-14  1.16358934E-01  1.61306880E-01  2.76850659E-13  9.42558317E-14
  1.84864540E-01  2.56275282E-01 -1.40067570E-12 -2.40235735E-12  1.62506302E-01
  2.25280343E-01  1.83617989E-12 -2.48886865E-12  3.94102056E-03  5.46338316E-03
  3.68854696E-14 -9.53467743E-03 -2.25952695E-14 -9.02427401E-14 -6.87785708E-03
  6.46150520E-14 -4.79169958E-13 -7.61223415E-13 -9.81490240E-14  9.72832049E-03
  1.34862431E-02 -1.61791733E-14  3.52326882E-13  3.75940273E-12 -1.73509310E-13
  9.72840757E-03  1.34863652E-02 -6.31632780E-13 -1.07530176E-12  1.63448685E-12
 -1.78794814E-01  1.28973941E-01  3.34485756E-12  2.23652002E-12 -2.77781525E-01
  2.00378149E-01  5.97354575E-12 -3.81383786E-13 -2.66873108E-01  1.92509339E-01
 -1.54499646E-12 -1.48443360E-12 -3.18692564E-02  2.29889405E-02  7.09814092E-14
 -9.31876315E-03 -5.50374298E-14 -1.00606187E-13  1.29184715E-02  6.30205035E-13
  1.04634047E-12  1.48174592E-12  1.78795925E-01 -1.28974734E-01 -3.16746398E-12
  2.62464984E-12  2.77783539E-01 -2.00379587E-01 -5.87205365E-12 -4.33571423E-13
  2.66874933E-01 -1.92510641E-01  7.86575300E-13 -2.06609553E-12  3.18694048E-02
 -2.29890461E-02 -1.81460861E-13 -9.31869629E-03  2.76038412E-14  3.86255852E-13
  1.29183778E-02 -1.03900094E-12 -3.26626377E-12 -3.89740576E-12 -3.42083360E-13
 -1.75586829E-02  1.26659853E-02  1.14850066E-12  1.85394543E-12  5.39704122E-12
  7.41040297E-14  1.75587753E-02 -1.26660512E-02 -6.26784076E-02 -1.05309847E-01
  1.59455149E-01  1.62170170E-12 -1.35511355E-12  3.27631251E-01  2.27459287E-01
  2.54171059E-12 -2.06275772E-12  5.00905337E-01  2.09492853E-01  2.38855984E-12
 -1.92534980E-12  2.06981567E-01  8.44404287E-02  2.63165102E-13 -2.56570253E-13
  1.42396081E-02  1.09855619E-13 -4.09864217E-03 -2.73890751E-02 -1.03613589E-13
  6.26783986E-02  1.05309829E-01  1.59455205E-01 -1.78982711E-12  1.55773734E-12
 -3.27631182E-01  2.27459317E-01 -2.69030523E-12  2.46168066E-12 -5.00905464E-01
  2.09492847E-01 -2.72675672E-12  2.42217627E-12 -2.06981609E-01  8.44403760E-02
 -2.72610743E-13  2.79250433E-13 -1.42395765E-02  9.91395351E-14  4.09877573E-03
  2.73891102E-02 -1.24647199E-13 -1.08808816E-01 -2.17812166E-01 -1.36637812E-01
 -4.01184034E-03  1.67199954E-13 -1.48320377E-13  1.08808725E-01  2.17811951E-01
  1.36637682E-01 -4.01184018E-03 -1.48198342E-13  1.41918299E-13 -4.38947758E-14
 -7.52565903E-14  2.20552740E-13  1.27375684E-01  1.76579216E-01  1.60085159E-13
  1.16942510E-13  1.98097261E-01  2.74619567E-01  1.06656306E-12  1.38410789E-12
  1.94445348E-01  2.69556958E-01  3.28925157E-12  1.12959460E-12  3.13195363E-02
  4.34178537E-02 -1.39128205E-14 -1.31628678E-02  2.18845654E-14  4.89866317E-14
 -9.49505253E-03  6.60794491E-14  1.09851608E-13  1.39498515E-13 -1.27375113E-01
 -1.76578419E-01 -4.85570485E-13  7.62731892E-14 -1.98096201E-01 -2.74618085E-01
  1.43160418E-12  2.54898174E-12 -1.94444408E-01 -2.69555643E-01 -1.75227327E-12
  2.81617602E-12 -3.13194199E-02 -4.34176911E-02 -5.95475568E-14 -1.31629752E-02
  2.60183238E-14  1.31942898E-13 -9.49512931E-03 -1.11445230E-13 -1.54765798E-13
  2.80174594E-13 -1.02946734E-13  1.34953080E-02  1.87083655E-02  8.16684775E-14
 -2.25557714E-13 -4.18611032E-12  2.07484626E-13 -1.34952682E-02 -1.87083098E-02
  2.85299547E-02  4.94859006E-02  4.86609865E-02 -7.42582756E-15 -3.39250738E-14
 -1.72462996E-01  8.52178893E-02 -1.73789814E-14 -9.31994108E-14 -4.23676416E-01
  1.19780833E-01 -3.27461344E-15 -1.13125174E-13  8.77888414E-01 -5.06028324E-01
  2.02191101E-14  5.14519779E-13  5.55561094E-03  4.20379010E-14  1.35173637E-04
 -9.53271869E-03 -1.35517209E-15  2.85299628E-02  4.94859128E-02 -4.86606964E-02
  1.19808461E-14  3.12311689E-14 -1.72463032E-01 -8.52175310E-02 -5.95778641E-14
  8.72815784E-14 -4.23676577E-01 -1.19779942E-01  7.06552775E-14  1.01737094E-13
  8.77891912E-01  5.06026375E-01 -5.71581595E-14 -4.90529931E-13  5.55564045E-03
  3.85215472E-14  1.35254343E-04 -9.53271540E-03 -1.18629754E-14  7.84127998E-04
  1.19076933E-01 -9.78245269E-02 -1.24107955E-02  1.46931110E-14  1.85045911E-13
  7.84078622E-04  1.19076850E-01 -9.78251074E-02  1.24107249E-02  5.87533247E-14
 -1.71177074E-13 -9.97125897E-03 -1.80107198E-02 -8.89099625E-02 -3.74050191E-15
  3.80471213E-14  7.73311075E-02 -1.42077386E-01 -7.12819389E-15  7.21880961E-14
  8.99923073E-02 -1.94179173E-01 -1.58657062E-14  1.11392922E-13  1.83367551E+00
  1.63350743E+00  6.28918349E-14 -3.37161394E-13 -5.11299212E-03 -3.17586758E-14
  4.79661117E-04  9.17490997E-03 -6.89452650E-15  9.97126197E-03  1.80107276E-02
 -8.89096888E-02  8.30995380E-15  3.56014941E-14 -7.73312138E-02 -1.42076995E-01
 -7.19051051E-14  6.63846484E-14 -8.99919111E-02 -1.94177985E-01  8.53762620E-14
  1.04949960E-13 -1.83367308E+00  1.63350709E+00  1.80678697E-15 -2.78865627E-13
  5.11307432E-03  2.99755584E-14 -4.79643631E-04 -9.17504044E-03 -6.59807592E-15
  1.67878766E-02 -4.62104893E-02  1.04387605E-01  1.97050484E-02 -1.40441519E-14
 -1.59821988E-13 -1.67881354E-02  4.62098512E-02 -1.04389920E-01  1.97049810E-02
  2.95333878E-14 -1.48097823E-13  6.22848471E-04  4.27172734E-04  9.23659005E-02
  7.80587548E-14  3.23071390E-14  1.38262168E-02  1.33206434E-01  6.35835545E-14
  9.35096128E-14 -1.16690136E-01  4.05852232E-01  1.86527879E-13 -2.13389639E-13
 -5.72640028E-01 -4.58731782E-01 -2.27960619E-13 -5.37735298E-13 -2.09229698E-02
 -5.11875904E-15  2.43839929E-03  3.78610287E-02 -3.98155133E-15  6.22893653E-04
  4.27251843E-04 -9.23658038E-02 -4.34637789E-15 -4.13414544E-14  1.38258996E-02
 -1.33206315E-01  5.19412248E-13 -9.82693774E-14 -1.16690808E-01 -4.05851924E-01
 -3.63743237E-13  1.83766457E-13 -5.72644356E-01  4.58737037E-01 -1.01873270E-12
  5.84944095E-13 -2.09229664E-02 -4.45090815E-15  2.43836461E-03  3.78609993E-02
  3.67052577E-14  5.57304293E-02  1.94739646E-01  7.64884055E-01 -2.15464728E-02
  1.09761716E-14 -1.32801606E-13  5.57302033E-02  1.94739416E-01  7.64882514E-01
  2.15465173E-02  7.72000130E-14  1.24258923E-13 -6.31735991E-15 -1.43119083E-14
  1.98470474E-13 -6.77565095E-02  4.88766023E-02  4.78641514E-14  1.11699057E-13
 -7.75781627E-02  5.59615307E-02 -3.53969790E-14  1.49235545E-12 -2.13724327E-01
  1.54171458E-01 -1.23445144E-12 -4.88880373E-13  5.35498523E-01 -3.86285385E-01
 -4.23161912E-14  1.49067609E-03 -2.80434031E-15  8.97510213E-14 -2.06649058E-03
 -3.72984073E-15 -1.03405894E-15  4.00619368E-14 -6.77565562E-02  4.88766357E-02
 -2.88852567E-14 -1.84724304E-13 -7.75783028E-02  5.59616306E-02  6.70447045E-13
  1.01499631E-12 -2.13724652E-01  1.54171692E-01  7.90154806E-13  1.37358962E-12
  5.35499370E-01 -3.86285991E-01  1.50345163E-15 -1.49067373E-03  7.40645635E-15
 -1.43174029E-14  2.06648734E-03  6.70326801E-14  2.37805356E-14  2.44852560E-12
 -1.09313011E-13  2.84184917E-03 -2.04998412E-03  7.06706491E-15  4.42416906E-13
 -2.51605921E-12 -7.01849433E-14  2.84183807E-03 -2.04997613E-03 -7.92400819E-15
 -9.90543629E-15  4.67136026E-14 -4.85394834E-02 -6.72891656E-02  1.83463122E-14
  1.18787281E-13 -5.94822376E-02 -8.24588732E-02  3.23987004E-14  6.78123639E-13
 -1.54229155E-01 -2.13804337E-01  2.34166840E-12  9.26354250E-13  3.85816562E-01
  5.34848614E-01 -1.75657264E-15 -2.43691176E-03 -6.52167628E-15 -5.54792153E-15
 -1.75788283E-03 -2.02712008E-15 -4.95592234E-15 -5.14825419E-14 -4.85394419E-02
 -6.72891076E-02 -2.01498783E-15 -9.12664715E-14 -5.94821025E-02 -8.24586842E-02
  5.59335304E-13  4.24756006E-13 -1.54229006E-01 -2.13804129E-01 -2.54450166E-12
  2.31766158E-12  3.85815997E-01  5.34847825E-01 -2.43481858E-14  2.43689827E-03
  8.53937270E-15  5.27994255E-14  1.75787312E-03  1.99273705E-14  3.61878049E-13
  6.22311800E-13  5.62992207E-14  1.66864431E-03  2.31319967E-03  2.25841076E-14
 -1.97902975E-14 -9.64771953E-13  7.40640834E-14  1.66863535E-03  2.31318729E-03
  2.36872643E-14  3.56813357E-14 -9.78389653E-15 -6.17718159E-02  4.45594278E-02
 -5.24355540E-14 -1.34866920E-13 -6.93460535E-02  5.00231597E-02 -1.18449903E-12
  1.59160833E-13 -2.11998479E-01  1.52926206E-01 -1.84811790E-13  1.52820559E-12
  1.21720797E+00 -8.78039328E-01  9.42933603E-15  4.49467563E-03 -5.97347002E-15