 Entering Gaussian System, Link 0=g16
 Initial command:
 /home/szhao/Apps/g16/l1.exe "/home/szhao/tmp/Gau-4407.inp" -scrdir="/home/szhao/tmp/"
 Default is to use a total of  16 processors:
                               16 via shared-memory
                                1 via Linda
 Entering Link 1 = /home/szhao/Apps/g16/l1.exe PID=      4408.
  
 Copyright (c) 1988,1990,1992,1993,1995,1998,2003,2009,2016,
            Gaussian, Inc.  All Rights Reserved.
  
 This is part of the Gaussian(R) 16 program.  It is based on
 the Gaussian(R) 09 system (copyright 2009, Gaussian, Inc.),
 the Gaussian(R) 03 system (copyright 2003, Gaussian, Inc.),
 the Gaussian(R) 98 system (copyright 1998, Gaussian, Inc.),
 the Gaussian(R) 94 system (copyright 1995, Gaussian, Inc.),
 the Gaussian 92(TM) system (copyright 1992, Gaussian, Inc.),
 the Gaussian 90(TM) system (copyright 1990, Gaussian, Inc.),
 the Gaussian 88(TM) system (copyright 1988, Gaussian, Inc.),
 the Gaussian 86(TM) system (copyright 1986, Carnegie Mellon
 University), and the Gaussian 82(TM) system (copyright 1983,
 Carnegie Mellon University). Gaussian is a federally registered
 trademark of Gaussian, Inc.
  
 This software contains proprietary and confidential information,
 including trade secrets, belonging to Gaussian, Inc.
  
 This software is provided under written license and may be
 used, copied, transmitted, or stored only in accord with that
 written license.
  
 The following legend is applicable only to US Government
 contracts under FAR:
  
                    RESTRICTED RIGHTS LEGEND
  
 Use, reproduction and disclosure by the US Government is
 subject to restrictions as set forth in subparagraphs (a)
 and (c) of the Commercial Computer Software - Restricted
 Rights clause in FAR 52.227-19.
  
 Gaussian, Inc.
 340 Quinnipiac St., Bldg. 40, Wallingford CT 06492
  
  
 ---------------------------------------------------------------
 Warning -- This program may not be used in any manner that
 competes with the business of Gaussian, Inc. or will provide
 assistance to any competitor of Gaussian, Inc.  The licensee
 of this program is prohibited from giving any competitor of
 Gaussian, Inc. access to this program.  By using this program,
 the user acknowledges that Gaussian, Inc. is engaged in the
 business of creating and licensing software in the field of
 computational chemistry and represents and warrants to the
 licensee that it is not a competitor of Gaussian, Inc. and that
 it will not use this program in any manner prohibited above.
 ---------------------------------------------------------------
  

 Cite this work as:
 Gaussian 16, Revision A.03,
 M. J. Frisch, G. W. Trucks, H. B. Schlegel, G. E. Scuseria, 
 M. A. Robb, J. R. Cheeseman, G. Scalmani, V. Barone, 
 G. A. Petersson, H. Nakatsuji, X. Li, M. Caricato, A. V. Marenich, 
 J. Bloino, B. G. Janesko, R. Gomperts, B. Mennucci, H. P. Hratchian, 
 J. V. Ortiz, A. F. Izmaylov, J. L. Sonnenberg, D. Williams-Young, 
 F. Ding, F. Lipparini, F. Egidi, J. Goings, B. Peng, A. Petrone, 
 T. Henderson, D. Ranasinghe, V. G. Zakrzewski, J. Gao, N. Rega, 
 G. Zheng, W. Liang, M. Hada, M. Ehara, K. Toyota, R. Fukuda, 
 J. Hasegawa, M. Ishida, T. Nakajima, Y. Honda, O. Kitao, H. Nakai, 
 T. Vreven, K. Throssell, J. A. Montgomery, Jr., J. E. Peralta, 
 F. Ogliaro, M. J. Bearpark, J. J. Heyd, E. N. Brothers, K. N. Kudin, 
 V. N. Staroverov, T. A. Keith, R. Kobayashi, J. Normand, 
 K. Raghavachari, A. P. Rendell, J. C. Burant, S. S. Iyengar, 
 J. Tomasi, M. Cossi, J. M. Millam, M. Klene, C. Adamo, R. Cammi, 
 J. W. Ochterski, R. L. Martin, K. Morokuma, O. Farkas, 
 J. B. Foresman, and D. J. Fox, Gaussian, Inc., Wallingford CT, 2016.
 
 ******************************************
 Gaussian 16:  ES64L-G16RevA.03 25-Dec-2016
                21-Apr-2025 
 ******************************************
 %chk=opt.chk
 %mem=4GB
 %nprocshared=8
 Will use up to    8 processors via shared memory.
 --------------------------------------------
 #p opt UM062X/6-311+G** nosymm int=superfine
 --------------------------------------------
 1/18=20,19=15,26=5,38=1/1,3;
 2/9=110,12=2,15=1,17=6,18=5,40=1/2;
 3/5=4,6=6,7=111,11=2,25=1,30=1,71=1,74=-55,75=-7,116=2/1,2,3;
 4//1;
 5/5=2,38=5/2;
 6/7=2,8=2,9=2,10=2,28=1/1;
 7/30=1/1,2,3,16;
 1/18=20,19=15,26=5/3(2);
 2/9=110,15=1/2;
 99//99;
 2/9=110,15=1/2;
 3/5=4,6=6,7=111,11=2,25=1,30=1,71=1,74=-55,75=-7,116=2/1,2,3;
 4/5=5,16=3,69=1/1;
 5/5=2,38=5/2;
 7/30=1/1,2,3,16;
 1/18=20,19=15,26=5/3(-5);
 2/9=110,15=1/2;
 6/7=2,8=2,9=2,10=2,19=2,28=1/1;
 99/9=1/99;
 Leave Link    1 at Mon Apr 21 19:07:11 2025, MaxMem=   536870912 cpu:               1.2 elap:               0.1
 (Enter /home/szhao/Apps/g16/l101.exe)
 -------------------
 Title Card Required
 -------------------
 Symbolic Z-matrix:
 Charge =  0 Multiplicity = 1
 C                    -1   -2.13126   0.        0. 
 P                    -1    2.13126   0.        0. 
 H                    0     2.31135  -1.40534   0. 
 H                    0    -2.4814    1.01301   0.20044 
 H                    0     2.31135   0.10934   1.40108 
 H                    0    -2.48141  -0.27857  -0.99437 
 H                    0    -2.56671  -0.67759   0.73247 
 
 Add virtual bond connecting atoms P2         and C1         Dist= 8.06D+00.
 ITRead=  2  2  0  0  0  0  0
 MicOpt= -2 -2 -1 -1 -1 -1 -1
 NAtoms=      7 NQM=        5 NQMF=       2 NMMI=      0 NMMIF=      0
                NMic=       0 NMicF=      0.
                    Isotopes and Nuclear Properties:
 (Nuclear quadrupole moments (NQMom) in fm**2, nuclear magnetic moments (NMagM)
  in nuclear magnetons)

  Atom         1           2           3           4           5           6           7
 IAtWgt=          12          31           1           1           1           1           1
 AtmWgt=  12.0000000  30.9737634   1.0078250   1.0078250   1.0078250   1.0078250   1.0078250
 NucSpn=           0           1           1           1           1           1           1
 AtZEff=  -0.0000000  -0.0000000  -0.0000000  -0.0000000  -0.0000000  -0.0000000  -0.0000000
 NQMom=    0.0000000   0.0000000   0.0000000   0.0000000   0.0000000   0.0000000   0.0000000
 NMagM=    0.0000000   1.1316000   2.7928460   2.7928460   2.7928460   2.7928460   2.7928460
 AtZNuc=   6.0000000  15.0000000   1.0000000   1.0000000   1.0000000   1.0000000   1.0000000
 Leave Link  101 at Mon Apr 21 19:07:12 2025, MaxMem=   536870912 cpu:               2.7 elap:               0.4
 (Enter /home/szhao/Apps/g16/l103.exe)

 GradGradGradGradGradGradGradGradGradGradGradGradGradGradGradGradGradGrad
 Berny optimization.
 Initialization pass.
                           ----------------------------
                           !    Initial Parameters    !
                           ! (Angstroms and Degrees)  !
 --------------------------                            --------------------------
 ! Name  Definition              Value          Derivative Info.                !
 --------------------------------------------------------------------------------
 ! X1    R(1,-1)                -2.1313         Frozen                          !
 ! Y1    R(1,-2)                 0.0            Frozen                          !
 ! Z1    R(1,-3)                 0.0            Frozen                          !
 ! X2    R(2,-1)                 2.1313         Frozen                          !
 ! Y2    R(2,-2)                 0.0            Frozen                          !
 ! Z2    R(2,-3)                 0.0            Frozen                          !
 ! R1    R(1,4)                  1.0904         estimate D2E/DX2                !
 ! R2    R(1,6)                  1.0904         estimate D2E/DX2                !
 ! R3    R(1,7)                  1.0887         estimate D2E/DX2                !
 ! R4    R(2,3)                  1.4168         estimate D2E/DX2                !
 ! R5    R(2,5)                  1.4168         estimate D2E/DX2                !
 ! A1    A(2,1,4)              108.7301         estimate D2E/DX2                !
 ! A2    A(2,1,6)              108.7303         estimate D2E/DX2                !
 ! A3    A(2,1,7)              113.5765         estimate D2E/DX2                !
 ! A4    A(4,1,6)              107.5695         estimate D2E/DX2                !
 ! A5    A(4,1,7)              109.0326         estimate D2E/DX2                !
 ! A6    A(6,1,7)              109.0325         estimate D2E/DX2                !
 ! A7    A(1,2,3)               97.3022         estimate D2E/DX2                !
 ! A8    A(1,2,5)               97.3022         estimate D2E/DX2                !
 ! A9    A(3,2,5)               93.4621         estimate D2E/DX2                !
 ! D1    D(4,1,2,3)            168.8076         estimate D2E/DX2                !
 ! D2    D(4,1,2,5)             74.3454         estimate D2E/DX2                !
 ! D3    D(6,1,2,3)            -74.3502         estimate D2E/DX2                !
 ! D4    D(6,1,2,5)           -168.8124         estimate D2E/DX2                !
 ! D5    D(7,1,2,3)             47.2287         estimate D2E/DX2                !
 ! D6    D(7,1,2,5)            -47.2335         estimate D2E/DX2                !
 --------------------------------------------------------------------------------
 Trust Radius=3.00D-01 FncErr=1.00D-07 GrdErr=1.00D-07 EigMax=2.50D+02 EigMin=1.00D-04
 Number of steps in this run=     36 maximum allowed number of steps=    100.
 GradGradGradGradGradGradGradGradGradGradGradGradGradGradGradGradGradGrad

 Leave Link  103 at Mon Apr 21 19:07:12 2025, MaxMem=   536870912 cpu:               0.1 elap:               0.1
 (Enter /home/szhao/Apps/g16/l202.exe)
                          Input orientation:                          
 ---------------------------------------------------------------------
 Center     Atomic      Atomic             Coordinates (Angstroms)
 Number     Number       Type             X           Y           Z
 ---------------------------------------------------------------------
      1          6           0       -2.131264    0.000000    0.000000
      2         15           0        2.131264    0.000000    0.000000
      3          1           0        2.311347   -1.405338    0.000000
      4          1           0       -2.481403    1.013014    0.200443
      5          1           0        2.311347    0.109336    1.401080
      6          1           0       -2.481406   -0.278565   -0.994372
      7          1           0       -2.566711   -0.677591    0.732467
 ---------------------------------------------------------------------
                    Distance matrix (angstroms):
                    1          2          3          4          5
     1  C    0.000000
     2  P    4.262527   0.000000
     3  H    4.659588   1.416829   0.000000
     4  H    1.090400   4.726846   5.372062   0.000000
     5  H    4.659589   1.416831   2.063313   5.022810   0.000000
     6  H    1.090401   4.726848   5.022835   1.759477   5.372070
     7  H    1.088692   4.802770   4.986138   1.774393   4.986156
                    6          7
     6  H    0.000000
     7  H    1.774393   0.000000
 Symmetry turned off by external request.
 Stoichiometry    CH5P
 Framework group  C1[X(CH5P)]
 Deg. of freedom    15
 Full point group                 C1      NOp   1
 Rotational constants (GHZ):          72.0706378           2.5386536           2.5335846
 Leave Link  202 at Mon Apr 21 19:07:12 2025, MaxMem=   536870912 cpu:               0.1 elap:               0.1
 (Enter /home/szhao/Apps/g16/l301.exe)
 Standard basis: 6-311+G(d,p) (5D, 7F)
 Ernie: Thresh=  0.10000D-02 Tol=  0.10000D-05 Strict=F.
    82 basis functions,   126 primitive gaussians,    84 cartesian basis functions
    13 alpha electrons       13 beta electrons
       nuclear repulsion energy        39.2657959263 Hartrees.
 IExCor= 4336 DFT=T Ex+Corr=M062X ExCW=0 ScaHFX=  0.540000
 ScaDFX=  1.000000  1.000000  1.000000  1.000000 ScalE2=  1.000000  1.000000
 IRadAn=      7 IRanWt=     -1 IRanGd=            0 ICorTp=0 IEmpDi=  4
 NAtoms=    7 NActive=    7 NUniq=    7 SFac= 1.00D+00 NAtFMM=   60 NAOKFM=F Big=F
 Integral buffers will be    131072 words long.
 Raffenetti 2 integral format.
 Two-electron integral symmetry is turned off.
 Leave Link  301 at Mon Apr 21 19:07:12 2025, MaxMem=   536870912 cpu:               0.5 elap:               0.1
 (Enter /home/szhao/Apps/g16/l302.exe)
 NPDir=0 NMtPBC=     1 NCelOv=     1 NCel=       1 NClECP=     1 NCelD=      1
         NCelK=      1 NCelE2=     1 NClLst=     1 CellRange=     0.0.
 One-electron integrals computed using PRISM.
 NBasis=    82 RedAO= T EigKep=  7.39D-03  NBF=    82
 NBsUse=    82 1.00D-06 EigRej= -1.00D+00 NBFU=    82
 Precomputing XC quadrature grid using
 IXCGrd= 4 IRadAn=           7 IRanWt=          -1 IRanGd=           0 AccXCQ= 0.00D+00.
 Generated NRdTot=       0 NPtTot=           0 NUsed=           0 NTot=          32
 NSgBfM=    83    83    83    83    83 MxSgAt=     7 MxSgA2=     7.
 Leave Link  302 at Mon Apr 21 19:07:13 2025, MaxMem=   536870912 cpu:               1.6 elap:               0.2
 (Enter /home/szhao/Apps/g16/l303.exe)
 DipDrv:  MaxL=1.
 Leave Link  303 at Mon Apr 21 19:07:13 2025, MaxMem=   536870912 cpu:               0.5 elap:               0.1
 (Enter /home/szhao/Apps/g16/l401.exe)
 ExpMin= 3.48D-02 ExpMax= 7.75D+04 ExpMxC= 2.65D+03 IAcc=3 IRadAn=         7 AccDes= 0.00D+00
 Harris functional with IExCor= 1009 and IRadAn=       7 diagonalized for initial guess.
 HarFok:  IExCor= 1009 AccDes= 0.00D+00 IRadAn=         7 IDoV= 1 UseB2=F ITyADJ=14
 ICtDFT=  3500011 ScaDFX=  1.000000  1.000000  1.000000  1.000000
 FoFCou: FMM=F IPFlag=           0 FMFlag=      100000 FMFlg1=           0
         NFxFlg=           0 DoJE=T BraDBF=F KetDBF=T FulRan=T
         wScrn=  0.000000 ICntrl=       500 IOpCl=  0 I1Cent=   200000004 NGrid=           0
         NMat0=    1 NMatS0=      1 NMatT0=    0 NMatD0=    1 NMtDS0=    0 NMtDT0=    0
 Symmetry not used in FoFCou.
 Harris En= -382.172928537427    
 JPrj=0 DoOrth=F DoCkMO=F.
 Initial guess <Sx>= 0.0000 <Sy>= 0.0000 <Sz>= 0.0000 <S**2>=-0.0000 S=-0.0000
 Leave Link  401 at Mon Apr 21 19:07:14 2025, MaxMem=   536870912 cpu:               4.0 elap:               0.6
 (Enter /home/szhao/Apps/g16/l502.exe)
 Keep R1 and R2 ints in memory in canonical form, NReq=18891869.
 FoFCou: FMM=F IPFlag=           0 FMFlag=           0 FMFlg1=           0
         NFxFlg=           0 DoJE=F BraDBF=F KetDBF=F FulRan=T
         wScrn=  0.000000 ICntrl=       600 IOpCl=  0 I1Cent=           0 NGrid=           0
         NMat0=    1 NMatS0=   3403 NMatT0=    0 NMatD0=    1 NMtDS0=    0 NMtDT0=    0
 Symmetry not used in FoFCou.
 Two-electron integral symmetry not used.
 UHF open shell SCF:
 Using DIIS extrapolation, IDIIS=  1040.
 NGot=   536870912 LenX=   525271507 LenY=   525264010
 Requested convergence on RMS density matrix=1.00D-08 within 128 cycles.
 Requested convergence on MAX density matrix=1.00D-06.
 Requested convergence on             energy=1.00D-06.
 No special actions if energy rises.

 Cycle   1  Pass 1  IDiag  1:
 E= -381.818965175060    
 DIIS: error= 8.19D-02 at cycle   1 NSaved=   1.
 NSaved= 1 IEnMin= 1 EnMin= -381.818965175060     IErMin= 1 ErrMin= 8.19D-02
 ErrMax= 8.19D-02  0.00D+00 EMaxC= 1.00D-01 BMatC= 1.02D+00 BMatP= 1.02D+00
 IDIUse=3 WtCom= 1.81D-01 WtEn= 8.19D-01
 Coeff-Com:  0.100D+01
 Coeff-En:   0.100D+01
 Coeff:      0.100D+01
 Gap=    -0.481 Goal=   None    Shift=    0.000
 Gap=    -0.481 Goal=   None    Shift=    0.000
 GapD=   -0.481 DampG=0.250 DampE=0.500 DampFc=0.2500 IDamp=-1.
 Damping current iteration by 2.50D-01
 RMSDP=1.37D-02 MaxDP=4.21D-01              OVMax= 9.84D-01

 Cycle   2  Pass 1  IDiag  1:
 E= -382.023087412559     Delta-E=       -0.204122237499 Rises=F Damp=T
 DIIS: error= 2.50D-02 at cycle   2 NSaved=   2.
 NSaved= 2 IEnMin= 2 EnMin= -382.023087412559     IErMin= 2 ErrMin= 2.50D-02
 ErrMax= 2.50D-02  0.00D+00 EMaxC= 1.00D-01 BMatC= 1.64D-01 BMatP= 1.02D+00
 IDIUse=3 WtCom= 7.50D-01 WtEn= 2.50D-01
 Coeff-Com: -0.498D+00 0.150D+01
 Coeff-En:   0.000D+00 0.100D+01
 Coeff:     -0.374D+00 0.137D+01
 Gap=     0.351 Goal=   None    Shift=    0.000
 Gap=     0.351 Goal=   None    Shift=    0.000
 RMSDP=6.59D-03 MaxDP=1.75D-01 DE=-2.04D-01 OVMax= 3.66D-01

 Cycle   3  Pass 1  IDiag  1:
 E= -382.055871093963     Delta-E=       -0.032783681405 Rises=F Damp=F
 DIIS: error= 5.06D-02 at cycle   3 NSaved=   3.
 NSaved= 3 IEnMin= 3 EnMin= -382.055871093963     IErMin= 2 ErrMin= 2.50D-02
 ErrMax= 5.06D-02  0.00D+00 EMaxC= 1.00D-01 BMatC= 3.10D-01 BMatP= 1.64D-01
 IDIUse=2 WtCom= 0.00D+00 WtEn= 1.00D+00
 EnCoef did   100 forward-backward iterations
 Coeff-En:   0.357D+00 0.747D-02 0.636D+00
 Coeff:      0.357D+00 0.747D-02 0.636D+00
 Gap=     0.019 Goal=   None    Shift=    0.000
 Gap=     0.019 Goal=   None    Shift=    0.000
 RMSDP=5.96D-03 MaxDP=2.12D-01 DE=-3.28D-02 OVMax= 6.05D-01

 Cycle   4  Pass 1  IDiag  1:
 E= -382.172993628511     Delta-E=       -0.117122534547 Rises=F Damp=F
 DIIS: error= 3.02D-02 at cycle   4 NSaved=   4.
 NSaved= 4 IEnMin= 4 EnMin= -382.172993628511     IErMin= 2 ErrMin= 2.50D-02
 ErrMax= 3.02D-02  0.00D+00 EMaxC= 1.00D-01 BMatC= 1.00D-01 BMatP= 1.64D-01
 IDIUse=3 WtCom= 6.98D-01 WtEn= 3.02D-01
 Coeff-Com: -0.744D-01 0.209D+00 0.295D+00 0.570D+00
 Coeff-En:   0.000D+00 0.000D+00 0.322D+00 0.678D+00
 Coeff:     -0.520D-01 0.146D+00 0.303D+00 0.603D+00
 Gap=     0.064 Goal=   None    Shift=    0.000
 Gap=     0.064 Goal=   None    Shift=    0.000
 RMSDP=3.04D-03 MaxDP=9.86D-02 DE=-1.17D-01 OVMax= 3.08D-01

 Cycle   5  Pass 1  IDiag  1:
 E= -382.220559235517     Delta-E=       -0.047565607006 Rises=F Damp=F
 DIIS: error= 1.24D-02 at cycle   5 NSaved=   5.
 NSaved= 5 IEnMin= 5 EnMin= -382.220559235517     IErMin= 5 ErrMin= 1.24D-02
 ErrMax= 1.24D-02  0.00D+00 EMaxC= 1.00D-01 BMatC= 1.59D-02 BMatP= 1.00D-01
 IDIUse=3 WtCom= 8.76D-01 WtEn= 1.24D-01
 Coeff-Com: -0.379D-01 0.506D-01-0.320D-01 0.286D+00 0.733D+00
 Coeff-En:   0.000D+00 0.000D+00 0.000D+00 0.206D+00 0.794D+00
 Coeff:     -0.332D-01 0.443D-01-0.281D-01 0.276D+00 0.741D+00
 Gap=     0.092 Goal=   None    Shift=    0.000
 Gap=     0.092 Goal=   None    Shift=    0.000
 RMSDP=8.21D-04 MaxDP=2.76D-02 DE=-4.76D-02 OVMax= 7.68D-02

 Cycle   6  Pass 1  IDiag  1:
 E= -382.227986952411     Delta-E=       -0.007427716894 Rises=F Damp=F
 DIIS: error= 9.56D-04 at cycle   6 NSaved=   6.
 NSaved= 6 IEnMin= 6 EnMin= -382.227986952411     IErMin= 6 ErrMin= 9.56D-04
 ErrMax= 9.56D-04  0.00D+00 EMaxC= 1.00D-01 BMatC= 1.45D-04 BMatP= 1.59D-02
 IDIUse=3 WtCom= 9.90D-01 WtEn= 9.56D-03
 Coeff-Com: -0.355D-02 0.542D-03-0.239D-01 0.295D-01 0.101D+00 0.896D+00
 Coeff-En:   0.000D+00 0.000D+00 0.000D+00 0.000D+00 0.000D+00 0.100D+01
 Coeff:     -0.352D-02 0.537D-03-0.237D-01 0.292D-01 0.100D+00 0.897D+00
 Gap=     0.096 Goal=   None    Shift=    0.000
 Gap=     0.096 Goal=   None    Shift=    0.000
 RMSDP=1.29D-04 MaxDP=1.54D-03 DE=-7.43D-03 OVMax= 5.77D-03

 Cycle   7  Pass 1  IDiag  1:
 E= -382.227977042809     Delta-E=        0.000009909602 Rises=F Damp=F
 DIIS: error= 1.25D-03 at cycle   7 NSaved=   7.
 NSaved= 7 IEnMin= 6 EnMin= -382.227986952411     IErMin= 6 ErrMin= 9.56D-04
 ErrMax= 1.25D-03  0.00D+00 EMaxC= 1.00D-01 BMatC= 1.66D-04 BMatP= 1.45D-04
 IDIUse=3 WtCom= 9.90D-01 WtEn= 9.56D-03
 Rare condition: small coef for last iteration:  0.000D+00
 Coeff-Com: -0.725D-03 0.218D-02-0.845D-02 0.124D-01-0.349D-01 0.101D+00
 Coeff-Com:  0.929D+00
 Coeff-En:   0.000D+00 0.000D+00 0.000D+00 0.000D+00 0.000D+00 0.000D+00
 Coeff-En:   0.100D+01
 Coeff:     -0.725D-03 0.218D-02-0.845D-02 0.124D-01-0.349D-01 0.101D+00
 Coeff:      0.929D+00
 Gap=     0.096 Goal=   None    Shift=    0.000
 Gap=     0.096 Goal=   None    Shift=    0.000
 RMSDP=5.27D-05 MaxDP=1.28D-03 DE= 9.91D-06 OVMax= 3.09D-03

 Cycle   8  Pass 1  IDiag  1:
 E= -382.228027113191     Delta-E=       -0.000050070382 Rises=F Damp=F
 DIIS: error= 7.27D-04 at cycle   8 NSaved=   8.
 NSaved= 8 IEnMin= 8 EnMin= -382.228027113191     IErMin= 8 ErrMin= 7.27D-04
 ErrMax= 7.27D-04  0.00D+00 EMaxC= 1.00D-01 BMatC= 5.53D-05 BMatP= 1.45D-04
 IDIUse=3 WtCom= 9.93D-01 WtEn= 7.27D-03
 Coeff-Com: -0.135D-02 0.286D-02-0.481D-02 0.126D-01-0.710D-02-0.879D-01
 Coeff-Com: -0.622D-01 0.115D+01
 Coeff-En:   0.000D+00 0.000D+00 0.000D+00 0.000D+00 0.000D+00 0.000D+00
 Coeff-En:   0.000D+00 0.100D+01
 Coeff:     -0.134D-02 0.284D-02-0.478D-02 0.125D-01-0.705D-02-0.873D-01
 Coeff:     -0.617D-01 0.115D+01
 Gap=     0.096 Goal=   None    Shift=    0.000
 Gap=     0.096 Goal=   None    Shift=    0.000
 RMSDP=3.02D-05 MaxDP=8.54D-04 DE=-5.01D-05 OVMax= 2.26D-03

 Cycle   9  Pass 1  IDiag  1:
 E= -382.228046501477     Delta-E=       -0.000019388286 Rises=F Damp=F
 DIIS: error= 3.32D-04 at cycle   9 NSaved=   9.
 NSaved= 9 IEnMin= 9 EnMin= -382.228046501477     IErMin= 9 ErrMin= 3.32D-04
 ErrMax= 3.32D-04  0.00D+00 EMaxC= 1.00D-01 BMatC= 1.14D-05 BMatP= 5.53D-05
 IDIUse=3 WtCom= 9.97D-01 WtEn= 3.32D-03
 Coeff-Com: -0.111D-03 0.257D-04-0.890D-03 0.392D-02 0.149D-02-0.123D-02
 Coeff-Com: -0.144D+00-0.140D+00 0.128D+01
 Coeff-En:   0.000D+00 0.000D+00 0.000D+00 0.000D+00 0.000D+00 0.000D+00
 Coeff-En:   0.000D+00 0.000D+00 0.100D+01
 Coeff:     -0.111D-03 0.256D-04-0.887D-03 0.390D-02 0.149D-02-0.122D-02
 Coeff:     -0.143D+00-0.139D+00 0.128D+01
 Gap=     0.096 Goal=   None    Shift=    0.000
 Gap=     0.096 Goal=   None    Shift=    0.000
 RMSDP=1.75D-05 MaxDP=5.50D-04 DE=-1.94D-05 OVMax= 1.48D-03

 Cycle  10  Pass 1  IDiag  1:
 E= -382.228051261941     Delta-E=       -0.000004760465 Rises=F Damp=F
 DIIS: error= 6.97D-05 at cycle  10 NSaved=  10.
 NSaved=10 IEnMin=10 EnMin= -382.228051261941     IErMin=10 ErrMin= 6.97D-05
 ErrMax= 6.97D-05  0.00D+00 EMaxC= 1.00D-01 BMatC= 5.18D-07 BMatP= 1.14D-05
 IDIUse=1 WtCom= 1.00D+00 WtEn= 0.00D+00
 Coeff-Com: -0.161D-04-0.282D-04-0.159D-03 0.964D-03-0.664D-04 0.281D-02
 Coeff-Com: -0.177D-01-0.654D-01 0.109D+00 0.971D+00
 Coeff:     -0.161D-04-0.282D-04-0.159D-03 0.964D-03-0.664D-04 0.281D-02
 Coeff:     -0.177D-01-0.654D-01 0.109D+00 0.971D+00
 Gap=     0.096 Goal=   None    Shift=    0.000
 Gap=     0.096 Goal=   None    Shift=    0.000
 RMSDP=3.46D-06 MaxDP=1.07D-04 DE=-4.76D-06 OVMax= 3.20D-04

 Cycle  11  Pass 1  IDiag  1:
 E= -382.228051476494     Delta-E=       -0.000000214553 Rises=F Damp=F
 DIIS: error= 1.59D-05 at cycle  11 NSaved=  11.
 NSaved=11 IEnMin=11 EnMin= -382.228051476494     IErMin=11 ErrMin= 1.59D-05
 ErrMax= 1.59D-05  0.00D+00 EMaxC= 1.00D-01 BMatC= 2.66D-08 BMatP= 5.18D-07
 IDIUse=1 WtCom= 1.00D+00 WtEn= 0.00D+00
 Coeff-Com: -0.209D-04 0.476D-04-0.463D-04 0.145D-03-0.214D-03-0.850D-03
 Coeff-Com:  0.568D-02 0.319D-01-0.970D-01-0.987D-01 0.116D+01
 Coeff:     -0.209D-04 0.476D-04-0.463D-04 0.145D-03-0.214D-03-0.850D-03
 Coeff:      0.568D-02 0.319D-01-0.970D-01-0.987D-01 0.116D+01
 Gap=     0.096 Goal=   None    Shift=    0.000
 Gap=     0.096 Goal=   None    Shift=    0.000
 RMSDP=9.24D-07 MaxDP=2.38D-05 DE=-2.15D-07 OVMax= 8.33D-05

 Cycle  12  Pass 1  IDiag  1:
 E= -382.228051488233     Delta-E=       -0.000000011739 Rises=F Damp=F
 DIIS: error= 2.61D-06 at cycle  12 NSaved=  12.
 NSaved=12 IEnMin=12 EnMin= -382.228051488233     IErMin=12 ErrMin= 2.61D-06
 ErrMax= 2.61D-06  0.00D+00 EMaxC= 1.00D-01 BMatC= 8.58D-10 BMatP= 2.66D-08
 IDIUse=1 WtCom= 1.00D+00 WtEn= 0.00D+00
 Coeff-Com: -0.200D-05 0.384D-05-0.144D-04 0.405D-04 0.198D-05-0.264D-03
 Coeff-Com: -0.734D-03 0.467D-02-0.347D-02-0.358D-01 0.266D-01 0.101D+01
 Coeff:     -0.200D-05 0.384D-05-0.144D-04 0.405D-04 0.198D-05-0.264D-03
 Coeff:     -0.734D-03 0.467D-02-0.347D-02-0.358D-01 0.266D-01 0.101D+01
 Gap=     0.096 Goal=   None    Shift=    0.000
 Gap=     0.096 Goal=   None    Shift=    0.000
 RMSDP=1.13D-07 MaxDP=2.55D-06 DE=-1.17D-08 OVMax= 8.18D-06

 Cycle  13  Pass 1  IDiag  1:
 E= -382.228051488513     Delta-E=       -0.000000000280 Rises=F Damp=F
 DIIS: error= 1.29D-06 at cycle  13 NSaved=  13.
 NSaved=13 IEnMin=13 EnMin= -382.228051488513     IErMin=13 ErrMin= 1.29D-06
 ErrMax= 1.29D-06  0.00D+00 EMaxC= 1.00D-01 BMatC= 1.86D-10 BMatP= 8.58D-10
 IDIUse=1 WtCom= 1.00D+00 WtEn= 0.00D+00
 Coeff-Com: -0.507D-06 0.823D-06-0.676D-05 0.121D-04 0.538D-05 0.291D-04
 Coeff-Com: -0.321D-03-0.119D-02 0.500D-02-0.105D-02-0.862D-01 0.152D+00
 Coeff-Com:  0.932D+00
 Coeff:     -0.507D-06 0.823D-06-0.676D-05 0.121D-04 0.538D-05 0.291D-04
 Coeff:     -0.321D-03-0.119D-02 0.500D-02-0.105D-02-0.862D-01 0.152D+00
 Coeff:      0.932D+00
 Gap=     0.096 Goal=   None    Shift=    0.000
 Gap=     0.096 Goal=   None    Shift=    0.000
 RMSDP=5.11D-08 MaxDP=1.43D-06 DE=-2.80D-10 OVMax= 4.76D-06

 Cycle  14  Pass 1  IDiag  1:
 E= -382.228051488580     Delta-E=       -0.000000000067 Rises=F Damp=F
 DIIS: error= 5.32D-07 at cycle  14 NSaved=  14.
 NSaved=14 IEnMin=14 EnMin= -382.228051488580     IErMin=14 ErrMin= 5.32D-07
 ErrMax= 5.32D-07  0.00D+00 EMaxC= 1.00D-01 BMatC= 3.14D-11 BMatP= 1.86D-10
 IDIUse=1 WtCom= 1.00D+00 WtEn= 0.00D+00
 Coeff-Com: -0.111D-06 0.236D-06-0.104D-05 0.165D-05-0.257D-05 0.384D-04
 Coeff-Com:  0.303D-04-0.834D-03 0.846D-03 0.356D-02-0.162D-01-0.564D-01
 Coeff-Com: -0.387D-01 0.111D+01
 Coeff:     -0.111D-06 0.236D-06-0.104D-05 0.165D-05-0.257D-05 0.384D-04
 Coeff:      0.303D-04-0.834D-03 0.846D-03 0.356D-02-0.162D-01-0.564D-01
 Coeff:     -0.387D-01 0.111D+01
 Gap=     0.096 Goal=   None    Shift=    0.000
 Gap=     0.096 Goal=   None    Shift=    0.000
 RMSDP=2.99D-08 MaxDP=9.69D-07 DE=-6.72D-11 OVMax= 2.91D-06

 Cycle  15  Pass 1  IDiag  1:
 E= -382.228051488594     Delta-E=       -0.000000000014 Rises=F Damp=F
 DIIS: error= 6.36D-08 at cycle  15 NSaved=  15.
 NSaved=15 IEnMin=15 EnMin= -382.228051488594     IErMin=15 ErrMin= 6.36D-08
 ErrMax= 6.36D-08  0.00D+00 EMaxC= 1.00D-01 BMatC= 5.01D-13 BMatP= 3.14D-11
 IDIUse=1 WtCom= 1.00D+00 WtEn= 0.00D+00
 Coeff-Com: -0.405D-07 0.738D-07-0.984D-07 0.164D-06 0.645D-07-0.411D-05
 Coeff-Com:  0.715D-05 0.165D-03-0.343D-03-0.238D-03 0.599D-02 0.156D-02
 Coeff-Com: -0.957D-01-0.712D-01 0.116D+01
 Coeff:     -0.405D-07 0.738D-07-0.984D-07 0.164D-06 0.645D-07-0.411D-05
 Coeff:      0.715D-05 0.165D-03-0.343D-03-0.238D-03 0.599D-02 0.156D-02
 Coeff:     -0.957D-01-0.712D-01 0.116D+01
 Gap=     0.096 Goal=   None    Shift=    0.000
 Gap=     0.096 Goal=   None    Shift=    0.000
 RMSDP=4.60D-09 MaxDP=1.25D-07 DE=-1.39D-11 OVMax= 3.83D-07

 SCF Done:  E(UM062X) =  -382.228051489     A.U. after   15 cycles
            NFock= 15  Conv=0.46D-08     -V/T= 2.0020
 <Sx>= 0.0000 <Sy>= 0.0000 <Sz>= 0.0000 <S**2>=-0.0000 S=-0.0000
 <L.S>=  0.00000000000    
 KE= 3.814577039726D+02 PE=-9.848682271957D+02 EE= 1.819166758082D+02
 Annihilation of the first spin contaminant:
 S**2 before annihilation    -0.0000,   after     0.0000
 Leave Link  502 at Mon Apr 21 19:07:27 2025, MaxMem=   536870912 cpu:             101.0 elap:              13.2
 (Enter /home/szhao/Apps/g16/l601.exe)
 Copying SCF densities to generalized density rwf, IOpCl= 1 IROHF=0.

 **********************************************************************

            Population analysis using the SCF density.

 **********************************************************************

 Alpha  occ. eigenvalues --  -78.04885 -10.57687  -6.87283  -4.98831  -4.98704
 Alpha  occ. eigenvalues --   -4.98516  -0.77576  -0.70941  -0.47527  -0.47139
 Alpha  occ. eigenvalues --   -0.45280  -0.35747  -0.24187
 Alpha virt. eigenvalues --   -0.14546   0.02009   0.03253   0.04018   0.04718
 Alpha virt. eigenvalues --    0.06303   0.06919   0.07104   0.07275   0.11600
 Alpha virt. eigenvalues --    0.16348   0.18558   0.18971   0.24766   0.29923
 Alpha virt. eigenvalues --    0.30790   0.32457   0.37903   0.43811   0.44176
 Alpha virt. eigenvalues --    0.44890   0.52838   0.58383   0.63982   0.64169
 Alpha virt. eigenvalues --    0.64525   0.66470   0.67326   0.69003   0.80943
 Alpha virt. eigenvalues --    0.87465   0.95831   1.06020   1.06546   1.36866
 Alpha virt. eigenvalues --    1.37657   1.44011   1.48606   1.49160   1.49705
 Alpha virt. eigenvalues --    1.55872   1.56201   1.61311   1.63209   1.67704
 Alpha virt. eigenvalues --    1.70548   1.71083   2.00283   2.01415   2.12049
 Alpha virt. eigenvalues --    2.18428   2.18973   2.39353   2.47221   2.48403
 Alpha virt. eigenvalues --    2.54475   2.54515   2.56103   2.63861   2.71500
 Alpha virt. eigenvalues --    2.96396   3.74623   3.76735   7.00118  13.99668
 Alpha virt. eigenvalues --   14.03394  14.03951  23.95367 163.27124
  Beta  occ. eigenvalues --  -78.04885 -10.57687  -6.87283  -4.98831  -4.98704
  Beta  occ. eigenvalues --   -4.98516  -0.77576  -0.70941  -0.47527  -0.47139
  Beta  occ. eigenvalues --   -0.45280  -0.35747  -0.24187
  Beta virt. eigenvalues --   -0.14546   0.02009   0.03253   0.04018   0.04718
  Beta virt. eigenvalues --    0.06303   0.06919   0.07104   0.07275   0.11600
  Beta virt. eigenvalues --    0.16348   0.18558   0.18971   0.24766   0.29923
  Beta virt. eigenvalues --    0.30790   0.32457   0.37903   0.43811   0.44176
  Beta virt. eigenvalues --    0.44890   0.52838   0.58383   0.63982   0.64169
  Beta virt. eigenvalues --    0.64525   0.66470   0.67326   0.69003   0.80943
  Beta virt. eigenvalues --    0.87465   0.95831   1.06020   1.06546   1.36866
  Beta virt. eigenvalues --    1.37657   1.44011   1.48606   1.49160   1.49705
  Beta virt. eigenvalues --    1.55872   1.56201   1.61311   1.63209   1.67704
  Beta virt. eigenvalues --    1.70548   1.71083   2.00283   2.01415   2.12049
  Beta virt. eigenvalues --    2.18428   2.18973   2.39353   2.47221   2.48403
  Beta virt. eigenvalues --    2.54475   2.54515   2.56103   2.63861   2.71500
  Beta virt. eigenvalues --    2.96396   3.74623   3.76735   7.00118  13.99668
  Beta virt. eigenvalues --   14.03394  14.03951  23.95367 163.27124
          Condensed to atoms (all electrons):
               1          2          3          4          5          6
     1  C    5.260147   0.094159  -0.002195   0.386095  -0.002195   0.386095
     2  P    0.094159  14.367078   0.257442  -0.001172   0.257445  -0.001172
     3  H   -0.002195   0.257442   0.769595   0.000013  -0.020375   0.000017
     4  H    0.386095  -0.001172   0.000013   0.518976   0.000017  -0.033533
     5  H   -0.002195   0.257445  -0.020375   0.000017   0.769594   0.000013
     6  H    0.386095  -0.001172   0.000017  -0.033533   0.000013   0.518976
     7  H    0.382819  -0.001851   0.000033  -0.032155   0.000033  -0.032155
               7
     1  C    0.382819
     2  P   -0.001851
     3  H    0.000033
     4  H   -0.032155
     5  H    0.000033
     6  H   -0.032155
     7  H    0.520874
          Atomic-Atomic Spin Densities.
               1          2          3          4          5          6
     1  C    0.000000  -0.000000  -0.000000  -0.000000  -0.000000  -0.000000
     2  P   -0.000000  -0.000000   0.000000  -0.000000   0.000000  -0.000000
     3  H   -0.000000   0.000000   0.000000  -0.000000  -0.000000   0.000000
     4  H   -0.000000  -0.000000  -0.000000  -0.000000   0.000000   0.000000
     5  H   -0.000000   0.000000  -0.000000   0.000000   0.000000  -0.000000
     6  H   -0.000000  -0.000000   0.000000   0.000000  -0.000000  -0.000000
     7  H   -0.000000   0.000000   0.000000   0.000000   0.000000   0.000000
               7
     1  C   -0.000000
     2  P    0.000000
     3  H    0.000000
     4  H    0.000000
     5  H    0.000000
     6  H    0.000000
     7  H   -0.000000
 Mulliken charges and spin densities:
               1          2
     1  C   -0.504925   0.000000
     2  P    0.028071  -0.000000
     3  H   -0.004530   0.000000
     4  H    0.161758  -0.000000
     5  H   -0.004533   0.000000
     6  H    0.161758  -0.000000
     7  H    0.162401  -0.000000
 Sum of Mulliken charges =  -0.00000   0.00000
 Mulliken charges and spin densities with hydrogens summed into heavy atoms:
               1          2
     1  C   -0.019007   0.000000
     2  P    0.019007  -0.000000
 Electronic spatial extent (au):  <R**2>=            518.5980
 Charge=             -0.0000 electrons
 Dipole moment (field-independent basis, Debye):
    X=             -0.3836    Y=             -0.5299    Z=              0.5729  Tot=              0.8695
 Quadrupole moment (field-independent basis, Debye-Ang):
   XX=            -17.6501   YY=            -22.7408   ZZ=            -22.8604
   XY=             -1.5391   XZ=              1.6639   YZ=              0.7661
 Traceless Quadrupole moment (field-independent basis, Debye-Ang):
   XX=              3.4337   YY=             -1.6570   ZZ=             -1.7766
   XY=             -1.5391   XZ=              1.6639   YZ=              0.7661
 Octapole moment (field-independent basis, Debye-Ang**2):
  XXX=            -48.4948  YYY=              3.2235  ZZZ=             -3.3204  XYY=            -15.0583
  XXY=             -2.7239  XXZ=              2.9447  XZZ=            -15.3420  YZZ=              0.3207
  YYZ=             -0.5112  XYZ=              1.8177
 Hexadecapole moment (field-independent basis, Debye-Ang**3):
 XXXX=           -664.1570 YYYY=            -48.6827 ZZZZ=            -49.0162 XXXY=             -2.0544
 XXXZ=              2.2208 YYYX=              4.0398 YYYZ=              1.0017 ZZZX=             -4.8209
 ZZZY=              1.1349 XXYY=           -117.1095 XXZZ=           -117.6723 YYZZ=            -16.8485
 XXYZ=              3.6050 YYXZ=             -3.2489 ZZXY=              3.4246
 N-N= 3.926579592628D+01 E-N=-9.848682253871D+02  KE= 3.814577039726D+02
                          Isotropic Fermi Contact Couplings
        Atom                 a.u.       MegaHertz       Gauss      10(-4) cm-1
     1  C(13)              0.00000       0.00000       0.00000       0.00000
     2  P(31)              0.00000       0.00000       0.00000       0.00000
     3  H(1)               0.00000       0.00000       0.00000       0.00000
     4  H(1)               0.00000       0.00000       0.00000       0.00000
     5  H(1)               0.00000       0.00000       0.00000       0.00000
     6  H(1)               0.00000       0.00000       0.00000       0.00000
     7  H(1)               0.00000       0.00000       0.00000       0.00000
 --------------------------------------------------------
       Center         ----  Spin Dipole Couplings  ----
                      3XX-RR        3YY-RR        3ZZ-RR
 --------------------------------------------------------
     1   Atom        0.000000     -0.000000     -0.000000
     2   Atom       -0.000000      0.000000      0.000000
     3   Atom       -0.000000     -0.000000      0.000000
     4   Atom       -0.000000      0.000000     -0.000000
     5   Atom       -0.000000      0.000000     -0.000000
     6   Atom       -0.000000     -0.000000      0.000000
     7   Atom        0.000000     -0.000000      0.000000
 --------------------------------------------------------
                        XY            XZ            YZ
 --------------------------------------------------------
     1   Atom       -0.000000      0.000000     -0.000000
     2   Atom       -0.000000      0.000000      0.000000
     3   Atom        0.000000      0.000000     -0.000000
     4   Atom       -0.000000     -0.000000      0.000000
     5   Atom       -0.000000     -0.000000     -0.000000
     6   Atom        0.000000      0.000000      0.000000
     7   Atom        0.000000     -0.000000     -0.000000
 --------------------------------------------------------


 ---------------------------------------------------------------------------------
              Anisotropic Spin Dipole Couplings in Principal Axis System
 ---------------------------------------------------------------------------------

       Atom             a.u.   MegaHertz   Gauss  10(-4) cm-1        Axes

              Baa    -0.0000    -0.000    -0.000    -0.000 -0.0538 -0.6789  0.7323
     1 C(13)  Bbb    -0.0000    -0.000    -0.000    -0.000 -0.0001  0.7333  0.6799
              Bcc     0.0000     0.000     0.000     0.000  0.9986 -0.0365  0.0395
 
              Baa    -0.0000    -0.000    -0.000    -0.000  0.9864  0.1117 -0.1208
     2 P(31)  Bbb     0.0000     0.000     0.000     0.000  0.1645 -0.6910  0.7039
              Bcc     0.0000     0.000     0.000     0.000  0.0048  0.7141  0.7000
 
              Baa    -0.0000    -0.000    -0.000    -0.000 -0.0314  0.9992  0.0251
     3 H(1)   Bbb    -0.0000    -0.000    -0.000    -0.000  0.9893  0.0347 -0.1418
              Bcc     0.0000     0.000     0.000     0.000  0.1425 -0.0204  0.9896
 
              Baa    -0.0000    -0.000    -0.000    -0.000 -0.0501 -0.2097  0.9765
     4 H(1)   Bbb    -0.0000    -0.000    -0.000    -0.000  0.9534  0.2813  0.1094
              Bcc     0.0000     0.000     0.000     0.000 -0.2976  0.9364  0.1858
 
              Baa    -0.0000    -0.000    -0.000    -0.000  0.0315  0.1028  0.9942
     5 H(1)   Bbb    -0.0000    -0.000    -0.000    -0.000  0.9893  0.1386 -0.0456
              Bcc     0.0000     0.000     0.000     0.000 -0.1425  0.9850 -0.0973
 
              Baa    -0.0000    -0.000    -0.000    -0.000  0.0501  0.9572 -0.2850
     6 H(1)   Bbb    -0.0000    -0.000    -0.000    -0.000  0.9534 -0.1309 -0.2720
              Bcc     0.0000     0.000     0.000     0.000  0.2977  0.2581  0.9191
 
              Baa    -0.0000    -0.000    -0.000    -0.000  0.0000  0.7341  0.6791
     7 H(1)   Bbb    -0.0000    -0.000    -0.000    -0.000  0.9287 -0.2518  0.2722
              Bcc     0.0000     0.000     0.000     0.000 -0.3708 -0.6307  0.6817
 

 ---------------------------------------------------------------------------------

 No NMR shielding tensors so no spin-rotation constants.
 Leave Link  601 at Mon Apr 21 19:07:27 2025, MaxMem=   536870912 cpu:               1.6 elap:               0.2
 (Enter /home/szhao/Apps/g16/l701.exe)
 ... and contract with generalized density number  0.
 Compute integral first derivatives.
 Leave Link  701 at Mon Apr 21 19:07:28 2025, MaxMem=   536870912 cpu:               1.2 elap:               0.2
 (Enter /home/szhao/Apps/g16/l702.exe)
 L702 exits ... SP integral derivatives will be done elsewhere.
 Leave Link  702 at Mon Apr 21 19:07:28 2025, MaxMem=   536870912 cpu:               0.8 elap:               0.1
 (Enter /home/szhao/Apps/g16/l703.exe)
 Integral derivatives from FoFJK, PRISM(SPDF).
 Compute integral first derivatives, UseDBF=F ICtDFT=           0.
 Calling FoFJK, ICntrl=      2127 FMM=F ISym2X=0 I1Cent= 0 IOpClX= 1 NMat=1 NMatS=1 NMatT=0.
 FoFJK:  IHMeth= 1 ICntrl=    2127 DoSepK=F KAlg= 0 I1Cent=           0 FoldK=F
 IRaf=         0 NMat=       1 IRICut=       1 DoRegI=T DoRafI=F ISym2E= 0 IDoP0=0 IntGTp=1.
 FoFCou: FMM=F IPFlag=           0 FMFlag=      100000 FMFlg1=         800
         NFxFlg=           0 DoJE=F BraDBF=F KetDBF=F FulRan=T
         wScrn=  0.000000 ICntrl=      2127 IOpCl=  1 I1Cent=           0 NGrid=           0
         NMat0=    1 NMatS0=      1 NMatT0=    0 NMatD0=    1 NMtDS0=    0 NMtDT0=    0
 Symmetry not used in FoFCou.
 Leave Link  703 at Mon Apr 21 19:07:30 2025, MaxMem=   536870912 cpu:              11.4 elap:               1.5
 (Enter /home/szhao/Apps/g16/l716.exe)
 Dipole        =-1.50932128D-01-2.08471055D-01 2.25378369D-01
 -------------------------------------------------------------------
 Center     Atomic                   Forces (Hartrees/Bohr)
 Number     Number              X              Y              Z
 -------------------------------------------------------------------
      1        6          -0.000000000   -0.000000000   -0.000000000
      2       15          -0.000000000   -0.000000000   -0.000000000
      3        1          -0.001405781   -0.000996229    0.002043598
      4        1           0.018060420    0.005275500    0.003439775
      5        1          -0.001406926   -0.001980712    0.001146680
      6        1           0.018060988   -0.003837436   -0.004994001
      7        1           0.016766525   -0.005359091    0.005792682
 -------------------------------------------------------------------
 Cartesian Forces:  Max     0.018060988 RMS     0.007202714
 Leave Link  716 at Mon Apr 21 19:07:30 2025, MaxMem=   536870912 cpu:               0.4 elap:               0.1
 (Enter /home/szhao/Apps/g16/l103.exe)

 GradGradGradGradGradGradGradGradGradGradGradGradGradGradGradGradGradGrad
 Berny optimization.
 FormGI is forming the generalized inverse of G from B-inverse, IUseBI=4.
 Internal  Forces:  Max     0.052887932 RMS     0.014011335
 Search for a local minimum.
 Step number   1 out of a maximum of   36
 All quantities printed in internal units (Hartrees-Bohrs-Radians)
 RMS Force = .10601D-01 SwitMx=.10000D-02 MixMth= 1
 Mixed Optimization -- RFO/linear search
 Second derivative matrix not updated -- first step.
 ITU=  0
     Eigenvalues ---    0.00230   0.06270   0.06704   0.07377   0.16000
     Eigenvalues ---    0.16000   0.16000   0.16000   0.16000   0.21118
     Eigenvalues ---    0.21118   0.34766   0.34766   0.349641000.00000
     Eigenvalues --- 1000.000001000.000001000.000001000.000001000.00000
     Eigenvalues --- 1000.000001000.000001000.000001000.000001000.00000
     Eigenvalues --- 1000.00000
 RFO step:  Lambda=-1.31854989D-02 EMin= 2.30000000D-03
 Linear search not attempted -- first point.
 Iteration  1 RMS(Cart)=  0.08008019 RMS(Int)=  0.00624290
 Iteration  2 RMS(Cart)=  0.00639199 RMS(Int)=  0.00358656
 Iteration  3 RMS(Cart)=  0.00007602 RMS(Int)=  0.00358624
 Iteration  4 RMS(Cart)=  0.00000104 RMS(Int)=  0.00358624
 Iteration  5 RMS(Cart)=  0.00000001 RMS(Int)=  0.00358624
 ITry= 1 IFail=0 DXMaxC= 2.26D-01 DCOld= 1.00D+10 DXMaxT= 3.00D-01 DXLimC= 3.00D+00 Rises=F
 Variable       Old X    -DE/DX   Delta X   Delta X   Delta X     New X
                                 (Linear)    (Quad)   (Total)
    X1       -4.02750   0.05289   0.00000   0.00000   0.00000  -4.02750
    Y1        0.00000  -0.00335   0.00000   0.00000   0.00000   0.00000
    Z1        0.00000   0.00362   0.00000   0.00000   0.00000   0.00000
    X2        4.02750  -0.00281   0.00000   0.00000   0.00000   4.02750
    Y2        0.00000  -0.00354   0.00000   0.00000   0.00000   0.00000
    Z2        0.00000   0.00381   0.00000   0.00000   0.00000   0.00000
    R1        2.06056  -0.00027   0.00000  -0.00074  -0.00074   2.05982
    R2        2.06056  -0.00027   0.00000  -0.00073  -0.00073   2.05982
    R3        2.05733   0.00053   0.00000   0.00145   0.00145   2.05878
    R4        2.67742   0.00081   0.00000   0.00361   0.00361   2.68103
    R5        2.67742   0.00080   0.00000   0.00358   0.00358   2.68100
    A1        1.89770  -0.01907   0.00000  -0.10772  -0.11397   1.78373
    A2        1.89770  -0.01907   0.00000  -0.10773  -0.11398   1.78372
    A3        1.98228  -0.01817   0.00000  -0.10999  -0.11669   1.86559
    A4        1.87744   0.01999   0.00000   0.12653   0.11904   1.99648
    A5        1.90298   0.01913   0.00000   0.10558   0.09680   1.99978
    A6        1.90298   0.01913   0.00000   0.10559   0.09681   1.99979
    A7        1.69824  -0.00427   0.00000  -0.02722  -0.02729   1.67096
    A8        1.69824  -0.00427   0.00000  -0.02723  -0.02729   1.67096
    A9        1.63122  -0.00147   0.00000  -0.02724  -0.02784   1.60338
    D1        2.94625  -0.00272   0.00000  -0.03335  -0.03272   2.91353
    D2        1.29757  -0.00005   0.00000   0.00191   0.00214   1.29972
    D3       -1.29766   0.00005   0.00000  -0.00146  -0.00169  -1.29935
    D4       -2.94633   0.00273   0.00000   0.03380   0.03317  -2.91317
    D5        0.82430  -0.00133   0.00000  -0.01740  -0.01720   0.80709
    D6       -0.82438   0.00134   0.00000   0.01786   0.01766  -0.80672
         Item               Value     Threshold  Converged?
 Maximum Force            0.019987     0.000450     NO 
 RMS     Force            0.010601     0.000300     NO 
 Maximum Displacement     0.226389     0.001800     NO 
 RMS     Displacement     0.084279     0.001200     NO 
 Predicted change in Energy=-7.068912D-03
 Lowest energy point so far.  Saving SCF results.
 GradGradGradGradGradGradGradGradGradGradGradGradGradGradGradGradGradGrad

 Leave Link  103 at Mon Apr 21 19:07:30 2025, MaxMem=   536870912 cpu:               1.6 elap:               0.3
 (Enter /home/szhao/Apps/g16/l202.exe)
                          Input orientation:                          
 ---------------------------------------------------------------------
 Center     Atomic      Atomic             Coordinates (Angstroms)
 Number     Number       Type             X           Y           Z
 ---------------------------------------------------------------------
      1          6           0       -2.131264    0.000000    0.000000
      2         15           0        2.131264    0.000000    0.000000
      3          1           0        2.273130   -1.411413    0.024570
      4          1           0       -2.361611    1.041842    0.222773
      5          1           0        2.273124    0.085246    1.409036
      6          1           0       -2.361606   -0.303482   -1.021258
      7          1           0       -2.447798   -0.707754    0.765385
 ---------------------------------------------------------------------
                    Distance matrix (angstroms):
                    1          2          3          4          5
     1  C    0.000000
     2  P    4.262527   0.000000
     3  H    4.625081   1.418738   0.000000
     4  H    1.090010   4.617466   5.247721   0.000000
     5  H    4.625071   1.418723   2.038807   4.878839   0.000000
     6  H    1.090012   4.617461   4.878734   1.832350   5.247681
     7  H    1.089460   4.696225   4.830228   1.833833   4.830138
                    6          7
     6  H    0.000000
     7  H    1.833837   0.000000
 Symmetry turned off by external request.
 Stoichiometry    CH5P
 Framework group  C1[X(CH5P)]
 Deg. of freedom    15
 Full point group                 C1      NOp   1
 Rotational constants (GHZ):          69.4591627           2.5695186           2.5656427
 Leave Link  202 at Mon Apr 21 19:07:31 2025, MaxMem=   536870912 cpu:               0.4 elap:               0.1
 (Enter /home/szhao/Apps/g16/l301.exe)
 Standard basis: 6-311+G(d,p) (5D, 7F)
 Ernie: Thresh=  0.10000D-02 Tol=  0.10000D-05 Strict=F.
    82 basis functions,   126 primitive gaussians,    84 cartesian basis functions
    13 alpha electrons       13 beta electrons
       nuclear repulsion energy        39.3675672946 Hartrees.
 IExCor= 4336 DFT=T Ex+Corr=M062X ExCW=0 ScaHFX=  0.540000
 ScaDFX=  1.000000  1.000000  1.000000  1.000000 ScalE2=  1.000000  1.000000
 IRadAn=      7 IRanWt=     -1 IRanGd=            0 ICorTp=0 IEmpDi=  4
 NAtoms=    7 NActive=    7 NUniq=    7 SFac= 1.00D+00 NAtFMM=   60 NAOKFM=F Big=F
 Integral buffers will be    131072 words long.
 Raffenetti 2 integral format.
 Two-electron integral symmetry is turned off.
 Leave Link  301 at Mon Apr 21 19:07:31 2025, MaxMem=   536870912 cpu:               0.5 elap:               0.1
 (Enter /home/szhao/Apps/g16/l302.exe)
 NPDir=0 NMtPBC=     1 NCelOv=     1 NCel=       1 NClECP=     1 NCelD=      1
         NCelK=      1 NCelE2=     1 NClLst=     1 CellRange=     0.0.
 One-electron integrals computed using PRISM.
 NBasis=    82 RedAO= T EigKep=  6.81D-03  NBF=    82
 NBsUse=    82 1.00D-06 EigRej= -1.00D+00 NBFU=    82
 Precomputing XC quadrature grid using
 IXCGrd= 4 IRadAn=           7 IRanWt=          -1 IRanGd=           0 AccXCQ= 0.00D+00.
 Generated NRdTot=       0 NPtTot=           0 NUsed=           0 NTot=          32
 NSgBfM=    83    83    83    83    83 MxSgAt=     7 MxSgA2=     7.
 Leave Link  302 at Mon Apr 21 19:07:31 2025, MaxMem=   536870912 cpu:               1.4 elap:               0.2
 (Enter /home/szhao/Apps/g16/l303.exe)
 DipDrv:  MaxL=1.
 Leave Link  303 at Mon Apr 21 19:07:31 2025, MaxMem=   536870912 cpu:               0.4 elap:               0.1
 (Enter /home/szhao/Apps/g16/l401.exe)
 Initial guess from the checkpoint file:  "opt.chk"
 B after Tr=     0.020563   -0.003731    0.004015
         Rot=    1.000000    0.000041    0.000170    0.000159 Ang=   0.03 deg.
 Guess basis will be translated and rotated to current coordinates.
 JPrj=2 DoOrth=T DoCkMO=T.
 Initial guess <Sx>= 0.0000 <Sy>= 0.0000 <Sz>= 0.0000 <S**2>= 0.0000 S= 0.0000
 Generating alternative initial guess.
 ExpMin= 3.48D-02 ExpMax= 7.75D+04 ExpMxC= 2.65D+03 IAcc=3 IRadAn=         5 AccDes= 0.00D+00
 Harris functional with IExCor= 1009 and IRadAn=       5 diagonalized for initial guess.
 HarFok:  IExCor= 1009 AccDes= 0.00D+00 IRadAn=         5 IDoV= 1 UseB2=F ITyADJ=14
 ICtDFT=  3500011 ScaDFX=  1.000000  1.000000  1.000000  1.000000
 FoFCou: FMM=F IPFlag=           0 FMFlag=      100000 FMFlg1=           0
         NFxFlg=           0 DoJE=T BraDBF=F KetDBF=T FulRan=T
         wScrn=  0.000000 ICntrl=       500 IOpCl=  0 I1Cent=   200000004 NGrid=           0
         NMat0=    1 NMatS0=      1 NMatT0=    0 NMatD0=    1 NMtDS0=    0 NMtDT0=    0
 Symmetry not used in FoFCou.
 Harris En= -382.171501537744    
 Leave Link  401 at Mon Apr 21 19:07:32 2025, MaxMem=   536870912 cpu:               2.7 elap:               0.4
 (Enter /home/szhao/Apps/g16/l502.exe)
 Keep R1 and R2 ints in memory in canonical form, NReq=18891869.
 FoFCou: FMM=F IPFlag=           0 FMFlag=           0 FMFlg1=           0
         NFxFlg=           0 DoJE=F BraDBF=F KetDBF=F FulRan=T
         wScrn=  0.000000 ICntrl=       600 IOpCl=  0 I1Cent=           0 NGrid=           0
         NMat0=    1 NMatS0=   3403 NMatT0=    0 NMatD0=    1 NMtDS0=    0 NMtDT0=    0
 Symmetry not used in FoFCou.
 Two-electron integral symmetry not used.
 UHF open shell SCF:
 Using DIIS extrapolation, IDIIS=  1040.
 NGot=   536870912 LenX=   525271507 LenY=   525264010
 Requested convergence on RMS density matrix=1.00D-08 within 128 cycles.
 Requested convergence on MAX density matrix=1.00D-06.
 Requested convergence on             energy=1.00D-06.
 No special actions if energy rises.

 Cycle   1  Pass 1  IDiag  1:
 E= -382.236046460339    
 DIIS: error= 5.53D-03 at cycle   1 NSaved=   1.
 NSaved= 1 IEnMin= 1 EnMin= -382.236046460339     IErMin= 1 ErrMin= 5.53D-03
 ErrMax= 5.53D-03  0.00D+00 EMaxC= 1.00D-01 BMatC= 6.67D-03 BMatP= 6.67D-03
 IDIUse=3 WtCom= 9.45D-01 WtEn= 5.53D-02
 Coeff-Com:  0.100D+01
 Coeff-En:   0.100D+01
 Coeff:      0.100D+01
 Gap=     0.430 Goal=   None    Shift=    0.000
 Gap=     0.430 Goal=   None    Shift=    0.000
 GapD=    0.430 DampG=2.000 DampE=1.000 DampFc=2.0000 IDamp=-1.
 RMSDP=6.28D-04 MaxDP=9.47D-03              OVMax= 4.15D-02

 Cycle   2  Pass 1  IDiag  1:
 E= -382.238172827397     Delta-E=       -0.002126367058 Rises=F Damp=F
 DIIS: error= 3.24D-03 at cycle   2 NSaved=   2.
 NSaved= 2 IEnMin= 2 EnMin= -382.238172827397     IErMin= 2 ErrMin= 3.24D-03
 ErrMax= 3.24D-03  0.00D+00 EMaxC= 1.00D-01 BMatC= 1.08D-03 BMatP= 6.67D-03
 IDIUse=3 WtCom= 9.68D-01 WtEn= 3.24D-02
 Coeff-Com:  0.640D-01 0.936D+00
 Coeff-En:   0.000D+00 0.100D+01
 Coeff:      0.619D-01 0.938D+00
 Gap=     0.095 Goal=   None    Shift=    0.000
 Gap=     0.095 Goal=   None    Shift=    0.000
 RMSDP=9.25D-04 MaxDP=3.16D-02 DE=-2.13D-03 OVMax= 9.35D-02

 Cycle   3  Pass 1  IDiag  1:
 E= -382.231814220724     Delta-E=        0.006358606672 Rises=F Damp=F
 DIIS: error= 1.22D-02 at cycle   3 NSaved=   3.
 NSaved= 3 IEnMin= 2 EnMin= -382.238172827397     IErMin= 2 ErrMin= 3.24D-03
 ErrMax= 1.22D-02  0.00D+00 EMaxC= 1.00D-01 BMatC= 1.57D-02 BMatP= 1.08D-03
 IDIUse=2 WtCom= 0.00D+00 WtEn= 1.00D+00
 Coeff-En:   0.000D+00 0.866D+00 0.134D+00
 Coeff:      0.000D+00 0.866D+00 0.134D+00
 Gap=     0.095 Goal=   None    Shift=    0.000
 Gap=     0.095 Goal=   None    Shift=    0.000
 RMSDP=4.76D-04 MaxDP=1.58D-02 DE= 6.36D-03 OVMax= 4.92D-02

 Cycle   4  Pass 1  IDiag  1:
 E= -382.237858795432     Delta-E=       -0.006044574707 Rises=F Damp=F
 DIIS: error= 4.25D-03 at cycle   4 NSaved=   4.
 NSaved= 4 IEnMin= 2 EnMin= -382.238172827397     IErMin= 2 ErrMin= 3.24D-03
 ErrMax= 4.25D-03  0.00D+00 EMaxC= 1.00D-01 BMatC= 1.83D-03 BMatP= 1.08D-03
 IDIUse=3 WtCom= 1.33D-01 WtEn= 8.67D-01
 Coeff-Com: -0.271D-01 0.195D+00-0.362D+00 0.119D+01
 Coeff-En:   0.000D+00 0.580D+00 0.000D+00 0.420D+00
 Coeff:     -0.361D-02 0.529D+00-0.482D-01 0.523D+00
 Gap=     0.096 Goal=   None    Shift=    0.000
 Gap=     0.096 Goal=   None    Shift=    0.000
 RMSDP=2.68D-04 MaxDP=9.11D-03 DE=-6.04D-03 OVMax= 2.76D-02

 Cycle   5  Pass 1  IDiag  1:
 E= -382.238688072717     Delta-E=       -0.000829277285 Rises=F Damp=F
 DIIS: error= 2.42D-04 at cycle   5 NSaved=   5.
 NSaved= 5 IEnMin= 5 EnMin= -382.238688072717     IErMin= 5 ErrMin= 2.42D-04
 ErrMax= 2.42D-04  0.00D+00 EMaxC= 1.00D-01 BMatC= 9.19D-06 BMatP= 1.08D-03
 IDIUse=3 WtCom= 9.98D-01 WtEn= 2.42D-03
 Coeff-Com: -0.104D-01-0.976D-02 0.160D+00-0.408D+00 0.127D+01
 Coeff-En:   0.000D+00 0.000D+00 0.000D+00 0.000D+00 0.100D+01
 Coeff:     -0.104D-01-0.973D-02 0.160D+00-0.407D+00 0.127D+01
 Gap=     0.096 Goal=   None    Shift=    0.000
 Gap=     0.096 Goal=   None    Shift=    0.000
 RMSDP=2.95D-05 MaxDP=5.45D-04 DE=-8.29D-04 OVMax= 1.51D-03

 Cycle   6  Pass 1  IDiag  1:
 E= -382.238692412457     Delta-E=       -0.000004339741 Rises=F Damp=F
 DIIS: error= 1.02D-04 at cycle   6 NSaved=   6.
 NSaved= 6 IEnMin= 6 EnMin= -382.238692412457     IErMin= 6 ErrMin= 1.02D-04
 ErrMax= 1.02D-04  0.00D+00 EMaxC= 1.00D-01 BMatC= 9.49D-07 BMatP= 9.19D-06
 IDIUse=3 WtCom= 9.99D-01 WtEn= 1.02D-03
 Coeff-Com:  0.263D-02-0.288D-01-0.807D-02 0.217D-01-0.625D-01 0.108D+01
 Coeff-En:   0.000D+00 0.000D+00 0.000D+00 0.000D+00 0.000D+00 0.100D+01
 Coeff:      0.263D-02-0.288D-01-0.807D-02 0.217D-01-0.624D-01 0.107D+01
 Gap=     0.096 Goal=   None    Shift=    0.000
 Gap=     0.096 Goal=   None    Shift=    0.000
 RMSDP=1.02D-05 MaxDP=1.53D-04 DE=-4.34D-06 OVMax= 6.84D-04

 Cycle   7  Pass 1  IDiag  1:
 E= -382.238693029420     Delta-E=       -0.000000616963 Rises=F Damp=F
 DIIS: error= 2.18D-05 at cycle   7 NSaved=   7.
 NSaved= 7 IEnMin= 7 EnMin= -382.238693029420     IErMin= 7 ErrMin= 2.18D-05
 ErrMax= 2.18D-05  0.00D+00 EMaxC= 1.00D-01 BMatC= 4.62D-08 BMatP= 9.49D-07
 IDIUse=1 WtCom= 1.00D+00 WtEn= 0.00D+00
 Coeff-Com: -0.673D-04 0.530D-02 0.141D-02-0.258D-02-0.384D-01-0.250D+00
 Coeff-Com:  0.128D+01
 Coeff:     -0.673D-04 0.530D-02 0.141D-02-0.258D-02-0.384D-01-0.250D+00
 Coeff:      0.128D+01
 Gap=     0.096 Goal=   None    Shift=    0.000
 Gap=     0.096 Goal=   None    Shift=    0.000
 RMSDP=4.10D-06 MaxDP=6.92D-05 DE=-6.17D-07 OVMax= 3.05D-04

 Cycle   8  Pass 1  IDiag  1:
 E= -382.238693073316     Delta-E=       -0.000000043896 Rises=F Damp=F
 DIIS: error= 1.09D-05 at cycle   8 NSaved=   8.
 NSaved= 8 IEnMin= 8 EnMin= -382.238693073316     IErMin= 8 ErrMin= 1.09D-05
 ErrMax= 1.09D-05  0.00D+00 EMaxC= 1.00D-01 BMatC= 1.49D-08 BMatP= 4.62D-08
 IDIUse=1 WtCom= 1.00D+00 WtEn= 0.00D+00
 Coeff-Com: -0.238D-03 0.370D-02-0.135D-02 0.228D-02-0.274D-02-0.112D+00
 Coeff-Com:  0.179D+00 0.931D+00
 Coeff:     -0.238D-03 0.370D-02-0.135D-02 0.228D-02-0.274D-02-0.112D+00
 Coeff:      0.179D+00 0.931D+00
 Gap=     0.096 Goal=   None    Shift=    0.000
 Gap=     0.096 Goal=   None    Shift=    0.000
 RMSDP=1.06D-06 MaxDP=2.13D-05 DE=-4.39D-08 OVMax= 7.09D-05

 Cycle   9  Pass 1  IDiag  1:
 E= -382.238693081299     Delta-E=       -0.000000007983 Rises=F Damp=F
 DIIS: error= 7.58D-07 at cycle   9 NSaved=   9.
 NSaved= 9 IEnMin= 9 EnMin= -382.238693081299     IErMin= 9 ErrMin= 7.58D-07
 ErrMax= 7.58D-07  0.00D+00 EMaxC= 1.00D-01 BMatC= 1.71D-10 BMatP= 1.49D-08
 IDIUse=1 WtCom= 1.00D+00 WtEn= 0.00D+00
 Coeff-Com: -0.105D-04-0.383D-04-0.117D-03-0.100D-03 0.201D-02 0.403D-02
 Coeff-Com: -0.726D-01 0.335D-01 0.103D+01
 Coeff:     -0.105D-04-0.383D-04-0.117D-03-0.100D-03 0.201D-02 0.403D-02
 Coeff:     -0.726D-01 0.335D-01 0.103D+01
 Gap=     0.096 Goal=   None    Shift=    0.000
 Gap=     0.096 Goal=   None    Shift=    0.000
 RMSDP=2.50D-07 MaxDP=3.93D-06 DE=-7.98D-09 OVMax= 1.63D-05

 Cycle  10  Pass 1  IDiag  1:
 E= -382.238693081429     Delta-E=       -0.000000000130 Rises=F Damp=F
 DIIS: error= 2.90D-07 at cycle  10 NSaved=  10.
 NSaved=10 IEnMin=10 EnMin= -382.238693081429     IErMin=10 ErrMin= 2.90D-07
 ErrMax= 2.90D-07  0.00D+00 EMaxC= 1.00D-01 BMatC= 9.23D-12 BMatP= 1.71D-10
 IDIUse=1 WtCom= 1.00D+00 WtEn= 0.00D+00
 Coeff-Com:  0.102D-04-0.165D-03 0.130D-03-0.355D-03 0.515D-03 0.455D-02
 Coeff-Com: -0.124D-01-0.148D-01 0.113D+00 0.910D+00
 Coeff:      0.102D-04-0.165D-03 0.130D-03-0.355D-03 0.515D-03 0.455D-02
 Coeff:     -0.124D-01-0.148D-01 0.113D+00 0.910D+00
 Gap=     0.096 Goal=   None    Shift=    0.000
 Gap=     0.096 Goal=   None    Shift=    0.000
 RMSDP=2.50D-08 MaxDP=5.00D-07 DE=-1.30D-10 OVMax= 1.99D-06

 Cycle  11  Pass 1  IDiag  1:
 E= -382.238693081434     Delta-E=       -0.000000000004 Rises=F Damp=F
 DIIS: error= 5.04D-08 at cycle  11 NSaved=  11.
 NSaved=11 IEnMin=11 EnMin= -382.238693081434     IErMin=11 ErrMin= 5.04D-08
 ErrMax= 5.04D-08  0.00D+00 EMaxC= 1.00D-01 BMatC= 2.77D-13 BMatP= 9.23D-12
 IDIUse=1 WtCom= 1.00D+00 WtEn= 0.00D+00
 Coeff-Com:  0.188D-05-0.246D-04 0.243D-04-0.450D-04 0.626D-05 0.341D-03
 Coeff-Com:  0.662D-03-0.430D-02-0.330D-01 0.148D+00 0.888D+00
 Coeff:      0.188D-05-0.246D-04 0.243D-04-0.450D-04 0.626D-05 0.341D-03
 Coeff:      0.662D-03-0.430D-02-0.330D-01 0.148D+00 0.888D+00
 Gap=     0.096 Goal=   None    Shift=    0.000
 Gap=     0.096 Goal=   None    Shift=    0.000
 RMSDP=1.08D-08 MaxDP=2.68D-07 DE=-4.43D-12 OVMax= 8.84D-07

 Cycle  12  Pass 1  IDiag  1:
 E= -382.238693081434     Delta-E=       -0.000000000000 Rises=F Damp=F
 DIIS: error= 5.68D-08 at cycle  12 NSaved=  12.
 NSaved=12 IEnMin=12 EnMin= -382.238693081434     IErMin=11 ErrMin= 5.04D-08
 ErrMax= 5.68D-08  0.00D+00 EMaxC= 1.00D-01 BMatC= 1.20D-13 BMatP= 2.77D-13
 IDIUse=1 WtCom= 1.00D+00 WtEn= 0.00D+00
 Coeff-Com:  0.636D-06-0.868D-05 0.118D-04-0.233D-04 0.125D-04 0.431D-04
 Coeff-Com:  0.728D-03-0.218D-02-0.171D-01 0.558D-01 0.407D+00 0.556D+00
 Coeff:      0.636D-06-0.868D-05 0.118D-04-0.233D-04 0.125D-04 0.431D-04
 Coeff:      0.728D-03-0.218D-02-0.171D-01 0.558D-01 0.407D+00 0.556D+00
 Gap=     0.096 Goal=   None    Shift=    0.000
 Gap=     0.096 Goal=   None    Shift=    0.000
 RMSDP=6.42D-09 MaxDP=2.37D-07 DE=-4.55D-13 OVMax= 7.18D-07

 SCF Done:  E(UM062X) =  -382.238693081     A.U. after   12 cycles
            NFock= 12  Conv=0.64D-08     -V/T= 2.0021
 <Sx>= 0.0000 <Sy>= 0.0000 <Sz>= 0.0000 <S**2>= 0.0000 S= 0.0000
 <L.S>=  0.00000000000    
 KE= 3.814441726199D+02 PE=-9.851284653039D+02 EE= 1.820780323079D+02
 Annihilation of the first spin contaminant:
 S**2 before annihilation     0.0000,   after    -0.0000
 Leave Link  502 at Mon Apr 21 19:07:42 2025, MaxMem=   536870912 cpu:              80.4 elap:              10.6
 (Enter /home/szhao/Apps/g16/l701.exe)
 ... and contract with generalized density number  0.
 Compute integral first derivatives.
 Leave Link  701 at Mon Apr 21 19:07:43 2025, MaxMem=   536870912 cpu:               1.1 elap:               0.2
 (Enter /home/szhao/Apps/g16/l702.exe)
 L702 exits ... SP integral derivatives will be done elsewhere.
 Leave Link  702 at Mon Apr 21 19:07:43 2025, MaxMem=   536870912 cpu:               0.4 elap:               0.1
 (Enter /home/szhao/Apps/g16/l703.exe)
 Integral derivatives from FoFJK, PRISM(SPDF).
 Compute integral first derivatives, UseDBF=F ICtDFT=           0.
 Calling FoFJK, ICntrl=      2127 FMM=F ISym2X=0 I1Cent= 0 IOpClX= 1 NMat=1 NMatS=1 NMatT=0.
 FoFJK:  IHMeth= 1 ICntrl=    2127 DoSepK=F KAlg= 0 I1Cent=           0 FoldK=F
 IRaf=         0 NMat=       1 IRICut=       1 DoRegI=T DoRafI=F ISym2E= 0 IDoP0=0 IntGTp=1.
 FoFCou: FMM=F IPFlag=           0 FMFlag=      100000 FMFlg1=         800
         NFxFlg=           0 DoJE=F BraDBF=F KetDBF=F FulRan=T
         wScrn=  0.000000 ICntrl=      2127 IOpCl=  1 I1Cent=           0 NGrid=           0
         NMat0=    1 NMatS0=      1 NMatT0=    0 NMatD0=    1 NMtDS0=    0 NMtDT0=    0
 Symmetry not used in FoFCou.
 Leave Link  703 at Mon Apr 21 19:07:44 2025, MaxMem=   536870912 cpu:              10.1 elap:               1.3
 (Enter /home/szhao/Apps/g16/l716.exe)
 Dipole        =-4.56308741D-01-2.04004531D-01 2.20532900D-01
 -------------------------------------------------------------------
 Center     Atomic                   Forces (Hartrees/Bohr)
 Number     Number              X              Y              Z
 -------------------------------------------------------------------
      1        6          -0.000000000   -0.000000000   -0.000000000
      2       15          -0.000000000   -0.000000000   -0.000000000
      3        1          -0.001386918   -0.000419280    0.000171856
      4        1           0.010958696   -0.001634954    0.000250581
      5        1          -0.001384738   -0.000143298    0.000428995
      6        1           0.010959590   -0.000122692    0.001649352
      7        1           0.010896535    0.000160860   -0.000176712
 -------------------------------------------------------------------
 Cartesian Forces:  Max     0.010959590 RMS     0.004190235
 Leave Link  716 at Mon Apr 21 19:07:45 2025, MaxMem=   536870912 cpu:               0.4 elap:               0.1
 (Enter /home/szhao/Apps/g16/l103.exe)

 GradGradGradGradGradGradGradGradGradGradGradGradGradGradGradGradGradGrad
 Berny optimization.
 Using GEDIIS/GDIIS optimizer.
 FormGI is forming the generalized inverse of G from B-inverse, IUseBI=4.
 Internal  Forces:  Max     0.032814821 RMS     0.008828930
 Search for a local minimum.
 Step number   2 out of a maximum of   36
 All quantities printed in internal units (Hartrees-Bohrs-Radians)
 RMS Force = .68453D-02 SwitMx=.10000D-02 MixMth= 1
 Mixed Optimization -- RFO/linear search
 Update second derivatives using D2CorX and points    1    2
 DE= -1.06D-02 DEPred=-7.07D-03 R= 1.51D+00
 TightC=F SS=  1.41D+00  RLast= 2.79D-01 DXNew= 5.0454D-01 8.3565D-01
 Trust test= 1.51D+00 RLast= 2.79D-01 DXMaxT set to 5.05D-01
 ITU=  1  0
 Use linear search instead of GDIIS.
     Eigenvalues ---    0.00230   0.05882   0.06520   0.08088   0.08646
     Eigenvalues ---    0.16000   0.16000   0.16000   0.16099   0.21118
     Eigenvalues ---    0.21121   0.34766   0.34882   0.358441000.00000
     Eigenvalues --- 1000.000001000.000001000.000001000.000001000.00000
     Eigenvalues --- 1000.000001000.000001000.000001000.000001000.00000
     Eigenvalues --- 1000.00000
 RFO step:  Lambda=-1.28660915D-03 EMin= 2.30000306D-03
 Quartic linear search produced a step of  1.44296.
 Iteration  1 RMS(Cart)=  0.14546913 RMS(Int)=  0.02882880
 Iteration  2 RMS(Cart)=  0.01387817 RMS(Int)=  0.02527216
 Iteration  3 RMS(Cart)=  0.00009657 RMS(Int)=  0.02527213
 Iteration  4 RMS(Cart)=  0.00002380 RMS(Int)=  0.02527212
 Iteration  5 RMS(Cart)=  0.00000587 RMS(Int)=  0.02527212
 Iteration  6 RMS(Cart)=  0.00000145 RMS(Int)=  0.02527212
 Iteration  7 RMS(Cart)=  0.00000036 RMS(Int)=  0.02527212
 ITry= 1 IFail=0 DXMaxC= 4.07D-01 DCOld= 1.00D+10 DXMaxT= 5.05D-01 DXLimC= 3.00D+00 Rises=F
 Variable       Old X    -DE/DX   Delta X   Delta X   Delta X     New X
                                 (Linear)    (Quad)   (Total)
    X1       -4.02750   0.03281   0.00000   0.00000   0.00000  -4.02750
    Y1        0.00000  -0.00114   0.00000   0.00000   0.00000   0.00000
    Z1        0.00000   0.00123   0.00000   0.00000   0.00000   0.00000
    X2        4.02750  -0.00277   0.00000   0.00000   0.00000   4.02750
    Y2        0.00000  -0.00102   0.00000   0.00000   0.00000   0.00000
    Z2        0.00000   0.00109   0.00000   0.00000   0.00000   0.00000
    R1        2.05982  -0.00383  -0.00106  -0.02624  -0.02731   2.03251
    R2        2.05982  -0.00383  -0.00106  -0.02625  -0.02731   2.03252
    R3        2.05878  -0.00339   0.00209  -0.02614  -0.02405   2.03474
    R4        2.68103   0.00028   0.00521  -0.00205   0.00315   2.68418
    R5        2.68100   0.00028   0.00516  -0.00203   0.00313   2.68412
    A1        1.78373  -0.01357  -0.16446  -0.02053  -0.19587   1.58786
    A2        1.78372  -0.01357  -0.16447  -0.02057  -0.19592   1.58780
    A3        1.86559  -0.01338  -0.16839  -0.02157  -0.20090   1.66469
    A4        1.99648   0.01010   0.17177  -0.00047   0.09989   2.09638
    A5        1.99978   0.01041   0.13969   0.02385   0.08894   2.08873
    A6        1.99979   0.01041   0.13969   0.02379   0.08888   2.08867
    A7        1.67096  -0.00378  -0.03937  -0.01784  -0.05734   1.61362
    A8        1.67096  -0.00378  -0.03938  -0.01773  -0.05724   1.61372
    A9        1.60338   0.00030  -0.04018   0.04490   0.00181   1.60519
    D1        2.91353  -0.00079  -0.04721   0.02677  -0.01812   2.89542
    D2        1.29972  -0.00029   0.00310  -0.01487  -0.01140   1.28832
    D3       -1.29935   0.00030  -0.00244   0.01129   0.00846  -1.29089
    D4       -2.91317   0.00079   0.04786  -0.03035   0.01518  -2.89799
    D5        0.80709  -0.00025  -0.02482   0.01899  -0.00486   0.80223
    D6       -0.80672   0.00025   0.02548  -0.02266   0.00186  -0.80487
         Item               Value     Threshold  Converged?
 Maximum Force            0.013573     0.000450     NO 
 RMS     Force            0.006845     0.000300     NO 
 Maximum Displacement     0.407392     0.001800     NO 
 RMS     Displacement     0.144082     0.001200     NO 
 Predicted change in Energy=-7.003060D-03
 Lowest energy point so far.  Saving SCF results.
 GradGradGradGradGradGradGradGradGradGradGradGradGradGradGradGradGradGrad

 Leave Link  103 at Mon Apr 21 19:07:45 2025, MaxMem=   536870912 cpu:               0.4 elap:               0.1
 (Enter /home/szhao/Apps/g16/l202.exe)
                          Input orientation:                          
 ---------------------------------------------------------------------
 Center     Atomic      Atomic             Coordinates (Angstroms)
 Number     Number       Type             X           Y           Z
 ---------------------------------------------------------------------
      1          6           0       -2.131264    0.000000    0.000000
      2         15           0        2.131264    0.000000    0.000000
      3          1           0        2.192068   -1.418771    0.030777
      4          1           0       -2.149611    1.048419    0.239392
      5          1           0        2.192207    0.082245    1.416684
      6          1           0       -2.149549   -0.319443   -1.026867
      7          1           0       -2.232215   -0.728258    0.786644
 ---------------------------------------------------------------------
                    Distance matrix (angstroms):
                    1          2          3          4          5
     1  C    0.000000
     2  P    4.262527   0.000000
     3  H    4.550281   1.420407   0.000000
     4  H    1.075559   4.413885   4.998072   0.000000
     5  H    4.550401   1.420377   2.042985   4.601184   0.000000
     6  H    1.075562   4.413825   4.601822   1.863990   4.998313
     7  H    1.076736   4.493230   4.541192   1.860884   4.541957
                    6          7
     6  H    0.000000
     7  H    1.860856   0.000000
 Symmetry turned off by external request.
 Stoichiometry    CH5P
 Framework group  C1[X(CH5P)]
 Deg. of freedom    15
 Full point group                 C1      NOp   1
 Rotational constants (GHZ):          68.0419911           2.6277735           2.6239446
 Leave Link  202 at Mon Apr 21 19:07:45 2025, MaxMem=   536870912 cpu:               0.2 elap:               0.1
 (Enter /home/szhao/Apps/g16/l301.exe)
 Standard basis: 6-311+G(d,p) (5D, 7F)
 Ernie: Thresh=  0.10000D-02 Tol=  0.10000D-05 Strict=F.
    82 basis functions,   126 primitive gaussians,    84 cartesian basis functions
    13 alpha electrons       13 beta electrons
       nuclear repulsion energy        39.7479431421 Hartrees.
 IExCor= 4336 DFT=T Ex+Corr=M062X ExCW=0 ScaHFX=  0.540000
 ScaDFX=  1.000000  1.000000  1.000000  1.000000 ScalE2=  1.000000  1.000000
 IRadAn=      7 IRanWt=     -1 IRanGd=            0 ICorTp=0 IEmpDi=  4
 NAtoms=    7 NActive=    7 NUniq=    7 SFac= 1.00D+00 NAtFMM=   60 NAOKFM=F Big=F
 Integral buffers will be    131072 words long.
 Raffenetti 2 integral format.
 Two-electron integral symmetry is turned off.
 Leave Link  301 at Mon Apr 21 19:07:46 2025, MaxMem=   536870912 cpu:               0.6 elap:               0.2
 (Enter /home/szhao/Apps/g16/l302.exe)
 NPDir=0 NMtPBC=     1 NCelOv=     1 NCel=       1 NClECP=     1 NCelD=      1
         NCelK=      1 NCelE2=     1 NClLst=     1 CellRange=     0.0.
 One-electron integrals computed using PRISM.
 NBasis=    82 RedAO= T EigKep=  5.98D-03  NBF=    82
 NBsUse=    82 1.00D-06 EigRej= -1.00D+00 NBFU=    82
 Precomputing XC quadrature grid using
 IXCGrd= 4 IRadAn=           7 IRanWt=          -1 IRanGd=           0 AccXCQ= 0.00D+00.
 Generated NRdTot=       0 NPtTot=           0 NUsed=           0 NTot=          32
 NSgBfM=    83    83    83    83    83 MxSgAt=     7 MxSgA2=     7.
 Leave Link  302 at Mon Apr 21 19:07:46 2025, MaxMem=   536870912 cpu:               2.0 elap:               0.3
 (Enter /home/szhao/Apps/g16/l303.exe)
 DipDrv:  MaxL=1.
 Leave Link  303 at Mon Apr 21 19:07:46 2025, MaxMem=   536870912 cpu:               0.7 elap:               0.1
 (Enter /home/szhao/Apps/g16/l401.exe)
 Initial guess from the checkpoint file:  "opt.chk"
 B after Tr=     0.034831   -0.002298    0.002593
         Rot=    1.000000    0.000111    0.000307    0.000270 Ang=   0.05 deg.
 Guess basis will be translated and rotated to current coordinates.
 JPrj=2 DoOrth=T DoCkMO=T.
 Initial guess <Sx>= 0.0000 <Sy>= 0.0000 <Sz>= 0.0000 <S**2>= 0.0000 S= 0.0000
 Generating alternative initial guess.
 ExpMin= 3.48D-02 ExpMax= 7.75D+04 ExpMxC= 2.65D+03 IAcc=3 IRadAn=         5 AccDes= 0.00D+00
 Harris functional with IExCor= 1009 and IRadAn=       5 diagonalized for initial guess.
 HarFok:  IExCor= 1009 AccDes= 0.00D+00 IRadAn=         5 IDoV= 1 UseB2=F ITyADJ=14
 ICtDFT=  3500011 ScaDFX=  1.000000  1.000000  1.000000  1.000000
 FoFCou: FMM=F IPFlag=           0 FMFlag=      100000 FMFlg1=           0
         NFxFlg=           0 DoJE=T BraDBF=F KetDBF=T FulRan=T
         wScrn=  0.000000 ICntrl=       500 IOpCl=  0 I1Cent=   200000004 NGrid=           0
         NMat0=    1 NMatS0=      1 NMatT0=    0 NMatD0=    1 NMtDS0=    0 NMtDT0=    0
 Symmetry not used in FoFCou.
 Harris En= -382.172364776913    
 Leave Link  401 at Mon Apr 21 19:07:47 2025, MaxMem=   536870912 cpu:               3.9 elap:               0.6
 (Enter /home/szhao/Apps/g16/l502.exe)
 Keep R1 and R2 ints in memory in canonical form, NReq=18891869.
 FoFCou: FMM=F IPFlag=           0 FMFlag=           0 FMFlg1=           0
         NFxFlg=           0 DoJE=F BraDBF=F KetDBF=F FulRan=T
         wScrn=  0.000000 ICntrl=       600 IOpCl=  0 I1Cent=           0 NGrid=           0
         NMat0=    1 NMatS0=   3403 NMatT0=    0 NMatD0=    1 NMtDS0=    0 NMtDT0=    0
 Symmetry not used in FoFCou.
 Two-electron integral symmetry not used.
 UHF open shell SCF:
 Using DIIS extrapolation, IDIIS=  1040.
 NGot=   536870912 LenX=   525271507 LenY=   525264010
 Requested convergence on RMS density matrix=1.00D-08 within 128 cycles.
 Requested convergence on MAX density matrix=1.00D-06.
 Requested convergence on             energy=1.00D-06.
 No special actions if energy rises.

 Cycle   1  Pass 1  IDiag  1:
 E= -382.236671691201    
 DIIS: error= 9.31D-03 at cycle   1 NSaved=   1.
 NSaved= 1 IEnMin= 1 EnMin= -382.236671691201     IErMin= 1 ErrMin= 9.31D-03
 ErrMax= 9.31D-03  0.00D+00 EMaxC= 1.00D-01 BMatC= 2.13D-02 BMatP= 2.13D-02
 IDIUse=3 WtCom= 9.07D-01 WtEn= 9.31D-02
 Coeff-Com:  0.100D+01
 Coeff-En:   0.100D+01
 Coeff:      0.100D+01
 Gap=     0.414 Goal=   None    Shift=    0.000
 Gap=     0.414 Goal=   None    Shift=    0.000
 GapD=    0.414 DampG=2.000 DampE=1.000 DampFc=2.0000 IDamp=-1.
 RMSDP=1.06D-03 MaxDP=1.96D-02              OVMax= 4.68D-02

 Cycle   2  Pass 1  IDiag  1:
 E= -382.244927642159     Delta-E=       -0.008255950958 Rises=F Damp=F
 DIIS: error= 2.59D-03 at cycle   2 NSaved=   2.
 NSaved= 2 IEnMin= 2 EnMin= -382.244927642159     IErMin= 2 ErrMin= 2.59D-03
 ErrMax= 2.59D-03  0.00D+00 EMaxC= 1.00D-01 BMatC= 5.42D-04 BMatP= 2.13D-02
 IDIUse=3 WtCom= 9.74D-01 WtEn= 2.59D-02
 Coeff-Com: -0.664D-01 0.107D+01
 Coeff-En:   0.000D+00 0.100D+01
 Coeff:     -0.647D-01 0.106D+01
 Gap=     0.094 Goal=   None    Shift=    0.000
 Gap=     0.094 Goal=   None    Shift=    0.000
 RMSDP=4.72D-04 MaxDP=1.16D-02 DE=-8.26D-03 OVMax= 1.70D-02

 Cycle   3  Pass 1  IDiag  1:
 E= -382.245214090016     Delta-E=       -0.000286447857 Rises=F Damp=F
 DIIS: error= 1.21D-03 at cycle   3 NSaved=   3.
 NSaved= 3 IEnMin= 3 EnMin= -382.245214090016     IErMin= 3 ErrMin= 1.21D-03
 ErrMax= 1.21D-03  0.00D+00 EMaxC= 1.00D-01 BMatC= 1.58D-04 BMatP= 5.42D-04
 IDIUse=3 WtCom= 9.88D-01 WtEn= 1.21D-02
 Coeff-Com: -0.343D-01 0.328D+00 0.706D+00
 Coeff-En:   0.000D+00 0.000D+00 0.100D+01
 Coeff:     -0.338D-01 0.324D+00 0.709D+00
 Gap=     0.094 Goal=   None    Shift=    0.000
 Gap=     0.094 Goal=   None    Shift=    0.000
 RMSDP=2.68D-04 MaxDP=9.17D-03 DE=-2.86D-04 OVMax= 2.74D-02

 Cycle   4  Pass 1  IDiag  1:
 E= -382.244854561445     Delta-E=        0.000359528570 Rises=F Damp=F
 DIIS: error= 3.28D-03 at cycle   4 NSaved=   4.
 NSaved= 4 IEnMin= 3 EnMin= -382.245214090016     IErMin= 3 ErrMin= 1.21D-03
 ErrMax= 3.28D-03  0.00D+00 EMaxC= 1.00D-01 BMatC= 1.03D-03 BMatP= 1.58D-04
 IDIUse=3 WtCom= 1.49D-01 WtEn= 8.51D-01
 Coeff-Com: -0.270D-01 0.145D+00 0.660D+00 0.222D+00
 Coeff-En:   0.000D+00 0.000D+00 0.769D+00 0.231D+00
 Coeff:     -0.401D-02 0.215D-01 0.753D+00 0.230D+00
 Gap=     0.094 Goal=   None    Shift=    0.000
 Gap=     0.094 Goal=   None    Shift=    0.000
 RMSDP=1.52D-04 MaxDP=5.23D-03 DE= 3.60D-04 OVMax= 1.57D-02

 Cycle   5  Pass 1  IDiag  1:
 E= -382.245285844298     Delta-E=       -0.000431282853 Rises=F Damp=F
 DIIS: error= 6.29D-04 at cycle   5 NSaved=   5.
 NSaved= 5 IEnMin= 5 EnMin= -382.245285844298     IErMin= 5 ErrMin= 6.29D-04
 ErrMax= 6.29D-04  0.00D+00 EMaxC= 1.00D-01 BMatC= 3.50D-05 BMatP= 1.58D-04
 IDIUse=3 WtCom= 9.94D-01 WtEn= 6.29D-03
 Coeff-Com:  0.212D-02-0.645D-01 0.186D+00-0.102D+00 0.978D+00
 Coeff-En:   0.000D+00 0.000D+00 0.161D+00 0.000D+00 0.839D+00
 Coeff:      0.211D-02-0.641D-01 0.186D+00-0.101D+00 0.977D+00
 Gap=     0.094 Goal=   None    Shift=    0.000
 Gap=     0.094 Goal=   None    Shift=    0.000
 RMSDP=5.05D-05 MaxDP=1.24D-03 DE=-4.31D-04 OVMax= 3.49D-03

 Cycle   6  Pass 1  IDiag  1:
 E= -382.245302701078     Delta-E=       -0.000016856780 Rises=F Damp=F
 DIIS: error= 4.71D-05 at cycle   6 NSaved=   6.
 NSaved= 6 IEnMin= 6 EnMin= -382.245302701078     IErMin= 6 ErrMin= 4.71D-05
 ErrMax= 4.71D-05  0.00D+00 EMaxC= 1.00D-01 BMatC= 5.20D-07 BMatP= 3.50D-05
 IDIUse=1 WtCom= 1.00D+00 WtEn= 0.00D+00
 Coeff-Com:  0.255D-02-0.301D-01 0.739D-02-0.520D-01 0.288D+00 0.784D+00
 Coeff:      0.255D-02-0.301D-01 0.739D-02-0.520D-01 0.288D+00 0.784D+00
 Gap=     0.094 Goal=   None    Shift=    0.000
 Gap=     0.094 Goal=   None    Shift=    0.000
 RMSDP=8.49D-06 MaxDP=1.32D-04 DE=-1.69D-05 OVMax= 5.61D-04

 Cycle   7  Pass 1  IDiag  1:
 E= -382.245303024839     Delta-E=       -0.000000323760 Rises=F Damp=F
 DIIS: error= 1.81D-05 at cycle   7 NSaved=   7.
 NSaved= 7 IEnMin= 7 EnMin= -382.245303024839     IErMin= 7 ErrMin= 1.81D-05
 ErrMax= 1.81D-05  0.00D+00 EMaxC= 1.00D-01 BMatC= 3.27D-08 BMatP= 5.20D-07
 IDIUse=1 WtCom= 1.00D+00 WtEn= 0.00D+00
 Coeff-Com: -0.871D-03 0.147D-01-0.244D-01 0.198D-01-0.176D+00-0.181D+00
 Coeff-Com:  0.135D+01
 Coeff:     -0.871D-03 0.147D-01-0.244D-01 0.198D-01-0.176D+00-0.181D+00
 Coeff:      0.135D+01
 Gap=     0.094 Goal=   None    Shift=    0.000
 Gap=     0.094 Goal=   None    Shift=    0.000
 RMSDP=5.55D-06 MaxDP=9.47D-05 DE=-3.24D-07 OVMax= 4.11D-04

 Cycle   8  Pass 1  IDiag  1:
 E= -382.245303105969     Delta-E=       -0.000000081131 Rises=F Damp=F
 DIIS: error= 1.76D-05 at cycle   8 NSaved=   8.
 NSaved= 8 IEnMin= 8 EnMin= -382.245303105969     IErMin= 8 ErrMin= 1.76D-05
 ErrMax= 1.76D-05  0.00D+00 EMaxC= 1.00D-01 BMatC= 1.08D-08 BMatP= 3.27D-08
 IDIUse=1 WtCom= 1.00D+00 WtEn= 0.00D+00
 Coeff-Com: -0.558D-03 0.935D-02-0.152D-01 0.135D-01-0.112D+00-0.117D+00
 Coeff-Com:  0.836D+00 0.387D+00
 Coeff:     -0.558D-03 0.935D-02-0.152D-01 0.135D-01-0.112D+00-0.117D+00
 Coeff:      0.836D+00 0.387D+00
 Gap=     0.094 Goal=   None    Shift=    0.000
 Gap=     0.094 Goal=   None    Shift=    0.000
 RMSDP=1.59D-06 MaxDP=5.61D-05 DE=-8.11D-08 OVMax= 1.77D-04

 Cycle   9  Pass 1  IDiag  1:
 E= -382.245303140640     Delta-E=       -0.000000034671 Rises=F Damp=F
 DIIS: error= 2.25D-05 at cycle   9 NSaved=   9.
 NSaved= 9 IEnMin= 9 EnMin= -382.245303140640     IErMin= 8 ErrMin= 1.76D-05
 ErrMax= 2.25D-05  0.00D+00 EMaxC= 1.00D-01 BMatC= 1.85D-08 BMatP= 1.08D-08
 IDIUse=1 WtCom= 1.00D+00 WtEn= 0.00D+00
 Coeff-Com: -0.263D-04-0.870D-04 0.255D-02 0.443D-02 0.132D-02-0.148D-01
 Coeff-Com: -0.173D+00 0.329D+01-0.212D+01
 Coeff:     -0.263D-04-0.870D-04 0.255D-02 0.443D-02 0.132D-02-0.148D-01
 Coeff:     -0.173D+00 0.329D+01-0.212D+01
 Gap=     0.094 Goal=   None    Shift=    0.000
 Gap=     0.094 Goal=   None    Shift=    0.000
 RMSDP=4.45D-06 MaxDP=1.55D-04 DE=-3.47D-08 OVMax= 4.91D-04

 Cycle  10  Pass 1  IDiag  1:
 E= -382.245303082167     Delta-E=        0.000000058474 Rises=F Damp=F
 DIIS: error= 1.79D-06 at cycle  10 NSaved=  10.
 NSaved=10 IEnMin= 9 EnMin= -382.245303140640     IErMin=10 ErrMin= 1.79D-06
 ErrMax= 1.79D-06  0.00D+00 EMaxC= 1.00D-01 BMatC= 1.51D-10 BMatP= 1.08D-08
 IDIUse=1 WtCom= 1.00D+00 WtEn= 0.00D+00
 Coeff-Com:  0.309D-04-0.619D-03 0.148D-02-0.151D-03 0.666D-02 0.213D-02
 Coeff-Com: -0.910D-01 0.519D+00-0.358D+00 0.920D+00
 Coeff:      0.309D-04-0.619D-03 0.148D-02-0.151D-03 0.666D-02 0.213D-02
 Coeff:     -0.910D-01 0.519D+00-0.358D+00 0.920D+00
 Gap=     0.094 Goal=   None    Shift=    0.000
 Gap=     0.094 Goal=   None    Shift=    0.000
 RMSDP=2.80D-07 MaxDP=8.25D-06 DE= 5.85D-08 OVMax= 2.53D-05

 Cycle  11  Pass 1  IDiag  1:
 E= -382.245303082159     Delta-E=        0.000000000007 Rises=F Damp=F
 DIIS: error= 1.39D-07 at cycle  11 NSaved=  11.
 NSaved=11 IEnMin= 9 EnMin= -382.245303140640     IErMin=11 ErrMin= 1.39D-07
 ErrMax= 1.39D-07  0.00D+00 EMaxC= 1.00D-01 BMatC= 5.92D-12 BMatP= 1.51D-10
 IDIUse=1 WtCom= 1.00D+00 WtEn= 0.00D+00
 Coeff-Com:  0.644D-05-0.842D-04 0.966D-04-0.277D-03 0.862D-03 0.144D-02
 Coeff-Com:  0.481D-02-0.151D+00 0.938D-01 0.905D-01 0.960D+00
 Coeff:      0.644D-05-0.842D-04 0.966D-04-0.277D-03 0.862D-03 0.144D-02
 Coeff:      0.481D-02-0.151D+00 0.938D-01 0.905D-01 0.960D+00
 Gap=     0.094 Goal=   None    Shift=    0.000
 Gap=     0.094 Goal=   None    Shift=    0.000
 RMSDP=4.86D-08 MaxDP=9.40D-07 DE= 7.45D-12 OVMax= 2.37D-06

 Cycle  12  Pass 1  IDiag  1:
 E= -382.245303082163     Delta-E=       -0.000000000003 Rises=F Damp=F
 DIIS: error= 6.13D-08 at cycle  12 NSaved=  12.
 NSaved=12 IEnMin= 9 EnMin= -382.245303140640     IErMin=12 ErrMin= 6.13D-08
 ErrMax= 6.13D-08  0.00D+00 EMaxC= 1.00D-01 BMatC= 5.85D-13 BMatP= 5.92D-12
 IDIUse=1 WtCom= 1.00D+00 WtEn= 0.00D+00
 Coeff-Com: -0.700D-06 0.206D-04-0.655D-04 0.212D-04-0.319D-03-0.230D-04
 Coeff-Com:  0.346D-02-0.324D-01 0.219D-01-0.330D-01 0.412D-01 0.999D+00
 Coeff:     -0.700D-06 0.206D-04-0.655D-04 0.212D-04-0.319D-03-0.230D-04
 Coeff:      0.346D-02-0.324D-01 0.219D-01-0.330D-01 0.412D-01 0.999D+00
 Gap=     0.094 Goal=   None    Shift=    0.000
 Gap=     0.094 Goal=   None    Shift=    0.000
 RMSDP=1.19D-08 MaxDP=1.80D-07 DE=-3.41D-12 OVMax= 6.17D-07

 Cycle  13  Pass 1  IDiag  1:
 E= -382.245303082164     Delta-E=       -0.000000000001 Rises=F Damp=F
 DIIS: error= 5.81D-09 at cycle  13 NSaved=  13.
 NSaved=13 IEnMin= 9 EnMin= -382.245303140640     IErMin=13 ErrMin= 5.81D-09
 ErrMax= 5.81D-09  0.00D+00 EMaxC= 1.00D-01 BMatC= 1.42D-14 BMatP= 5.85D-13
[...]
 InvSVX:  RCond= 9.40D-10 Info=           0 Equed=N FErr=  3.89D-11 BErr=  5.81D-17
 DIIS inversion failure, remove point   5.
 InvSVX:  RCond= 7.13D-08 Info=           0 Equed=N FErr=  1.09D-13 BErr=  6.11D-17
 DIIS inversion failure, remove point   4.
 InvSVX:  RCond= 1.00D-07 Info=           0 Equed=N FErr=  8.10D-14 BErr=  1.14D-17
 RFO-DIIS uses    3 points instead of    9
 DidBck=F Rises=F RFO-DIIS coefs:    1.81489   -1.15568    0.34079    0.00000    0.00000
                  RFO-DIIS coefs:    0.00000    0.00000    0.00000    0.00000
 Iteration  1 RMS(Cart)=  0.00042843 RMS(Int)=  0.00000043
 Iteration  2 RMS(Cart)=  0.00000010 RMS(Int)=  0.00000041
 ITry= 1 IFail=0 DXMaxC= 1.14D-03 DCOld= 1.00D+10 DXMaxT= 8.49D-01 DXLimC= 3.00D+00 Rises=F
 Variable       Old X    -DE/DX   Delta X   Delta X   Delta X     New X
                                 (Linear)    (Quad)   (Total)
    X1       -4.02750  -0.00001   0.00000   0.00000   0.00000  -4.02750
    Y1        0.00000   0.00008   0.00000   0.00000   0.00000   0.00000
    Z1        0.00000  -0.00009   0.00000   0.00000   0.00000   0.00000
    X2        4.02750  -0.00000   0.00000   0.00000   0.00000   4.02750
    Y2        0.00000   0.00001   0.00000   0.00000   0.00000   0.00000
    Z2        0.00000  -0.00001   0.00000   0.00000   0.00000   0.00000
    R1        2.04127   0.00000   0.00014  -0.00009   0.00006   2.04133
    R2        2.04127   0.00000   0.00014  -0.00009   0.00006   2.04133
    R3        2.04151  -0.00002   0.00006  -0.00009  -0.00003   2.04148
    R4        2.68265  -0.00000  -0.00003   0.00001  -0.00001   2.68263
    R5        2.68259  -0.00000  -0.00003   0.00001  -0.00001   2.68258
    A1        1.59199   0.00001   0.00024  -0.00009   0.00015   1.59215
    A2        1.59205   0.00001   0.00026  -0.00008   0.00019   1.59223
    A3        1.62658   0.00000  -0.00067   0.00045  -0.00022   1.62636
    A4        2.09210  -0.00005  -0.00057  -0.00010  -0.00067   2.09144
    A5        2.09277   0.00002   0.00029   0.00003   0.00032   2.09309
    A6        2.09275   0.00002   0.00029   0.00003   0.00033   2.09307
    A7        1.51461  -0.00001  -0.00034   0.00015  -0.00020   1.51441
    A8        1.51429  -0.00000  -0.00035   0.00016  -0.00019   1.51410
    A9        1.60288   0.00001   0.00003   0.00003   0.00006   1.60294
    D1        2.90629   0.00003   0.00073   0.00027   0.00100   2.90729
    D2        1.30012   0.00002   0.00065   0.00026   0.00092   1.30104
    D3       -1.28402  -0.00002   0.00018   0.00017   0.00035  -1.28367
    D4       -2.89018  -0.00003   0.00010   0.00016   0.00026  -2.88992
    D5        0.81112   0.00000   0.00045   0.00022   0.00068   0.81180
    D6       -0.79504  -0.00000   0.00038   0.00021   0.00059  -0.79445
         Item               Value     Threshold  Converged?
 Maximum Force            0.000047     0.000450     YES
 RMS     Force            0.000017     0.000300     YES
 Maximum Displacement     0.001141     0.001800     YES
 RMS     Displacement     0.000428     0.001200     YES
 Predicted change in Energy=-3.451356D-08
 Optimization completed.
    -- Stationary point found.
                           ----------------------------
                           !   Optimized Parameters   !
                           ! (Angstroms and Degrees)  !
 --------------------------                            --------------------------
 ! Name  Definition              Value          Derivative Info.                !
 --------------------------------------------------------------------------------
 ! X1    R(1,-1)                -2.1313         -DE/DX =    0.0                 !
 ! Y1    R(1,-2)                 0.0            -DE/DX =    0.0001              !
 ! Z1    R(1,-3)                 0.0            -DE/DX =   -0.0001              !
 ! X2    R(2,-1)                 2.1313         -DE/DX =    0.0                 !
 ! Y2    R(2,-2)                 0.0            -DE/DX =    0.0                 !
 ! Z2    R(2,-3)                 0.0            -DE/DX =    0.0                 !
 ! R1    R(1,4)                  1.0802         -DE/DX =    0.0                 !
 ! R2    R(1,6)                  1.0802         -DE/DX =    0.0                 !
 ! R3    R(1,7)                  1.0803         -DE/DX =    0.0                 !
 ! R4    R(2,3)                  1.4196         -DE/DX =    0.0                 !
 ! R5    R(2,5)                  1.4196         -DE/DX =    0.0                 !
 ! A1    A(2,1,4)               91.2145         -DE/DX =    0.0                 !
 ! A2    A(2,1,6)               91.2175         -DE/DX =    0.0                 !
 ! A3    A(2,1,7)               93.1961         -DE/DX =    0.0                 !
 ! A4    A(4,1,6)              119.8687         -DE/DX =    0.0                 !
 ! A5    A(4,1,7)              119.9068         -DE/DX =    0.0                 !
 ! A6    A(6,1,7)              119.9055         -DE/DX =    0.0                 !
 ! A7    A(1,2,3)               86.7805         -DE/DX =    0.0                 !
 ! A8    A(1,2,5)               86.7626         -DE/DX =    0.0                 !
 ! A9    A(3,2,5)               91.8382         -DE/DX =    0.0                 !
 ! D1    D(4,1,2,3)            166.5179         -DE/DX =    0.0                 !
 ! D2    D(4,1,2,5)             74.4914         -DE/DX =    0.0                 !
 ! D3    D(6,1,2,3)            -73.5688         -DE/DX =    0.0                 !
 ! D4    D(6,1,2,5)           -165.5953         -DE/DX =    0.0                 !
 ! D5    D(7,1,2,3)             46.474          -DE/DX =    0.0                 !
 ! D6    D(7,1,2,5)            -45.5525         -DE/DX =    0.0                 !
 --------------------------------------------------------------------------------
 Lowest energy point so far.  Saving SCF results.
 Largest change from initial coordinates is atom    7       0.384 Angstoms.
 GradGradGradGradGradGradGradGradGradGradGradGradGradGradGradGradGradGrad

 Leave Link  103 at Mon Apr 21 19:10:09 2025, MaxMem=   536870912 cpu:               0.7 elap:               0.2
 (Enter /home/szhao/Apps/g16/l202.exe)
                          Input orientation:                          
 ---------------------------------------------------------------------
 Center     Atomic      Atomic             Coordinates (Angstroms)
 Number     Number       Type             X           Y           Z
 ---------------------------------------------------------------------
      1          6           0       -2.131264    0.000000    0.000000
      2         15           0        2.131264    0.000000    0.000000
      3          1           0        2.051537   -1.417161    0.023417
      4          1           0       -2.154159    1.054207    0.234396
      5          1           0        2.051095    0.073512    1.415393
      6          1           0       -2.154215   -0.322552   -1.030658
      7          1           0       -2.191495   -0.729820    0.794248
 ---------------------------------------------------------------------
                    Distance matrix (angstroms):
                    1          2          3          4          5
     1  C    0.000000
     2  P    4.262527   0.000000
     3  H    4.416414   1.419595   0.000000
     4  H    1.080193   4.419405   4.882627   0.000000
     5  H    4.415978   1.419566   2.039535   4.476681   0.000000
     6  H    1.080195   4.419460   4.471867   1.869713   4.881052
     7  H    1.080322   4.455301   4.366914   1.870182   4.362423
                    6          7
     6  H    0.000000
     7  H    1.870171   0.000000
 Symmetry turned off by external request.
 Stoichiometry    CH5P
 Framework group  C1[X(CH5P)]
 Deg. of freedom    15
 Full point group                 C1      NOp   1
 Rotational constants (GHZ):          67.7660882           2.6404702           2.6369193
 Leave Link  202 at Mon Apr 21 19:10:09 2025, MaxMem=   536870912 cpu:               0.1 elap:               0.1
 (Enter /home/szhao/Apps/g16/l601.exe)
 Copying SCF densities to generalized density rwf, IOpCl= 1 IROHF=0.

 **********************************************************************

            Population analysis using the SCF density.

 **********************************************************************

 Alpha  occ. eigenvalues --  -78.03028 -10.59794  -6.85446  -4.96970  -4.96894
 Alpha  occ. eigenvalues --   -4.96712  -0.79158  -0.69370  -0.51353  -0.51314
 Alpha  occ. eigenvalues --   -0.43534  -0.34632  -0.22999
 Alpha virt. eigenvalues --   -0.13591   0.02124   0.03781   0.03977   0.04501
 Alpha virt. eigenvalues --    0.06157   0.06634   0.07230   0.07339   0.11079
 Alpha virt. eigenvalues --    0.16589   0.18029   0.18082   0.22639   0.30513
 Alpha virt. eigenvalues --    0.31388   0.32835   0.38710   0.42680   0.42766
 Alpha virt. eigenvalues --    0.45831   0.49361   0.59300   0.62292   0.64176
 Alpha virt. eigenvalues --    0.64300   0.65532   0.69030   0.69876   0.78781
 Alpha virt. eigenvalues --    0.89036   0.96731   1.08589   1.08633   1.39558
 Alpha virt. eigenvalues --    1.42424   1.44756   1.44953   1.45602   1.49668
 Alpha virt. eigenvalues --    1.50119   1.54190   1.62628   1.63642   1.68366
 Alpha virt. eigenvalues --    1.70104   1.92062   1.92076   1.98317   1.98340
 Alpha virt. eigenvalues --    2.03192   2.12041   2.44002   2.46022   2.46043
 Alpha virt. eigenvalues --    2.57812   2.63938   2.65172   2.65218   2.73758
 Alpha virt. eigenvalues --    2.81310   3.74308   3.74391   7.02565  14.01699
 Alpha virt. eigenvalues --   14.05200  14.05499  23.95155 163.29696
  Beta  occ. eigenvalues --  -78.03028 -10.59794  -6.85446  -4.96970  -4.96894
  Beta  occ. eigenvalues --   -4.96712  -0.79158  -0.69370  -0.51353  -0.51314
  Beta  occ. eigenvalues --   -0.43534  -0.34632  -0.22999
  Beta virt. eigenvalues --   -0.13591   0.02124   0.03781   0.03977   0.04501
  Beta virt. eigenvalues --    0.06157   0.06634   0.07230   0.07339   0.11079
  Beta virt. eigenvalues --    0.16589   0.18029   0.18082   0.22639   0.30513
  Beta virt. eigenvalues --    0.31388   0.32835   0.38710   0.42680   0.42766
  Beta virt. eigenvalues --    0.45831   0.49361   0.59300   0.62292   0.64176
  Beta virt. eigenvalues --    0.64300   0.65532   0.69030   0.69876   0.78781
  Beta virt. eigenvalues --    0.89036   0.96731   1.08589   1.08633   1.39558
  Beta virt. eigenvalues --    1.42424   1.44756   1.44953   1.45602   1.49668
  Beta virt. eigenvalues --    1.50119   1.54190   1.62628   1.63642   1.68366
  Beta virt. eigenvalues --    1.70104   1.92062   1.92076   1.98317   1.98340
  Beta virt. eigenvalues --    2.03192   2.12041   2.44002   2.46022   2.46043
  Beta virt. eigenvalues --    2.57812   2.63938   2.65172   2.65218   2.73758
  Beta virt. eigenvalues --    2.81310   3.74308   3.74391   7.02565  14.01699
  Beta virt. eigenvalues --   14.05200  14.05499  23.95155 163.29696
          Condensed to atoms (all electrons):
               1          2          3          4          5          6
     1  C    5.221493   0.100465  -0.003722   0.392214  -0.003722   0.392209
     2  P    0.100465  14.435223   0.259461  -0.001584   0.259451  -0.001589
     3  H   -0.003722   0.259461   0.775335   0.000056  -0.023938   0.000087
     4  H    0.392214  -0.001584   0.000056   0.469227   0.000087  -0.022239
     5  H   -0.003722   0.259451  -0.023938   0.000087   0.775344   0.000056
     6  H    0.392209  -0.001589   0.000087  -0.022239   0.000056   0.469274
     7  H    0.390839  -0.002324   0.000108  -0.023097   0.000109  -0.023104
               7
     1  C    0.390839
     2  P   -0.002324
     3  H    0.000108
     4  H   -0.023097
     5  H    0.000109
     6  H   -0.023104
     7  H    0.474458
          Atomic-Atomic Spin Densities.
               1          2          3          4          5          6
     1  C   -0.000000   0.000000   0.000000  -0.000000   0.000000  -0.000000
     2  P    0.000000   0.000000   0.000000  -0.000000  -0.000000  -0.000000
     3  H    0.000000   0.000000  -0.000000   0.000000   0.000000   0.000000
     4  H   -0.000000  -0.000000   0.000000   0.000000   0.000000   0.000000
     5  H    0.000000  -0.000000   0.000000   0.000000  -0.000000   0.000000
     6  H   -0.000000  -0.000000   0.000000   0.000000   0.000000   0.000000
     7  H    0.000000  -0.000000   0.000000  -0.000000   0.000000  -0.000000
               7
     1  C    0.000000
     2  P   -0.000000
     3  H    0.000000
     4  H   -0.000000
     5  H    0.000000
     6  H   -0.000000
     7  H    0.000000
 Mulliken charges and spin densities:
               1          2
     1  C   -0.489776  -0.000000
     2  P   -0.049102   0.000000
     3  H   -0.007386  -0.000000
     4  H    0.185336   0.000000
     5  H   -0.007386  -0.000000
     6  H    0.185305   0.000000
     7  H    0.183010   0.000000
 Sum of Mulliken charges =  -0.00000  -0.00000
 Mulliken charges and spin densities with hydrogens summed into heavy atoms:
               1          2
     1  C    0.063875  -0.000000
     2  P   -0.063875   0.000000
 Electronic spatial extent (au):  <R**2>=            497.9681
 Charge=             -0.0000 electrons
 Dipole moment (field-independent basis, Debye):
    X=             -1.7486    Y=             -0.5789    Z=              0.6199  Tot=              1.9434
 Quadrupole moment (field-independent basis, Debye-Ang):
   XX=            -22.4844   YY=            -22.4379   ZZ=            -22.5345
   XY=             -1.3320   XZ=              1.4255   YZ=              0.7046
 Traceless Quadrupole moment (field-independent basis, Debye-Ang):
   XX=              0.0012   YY=              0.0477   ZZ=             -0.0489
   XY=             -1.3320   XZ=              1.4255   YZ=              0.7046
 Octapole moment (field-independent basis, Debye-Ang**2):
  XXX=            -52.6061  YYY=              3.7105  ZZZ=             -3.6931  XYY=            -17.1821
  XXY=             -2.4452  XXZ=              2.6186  XZZ=            -17.3882  YZZ=             -0.0318
  YYZ=             -0.2457  XYZ=              1.5030
 Hexadecapole moment (field-independent basis, Debye-Ang**3):
 XXXX=           -706.3687 YYYY=            -49.2433 ZZZZ=            -49.5447 XXXY=             -1.7699
 XXXZ=              1.8826 YYYX=              3.7116 YYYZ=              1.0577 ZZZX=             -4.4922
 ZZZY=              1.1476 XXYY=           -114.0893 XXZZ=           -114.5553 YYZZ=            -16.8984
 XXYZ=              3.4199 YYXZ=             -3.2636 ZZXY=              3.5320
 N-N= 3.978987928928D+01 E-N=-9.860330964069D+02  KE= 3.814765932085D+02
                          Isotropic Fermi Contact Couplings
        Atom                 a.u.       MegaHertz       Gauss      10(-4) cm-1
     1  C(13)             -0.00000      -0.00000      -0.00000      -0.00000
     2  P(31)             -0.00000      -0.00000      -0.00000      -0.00000
     3  H(1)              -0.00000      -0.00000      -0.00000      -0.00000
     4  H(1)               0.00000       0.00000       0.00000       0.00000
     5  H(1)              -0.00000      -0.00000      -0.00000      -0.00000
     6  H(1)               0.00000       0.00000       0.00000       0.00000
     7  H(1)               0.00000       0.00000       0.00000       0.00000
 --------------------------------------------------------
       Center         ----  Spin Dipole Couplings  ----
                      3XX-RR        3YY-RR        3ZZ-RR
 --------------------------------------------------------
     1   Atom       -0.000000      0.000000      0.000000
     2   Atom        0.000000     -0.000000     -0.000000
     3   Atom        0.000000      0.000000     -0.000000
     4   Atom        0.000000     -0.000000      0.000000
     5   Atom        0.000000     -0.000000      0.000000
     6   Atom        0.000000      0.000000     -0.000000
     7   Atom        0.000000      0.000000     -0.000000
 --------------------------------------------------------
                        XY            XZ            YZ
 --------------------------------------------------------
     1   Atom        0.000000     -0.000000      0.000000
     2   Atom       -0.000000      0.000000      0.000000
     3   Atom        0.000000      0.000000      0.000000
     4   Atom       -0.000000     -0.000000     -0.000000
     5   Atom       -0.000000     -0.000000      0.000000
     6   Atom        0.000000      0.000000     -0.000000
     7   Atom       -0.000000      0.000000      0.000000
 --------------------------------------------------------


 ---------------------------------------------------------------------------------
              Anisotropic Spin Dipole Couplings in Principal Axis System
 ---------------------------------------------------------------------------------

       Atom             a.u.   MegaHertz   Gauss  10(-4) cm-1        Axes

              Baa    -0.0000    -0.000    -0.000    -0.000  0.9945 -0.0710  0.0769
     1 C(13)  Bbb     0.0000     0.000     0.000     0.000 -0.0001  0.7339  0.6792
              Bcc     0.0000     0.000     0.000     0.000 -0.1047 -0.6755  0.7299
 
              Baa    -0.0000    -0.000    -0.000    -0.000 -0.0430 -0.5155  0.8558
     2 P(31)  Bbb    -0.0000    -0.000    -0.000    -0.000  0.0087  0.8564  0.5163
              Bcc     0.0000     0.000     0.000     0.000  0.9990 -0.0296  0.0323
 
              Baa    -0.0000    -0.000    -0.000    -0.000 -0.0544 -0.0113  0.9985
     3 H(1)   Bbb     0.0000     0.000     0.000     0.000  0.9924 -0.1111  0.0528
              Bcc     0.0000     0.000     0.000     0.000  0.1103  0.9937  0.0173
 
              Baa    -0.0000    -0.000    -0.000    -0.000  0.1053  0.9705  0.2169
     4 H(1)   Bbb     0.0000     0.000     0.000     0.000  0.9924 -0.1165  0.0394
              Bcc     0.0000     0.000     0.000     0.000 -0.0635 -0.2111  0.9754
 
              Baa    -0.0000    -0.000    -0.000    -0.000  0.0540  0.9955 -0.0784
     5 H(1)   Bbb     0.0000     0.000     0.000     0.000  0.9922 -0.0447  0.1162
              Bcc     0.0000     0.000     0.000     0.000 -0.1122  0.0840  0.9901
 
              Baa    -0.0000    -0.000    -0.000    -0.000 -0.1045  0.2981  0.9488
     6 H(1)   Bbb     0.0000     0.000     0.000     0.000  0.9925 -0.0299  0.1187
              Bcc     0.0000     0.000     0.000     0.000  0.0637  0.9541 -0.2927
 
              Baa    -0.0000    -0.000    -0.000    -0.000 -0.2087 -0.6617  0.7202
     7 H(1)   Bbb     0.0000     0.000     0.000     0.000  0.9780 -0.1413  0.1536
              Bcc     0.0000     0.000     0.000     0.000  0.0002  0.7364  0.6766
 

 ---------------------------------------------------------------------------------

 No NMR shielding tensors so no spin-rotation constants.
 Leave Link  601 at Mon Apr 21 19:10:09 2025, MaxMem=   536870912 cpu:               1.8 elap:               0.3
 (Enter /home/szhao/Apps/g16/l9999.exe)
 1\1\GINC-NODE06\FOpt\UM062X\6-311+G(d,p)\C1H5P1\SZHAO\21-Apr-2025\0\\#
 p opt UM062X/6-311+G** nosymm int=superfine\\Title Card Required\\0,1\
 C,-2.13126351,0.,0.\P,2.13126351,0.,0.\H,2.0515367881,-1.4171607685,0.
 0234168375\H,-2.1541588217,1.0542067378,0.234396444\H,2.0510948946,0.0
 735122628,1.415392978\H,-2.1542152423,-0.3225516906,-1.0306578442\H,-2
 .1914947754,-0.7298199454,0.7942483085\\Version=ES64L-G16RevA.03\HF=-3
 82.2455799\S2=0.\S2-1=0.\S2A=0.\RMSD=5.545e-09\RMSF=1.791e-05\Dipole=-
 0.6879516,-0.2277398,0.2438894\Quadrupole=0.0008688,0.035487,-0.036355
 8,-0.9902782,1.059788,0.523826\PG=C01 [X(C1H5P1)]\\@



 WE LOSE BECAUSE WE WIN

 GAMBLERS,

 RECOLLECTING WHICH,

 TOSS THEIR DICE AGAIN....


                          EMILY DICKINSON  BOLTS OF MELODY NO. 533
 Job cpu time:       0 days  0 hours 19 minutes 35.6 seconds.
 Elapsed time:       0 days  0 hours  2 minutes 40.2 seconds.
 File lengths (MBytes):  RWF=     22 Int=      0 D2E=      0 Chk=      3 Scr=      2
 Normal termination of Gaussian 16 at Mon Apr 21 19:10:10 2025.
