 Entering Gaussian System, Link 0=g16
 Initial command:
 /home/szhao/Apps/g16/l1.exe "/home/szhao/tmp/Gau-94414.inp" -scrdir="/home/szhao/tmp/"
 Default is to use a total of  16 processors:
                               16 via shared-memory
                                1 via Linda
 Entering Link 1 = /home/szhao/Apps/g16/l1.exe PID=     94415.
  
 Copyright (c) 1988,1990,1992,1993,1995,1998,2003,2009,2016,
            Gaussian, Inc.  All Rights Reserved.
  
 This is part of the Gaussian(R) 16 program.  It is based on
 the Gaussian(R) 09 system (copyright 2009, Gaussian, Inc.),
 the Gaussian(R) 03 system (copyright 2003, Gaussian, Inc.),
 the Gaussian(R) 98 system (copyright 1998, Gaussian, Inc.),
 the Gaussian(R) 94 system (copyright 1995, Gaussian, Inc.),
 the Gaussian 92(TM) system (copyright 1992, Gaussian, Inc.),
 the Gaussian 90(TM) system (copyright 1990, Gaussian, Inc.),
 the Gaussian 88(TM) system (copyright 1988, Gaussian, Inc.),
 the Gaussian 86(TM) system (copyright 1986, Carnegie Mellon
 University), and the Gaussian 82(TM) system (copyright 1983,
 Carnegie Mellon University). Gaussian is a federally registered
 trademark of Gaussian, Inc.
  
 This software contains proprietary and confidential information,
 including trade secrets, belonging to Gaussian, Inc.
  
 This software is provided under written license and may be
 used, copied, transmitted, or stored only in accord with that
 written license.
  
 The following legend is applicable only to US Government
 contracts under FAR:
  
                    RESTRICTED RIGHTS LEGEND
  
 Use, reproduction and disclosure by the US Government is
 subject to restrictions as set forth in subparagraphs (a)
 and (c) of the Commercial Computer Software - Restricted
 Rights clause in FAR 52.227-19.
  
 Gaussian, Inc.
 340 Quinnipiac St., Bldg. 40, Wallingford CT 06492
  
  
 ---------------------------------------------------------------
 Warning -- This program may not be used in any manner that
 competes with the business of Gaussian, Inc. or will provide
 assistance to any competitor of Gaussian, Inc.  The licensee
 of this program is prohibited from giving any competitor of
 Gaussian, Inc. access to this program.  By using this program,
 the user acknowledges that Gaussian, Inc. is engaged in the
 business of creating and licensing software in the field of
 computational chemistry and represents and warrants to the
 licensee that it is not a competitor of Gaussian, Inc. and that
 it will not use this program in any manner prohibited above.
 ---------------------------------------------------------------
  

 Cite this work as:
 Gaussian 16, Revision A.03,
 M. J. Frisch, G. W. Trucks, H. B. Schlegel, G. E. Scuseria, 
 M. A. Robb, J. R. Cheeseman, G. Scalmani, V. Barone, 
 G. A. Petersson, H. Nakatsuji, X. Li, M. Caricato, A. V. Marenich, 
 J. Bloino, B. G. Janesko, R. Gomperts, B. Mennucci, H. P. Hratchian, 
 J. V. Ortiz, A. F. Izmaylov, J. L. Sonnenberg, D. Williams-Young, 
 F. Ding, F. Lipparini, F. Egidi, J. Goings, B. Peng, A. Petrone, 
 T. Henderson, D. Ranasinghe, V. G. Zakrzewski, J. Gao, N. Rega, 
 G. Zheng, W. Liang, M. Hada, M. Ehara, K. Toyota, R. Fukuda, 
 J. Hasegawa, M. Ishida, T. Nakajima, Y. Honda, O. Kitao, H. Nakai, 
 T. Vreven, K. Throssell, J. A. Montgomery, Jr., J. E. Peralta, 
 F. Ogliaro, M. J. Bearpark, J. J. Heyd, E. N. Brothers, K. N. Kudin, 
 V. N. Staroverov, T. A. Keith, R. Kobayashi, J. Normand, 
 K. Raghavachari, A. P. Rendell, J. C. Burant, S. S. Iyengar, 
 J. Tomasi, M. Cossi, J. M. Millam, M. Klene, C. Adamo, R. Cammi, 
 J. W. Ochterski, R. L. Martin, K. Morokuma, O. Farkas, 
 J. B. Foresman, and D. J. Fox, Gaussian, Inc., Wallingford CT, 2016.
 
 ******************************************
 Gaussian 16:  ES64L-G16RevA.03 25-Dec-2016
                21-Apr-2025 
 ******************************************
 %chk=force.chk
 %mem=4GB
 %nprocshared=8
 Will use up to    8 processors via shared memory.
 ---------------------------------------------------
 #p UM062X/6-311+G** force int=superfine pop=saveNBO
 ---------------------------------------------------
 1/10=7,30=1,38=1/1,3;
 2/12=2,17=6,18=5,40=1/2;
 3/5=4,6=6,7=111,11=2,25=1,30=1,71=1,74=-55,75=-7,116=2/1,2,3;
 4//1;
 5/5=2,38=5/2;
 6/7=2,8=2,9=2,10=2,28=1,40=1,73=1/1,7;
 7/29=1/1,2,3,16;
 1/10=7,30=1/3;
 99//99;
 Leave Link    1 at Mon Apr 21 19:46:02 2025, MaxMem=   536870912 cpu:               1.2 elap:               0.1
 (Enter /home/szhao/Apps/g16/l101.exe)
 -------------------
 Title Card Required
 -------------------
 Symbolic Z-matrix:
 Charge =  0 Multiplicity = 1
 C                    -1.9393    0.        0. 
 S                     1.9393    0.        0. 
 
 ITRead=  0  0
 MicOpt= -1 -1
 NAtoms=      2 NQM=        2 NQMF=       0 NMMI=      0 NMMIF=      0
                NMic=       0 NMicF=      0.
                    Isotopes and Nuclear Properties:
 (Nuclear quadrupole moments (NQMom) in fm**2, nuclear magnetic moments (NMagM)
  in nuclear magnetons)

  Atom         1           2
 IAtWgt=          12          32
 AtmWgt=  12.0000000  31.9720718
 NucSpn=           0           0
 AtZEff=  -0.0000000  -0.0000000
 NQMom=    0.0000000   0.0000000
 NMagM=    0.0000000   0.0000000
 AtZNuc=   6.0000000  16.0000000
 Leave Link  101 at Mon Apr 21 19:46:03 2025, MaxMem=   536870912 cpu:               2.0 elap:               0.3
 (Enter /home/szhao/Apps/g16/l103.exe)

 GradGradGradGradGradGradGradGradGradGradGradGradGradGradGradGradGradGrad
 Berny optimization.
 Initialization pass.
 Trust Radius=3.00D-01 FncErr=1.00D-07 GrdErr=1.00D-07 EigMax=2.50D+02 EigMin=1.00D-04
 Number of steps in this run=      2 maximum allowed number of steps=      2.
 GradGradGradGradGradGradGradGradGradGradGradGradGradGradGradGradGradGrad

 Leave Link  103 at Mon Apr 21 19:46:03 2025, MaxMem=   536870912 cpu:               0.3 elap:               0.1
 (Enter /home/szhao/Apps/g16/l202.exe)
                          Input orientation:                          
 ---------------------------------------------------------------------
 Center     Atomic      Atomic             Coordinates (Angstroms)
 Number     Number       Type             X           Y           Z
 ---------------------------------------------------------------------
      1          6           0       -1.939296    0.000000    0.000000
      2         16           0        1.939296    0.000000    0.000000
 ---------------------------------------------------------------------
 Stoichiometry    CS
 Framework group  C*V[C*(CS)]
 Deg. of freedom     1
 Full point group                 C*V     NOp   4
 Largest Abelian subgroup         C2V     NOp   4
 Largest concise Abelian subgroup C1      NOp   1
                         Standard orientation:                         
 ---------------------------------------------------------------------
 Center     Atomic      Atomic             Coordinates (Angstroms)
 Number     Number       Type             X           Y           Z
 ---------------------------------------------------------------------
      1          6           0        0.000000    0.000000   -2.820794
      2         16           0        0.000000    0.000000    1.057798
 ---------------------------------------------------------------------
 Rotational constants (GHZ):           0.0000000           3.8502941           3.8502941
 Leave Link  202 at Mon Apr 21 19:46:03 2025, MaxMem=   536870912 cpu:               0.1 elap:               0.0
 (Enter /home/szhao/Apps/g16/l301.exe)
 Standard basis: 6-311+G(d,p) (5D, 7F)
 Ernie: Thresh=  0.10000D-02 Tol=  0.10000D-05 Strict=F.
 There are    28 symmetry adapted cartesian basis functions of A1  symmetry.
 There are     2 symmetry adapted cartesian basis functions of A2  symmetry.
 There are    12 symmetry adapted cartesian basis functions of B1  symmetry.
 There are    12 symmetry adapted cartesian basis functions of B2  symmetry.
 There are    26 symmetry adapted basis functions of A1  symmetry.
 There are     2 symmetry adapted basis functions of A2  symmetry.
 There are    12 symmetry adapted basis functions of B1  symmetry.
 There are    12 symmetry adapted basis functions of B2  symmetry.
    52 basis functions,    86 primitive gaussians,    54 cartesian basis functions
    11 alpha electrons       11 beta electrons
       nuclear repulsion energy        13.0977974090 Hartrees.
 IExCor= 4336 DFT=T Ex+Corr=M062X ExCW=0 ScaHFX=  0.540000
 ScaDFX=  1.000000  1.000000  1.000000  1.000000 ScalE2=  1.000000  1.000000
 IRadAn=      7 IRanWt=     -1 IRanGd=            0 ICorTp=0 IEmpDi=  4
 NAtoms=    2 NActive=    2 NUniq=    2 SFac= 1.00D+00 NAtFMM=   60 NAOKFM=F Big=F
 Integral buffers will be    131072 words long.
 Raffenetti 2 integral format.
 Two-electron integral symmetry is turned on.
 Leave Link  301 at Mon Apr 21 19:46:04 2025, MaxMem=   536870912 cpu:               1.2 elap:               0.2
 (Enter /home/szhao/Apps/g16/l302.exe)
 NPDir=0 NMtPBC=     1 NCelOv=     1 NCel=       1 NClECP=     1 NCelD=      1
         NCelK=      1 NCelE2=     1 NClLst=     1 CellRange=     0.0.
 One-electron integrals computed using PRISM.
 One-electron integral symmetry used in STVInt
 NBasis=    52 RedAO= T EigKep=  2.65D-02  NBF=    26     2    12    12
 NBsUse=    52 1.00D-06 EigRej= -1.00D+00 NBFU=    26     2    12    12
 Precomputing XC quadrature grid using
 IXCGrd= 4 IRadAn=           7 IRanWt=          -1 IRanGd=           0 AccXCQ= 0.00D+00.
 Generated NRdTot=       0 NPtTot=           0 NUsed=           0 NTot=          32
 NSgBfM=    51    49    49    51    51 MxSgAt=     2 MxSgA2=     2.
 Leave Link  302 at Mon Apr 21 19:46:04 2025, MaxMem=   536870912 cpu:               1.5 elap:               0.2
 (Enter /home/szhao/Apps/g16/l303.exe)
 DipDrv:  MaxL=1.
 Leave Link  303 at Mon Apr 21 19:46:04 2025, MaxMem=   536870912 cpu:               0.5 elap:               0.1
 (Enter /home/szhao/Apps/g16/l401.exe)
 ExpMin= 4.05D-02 ExpMax= 9.34D+04 ExpMxC= 3.17D+03 IAcc=3 IRadAn=         7 AccDes= 0.00D+00
 Harris functional with IExCor= 1009 and IRadAn=       7 diagonalized for initial guess.
 HarFok:  IExCor= 1009 AccDes= 0.00D+00 IRadAn=         7 IDoV= 1 UseB2=F ITyADJ=14
 ICtDFT=  3500011 ScaDFX=  1.000000  1.000000  1.000000  1.000000
 FoFCou: FMM=F IPFlag=           0 FMFlag=      100000 FMFlg1=           0
         NFxFlg=           0 DoJE=T BraDBF=F KetDBF=T FulRan=T
         wScrn=  0.000000 ICntrl=       500 IOpCl=  0 I1Cent=   200000004 NGrid=           0
         NMat0=    1 NMatS0=      1 NMatT0=    0 NMatD0=    1 NMtDS0=    0 NMtDT0=    0
 Petite list used in FoFCou.
 Harris En= -435.729549444035    
 JPrj=0 DoOrth=F DoCkMO=F.
 Initial guess orbital symmetries:
 Alpha Orbitals:
       Occupied  (SG) (SG) (SG) (SG) (PI) (PI) (SG) (SG) (SG) (PI)
                 (PI)
       Virtual   (PI) (PI) (SG) (SG) (SG) (PI) (PI) (SG) (PI) (PI)
                 (SG) (SG) (PI) (PI) (SG) (PI) (PI) (SG) (SG) (DLTA)
                 (DLTA) (PI) (PI) (SG) (DLTA) (DLTA) (PI) (PI)
                 (SG) (PI) (PI) (SG) (PI) (PI) (SG) (SG) (PI) (PI)
                 (SG) (SG) (SG)
 Beta  Orbitals:
       Occupied  (SG) (SG) (SG) (SG) (PI) (PI) (SG) (SG) (SG) (PI)
                 (PI)
       Virtual   (PI) (PI) (SG) (SG) (SG) (PI) (PI) (SG) (PI) (PI)
                 (SG) (SG) (PI) (PI) (SG) (PI) (PI) (SG) (SG) (DLTA)
                 (DLTA) (PI) (PI) (SG) (DLTA) (DLTA) (PI) (PI)
                 (SG) (PI) (PI) (SG) (PI) (PI) (SG) (SG) (PI) (PI)
                 (SG) (SG) (SG)
 The electronic state of the initial guess is 1-SG.
 Initial guess <Sx>= 0.0000 <Sy>= 0.0000 <Sz>= 0.0000 <S**2>=-0.0000 S=-0.0000
 Leave Link  401 at Mon Apr 21 19:46:05 2025, MaxMem=   536870912 cpu:               1.4 elap:               0.2
 (Enter /home/szhao/Apps/g16/l502.exe)
 Keep R1 and R2 ints in memory in symmetry-blocked form, NReq=7997257.
 FoFCou: FMM=F IPFlag=           0 FMFlag=           0 FMFlg1=           0
         NFxFlg=           0 DoJE=F BraDBF=F KetDBF=F FulRan=T
         wScrn=  0.000000 ICntrl=       600 IOpCl=  0 I1Cent=           0 NGrid=           0
         NMat0=    1 NMatS0=   1378 NMatT0=    0 NMatD0=    1 NMtDS0=    0 NMtDT0=    0
 Petite list used in FoFCou.
 UHF open shell SCF:
 Using DIIS extrapolation, IDIIS=  1040.
 NGot=   536870912 LenX=   536333382 LenY=   536330025
 Requested convergence on RMS density matrix=1.00D-08 within 128 cycles.
 Requested convergence on MAX density matrix=1.00D-06.
 Requested convergence on             energy=1.00D-06.
 No special actions if energy rises.

 Cycle   1  Pass 1  IDiag  1:
 E= -434.829329997757    
 DIIS: error= 5.19D-02 at cycle   1 NSaved=   1.
 NSaved= 1 IEnMin= 1 EnMin= -434.829329997757     IErMin= 1 ErrMin= 5.19D-02
 ErrMax= 5.19D-02  0.00D+00 EMaxC= 1.00D-01 BMatC= 7.82D-01 BMatP= 7.82D-01
 IDIUse=3 WtCom= 4.81D-01 WtEn= 5.19D-01
 Coeff-Com:  0.100D+01
 Coeff-En:   0.100D+01
 Coeff:      0.100D+01
 Gap=    -0.178 Goal=   None    Shift=    0.000
 Gap=    -0.178 Goal=   None    Shift=    0.000
 GapD=   -0.178 DampG=0.250 DampE=0.500 DampFc=0.2500 IDamp=-1.
 Damping current iteration by 2.50D-01
 RMSDP=3.02D-02 MaxDP=4.21D-01              OVMax= 9.04D-01

 Cycle   2  Pass 1  IDiag  1:
 E= -435.499800119099     Delta-E=       -0.670470121342 Rises=F Damp=T
 DIIS: error= 1.93D-02 at cycle   2 NSaved=   2.
 NSaved= 2 IEnMin= 2 EnMin= -435.499800119099     IErMin= 2 ErrMin= 1.93D-02
 ErrMax= 1.93D-02  0.00D+00 EMaxC= 1.00D-01 BMatC= 1.47D-01 BMatP= 7.82D-01
 IDIUse=3 WtCom= 8.07D-01 WtEn= 1.93D-01
 Coeff-Com:  0.114D+00 0.886D+00
 Coeff-En:   0.114D+00 0.886D+00
 Coeff:      0.114D+00 0.886D+00
 Gap=     0.213 Goal=   None    Shift=    0.000
 Gap=     0.213 Goal=   None    Shift=    0.000
 RMSDP=1.91D-02 MaxDP=2.79D-01 DE=-6.70D-01 OVMax= 3.84D-01

 Cycle   3  Pass 1  IDiag  1:
 E= -430.812578264497     Delta-E=        4.687221854602 Rises=F Damp=F
 DIIS: error= 1.42D-01 at cycle   3 NSaved=   3.
 NSaved= 3 IEnMin= 2 EnMin= -435.499800119099     IErMin= 2 ErrMin= 1.93D-02
 ErrMax= 1.42D-01  0.00D+00 EMaxC= 1.00D-01 BMatC= 6.20D+00 BMatP= 1.47D-01
 IDIUse=2 WtCom= 0.00D+00 WtEn= 1.00D+00
 EnCoef did   100 forward-backward iterations
 Coeff-En:   0.669D+00 0.613D-01 0.270D+00
 Coeff:      0.669D+00 0.613D-01 0.270D+00
 Gap=     0.004 Goal=   None    Shift=    0.000
 Gap=     0.004 Goal=   None    Shift=    0.000
 RMSDP=1.41D-02 MaxDP=1.42D-01 DE= 4.69D+00 OVMax= 5.76D-01

 Cycle   4  Pass 1  IDiag  1:
 E= -434.920193114108     Delta-E=       -4.107614849611 Rises=F Damp=F
 DIIS: error= 1.88D-01 at cycle   4 NSaved=   4.
 NSaved= 4 IEnMin= 2 EnMin= -435.499800119099     IErMin= 2 ErrMin= 1.93D-02
 ErrMax= 1.88D-01  0.00D+00 EMaxC= 1.00D-01 BMatC= 3.44D+00 BMatP= 1.47D-01
 IDIUse=2 WtCom= 0.00D+00 WtEn= 1.00D+00
 EnCoef did   100 forward-backward iterations
 Coeff-En:   0.481D+00 0.152D-01 0.134D-02 0.503D+00
 Coeff:      0.481D+00 0.152D-01 0.134D-02 0.503D+00
 Gap=     0.033 Goal=   None    Shift=    0.000
 Gap=     0.033 Goal=   None    Shift=    0.000
 RMSDP=1.03D-02 MaxDP=1.55D-01 DE=-4.11D+00 OVMax= 4.45D-01

 Cycle   5  Pass 1  IDiag  1:
 E= -435.630653440103     Delta-E=       -0.710460325996 Rises=F Damp=F
 DIIS: error= 5.50D-02 at cycle   5 NSaved=   5.
 NSaved= 5 IEnMin= 5 EnMin= -435.630653440103     IErMin= 2 ErrMin= 1.93D-02
 ErrMax= 5.50D-02  0.00D+00 EMaxC= 1.00D-01 BMatC= 3.27D-01 BMatP= 1.47D-01
 IDIUse=2 WtCom= 0.00D+00 WtEn= 1.00D+00
 Coeff-En:   0.000D+00 0.000D+00 0.000D+00 0.260D+00 0.740D+00
 Coeff:      0.000D+00 0.000D+00 0.000D+00 0.260D+00 0.740D+00
 Gap=     0.060 Goal=   None    Shift=    0.000
 Gap=     0.060 Goal=   None    Shift=    0.000
 RMSDP=5.20D-03 MaxDP=6.80D-02 DE=-7.10D-01 OVMax= 2.12D-01

 Cycle   6  Pass 1  IDiag  1:
 E= -435.686256534565     Delta-E=       -0.055603094461 Rises=F Damp=F
 DIIS: error= 5.05D-02 at cycle   6 NSaved=   6.
 NSaved= 6 IEnMin= 6 EnMin= -435.686256534565     IErMin= 2 ErrMin= 1.93D-02
 ErrMax= 5.05D-02  0.00D+00 EMaxC= 1.00D-01 BMatC= 2.43D-01 BMatP= 1.47D-01
 IDIUse=2 WtCom= 0.00D+00 WtEn= 1.00D+00
 Coeff-En:   0.000D+00 0.000D+00 0.000D+00 0.000D+00 0.415D+00 0.585D+00
 Coeff:      0.000D+00 0.000D+00 0.000D+00 0.000D+00 0.415D+00 0.585D+00
 Gap=     0.076 Goal=   None    Shift=    0.000
 Gap=     0.076 Goal=   None    Shift=    0.000
 RMSDP=2.78D-03 MaxDP=4.22D-02 DE=-5.56D-02 OVMax= 1.25D-01

 Cycle   7  Pass 1  IDiag  1:
 E= -435.743324008385     Delta-E=       -0.057067473820 Rises=F Damp=F
 DIIS: error= 1.18D-02 at cycle   7 NSaved=   7.
 NSaved= 7 IEnMin= 7 EnMin= -435.743324008385     IErMin= 7 ErrMin= 1.18D-02
 ErrMax= 1.18D-02  0.00D+00 EMaxC= 1.00D-01 BMatC= 1.69D-02 BMatP= 1.47D-01
 IDIUse=3 WtCom= 8.82D-01 WtEn= 1.18D-01
 Coeff-Com: -0.341D-02-0.171D-01 0.559D-02-0.369D-01 0.103D-01 0.319D+00
 Coeff-Com:  0.722D+00
 Coeff-En:   0.000D+00 0.000D+00 0.000D+00 0.000D+00 0.000D+00 0.197D+00
 Coeff-En:   0.803D+00
 Coeff:     -0.301D-02-0.150D-01 0.493D-02-0.326D-01 0.911D-02 0.305D+00
 Coeff:      0.732D+00
 Gap=     0.082 Goal=   None    Shift=    0.000
 Gap=     0.082 Goal=   None    Shift=    0.000
 RMSDP=7.58D-04 MaxDP=1.07D-02 DE=-5.71D-02 OVMax= 3.39D-02

 Cycle   8  Pass 1  IDiag  1:
 E= -435.742384144686     Delta-E=        0.000939863699 Rises=F Damp=F
 DIIS: error= 1.38D-02 at cycle   8 NSaved=   8.
 NSaved= 8 IEnMin= 7 EnMin= -435.743324008385     IErMin= 7 ErrMin= 1.18D-02
 ErrMax= 1.38D-02  0.00D+00 EMaxC= 1.00D-01 BMatC= 2.52D-02 BMatP= 1.69D-02
 IDIUse=2 WtCom= 0.00D+00 WtEn= 1.00D+00
 Coeff-En:   0.000D+00 0.000D+00 0.000D+00 0.000D+00 0.000D+00 0.224D+00
 Coeff-En:   0.000D+00 0.776D+00
 Coeff:      0.000D+00 0.000D+00 0.000D+00 0.000D+00 0.000D+00 0.224D+00
 Coeff:      0.000D+00 0.776D+00
 Gap=     0.073 Goal=   None    Shift=    0.000
 Gap=     0.073 Goal=   None    Shift=    0.000
 RMSDP=2.33D-03 MaxDP=4.40D-02 DE= 9.40D-04 OVMax= 1.26D-01

 Cycle   9  Pass 1  IDiag  1:
 E= -435.722211257913     Delta-E=        0.020172886773 Rises=F Damp=F
 DIIS: error= 3.48D-02 at cycle   9 NSaved=   9.
 NSaved= 9 IEnMin= 7 EnMin= -435.743324008385     IErMin= 7 ErrMin= 1.18D-02
 ErrMax= 3.48D-02  0.00D+00 EMaxC= 1.00D-01 BMatC= 1.12D-01 BMatP= 1.69D-02
 IDIUse=2 WtCom= 0.00D+00 WtEn= 1.00D+00
 Coeff-En:   0.000D+00 0.000D+00 0.000D+00 0.000D+00 0.000D+00 0.000D+00
 Coeff-En:   0.000D+00 0.664D+00 0.336D+00
 Coeff:      0.000D+00 0.000D+00 0.000D+00 0.000D+00 0.000D+00 0.000D+00
 Coeff:      0.000D+00 0.664D+00 0.336D+00
 Gap=     0.081 Goal=   None    Shift=    0.000
 Gap=     0.081 Goal=   None    Shift=    0.000
 RMSDP=2.07D-03 MaxDP=3.08D-02 DE= 2.02D-02 OVMax= 9.81D-02

 Cycle  10  Pass 1  IDiag  1:
 E= -435.755499917593     Delta-E=       -0.033288659680 Rises=F Damp=F
 DIIS: error= 5.06D-03 at cycle  10 NSaved=  10.
 NSaved=10 IEnMin=10 EnMin= -435.755499917593     IErMin=10 ErrMin= 5.06D-03
 ErrMax= 5.06D-03  0.00D+00 EMaxC= 1.00D-01 BMatC= 3.33D-03 BMatP= 1.69D-02
 IDIUse=3 WtCom= 9.49D-01 WtEn= 5.06D-02
 Coeff-Com: -0.688D-02 0.408D-02-0.526D-02 0.516D-01-0.170D+00-0.157D+00
 Coeff-Com:  0.207D+01-0.465D+00 0.188D+00-0.509D+00
 Coeff-En:   0.000D+00 0.000D+00 0.000D+00 0.000D+00 0.000D+00 0.000D+00
 Coeff-En:   0.000D+00 0.000D+00 0.175D-01 0.982D+00
 Coeff:     -0.653D-02 0.387D-02-0.499D-02 0.490D-01-0.161D+00-0.149D+00
 Coeff:      0.196D+01-0.442D+00 0.180D+00-0.434D+00
 Gap=     0.076 Goal=   None    Shift=    0.000
 Gap=     0.076 Goal=   None    Shift=    0.000
 RMSDP=3.41D-03 MaxDP=5.51D-02 DE=-3.33D-02 OVMax= 1.66D-01

 Cycle  11  Pass 1  IDiag  1:
 E= -435.747069160200     Delta-E=        0.008430757393 Rises=F Damp=F
 DIIS: error= 2.75D-03 at cycle  11 NSaved=  11.
 NSaved=11 IEnMin=10 EnMin= -435.755499917593     IErMin=11 ErrMin= 2.75D-03
 ErrMax= 2.75D-03  0.00D+00 EMaxC= 1.00D-01 BMatC= 5.57D-04 BMatP= 3.33D-03
 IDIUse=3 WtCom= 9.72D-01 WtEn= 2.75D-02
 Rare condition: small coef for last iteration:  0.000D+00
 Coeff-Com: -0.139D-02-0.958D-04-0.421D-03 0.259D-02-0.150D-01-0.901D-02
 Coeff-Com:  0.153D+00 0.191D+00 0.155D-02-0.392D+00 0.107D+01
 Coeff-En:   0.000D+00 0.000D+00 0.000D+00 0.000D+00 0.000D+00 0.000D+00
 Coeff-En:   0.538D-01 0.104D+00 0.000D+00 0.000D+00 0.842D+00
 Coeff:     -0.139D-02-0.958D-04-0.421D-03 0.259D-02-0.150D-01-0.901D-02
 Coeff:      0.153D+00 0.191D+00 0.155D-02-0.392D+00 0.107D+01
 Gap=     0.077 Goal=   None    Shift=    0.000
 Gap=     0.077 Goal=   None    Shift=    0.000
 RMSDP=9.01D-04 MaxDP=1.53D-02 DE= 8.43D-03 OVMax= 4.92D-02

 Cycle  12  Pass 1  IDiag  1:
 E= -435.746638178994     Delta-E=        0.000430981206 Rises=F Damp=F
 DIIS: error= 2.47D-03 at cycle  12 NSaved=  12.
 NSaved=12 IEnMin=10 EnMin= -435.755499917593     IErMin=12 ErrMin= 2.47D-03
 ErrMax= 2.47D-03  0.00D+00 EMaxC= 1.00D-01 BMatC= 5.62D-04 BMatP= 5.57D-04
 IDIUse=3 WtCom= 9.75D-01 WtEn= 2.47D-02
 EnCoef did   100 forward-backward iterations
 Rare condition: small coef for last iteration:  0.000D+00
 Coeff-Com: -0.130D-02-0.254D-03-0.354D-03 0.168D-02-0.141D-01-0.511D-02
 Coeff-Com:  0.188D+00 0.153D+00 0.421D-02-0.356D+00 0.911D+00 0.120D+00
 Coeff-En:   0.000D+00 0.000D+00 0.000D+00 0.000D+00 0.269D-03 0.000D+00
 Coeff-En:   0.000D+00 0.000D+00 0.000D+00 0.000D+00 0.000D+00 0.100D+01
 Coeff:     -0.130D-02-0.254D-03-0.354D-03 0.168D-02-0.141D-01-0.511D-02
 Coeff:      0.188D+00 0.153D+00 0.421D-02-0.356D+00 0.911D+00 0.120D+00
 Gap=     0.077 Goal=   None    Shift=    0.000
 Gap=     0.077 Goal=   None    Shift=    0.000
 RMSDP=2.39D-05 MaxDP=5.24D-04 DE= 4.31D-04 OVMax= 1.53D-03

 Cycle  13  Pass 1  IDiag  1:
 E= -435.746684087160     Delta-E=       -0.000045908166 Rises=F Damp=F
 DIIS: error= 2.07D-03 at cycle  13 NSaved=  13.
 NSaved=13 IEnMin=10 EnMin= -435.755499917593     IErMin=13 ErrMin= 2.07D-03
 ErrMax= 2.07D-03  0.00D+00 EMaxC= 1.00D-01 BMatC= 3.95D-04 BMatP= 5.57D-04
 IDIUse=3 WtCom= 9.79D-01 WtEn= 2.07D-02
 Coeff-Com: -0.127D-02 0.517D-03-0.546D-03 0.387D-02-0.669D-02 0.164D-01
 Coeff-Com: -0.276D-01 0.662D-01 0.354D-02-0.425D-01 0.172D+00-0.910D+01
 Coeff-Com:  0.991D+01
 Coeff-En:   0.000D+00 0.000D+00 0.000D+00 0.000D+00 0.000D+00 0.000D+00
 Coeff-En:   0.000D+00 0.000D+00 0.000D+00 0.000D+00 0.000D+00 0.000D+00
 Coeff-En:   0.100D+01
 Coeff:     -0.125D-02 0.507D-03-0.535D-03 0.379D-02-0.656D-02 0.161D-01
 Coeff:     -0.270D-01 0.649D-01 0.346D-02-0.416D-01 0.169D+00-0.891D+01
 Coeff:      0.973D+01
 Gap=     0.077 Goal=   None    Shift=    0.000
 Gap=     0.077 Goal=   None    Shift=    0.000
 RMSDP=1.06D-04 MaxDP=2.07D-03 DE=-4.59D-05 OVMax= 5.04D-03

 Cycle  14  Pass 1  IDiag  1:
 E= -435.746794041800     Delta-E=       -0.000109954640 Rises=F Damp=F
 DIIS: error= 9.61D-05 at cycle  14 NSaved=  14.
 NSaved=14 IEnMin=10 EnMin= -435.755499917593     IErMin=14 ErrMin= 9.61D-05
 ErrMax= 9.61D-05  0.00D+00 EMaxC= 1.00D-01 BMatC= 1.28D-06 BMatP= 3.95D-04
 IDIUse=1 WtCom= 1.00D+00 WtEn= 0.00D+00
 Coeff-Com: -0.113D-03 0.969D-04-0.216D-04-0.138D-03-0.671D-03 0.687D-02
 Coeff-Com: -0.266D-01 0.170D-01-0.346D-03 0.423D-02-0.419D-01-0.252D+00
 Coeff-Com:  0.205D+00 0.109D+01
 Coeff:     -0.113D-03 0.969D-04-0.216D-04-0.138D-03-0.671D-03 0.687D-02
 Coeff:     -0.266D-01 0.170D-01-0.346D-03 0.423D-02-0.419D-01-0.252D+00
 Coeff:      0.205D+00 0.109D+01
 Gap=     0.077 Goal=   None    Shift=    0.000
 Gap=     0.077 Goal=   None    Shift=    0.000
 RMSDP=2.51D-05 MaxDP=4.49D-04 DE=-1.10D-04 OVMax= 1.28D-03

 Cycle  15  Pass 1  IDiag  1:
 E= -435.746793983473     Delta-E=        0.000000058327 Rises=F Damp=F
 DIIS: error= 4.92D-05 at cycle  15 NSaved=  15.
 NSaved=15 IEnMin=10 EnMin= -435.755499917593     IErMin=15 ErrMin= 4.92D-05
 ErrMax= 4.92D-05  0.00D+00 EMaxC= 1.00D-01 BMatC= 2.43D-07 BMatP= 1.28D-06
 IDIUse=1 WtCom= 1.00D+00 WtEn= 0.00D+00
 Coeff-Com: -0.239D-05 0.197D-05 0.955D-06-0.661D-05-0.219D-03-0.294D-03
 Coeff-Com:  0.321D-02 0.843D-03 0.404D-03-0.325D-02-0.314D-02 0.326D+00
 Coeff-Com: -0.342D+00 0.992D-01 0.919D+00
 Coeff:     -0.239D-05 0.197D-05 0.955D-06-0.661D-05-0.219D-03-0.294D-03
 Coeff:      0.321D-02 0.843D-03 0.404D-03-0.325D-02-0.314D-02 0.326D+00
 Coeff:     -0.342D+00 0.992D-01 0.919D+00
 Gap=     0.077 Goal=   None    Shift=    0.000
 Gap=     0.077 Goal=   None    Shift=    0.000
 RMSDP=3.25D-06 MaxDP=4.42D-05 DE= 5.83D-08 OVMax= 1.40D-04

 Cycle  16  Pass 1  IDiag  1:
 E= -435.746794045530     Delta-E=       -0.000000062057 Rises=F Damp=F
 DIIS: error= 1.23D-05 at cycle  16 NSaved=  16.
 NSaved=16 IEnMin=10 EnMin= -435.755499917593     IErMin=16 ErrMin= 1.23D-05
 ErrMax= 1.23D-05  0.00D+00 EMaxC= 1.00D-01 BMatC= 1.25D-08 BMatP= 2.43D-07
 IDIUse=1 WtCom= 1.00D+00 WtEn= 0.00D+00
 Coeff-Com:  0.139D-05-0.296D-05 0.320D-06 0.363D-05-0.117D-04 0.167D-04
 Coeff-Com:  0.223D-03-0.462D-03-0.871D-04-0.773D-04-0.801D-03 0.395D-01
 Coeff-Com: -0.488D-01 0.102D-01 0.145D+00 0.856D+00
 Coeff:      0.139D-05-0.296D-05 0.320D-06 0.363D-05-0.117D-04 0.167D-04
 Coeff:      0.223D-03-0.462D-03-0.871D-04-0.773D-04-0.801D-03 0.395D-01
 Coeff:     -0.488D-01 0.102D-01 0.145D+00 0.856D+00
 Gap=     0.077 Goal=   None    Shift=    0.000
 Gap=     0.077 Goal=   None    Shift=    0.000
 RMSDP=1.32D-06 MaxDP=3.04D-05 DE=-6.21D-08 OVMax= 8.22D-05

 Cycle  17  Pass 1  IDiag  1:
 E= -435.746794047148     Delta-E=       -0.000000001618 Rises=F Damp=F
 DIIS: error= 2.12D-06 at cycle  17 NSaved=  17.
 NSaved=17 IEnMin=10 EnMin= -435.755499917593     IErMin=17 ErrMin= 2.12D-06
 ErrMax= 2.12D-06  0.00D+00 EMaxC= 1.00D-01 BMatC= 3.03D-10 BMatP= 1.25D-08
 IDIUse=1 WtCom= 1.00D+00 WtEn= 0.00D+00
 Coeff-Com:  0.839D-06-0.827D-06 0.590D-06-0.457D-05 0.477D-05 0.331D-04
 Coeff-Com: -0.595D-05-0.764D-04-0.707D-04-0.191D-03 0.251D-03 0.926D-03
 Coeff-Com: -0.158D-02 0.881D-02-0.145D-01-0.123D+00 0.113D+01
 Coeff:      0.839D-06-0.827D-06 0.590D-06-0.457D-05 0.477D-05 0.331D-04
 Coeff:     -0.595D-05-0.764D-04-0.707D-04-0.191D-03 0.251D-03 0.926D-03
 Coeff:     -0.158D-02 0.881D-02-0.145D-01-0.123D+00 0.113D+01
 Gap=     0.077 Goal=   None    Shift=    0.000
 Gap=     0.077 Goal=   None    Shift=    0.000
 RMSDP=8.02D-07 MaxDP=1.39D-05 DE=-1.62D-09 OVMax= 4.42D-05

 Cycle  18  Pass 1  IDiag  1:
 E= -435.746794046562     Delta-E=        0.000000000585 Rises=F Damp=F
 DIIS: error= 1.88D-06 at cycle  18 NSaved=  18.
 NSaved=18 IEnMin=10 EnMin= -435.755499917593     IErMin=18 ErrMin= 1.88D-06
 ErrMax= 1.88D-06  0.00D+00 EMaxC= 1.00D-01 BMatC= 2.74D-10 BMatP= 3.03D-10
 IDIUse=1 WtCom= 1.00D+00 WtEn= 0.00D+00
 Coeff-Com: -0.966D-07 0.408D-06 0.122D-06-0.207D-05 0.168D-05 0.250D-04
 Coeff-Com: -0.100D-03 0.390D-04-0.134D-04-0.165D-04-0.106D-03-0.394D-02
 Coeff-Com:  0.419D-02 0.574D-02-0.138D-01-0.161D+00 0.134D+00 0.103D+01
 Coeff:     -0.966D-07 0.408D-06 0.122D-06-0.207D-05 0.168D-05 0.250D-04
 Coeff:     -0.100D-03 0.390D-04-0.134D-04-0.165D-04-0.106D-03-0.394D-02
 Coeff:      0.419D-02 0.574D-02-0.138D-01-0.161D+00 0.134D+00 0.103D+01
 Gap=     0.077 Goal=   None    Shift=    0.000
 Gap=     0.077 Goal=   None    Shift=    0.000
 RMSDP=3.99D-07 MaxDP=8.11D-06 DE= 5.85D-10 OVMax= 2.45D-05

 Cycle  19  Pass 1  IDiag  1:
 E= -435.746794046547     Delta-E=        0.000000000015 Rises=F Damp=F
 DIIS: error= 7.59D-08 at cycle  19 NSaved=  19.
 NSaved=19 IEnMin=10 EnMin= -435.755499917593     IErMin=19 ErrMin= 7.59D-08
 ErrMax= 7.59D-08  0.00D+00 EMaxC= 1.00D-01 BMatC= 8.58D-13 BMatP= 2.74D-10
 IDIUse=1 WtCom= 1.00D+00 WtEn= 0.00D+00
 Coeff-Com: -0.141D-06 0.493D-07-0.186D-07-0.748D-07-0.673D-06 0.213D-05
 Coeff-Com: -0.725D-05 0.177D-04 0.249D-05-0.386D-05-0.307D-04 0.235D-02
 Coeff-Com: -0.254D-02 0.177D-03 0.383D-02 0.142D-01-0.829D-01-0.155D+00
 Coeff-Com:  0.122D+01
 Coeff:     -0.141D-06 0.493D-07-0.186D-07-0.748D-07-0.673D-06 0.213D-05
 Coeff:     -0.725D-05 0.177D-04 0.249D-05-0.386D-05-0.307D-04 0.235D-02
 Coeff:     -0.254D-02 0.177D-03 0.383D-02 0.142D-01-0.829D-01-0.155D+00
 Coeff:      0.122D+01
 Gap=     0.077 Goal=   None    Shift=    0.000
 Gap=     0.077 Goal=   None    Shift=    0.000
 RMSDP=8.62D-08 MaxDP=1.55D-06 DE= 1.49D-11 OVMax= 4.77D-06

 Cycle  20  Pass 1  IDiag  1:
 E= -435.746794046545     Delta-E=        0.000000000002 Rises=F Damp=F
 DIIS: error= 5.37D-08 at cycle  20 NSaved=  20.
 NSaved=20 IEnMin=10 EnMin= -435.755499917593     IErMin=20 ErrMin= 5.37D-08
 ErrMax= 5.37D-08  0.00D+00 EMaxC= 1.00D-01 BMatC= 2.26D-13 BMatP= 8.58D-13
 IDIUse=1 WtCom= 1.00D+00 WtEn= 0.00D+00
 Large coefficients: NSaved= 20 BigCof=    0.00 CofMax=   10.00 Det=-2.50D-15
 Inversion failed.  Reducing to 19 matrices.
 Large coefficients: NSaved= 19 BigCof=    0.00 CofMax=   10.00 Det=-2.59D-15
 Inversion failed.  Reducing to 18 matrices.
 Large coefficients: NSaved= 18 BigCof=    0.00 CofMax=   10.00 Det=-3.31D-15
 Inversion failed.  Reducing to 17 matrices.
 Large coefficients: NSaved= 17 BigCof=    0.00 CofMax=   10.00 Det=-3.41D-15
 Inversion failed.  Reducing to 16 matrices.
 Large coefficients: NSaved= 16 BigCof=    0.00 CofMax=   10.00 Det=-3.53D-15
 Inversion failed.  Reducing to 15 matrices.
 Coeff-Com:  0.176D-06-0.402D-06-0.435D-06-0.803D-06-0.801D-06 0.359D-05
 Coeff-Com:  0.447D-03-0.501D-03-0.241D-04 0.358D-03 0.252D-02-0.493D-02
 Coeff-Com: -0.143D-01 0.140D+00 0.876D+00
 Coeff:      0.176D-06-0.402D-06-0.435D-06-0.803D-06-0.801D-06 0.359D-05
 Coeff:      0.447D-03-0.501D-03-0.241D-04 0.358D-03 0.252D-02-0.493D-02
 Coeff:     -0.143D-01 0.140D+00 0.876D+00
 Gap=     0.077 Goal=   None    Shift=    0.000
 Gap=     0.077 Goal=   None    Shift=    0.000
 RMSDP=7.47D-09 MaxDP=1.61D-07 DE= 2.39D-12 OVMax= 4.97D-07

 SCF Done:  E(UM062X) =  -435.746794047     A.U. after   20 cycles
            NFock= 20  Conv=0.75D-08     -V/T= 2.0018
 <Sx>= 0.0000 <Sy>= 0.0000 <Sz>= 0.0000 <S**2>= 0.0000 S= 0.0000
 <L.S>=  0.00000000000    
 KE= 4.349689829961D+02 PE=-1.060879460118D+03 EE= 1.770658856667D+02
 Annihilation of the first spin contaminant:
 S**2 before annihilation     0.0000,   after     0.0000
 Leave Link  502 at Mon Apr 21 19:46:08 2025, MaxMem=   536870912 cpu:              16.3 elap:               2.3
 (Enter /home/szhao/Apps/g16/l601.exe)
 Copying SCF densities to generalized density rwf, IOpCl= 1 IROHF=0.

 **********************************************************************

            Population analysis using the SCF density.

 **********************************************************************

 Orbital symmetries:
 Alpha Orbitals:
       Occupied  (SG) (SG) (SG) (PI) (PI) (SG) (SG) (SG) (SG) (PI)
                 (PI)
       Virtual   (PI) (PI) (SG) (SG) (SG) (PI) (PI) (PI) (PI) (SG)
                 (SG) (SG) (PI) (PI) (PI) (PI) (SG) (SG) (SG) (DLTA)
                 (DLTA) (PI) (PI) (SG) (PI) (PI) (DLTA) (DLTA)
                 (SG) (PI) (PI) (SG) (PI) (PI) (SG) (SG) (PI) (PI)
                 (SG) (SG) (SG)
 Beta  Orbitals:
       Occupied  (SG) (SG) (SG) (PI) (PI) (SG) (SG) (SG) (SG) (PI)
                 (PI)
       Virtual   (PI) (PI) (SG) (SG) (SG) (PI) (PI) (PI) (PI) (SG)
                 (SG) (SG) (PI) (PI) (PI) (PI) (SG) (SG) (SG) (DLTA)
                 (DLTA) (PI) (PI) (SG) (PI) (PI) (DLTA) (DLTA)
                 (SG) (PI) (PI) (SG) (PI) (PI) (SG) (SG) (PI) (PI)
                 (SG) (SG) (SG)
 The electronic state is 1-SG.
 Alpha  occ. eigenvalues --  -89.93482 -10.82537  -8.29310  -6.21109  -6.21109
 Alpha  occ. eigenvalues --   -6.21026  -0.73112  -0.71080  -0.29532  -0.28282
 Alpha  occ. eigenvalues --   -0.28282
 Alpha virt. eigenvalues --   -0.20629  -0.20629  -0.18969   0.02580   0.05614
 Alpha virt. eigenvalues --    0.05737   0.05737   0.08387   0.08387   0.08450
 Alpha virt. eigenvalues --    0.13513   0.35545   0.36349   0.36349   0.51473
 Alpha virt. eigenvalues --    0.51473   0.52511   0.61279   0.67386   0.83098
 Alpha virt. eigenvalues --    0.83098   0.83409   0.83409   0.84324   1.24851
 Alpha virt. eigenvalues --    1.24851   1.24968   1.24968   1.25361   1.67571
 Alpha virt. eigenvalues --    1.67571   1.69472   2.56554   2.56554   2.57353
 Alpha virt. eigenvalues --    7.74354  17.44855  17.44855  17.46003  23.09757
 Alpha virt. eigenvalues --  188.98735
  Beta  occ. eigenvalues --  -89.93482 -10.82537  -8.29310  -6.21109  -6.21109
  Beta  occ. eigenvalues --   -6.21026  -0.73112  -0.71080  -0.29532  -0.28282
  Beta  occ. eigenvalues --   -0.28282
  Beta virt. eigenvalues --   -0.20629  -0.20629  -0.18969   0.02580   0.05614
  Beta virt. eigenvalues --    0.05737   0.05737   0.08387   0.08387   0.08450
  Beta virt. eigenvalues --    0.13513   0.35545   0.36349   0.36349   0.51473
  Beta virt. eigenvalues --    0.51473   0.52511   0.61279   0.67386   0.83098
  Beta virt. eigenvalues --    0.83098   0.83409   0.83409   0.84324   1.24851
  Beta virt. eigenvalues --    1.24851   1.24968   1.24968   1.25361   1.67571
  Beta virt. eigenvalues --    1.67571   1.69472   2.56554   2.56554   2.57353
  Beta virt. eigenvalues --    7.74354  17.44855  17.44855  17.46003  23.09757
  Beta virt. eigenvalues --  188.98735
          Condensed to atoms (all electrons):
               1          2
     1  C    5.676053   0.105779
     2  S    0.105779  16.112388
          Atomic-Atomic Spin Densities.
               1          2
     1  C    0.000001   0.000000
     2  S    0.000000  -0.000001
 Mulliken charges and spin densities:
               1          2
     1  C    0.218167   0.000001
     2  S   -0.218167  -0.000001
 Sum of Mulliken charges =  -0.00000   0.00000
 Mulliken charges and spin densities with hydrogens summed into heavy atoms:
               1          2
     1  C    0.218167   0.000001
     2  S   -0.218167  -0.000001
 Electronic spatial extent (au):  <R**2>=            273.7819
 Charge=             -0.0000 electrons
 Dipole moment (field-independent basis, Debye):
    X=              0.0000    Y=              0.0000    Z=             -4.0487  Tot=              4.0487
 Quadrupole moment (field-independent basis, Debye-Ang):
   XX=            -20.9130   YY=            -20.9130   ZZ=            -11.1174
   XY=              0.0000   XZ=              0.0000   YZ=              0.0000
 Traceless Quadrupole moment (field-independent basis, Debye-Ang):
   XX=             -3.2652   YY=             -3.2652   ZZ=              6.5304
   XY=              0.0000   XZ=              0.0000   YZ=              0.0000
 Octapole moment (field-independent basis, Debye-Ang**2):
  XXX=              0.0000  YYY=              0.0000  ZZZ=            -25.8139  XYY=              0.0000
  XXY=              0.0000  XXZ=              2.6073  XZZ=              0.0000  YZZ=              0.0000
  YYZ=              2.6073  XYZ=              0.0000
 Hexadecapole moment (field-independent basis, Debye-Ang**3):
 XXXX=            -32.5190 YYYY=            -32.5190 ZZZZ=           -321.3780 XXXY=              0.0000
 XXXZ=              0.0000 YYYX=              0.0000 YYYZ=              0.0000 ZZZX=              0.0000
 ZZZY=              0.0000 XXYY=            -10.8397 XXZZ=            -74.7977 YYZZ=            -74.7977
 XXYZ=              0.0000 YYXZ=              0.0000 ZZXY=              0.0000
 N-N= 1.309779740904D+01 E-N=-1.060879457590D+03  KE= 4.349689829961D+02
 Symmetry A1   KE= 3.580390781982D+02
 Symmetry A2   KE=-6.656440197409D-55
 Symmetry B1   KE= 3.846495239899D+01
 Symmetry B2   KE= 3.846495239891D+01
 Symmetry A1   SP= 7.249686966264D-15
 Symmetry A2   SP= 2.494181772085D-53
 Symmetry B1   SP=-2.221787668264D-15
 Symmetry B2   SP= 1.133947997389D-15
                          Isotropic Fermi Contact Couplings
        Atom                 a.u.       MegaHertz       Gauss      10(-4) cm-1
     1  C(13)              0.00000       0.00000       0.00000       0.00000
     2  S(33)              0.00000       0.00000       0.00000       0.00000
 --------------------------------------------------------
       Center         ----  Spin Dipole Couplings  ----
                      3XX-RR        3YY-RR        3ZZ-RR
 --------------------------------------------------------
     1   Atom        0.000000      0.000000     -0.000000
     2   Atom       -0.000000     -0.000000      0.000001
 --------------------------------------------------------
                        XY            XZ            YZ
 --------------------------------------------------------
     1   Atom        0.000000      0.000000      0.000000
     2   Atom        0.000000      0.000000      0.000000
 --------------------------------------------------------


 ---------------------------------------------------------------------------------
              Anisotropic Spin Dipole Couplings in Principal Axis System
 ---------------------------------------------------------------------------------

       Atom             a.u.   MegaHertz   Gauss  10(-4) cm-1        Axes

              Baa    -0.0000    -0.000    -0.000    -0.000  0.0000  0.0000  1.0000
     1 C(13)  Bbb     0.0000     0.000     0.000     0.000  1.0000  0.0000  0.0000
              Bcc     0.0000     0.000     0.000     0.000 -0.0000  1.0000  0.0000
 
              Baa    -0.0000    -0.000    -0.000    -0.000 -0.0000  1.0000  0.0000
     2 S(33)  Bbb    -0.0000    -0.000    -0.000    -0.000  1.0000  0.0000  0.0000
              Bcc     0.0000     0.000     0.000     0.000  0.0000  0.0000  1.0000
 

 ---------------------------------------------------------------------------------

 No NMR shielding tensors so no spin-rotation constants.
 Leave Link  601 at Mon Apr 21 19:46:08 2025, MaxMem=   536870912 cpu:               2.1 elap:               0.4
 (Enter /home/szhao/Apps/g16/l607.exe)
 ******************************Gaussian NBO Version 3.1******************************
             N A T U R A L   A T O M I C   O R B I T A L   A N D
          N A T U R A L   B O N D   O R B I T A L   A N A L Y S I S
 ******************************Gaussian NBO Version 3.1******************************
       /RESON  / : Allow strongly delocalized NBO set

 Analyzing the SCF density

 Job title: Title Card Required                                             

 Storage needed:      8530 in NPA,     11006 in NBO ( 536870884 available)
 GSVD:  LWork=         400 too small for GESVD, short by        3920 words or        3920 for optimal perf.


 NATURAL POPULATIONS:  Natural atomic orbital occupancies 
                                                          
   NAO  Atom  No  lang   Type(AO)    Occupancy
 --------------------------------------------
     1    C    1  S      Cor( 1S)     2.00000
     2    C    1  S      Val( 2S)     1.99813
     3    C    1  S      Ryd( 3S)     0.00055
     4    C    1  S      Ryd( 4S)     0.00000
     5    C    1  S      Ryd( 5S)     0.00000
     6    C    1  px     Val( 2p)     0.63108
     7    C    1  px     Ryd( 3p)     0.00003
     8    C    1  px     Ryd( 4p)     0.00000
     9    C    1  px     Ryd( 5p)     0.00000
    10    C    1  py     Val( 2p)     0.63108
    11    C    1  py     Ryd( 3p)     0.00003
    12    C    1  py     Ryd( 4p)     0.00000
    13    C    1  py     Ryd( 5p)     0.00000
    14    C    1  pz     Val( 2p)     0.49208
    15    C    1  pz     Ryd( 3p)     0.00023
    16    C    1  pz     Ryd( 4p)     0.00001
    17    C    1  pz     Ryd( 5p)     0.00000
    18    C    1  dxy    Ryd( 3d)     0.00000
    19    C    1  dxz    Ryd( 3d)     0.00001
    20    C    1  dyz    Ryd( 3d)     0.00001
    21    C    1  dx2y2  Ryd( 3d)     0.00000
    22    C    1  dz2    Ryd( 3d)     0.00002
 
    23    S    2  S      Cor( 1S)     2.00000
    24    S    2  S      Cor( 2S)     2.00000
    25    S    2  S      Val( 3S)     1.99755
    26    S    2  S      Ryd( 4S)     0.00022
    27    S    2  S      Ryd( 5S)     0.00000
    28    S    2  S      Ryd( 7S)     0.00000
    29    S    2  S      Ryd( 6S)     0.00000
    30    S    2  px     Cor( 2p)     2.00000
    31    S    2  px     Val( 3p)     1.36883
    32    S    2  px     Ryd( 4p)     0.00003
    33    S    2  px     Ryd( 6p)     0.00000
    34    S    2  px     Ryd( 5p)     0.00000
    35    S    2  px     Ryd( 7p)     0.00000
    36    S    2  py     Cor( 2p)     2.00000
    37    S    2  py     Val( 3p)     1.36883
    38    S    2  py     Ryd( 4p)     0.00003
    39    S    2  py     Ryd( 6p)     0.00000
    40    S    2  py     Ryd( 5p)     0.00000
    41    S    2  py     Ryd( 7p)     0.00000
    42    S    2  pz     Cor( 2p)     2.00000
    43    S    2  pz     Val( 3p)     1.51102
    44    S    2  pz     Ryd( 4p)     0.00011
    45    S    2  pz     Ryd( 5p)     0.00001
    46    S    2  pz     Ryd( 6p)     0.00000
    47    S    2  pz     Ryd( 7p)     0.00000
    48    S    2  dxy    Ryd( 3d)     0.00000
    49    S    2  dxz    Ryd( 3d)     0.00002
    50    S    2  dyz    Ryd( 3d)     0.00002
    51    S    2  dx2y2  Ryd( 3d)     0.00000
    52    S    2  dz2    Ryd( 3d)     0.00006


 Summary of Natural Population Analysis:                  
                                                          
                                       Natural Population 
                Natural  -----------------------------------------------
    Atom  No    Charge         Core      Valence    Rydberg      Total
 -----------------------------------------------------------------------
      C    1    0.24673      2.00000     3.75237    0.00090     5.75327
      S    2   -0.24673     10.00000     6.24624    0.00050    16.24673
 =======================================================================
   * Total *   -0.00000     12.00000     9.99861    0.00140    22.00000

                                 Natural Population      
 --------------------------------------------------------
   Core                      12.00000 (100.0000% of  12)
   Valence                    9.99861 ( 99.9861% of  10)
   Natural Minimal Basis     21.99860 ( 99.9937% of  22)
   Natural Rydberg Basis      0.00140 (  0.0063% of  22)
 --------------------------------------------------------

    Atom  No          Natural Electron Configuration
 ----------------------------------------------------------------------------
      C    1      [core]2S( 2.00)2p( 1.75)
      S    2      [core]3S( 2.00)3p( 4.25)


 ***************************************************
 *******         Alpha spin orbitals         *******
 ***************************************************


 NATURAL POPULATIONS:  Natural atomic orbital occupancies 
                                                          
   NAO  Atom  No  lang   Type(AO)    Occupancy      Energy
 ----------------------------------------------------------
     1    C    1  S      Cor( 1S)     1.00000     -10.81863
     2    C    1  S      Val( 2S)     0.99907      -0.71753
     3    C    1  S      Ryd( 3S)     0.00028       0.12918
     4    C    1  S      Ryd( 4S)     0.00000       0.73750
     5    C    1  S      Ryd( 5S)     0.00000      22.96929
     6    C    1  px     Val( 2p)     0.31554      -0.23010
     7    C    1  px     Ryd( 3p)     0.00002       0.11162
     8    C    1  px     Ryd( 4p)     0.00000       0.54523
     9    C    1  px     Ryd( 5p)     0.00000       2.48539
    10    C    1  py     Val( 2p)     0.31554      -0.23010
    11    C    1  py     Ryd( 3p)     0.00002       0.11162
    12    C    1  py     Ryd( 4p)     0.00000       0.54523
    13    C    1  py     Ryd( 5p)     0.00000       2.48539
    14    C    1  pz     Val( 2p)     0.24604      -0.21608
    15    C    1  pz     Ryd( 3p)     0.00012       0.12236
    16    C    1  pz     Ryd( 4p)     0.00001       0.54173
    17    C    1  pz     Ryd( 5p)     0.00000       2.48244
    18    C    1  dxy    Ryd( 3d)     0.00000       1.24968
    19    C    1  dxz    Ryd( 3d)     0.00000       1.24854
    20    C    1  dyz    Ryd( 3d)     0.00000       1.24854
    21    C    1  dx2y2  Ryd( 3d)     0.00000       1.24968
    22    C    1  dz2    Ryd( 3d)     0.00001       1.25269
 
    23    S    2  S      Cor( 1S)     1.00000     -89.56210
    24    S    2  S      Cor( 2S)     1.00000      -8.58047
    25    S    2  S      Val( 3S)     0.99878      -0.81468
    26    S    2  S      Ryd( 4S)     0.00011       0.17142
    27    S    2  S      Ryd( 5S)     0.00000       0.81887
    28    S    2  S      Ryd( 7S)     0.00000     184.24112
    29    S    2  S      Ryd( 6S)     0.00000      12.23825
    30    S    2  px     Cor( 2p)     1.00000      -6.21109
    31    S    2  px     Val( 3p)     0.68442      -0.25853
    32    S    2  px     Ryd( 4p)     0.00001       0.07962
    33    S    2  px     Ryd( 5p)     0.00000       0.41582
    34    S    2  px     Ryd( 6p)     0.00000       1.66027
    35    S    2  px     Ryd( 7p)     0.00000      17.41103
    36    S    2  py     Cor( 2p)     1.00000      -6.21109
    37    S    2  py     Val( 3p)     0.68442      -0.25853
    38    S    2  py     Ryd( 4p)     0.00001       0.07962
    39    S    2  py     Ryd( 5p)     0.00000       0.41582
    40    S    2  py     Ryd( 6p)     0.00000       1.66027
    41    S    2  py     Ryd( 7p)     0.00000      17.41103
    42    S    2  pz     Cor( 2p)     1.00000      -6.21025
    43    S    2  pz     Val( 3p)     0.75551      -0.26985
    44    S    2  pz     Ryd( 4p)     0.00005       0.07193
    45    S    2  pz     Ryd( 5p)     0.00000       0.42352
    46    S    2  pz     Ryd( 6p)     0.00000       1.66763
    47    S    2  pz     Ryd( 7p)     0.00000      17.41678
    48    S    2  dxy    Ryd( 3d)     0.00000       0.83098
    49    S    2  dxz    Ryd( 3d)     0.00001       0.83384
    50    S    2  dyz    Ryd( 3d)     0.00001       0.83384
    51    S    2  dx2y2  Ryd( 3d)     0.00000       0.83098
    52    S    2  dz2    Ryd( 3d)     0.00003       0.83676

 WARNING:  Population inversion found on atom  S    2


 Summary of Natural Population Analysis:                  
                                                          
                                       Natural Population 
                Natural  -----------------------------------------------
    Atom  No    Charge         Core      Valence    Rydberg      Total
 -----------------------------------------------------------------------
      C    1    0.12337      1.00000     1.87618    0.00045     2.87663
      S    2   -0.12337      5.00000     3.12312    0.00025     8.12337
 =======================================================================
   * Total *   -0.00000      6.00000     4.99930    0.00070    11.00000

                                 Natural Population      
 --------------------------------------------------------
   Core                       6.00000 (100.0000% of   6)
   Valence                    4.99930 ( 99.9861% of   5)
   Natural Minimal Basis     10.99930 ( 99.9937% of  11)
   Natural Rydberg Basis      0.00070 (  0.0063% of  11)
 --------------------------------------------------------

    Atom  No          Natural Electron Configuration
 ----------------------------------------------------------------------------
      C    1      [core]2S( 1.00)2p( 0.88)
      S    2      [core]3S( 1.00)3p( 2.12)


 NATURAL BOND ORBITAL ANALYSIS, alpha spin orbitals:

                       Occupancies       Lewis Structure    Low   High
           Occ.    -------------------  -----------------   occ   occ
  Cycle   Thresh.   Lewis   Non-Lewis     CR  BD  3C  LP    (L)   (NL)   Dev
 =============================================================================
   1(1)    0.90    10.99996   0.00004      6   3   0   2     0      0    0.00
 -----------------------------------------------------------------------------

 Structure accepted: No low occupancy Lewis orbitals

 --------------------------------------------------------
   Core                      6.00000 (100.000% of   6)
   Valence Lewis             4.99996 ( 99.999% of   5)
  ==================       ============================
   Total Lewis              10.99996 (100.000% of  11)
  -----------------------------------------------------
   Valence non-Lewis         0.00000 (  0.000% of  11)
   Rydberg non-Lewis         0.00004 (  0.000% of  11)
  ==================       ============================
   Total non-Lewis           0.00004 (  0.000% of  11)
 --------------------------------------------------------


       (Occupancy)   Bond orbital/ Coefficients/ Hybrids
 ---------------------------------------------------------------------------------
     1. (1.00000) BD ( 1) C   1 - S   2  
                ( 31.56%)   0.5617* C   1 s(  0.00%)p 1.00(100.00%)d 0.00(  0.00%)
                                            0.0000  0.0000  0.0000  0.0000  0.0000
                                            1.0000 -0.0073  0.0001 -0.0000  0.0000
                                            0.0000  0.0000  0.0000  0.0000  0.0000
                                            0.0000  0.0000  0.0000  0.0032  0.0000
                                            0.0000  0.0000
                ( 68.44%)   0.8273* S   2 s(  0.00%)p 1.00(100.00%)d 0.00(  0.00%)
                                            0.0000  0.0000  0.0000  0.0000  0.0000
                                            0.0000  0.0000 -0.0000  1.0000 -0.0045
                                            0.0001 -0.0001 -0.0000  0.0000  0.0000
                                            0.0000  0.0000  0.0000  0.0000  0.0000
                                            0.0000  0.0000  0.0000  0.0000  0.0000
                                            0.0000 -0.0041  0.0000  0.0000  0.0000
     2. (1.00000) BD ( 2) C   1 - S   2  
                ( 31.56%)   0.5617* C   1 s(  0.00%)p 1.00(100.00%)d 0.00(  0.00%)
                                            0.0000  0.0000  0.0000  0.0000  0.0000
                                            0.0000  0.0000  0.0000  0.0000  1.0000
                                           -0.0073  0.0001 -0.0000  0.0000  0.0000
                                            0.0000  0.0000  0.0000  0.0000  0.0032
                                            0.0000  0.0000
                ( 68.44%)   0.8273* S   2 s(  0.00%)p 1.00(100.00%)d 0.00(  0.00%)
                                            0.0000  0.0000  0.0000  0.0000  0.0000
                                            0.0000  0.0000  0.0000  0.0000  0.0000
                                            0.0000  0.0000  0.0000 -0.0000  1.0000
                                           -0.0045  0.0001 -0.0001 -0.0000  0.0000
                                            0.0000  0.0000  0.0000  0.0000  0.0000
                                            0.0000  0.0000 -0.0041  0.0000  0.0000
     3. (1.00000) BD ( 3) C   1 - S   2  
                ( 24.55%)   0.4955* C   1 s(  0.23%)p99.99( 99.76%)d 0.01(  0.00%)
                                            0.0000 -0.0348 -0.0333 -0.0003 -0.0000
                                            0.0000  0.0000  0.0000  0.0000  0.0000
                                            0.0000  0.0000  0.0000 -0.9986 -0.0189
                                            0.0006 -0.0001  0.0000  0.0000  0.0000
                                            0.0000 -0.0056
                ( 75.45%)   0.8686* S   2 s(  0.50%)p99.99( 99.50%)d 0.01(  0.00%)
                                            0.0000  0.0000 -0.0695 -0.0117 -0.0001
                                           -0.0000 -0.0000  0.0000  0.0000  0.0000
                                            0.0000  0.0000  0.0000  0.0000  0.0000
                                            0.0000  0.0000  0.0000  0.0000  0.0000
                                            0.9975  0.0082  0.0000  0.0001 -0.0000
                                            0.0000  0.0000  0.0000  0.0000 -0.0062
     4. (1.00000) CR ( 1) C   1           s(100.00%)
                                            1.0000 -0.0000  0.0000  0.0000  0.0000
                                            0.0000  0.0000  0.0000  0.0000  0.0000
                                            0.0000  0.0000  0.0000  0.0000 -0.0000
                                            0.0000 -0.0000  0.0000  0.0000  0.0000
                                            0.0000 -0.0000
     5. (1.00000) CR ( 1) S   2           s(100.00%)
                                            1.0000 -0.0000  0.0000 -0.0000 -0.0000
                                           -0.0000 -0.0000  0.0000  0.0000  0.0000
                                            0.0000  0.0000  0.0000  0.0000  0.0000
                                            0.0000  0.0000  0.0000  0.0000  0.0000
                                            0.0000 -0.0000 -0.0000  0.0000  0.0000
                                            0.0000  0.0000  0.0000  0.0000 -0.0000
     6. (1.00000) CR ( 2) S   2           s(100.00%)
                                           -0.0000  1.0000  0.0000 -0.0000 -0.0000
                                           -0.0000 -0.0000  0.0000  0.0000  0.0000
                                            0.0000  0.0000  0.0000  0.0000  0.0000
                                            0.0000  0.0000  0.0000  0.0000  0.0000
                                            0.0000 -0.0000 -0.0000  0.0000  0.0000
                                            0.0000  0.0000  0.0000  0.0000 -0.0000
     7. (1.00000) CR ( 3) S   2           s(  0.00%)p 1.00(100.00%)
                                            0.0000  0.0000  0.0000  0.0000  0.0000
                                            0.0000  0.0000  1.0000  0.0000  0.0000
                                            0.0000  0.0000  0.0000  0.0000  0.0000
                                            0.0000  0.0000  0.0000  0.0000  0.0000
                                            0.0000  0.0000  0.0000  0.0000  0.0000
                                            0.0000  0.0000  0.0000  0.0000  0.0000
     8. (1.00000) CR ( 4) S   2           s(  0.00%)p 1.00(100.00%)
                                            0.0000  0.0000  0.0000  0.0000  0.0000
                                            0.0000  0.0000  0.0000  0.0000  0.0000
                                            0.0000  0.0000  0.0000  1.0000  0.0000
                                            0.0000  0.0000  0.0000  0.0000  0.0000
                                            0.0000  0.0000  0.0000  0.0000  0.0000
                                            0.0000  0.0000  0.0000  0.0000  0.0000
     9. (1.00000) CR ( 5) S   2           s(  0.00%)p 1.00(100.00%)
                                            0.0000  0.0000 -0.0000  0.0000  0.0000
                                            0.0000  0.0000  0.0000  0.0000  0.0000
                                            0.0000  0.0000  0.0000  0.0000  0.0000
                                            0.0000  0.0000  0.0000  0.0000  1.0000
                                           -0.0000  0.0000  0.0000 -0.0000 -0.0000
                                            0.0000  0.0000  0.0000 -0.0000  0.0000
    10. (0.99999) LP ( 1) C   1           s( 99.88%)p 0.00(  0.12%)d 0.00(  0.00%)
                                            0.0000  0.9994 -0.0003 -0.0000 -0.0000
                                            0.0000  0.0000  0.0000  0.0000  0.0000
                                            0.0000  0.0000  0.0000 -0.0349  0.0006
                                           -0.0025  0.0004  0.0000  0.0000  0.0000
                                           -0.0000  0.0009
    11. (0.99997) LP ( 1) S   2           s( 99.52%)p 0.00(  0.48%)d 0.00(  0.00%)
                                           -0.0000 -0.0000  0.9976 -0.0006 -0.0000
                                           -0.0000 -0.0000  0.0000  0.0000  0.0000
                                            0.0000  0.0000  0.0000  0.0000  0.0000
                                            0.0000  0.0000  0.0000  0.0000  0.0000
                                            0.0695 -0.0010 -0.0014  0.0003  0.0001
                                            0.0000  0.0000  0.0000  0.0000 -0.0014
    12. (0.00003) RY*( 1) C   1           s( 14.91%)p 5.68( 84.67%)d 0.03(  0.43%)
    13. (0.00000) RY*( 2) C   1           s( 96.23%)p 0.04(  3.77%)
    14. (0.00000) RY*( 3) C   1           s(100.00%)p 0.00(  0.00%)d 0.00(  0.00%)
    15. (0.00000) RY*( 4) C   1           s(  0.00%)p 1.00(100.00%)
    16. (0.00000) RY*( 5) C   1           s(  0.00%)p 1.00(100.00%)
    17. (0.00000) RY*( 6) C   1           s(  0.00%)p 1.00(100.00%)
    18. (0.00000) RY*( 7) C   1           s(  0.00%)p 1.00(100.00%)
    19. (0.00000) RY*( 8) C   1           s(  0.00%)p 1.00(100.00%)
    20. (0.00000) RY*( 9) C   1           s(  0.00%)p 1.00(100.00%)
    21. (0.00000) RY*(10) C   1           s( 88.30%)p 0.13( 11.70%)d 0.00(  0.00%)
    22. (0.00000) RY*(11) C   1           s(  0.38%)p99.99( 99.62%)
    23. (0.00000) RY*(12) C   1           s(  0.01%)p99.99( 99.99%)
    24. (0.00000) RY*(13) C   1           s(  0.00%)p 0.00(  0.00%)d 1.00(100.00%)
    25. (0.00000) RY*(14) C   1           s(  0.00%)p 0.00(  0.00%)d 1.00(100.00%)
    26. (0.00000) RY*(15) C   1           s(  0.00%)p 0.00(  0.00%)d 1.00(100.00%)
    27. (0.00000) RY*(16) C   1           s(  0.00%)p 0.00(  0.00%)d 1.00(100.00%)
    28. (0.00000) RY*(17) C   1           s(  0.06%)p 5.72(  0.37%)d99.99( 99.57%)
    29. (0.00001) RY*( 1) S   2           s( 99.99%)p 0.00(  0.01%)
    30. (0.00000) RY*( 2) S   2           s(100.00%)p 0.00(  0.00%)
    31. (0.00000) RY*( 3) S   2           s(100.00%)
    32. (0.00000) RY*( 4) S   2           s(100.00%)
    33. (0.00000) RY*( 5) S   2           s(  0.00%)p 1.00(100.00%)
    34. (0.00000) RY*( 6) S   2           s(  0.00%)p 1.00(100.00%)
    35. (0.00000) RY*( 7) S   2           s(  0.00%)p 1.00(100.00%)
    36. (0.00000) RY*( 8) S   2           s(  0.00%)p 1.00(100.00%)
    37. (0.00000) RY*( 9) S   2           s(  0.00%)p 1.00(100.00%)
    38. (0.00000) RY*(10) S   2           s(  0.00%)p 1.00(100.00%)
    39. (0.00000) RY*(11) S   2           s(  0.00%)p 1.00(100.00%)
    40. (0.00000) RY*(12) S   2           s(  0.00%)p 1.00(100.00%)
    41. (0.00000) RY*(13) S   2           s(  0.00%)p 1.00(100.00%)
    42. (0.00000) RY*(14) S   2           s(  0.00%)p 1.00(100.00%)
    43. (0.00000) RY*(15) S   2           s(  0.00%)p 1.00(100.00%)
    44. (0.00000) RY*(16) S   2           s(  0.00%)p 1.00(100.00%)
    45. (0.00000) RY*(17) S   2           s(  0.00%)p 0.00(  0.00%)d 1.00(100.00%)
    46. (0.00000) RY*(18) S   2           s(  0.00%)p 0.00(  0.00%)d 1.00(100.00%)
    47. (0.00000) RY*(19) S   2           s(  0.00%)p 0.00(  0.00%)d 1.00(100.00%)
    48. (0.00000) RY*(20) S   2           s(  0.00%)p 0.00(  0.00%)d 1.00(100.00%)
    49. (0.00000) RY*(21) S   2           s(  0.00%)p 0.00(  0.00%)d 1.00(100.00%)
    50. (0.00000) BD*( 1) C   1 - S   2  
                ( 68.44%)   0.8273* C   1 s(  0.00%)p 1.00(100.00%)d 0.00(  0.00%)
                ( 31.56%)  -0.5617* S   2 s(  0.00%)p 1.00(100.00%)d 0.00(  0.00%)
    51. (0.00000) BD*( 2) C   1 - S   2  
                ( 68.44%)   0.8273* C   1 s(  0.00%)p 1.00(100.00%)d 0.00(  0.00%)
                ( 31.56%)  -0.5617* S   2 s(  0.00%)p 1.00(100.00%)d 0.00(  0.00%)
    52. (0.00000) BD*( 3) C   1 - S   2  
                ( 75.45%)   0.8686* C   1 s(  0.23%)p99.99( 99.76%)d 0.01(  0.00%)
                ( 24.55%)  -0.4955* S   2 s(  0.50%)p99.99( 99.50%)d 0.01(  0.00%)


 NHO Directionality and "Bond Bending" (deviations from line of nuclear centers)

         [Thresholds for printing:  angular deviation  >  1.0 degree]
                                    hybrid p-character > 25.0%
                                    orbital occupancy  >  0.10e

                                Line of Centers        Hybrid 1              Hybrid 2
                                ---------------  -------------------   ------------------
                NBO               Theta   Phi    Theta   Phi    Dev    Theta   Phi    Dev
 ========================================================================================
     1. BD (   1) C   1 - S   2     0.0    0.0    90.0    0.0  90.0     90.0    0.0  90.0
     2. BD (   2) C   1 - S   2     0.0    0.0    90.0   90.0  90.0     90.0   90.0  90.0


 Second Order Perturbation Theory Analysis of Fock Matrix in NBO Basis

     Threshold for printing:   0.25 kcal/mol
                                                                              E(2)  E(j)-E(i) F(i,j)
         Donor NBO (i)                     Acceptor NBO (j)                 kcal/mol   a.u.    a.u. 
 ===================================================================================================

 within unit  1
       None above threshold


 Natural Bond Orbitals (Summary):

                                                            Principal Delocalizations
           NBO                        Occupancy    Energy   (geminal,vicinal,remote)
 ====================================================================================
 Molecular unit  1  (CS)
     1. BD (   1) C   1 - S   2          1.00000    -0.28283   
     2. BD (   2) C   1 - S   2          1.00000    -0.28283   
     3. BD (   3) C   1 - S   2          1.00000    -0.29950   
     4. CR (   1) C   1                  1.00000   -10.81863   
     5. CR (   1) S   2                  1.00000   -89.56210   
     6. CR (   2) S   2                  1.00000    -8.58047   
     7. CR (   3) S   2                  1.00000    -6.21109   
     8. CR (   4) S   2                  1.00000    -6.21109   
     9. CR (   5) S   2                  1.00000    -6.21025   
    10. LP (   1) C   1                  0.99999    -0.71750   
    11. LP (   1) S   2                  0.99997    -0.81230   
    12. RY*(   1) C   1                  0.00003     0.13204   
    13. RY*(   2) C   1                  0.00000     0.72814   
    14. RY*(   3) C   1                  0.00000    22.97049   
    15. RY*(   4) C   1                  0.00000     0.11155   
    16. RY*(   5) C   1                  0.00000     0.54523   
    17. RY*(   6) C   1                  0.00000     2.48539   
    18. RY*(   7) C   1                  0.00000     0.11155   
    19. RY*(   8) C   1                  0.00000     0.54523   
    20. RY*(   9) C   1                  0.00000     2.48539   
    21. RY*(  10) C   1                  0.00000     0.10254   
    22. RY*(  11) C   1                  0.00000     0.58103   
    23. RY*(  12) C   1                  0.00000     2.47430   
    24. RY*(  13) C   1                  0.00000     1.24968   
    25. RY*(  14) C   1                  0.00000     1.24852   
    26. RY*(  15) C   1                  0.00000     1.24852   
    27. RY*(  16) C   1                  0.00000     1.24968   
    28. RY*(  17) C   1                  0.00000     1.24653   
    29. RY*(   1) S   2                  0.00001     0.17145   
    30. RY*(   2) S   2                  0.00000     0.81887   
    31. RY*(   3) S   2                  0.00000   184.24112   
    32. RY*(   4) S   2                  0.00000    12.23825   
    33. RY*(   5) S   2                  0.00000     0.07957   
    34. RY*(   6) S   2                  0.00000     0.41582   
    35. RY*(   7) S   2                  0.00000     1.66027   
    36. RY*(   8) S   2                  0.00000    17.41103   
    37. RY*(   9) S   2                  0.00000     0.07957   
    38. RY*(  10) S   2                  0.00000     0.41582   
    39. RY*(  11) S   2                  0.00000     1.66027   
    40. RY*(  12) S   2                  0.00000    17.41103   
    41. RY*(  13) S   2                  0.00000     0.07201   
    42. RY*(  14) S   2                  0.00000     0.42352   
    43. RY*(  15) S   2                  0.00000     1.66763   
    44. RY*(  16) S   2                  0.00000    17.41678   
    45. RY*(  17) S   2                  0.00000     0.83098   
    46. RY*(  18) S   2                  0.00000     0.83384   
    47. RY*(  19) S   2                  0.00000     0.83384   
    48. RY*(  20) S   2                  0.00000     0.83098   
    49. RY*(  21) S   2                  0.00000     0.83674   
    50. BD*(   1) C   1 - S   2          0.00000    -0.20566   
    51. BD*(   2) C   1 - S   2          0.00000    -0.20566   
    52. BD*(   3) C   1 - S   2          0.00000    -0.18882   
       -------------------------------
              Total Lewis   10.99996  ( 99.9996%)
        Valence non-Lewis    0.00000  (  0.0000%)
        Rydberg non-Lewis    0.00004  (  0.0004%)
       -------------------------------
            Total unit  1   11.00000  (100.0000%)
           Charge unit  1    0.00000
 Sorting of NBOs:                    5    4    6    7    8    9   11   10    3    1
 Sorting of NBOs:                    2   51   50   52   41   33   37   21   15   18
 Sorting of NBOs:                   12   29   34   38   42   19   16   22   13   30
 Sorting of NBOs:                   45   48   46   47   49   28   26   25   24   27
 Sorting of NBOs:                   35   39   43   23   20   17   32   36   40   44
 Sorting of NBOs:                   14   31
 Reordering of NBOs for storage:     5    4    6    7    8    9   11   10    3    1
 Reordering of NBOs for storage:     2   51   50   52   41   33   37   21   15   18
 Reordering of NBOs for storage:    12   29   34   38   42   19   16   22   13   30
 Reordering of NBOs for storage:    45   48   46   47   49   28   26   25   24   27
 Reordering of NBOs for storage:    35   39   43   23   20   17   32   36   40   44
 Reordering of NBOs for storage:    14   31
 Labels of output orbitals:  CR  CR  CR  CR  CR  CR  LP  LP  BD  BD  BD  BD* BD* BD* RY* RY* RY* RY* RY* RY* 
 Labels of output orbitals:  RY* RY* RY* RY* RY* RY* RY* RY* RY* RY* RY* RY* RY* RY* RY* RY* RY* RY* RY* RY* 
 Labels of output orbitals:  RY* RY* RY* RY* RY* RY* RY* RY* RY* RY* RY* RY* 
 GSVD:  LWork=       -2009 too small for GESVD, short by        9020 words or        9020 for optimal perf.


 ***************************************************
 *******         Beta  spin orbitals         *******
 ***************************************************


 NATURAL POPULATIONS:  Natural atomic orbital occupancies 
                                                          
   NAO  Atom  No  lang   Type(AO)    Occupancy      Energy
 ----------------------------------------------------------
     1    C    1  S      Cor( 1S)     1.00000     -10.81863
     2    C    1  S      Val( 2S)     0.99907      -0.71753
     3    C    1  S      Ryd( 3S)     0.00028       0.12918
     4    C    1  S      Ryd( 4S)     0.00000       0.73750
     5    C    1  S      Ryd( 5S)     0.00000      22.96929
     6    C    1  px     Val( 2p)     0.31554      -0.23010
     7    C    1  px     Ryd( 3p)     0.00002       0.11162
     8    C    1  px     Ryd( 4p)     0.00000       0.54523
     9    C    1  px     Ryd( 5p)     0.00000       2.48539
    10    C    1  py     Val( 2p)     0.31554      -0.23010
    11    C    1  py     Ryd( 3p)     0.00002       0.11162
    12    C    1  py     Ryd( 4p)     0.00000       0.54523
    13    C    1  py     Ryd( 5p)     0.00000       2.48539
    14    C    1  pz     Val( 2p)     0.24604      -0.21608
    15    C    1  pz     Ryd( 3p)     0.00012       0.12236
    16    C    1  pz     Ryd( 4p)     0.00001       0.54173
    17    C    1  pz     Ryd( 5p)     0.00000       2.48244
    18    C    1  dxy    Ryd( 3d)     0.00000       1.24968
    19    C    1  dxz    Ryd( 3d)     0.00000       1.24854
    20    C    1  dyz    Ryd( 3d)     0.00000       1.24854
    21    C    1  dx2y2  Ryd( 3d)     0.00000       1.24968
    22    C    1  dz2    Ryd( 3d)     0.00001       1.25269
 
    23    S    2  S      Cor( 1S)     1.00000     -89.56210
    24    S    2  S      Cor( 2S)     1.00000      -8.58047
    25    S    2  S      Val( 3S)     0.99878      -0.81468
    26    S    2  S      Ryd( 4S)     0.00011       0.17142
    27    S    2  S      Ryd( 5S)     0.00000       0.81887
    28    S    2  S      Ryd( 7S)     0.00000     184.24112
    29    S    2  S      Ryd( 6S)     0.00000      12.23825
    30    S    2  px     Cor( 2p)     1.00000      -6.21109
    31    S    2  px     Val( 3p)     0.68442      -0.25853
    32    S    2  px     Ryd( 4p)     0.00001       0.07962
    33    S    2  px     Ryd( 5p)     0.00000       0.41582
    34    S    2  px     Ryd( 6p)     0.00000       1.66027
    35    S    2  px     Ryd( 7p)     0.00000      17.41103
    36    S    2  py     Cor( 2p)     1.00000      -6.21109
    37    S    2  py     Val( 3p)     0.68442      -0.25853
    38    S    2  py     Ryd( 4p)     0.00001       0.07962
    39    S    2  py     Ryd( 5p)     0.00000       0.41582
    40    S    2  py     Ryd( 6p)     0.00000       1.66027
    41    S    2  py     Ryd( 7p)     0.00000      17.41103
    42    S    2  pz     Cor( 2p)     1.00000      -6.21025
    43    S    2  pz     Val( 3p)     0.75551      -0.26985
    44    S    2  pz     Ryd( 4p)     0.00005       0.07193
    45    S    2  pz     Ryd( 5p)     0.00000       0.42352
    46    S    2  pz     Ryd( 6p)     0.00000       1.66763
    47    S    2  pz     Ryd( 7p)     0.00000      17.41678
    48    S    2  dxy    Ryd( 3d)     0.00000       0.83098
    49    S    2  dxz    Ryd( 3d)     0.00001       0.83384
    50    S    2  dyz    Ryd( 3d)     0.00001       0.83384
    51    S    2  dx2y2  Ryd( 3d)     0.00000       0.83098
    52    S    2  dz2    Ryd( 3d)     0.00003       0.83676

 WARNING:  Population inversion found on atom  S    2


 Summary of Natural Population Analysis:                  
                                                          
                                       Natural Population 
                Natural  -----------------------------------------------
    Atom  No    Charge         Core      Valence    Rydberg      Total
 -----------------------------------------------------------------------
      C    1    0.12337      1.00000     1.87618    0.00045     2.87663
      S    2   -0.12337      5.00000     3.12312    0.00025     8.12337
 =======================================================================
   * Total *   -0.00000      6.00000     4.99930    0.00070    11.00000

                                 Natural Population      
 --------------------------------------------------------
   Core                       6.00000 (100.0000% of   6)
   Valence                    4.99930 ( 99.9861% of   5)
   Natural Minimal Basis     10.99930 ( 99.9937% of  11)
   Natural Rydberg Basis      0.00070 (  0.0063% of  11)
 --------------------------------------------------------

    Atom  No          Natural Electron Configuration
 ----------------------------------------------------------------------------
      C    1      [core]2S( 1.00)2p( 0.88)
      S    2      [core]3S( 1.00)3p( 2.12)


 NATURAL BOND ORBITAL ANALYSIS, beta spin orbitals:

                       Occupancies       Lewis Structure    Low   High
           Occ.    -------------------  -----------------   occ   occ
  Cycle   Thresh.   Lewis   Non-Lewis     CR  BD  3C  LP    (L)   (NL)   Dev
 =============================================================================
   1(1)    0.90    10.99996   0.00004      6   3   0   2     0      0    0.00
 -----------------------------------------------------------------------------

 Structure accepted: No low occupancy Lewis orbitals

 --------------------------------------------------------
   Core                      6.00000 (100.000% of   6)
   Valence Lewis             4.99996 ( 99.999% of   5)
  ==================       ============================
   Total Lewis              10.99996 (100.000% of  11)
  -----------------------------------------------------
   Valence non-Lewis         0.00000 (  0.000% of  11)
   Rydberg non-Lewis         0.00004 (  0.000% of  11)
  ==================       ============================
   Total non-Lewis           0.00004 (  0.000% of  11)
 --------------------------------------------------------


       (Occupancy)   Bond orbital/ Coefficients/ Hybrids
 ---------------------------------------------------------------------------------
     1. (1.00000) BD ( 1) C   1 - S   2  
                ( 31.56%)   0.5617* C   1 s(  0.00%)p 1.00(100.00%)d 0.00(  0.00%)
                                            0.0000  0.0000  0.0000  0.0000  0.0000
                                            1.0000 -0.0073  0.0001 -0.0000  0.0000
                                            0.0000  0.0000  0.0000  0.0000  0.0000
                                            0.0000  0.0000  0.0000  0.0032  0.0000
                                            0.0000  0.0000
                ( 68.44%)   0.8273* S   2 s(  0.00%)p 1.00(100.00%)d 0.00(  0.00%)
                                            0.0000  0.0000  0.0000  0.0000  0.0000
                                            0.0000  0.0000 -0.0000  1.0000 -0.0045
                                            0.0001 -0.0001 -0.0000  0.0000  0.0000
                                            0.0000  0.0000  0.0000  0.0000  0.0000
                                            0.0000  0.0000  0.0000  0.0000  0.0000
                                            0.0000 -0.0041  0.0000  0.0000  0.0000
     2. (1.00000) BD ( 2) C   1 - S   2  
                ( 31.56%)   0.5617* C   1 s(  0.00%)p 1.00(100.00%)d 0.00(  0.00%)
                                            0.0000  0.0000  0.0000  0.0000  0.0000
                                            0.0000  0.0000  0.0000  0.0000  1.0000
                                           -0.0073  0.0001 -0.0000  0.0000  0.0000
                                            0.0000  0.0000  0.0000  0.0000  0.0032
                                            0.0000  0.0000
                ( 68.44%)   0.8273* S   2 s(  0.00%)p 1.00(100.00%)d 0.00(  0.00%)
                                            0.0000  0.0000  0.0000  0.0000  0.0000
                                            0.0000  0.0000  0.0000  0.0000  0.0000
                                            0.0000  0.0000  0.0000 -0.0000  1.0000
                                           -0.0045  0.0001 -0.0001 -0.0000  0.0000
                                            0.0000  0.0000  0.0000  0.0000  0.0000
                                            0.0000  0.0000 -0.0041  0.0000  0.0000
     3. (1.00000) BD ( 3) C   1 - S   2  
                ( 24.55%)   0.4955* C   1 s(  0.23%)p99.99( 99.76%)d 0.01(  0.00%)
                                            0.0000 -0.0348 -0.0333 -0.0003 -0.0000
                                            0.0000  0.0000  0.0000  0.0000  0.0000
                                            0.0000  0.0000  0.0000 -0.9986 -0.0189
                                            0.0006 -0.0001  0.0000  0.0000  0.0000
                                            0.0000 -0.0056
                ( 75.45%)   0.8686* S   2 s(  0.50%)p99.99( 99.50%)d 0.01(  0.00%)
                                            0.0000  0.0000 -0.0695 -0.0117 -0.0001
                                           -0.0000 -0.0000  0.0000  0.0000  0.0000
                                            0.0000  0.0000  0.0000  0.0000  0.0000
                                            0.0000  0.0000  0.0000  0.0000  0.0000
                                            0.9975  0.0082  0.0000  0.0001 -0.0000
                                            0.0000  0.0000  0.0000  0.0000 -0.0062
     4. (1.00000) CR ( 1) C   1           s(100.00%)
                                            1.0000 -0.0000  0.0000  0.0000  0.0000
                                            0.0000  0.0000  0.0000  0.0000  0.0000
                                            0.0000  0.0000  0.0000  0.0000 -0.0000
                                            0.0000 -0.0000  0.0000  0.0000  0.0000
                                           -0.0000 -0.0000
     5. (1.00000) CR ( 1) S   2           s(100.00%)
                                            1.0000 -0.0000  0.0000 -0.0000 -0.0000
                                           -0.0000 -0.0000  0.0000  0.0000  0.0000
                                            0.0000  0.0000  0.0000  0.0000  0.0000
                                            0.0000  0.0000  0.0000  0.0000  0.0000
                                            0.0000 -0.0000 -0.0000  0.0000  0.0000
                                            0.0000  0.0000  0.0000 -0.0000 -0.0000
     6. (1.00000) CR ( 2) S   2           s(100.00%)
                                           -0.0000  1.0000  0.0000 -0.0000 -0.0000
                                           -0.0000 -0.0000  0.0000  0.0000  0.0000
                                            0.0000  0.0000  0.0000  0.0000  0.0000
                                            0.0000  0.0000  0.0000  0.0000  0.0000
                                            0.0000 -0.0000 -0.0000  0.0000  0.0000
                                            0.0000  0.0000  0.0000 -0.0000 -0.0000
     7. (1.00000) CR ( 3) S   2           s(  0.00%)p 1.00(100.00%)
                                            0.0000  0.0000  0.0000  0.0000  0.0000
                                            0.0000  0.0000  1.0000  0.0000  0.0000
                                            0.0000  0.0000  0.0000  0.0000  0.0000
                                            0.0000  0.0000  0.0000  0.0000  0.0000
                                            0.0000  0.0000  0.0000  0.0000  0.0000
                                            0.0000  0.0000  0.0000  0.0000  0.0000
     8. (1.00000) CR ( 4) S   2           s(  0.00%)p 1.00(100.00%)
                                            0.0000  0.0000  0.0000  0.0000  0.0000
                                            0.0000  0.0000  0.0000  0.0000  0.0000
                                            0.0000  0.0000  0.0000  1.0000  0.0000
                                            0.0000  0.0000  0.0000  0.0000  0.0000
                                            0.0000  0.0000  0.0000  0.0000  0.0000
                                            0.0000  0.0000  0.0000  0.0000  0.0000
     9. (1.00000) CR ( 5) S   2           s(  0.00%)p 1.00(100.00%)
                                            0.0000  0.0000 -0.0000  0.0000  0.0000
                                            0.0000  0.0000  0.0000  0.0000  0.0000
                                            0.0000  0.0000  0.0000  0.0000  0.0000
                                            0.0000  0.0000  0.0000  0.0000  1.0000
                                           -0.0000  0.0000  0.0000 -0.0000 -0.0000
                                            0.0000  0.0000  0.0000  0.0000  0.0000
    10. (0.99999) LP ( 1) C   1           s( 99.88%)p 0.00(  0.12%)d 0.00(  0.00%)
                                            0.0000  0.9994 -0.0003 -0.0000 -0.0000
                                            0.0000  0.0000  0.0000  0.0000  0.0000
                                            0.0000  0.0000  0.0000 -0.0349  0.0006
                                           -0.0025  0.0004  0.0000  0.0000  0.0000
                                            0.0000  0.0009
    11. (0.99997) LP ( 1) S   2           s( 99.52%)p 0.00(  0.48%)d 0.00(  0.00%)
                                           -0.0000 -0.0000  0.9976 -0.0006 -0.0000
                                           -0.0000 -0.0000  0.0000  0.0000  0.0000
                                            0.0000  0.0000  0.0000  0.0000  0.0000
                                            0.0000  0.0000  0.0000  0.0000  0.0000
                                            0.0695 -0.0010 -0.0014  0.0003  0.0001
                                            0.0000  0.0000  0.0000 -0.0000 -0.0014
    12. (0.00003) RY*( 1) C   1           s( 14.91%)p 5.68( 84.67%)d 0.03(  0.43%)
    13. (0.00000) RY*( 2) C   1           s( 96.23%)p 0.04(  3.77%)
    14. (0.00000) RY*( 3) C   1           s(100.00%)p 0.00(  0.00%)d 0.00(  0.00%)
    15. (0.00000) RY*( 4) C   1           s(  0.00%)p 1.00(100.00%)
    16. (0.00000) RY*( 5) C   1           s(  0.00%)p 1.00(100.00%)
    17. (0.00000) RY*( 6) C   1           s(  0.00%)p 1.00(100.00%)
    18. (0.00000) RY*( 7) C   1           s(  0.00%)p 1.00(100.00%)
    19. (0.00000) RY*( 8) C   1           s(  0.00%)p 1.00(100.00%)
    20. (0.00000) RY*( 9) C   1           s(  0.00%)p 1.00(100.00%)
    21. (0.00000) RY*(10) C   1           s( 88.30%)p 0.13( 11.70%)d 0.00(  0.00%)
    22. (0.00000) RY*(11) C   1           s(  0.38%)p99.99( 99.62%)
    23. (0.00000) RY*(12) C   1           s(  0.01%)p99.99( 99.99%)
    24. (0.00000) RY*(13) C   1           s(  0.00%)p 0.00(  0.00%)d 1.00(100.00%)
    25. (0.00000) RY*(14) C   1           s(  0.00%)p 0.00(  0.00%)d 1.00(100.00%)
    26. (0.00000) RY*(15) C   1           s(  0.00%)p 0.00(  0.00%)d 1.00(100.00%)
    27. (0.00000) RY*(16) C   1           s(  0.00%)p 0.00(  0.00%)d 1.00(100.00%)
    28. (0.00000) RY*(17) C   1           s(  0.06%)p 5.72(  0.37%)d99.99( 99.57%)
    29. (0.00001) RY*( 1) S   2           s( 99.99%)p 0.00(  0.01%)
    30. (0.00000) RY*( 2) S   2           s(100.00%)p 0.00(  0.00%)
    31. (0.00000) RY*( 3) S   2           s(100.00%)
    32. (0.00000) RY*( 4) S   2           s(100.00%)
    33. (0.00000) RY*( 5) S   2           s(  0.00%)p 1.00(100.00%)
    34. (0.00000) RY*( 6) S   2           s(  0.00%)p 1.00(100.00%)
    35. (0.00000) RY*( 7) S   2           s(  0.00%)p 1.00(100.00%)
    36. (0.00000) RY*( 8) S   2           s(  0.00%)p 1.00(100.00%)
    37. (0.00000) RY*( 9) S   2           s(  0.00%)p 1.00(100.00%)
    38. (0.00000) RY*(10) S   2           s(  0.00%)p 1.00(100.00%)
    39. (0.00000) RY*(11) S   2           s(  0.00%)p 1.00(100.00%)
    40. (0.00000) RY*(12) S   2           s(  0.00%)p 1.00(100.00%)
    41. (0.00000) RY*(13) S   2           s(  0.00%)p 1.00(100.00%)
    42. (0.00000) RY*(14) S   2           s(  0.00%)p 1.00(100.00%)
    43. (0.00000) RY*(15) S   2           s(  0.00%)p 1.00(100.00%)
    44. (0.00000) RY*(16) S   2           s(  0.00%)p 1.00(100.00%)
    45. (0.00000) RY*(17) S   2           s(  0.00%)p 0.00(  0.00%)d 1.00(100.00%)
    46. (0.00000) RY*(18) S   2           s(  0.00%)p 0.00(  0.00%)d 1.00(100.00%)
    47. (0.00000) RY*(19) S   2           s(  0.00%)p 0.00(  0.00%)d 1.00(100.00%)
    48. (0.00000) RY*(20) S   2           s(  0.00%)p 0.00(  0.00%)d 1.00(100.00%)
    49. (0.00000) RY*(21) S   2           s(  0.00%)p 0.00(  0.00%)d 1.00(100.00%)
    50. (0.00000) BD*( 1) C   1 - S   2  
                ( 68.44%)   0.8273* C   1 s(  0.00%)p 1.00(100.00%)d 0.00(  0.00%)
                ( 31.56%)  -0.5617* S   2 s(  0.00%)p 1.00(100.00%)d 0.00(  0.00%)
    51. (0.00000) BD*( 2) C   1 - S   2  
                ( 68.44%)   0.8273* C   1 s(  0.00%)p 1.00(100.00%)d 0.00(  0.00%)
                ( 31.56%)  -0.5617* S   2 s(  0.00%)p 1.00(100.00%)d 0.00(  0.00%)
    52. (0.00000) BD*( 3) C   1 - S   2  
                ( 75.45%)   0.8686* C   1 s(  0.23%)p99.99( 99.76%)d 0.01(  0.00%)
                ( 24.55%)  -0.4955* S   2 s(  0.50%)p99.99( 99.50%)d 0.01(  0.00%)


 NHO Directionality and "Bond Bending" (deviations from line of nuclear centers)

         [Thresholds for printing:  angular deviation  >  1.0 degree]
                                    hybrid p-character > 25.0%
                                    orbital occupancy  >  0.10e

                                Line of Centers        Hybrid 1              Hybrid 2
                                ---------------  -------------------   ------------------
                NBO               Theta   Phi    Theta   Phi    Dev    Theta   Phi    Dev
 ========================================================================================
     1. BD (   1) C   1 - S   2     0.0    0.0    90.0    0.0  90.0     90.0    0.0  90.0
     2. BD (   2) C   1 - S   2     0.0    0.0    90.0   90.0  90.0     90.0   90.0  90.0


 Second Order Perturbation Theory Analysis of Fock Matrix in NBO Basis

     Threshold for printing:   0.25 kcal/mol
                                                                              E(2)  E(j)-E(i) F(i,j)
         Donor NBO (i)                     Acceptor NBO (j)                 kcal/mol   a.u.    a.u. 
 ===================================================================================================

 within unit  1
       None above threshold


 Natural Bond Orbitals (Summary):

                                                            Principal Delocalizations
           NBO                        Occupancy    Energy   (geminal,vicinal,remote)
 ====================================================================================
 Molecular unit  1  (CS)
     1. BD (   1) C   1 - S   2          1.00000    -0.28283   
     2. BD (   2) C   1 - S   2          1.00000    -0.28283   
     3. BD (   3) C   1 - S   2          1.00000    -0.29950   
     4. CR (   1) C   1                  1.00000   -10.81863   
     5. CR (   1) S   2                  1.00000   -89.56210   
     6. CR (   2) S   2                  1.00000    -8.58047   
     7. CR (   3) S   2                  1.00000    -6.21109   
     8. CR (   4) S   2                  1.00000    -6.21109   
     9. CR (   5) S   2                  1.00000    -6.21025   
    10. LP (   1) C   1                  0.99999    -0.71750   
    11. LP (   1) S   2                  0.99997    -0.81230   
    12. RY*(   1) C   1                  0.00003     0.13204   
    13. RY*(   2) C   1                  0.00000     0.72814   
    14. RY*(   3) C   1                  0.00000    22.97049   
    15. RY*(   4) C   1                  0.00000     0.11155   
    16. RY*(   5) C   1                  0.00000     0.54523   
    17. RY*(   6) C   1                  0.00000     2.48539   
    18. RY*(   7) C   1                  0.00000     0.11155   
    19. RY*(   8) C   1                  0.00000     0.54523   
    20. RY*(   9) C   1                  0.00000     2.48539   
    21. RY*(  10) C   1                  0.00000     0.10254   
    22. RY*(  11) C   1                  0.00000     0.58103   
    23. RY*(  12) C   1                  0.00000     2.47430   
    24. RY*(  13) C   1                  0.00000     1.24968   
    25. RY*(  14) C   1                  0.00000     1.24852   
    26. RY*(  15) C   1                  0.00000     1.24852   
    27. RY*(  16) C   1                  0.00000     1.24968   
    28. RY*(  17) C   1                  0.00000     1.24653   
    29. RY*(   1) S   2                  0.00001     0.17145   
    30. RY*(   2) S   2                  0.00000     0.81887   
    31. RY*(   3) S   2                  0.00000   184.24112   
    32. RY*(   4) S   2                  0.00000    12.23825   
    33. RY*(   5) S   2                  0.00000     0.07957   
    34. RY*(   6) S   2                  0.00000     0.41582   
    35. RY*(   7) S   2                  0.00000     1.66027   
    36. RY*(   8) S   2                  0.00000    17.41103   
    37. RY*(   9) S   2                  0.00000     0.07957   
    38. RY*(  10) S   2                  0.00000     0.41582   
    39. RY*(  11) S   2                  0.00000     1.66027   
    40. RY*(  12) S   2                  0.00000    17.41103   
    41. RY*(  13) S   2                  0.00000     0.07201   
    42. RY*(  14) S   2                  0.00000     0.42352   
    43. RY*(  15) S   2                  0.00000     1.66763   
    44. RY*(  16) S   2                  0.00000    17.41678   
    45. RY*(  17) S   2                  0.00000     0.83098   
    46. RY*(  18) S   2                  0.00000     0.83384   
    47. RY*(  19) S   2                  0.00000     0.83384   
    48. RY*(  20) S   2                  0.00000     0.83098   
    49. RY*(  21) S   2                  0.00000     0.83674   
    50. BD*(   1) C   1 - S   2          0.00000    -0.20566   
    51. BD*(   2) C   1 - S   2          0.00000    -0.20566   
    52. BD*(   3) C   1 - S   2          0.00000    -0.18882   
       -------------------------------
              Total Lewis   10.99996  ( 99.9996%)
        Valence non-Lewis    0.00000  (  0.0000%)
        Rydberg non-Lewis    0.00004  (  0.0004%)
       -------------------------------
            Total unit  1   11.00000  (100.0000%)
           Charge unit  1    0.00000
 Sorting of NBOs:                    5    4    6    8    7    9   11   10    3    2
 Sorting of NBOs:                    1   50   51   52   41   33   37   21   18   15
 Sorting of NBOs:                   12   29   34   38   42   16   19   22   13   30
 Sorting of NBOs:                   45   48   47   46   49   28   25   26   24   27
 Sorting of NBOs:                   39   35   43   23   17   20   32   40   36   44
 Sorting of NBOs:                   14   31
 Reordering of NBOs for storage:     5    4    6    8    7    9   11   10    3    2
 Reordering of NBOs for storage:     1   50   51   52   41   33   37   21   18   15
 Reordering of NBOs for storage:    12   29   34   38   42   16   19   22   13   30
 Reordering of NBOs for storage:    45   48   47   46   49   28   25   26   24   27
 Reordering of NBOs for storage:    39   35   43   23   17   20   32   40   36   44
 Reordering of NBOs for storage:    14   31
 Labels of output orbitals:  CR  CR  CR  CR  CR  CR  LP  LP  BD  BD  BD  BD* BD* BD* RY* RY* RY* RY* RY* RY* 
 Labels of output orbitals:  RY* RY* RY* RY* RY* RY* RY* RY* RY* RY* RY* RY* RY* RY* RY* RY* RY* RY* RY* RY* 
 Labels of output orbitals:  RY* RY* RY* RY* RY* RY* RY* RY* RY* RY* RY* RY* 
 GSVD:  LWork=       -2009 too small for GESVD, short by        9020 words or        9020 for optimal perf.
 Leave Link  607 at Mon Apr 21 19:46:09 2025, MaxMem=   536870912 cpu:               6.4 elap:               0.9
 (Enter /home/szhao/Apps/g16/l701.exe)
 ... and contract with generalized density number  0.
 Compute integral first derivatives.
 Leave Link  701 at Mon Apr 21 19:46:11 2025, MaxMem=   536870912 cpu:               1.3 elap:               0.3
 (Enter /home/szhao/Apps/g16/l702.exe)
 L702 exits ... SP integral derivatives will be done elsewhere.
 Leave Link  702 at Mon Apr 21 19:46:11 2025, MaxMem=   536870912 cpu:               0.3 elap:               0.1
 (Enter /home/szhao/Apps/g16/l703.exe)
 Integral derivatives from FoFJK, PRISM(SPDF).
 Compute integral first derivatives, UseDBF=F ICtDFT=           0.
 Calling FoFJK, ICntrl=      2127 FMM=F ISym2X=1 I1Cent= 0 IOpClX= 1 NMat=1 NMatS=1 NMatT=0.
 FoFJK:  IHMeth= 1 ICntrl=    2127 DoSepK=F KAlg= 0 I1Cent=           0 FoldK=F
 IRaf=         0 NMat=       1 IRICut=       1 DoRegI=T DoRafI=F ISym2E= 1 IDoP0=0 IntGTp=1.
 FoFCou: FMM=F IPFlag=           0 FMFlag=      100000 FMFlg1=         800
         NFxFlg=           0 DoJE=F BraDBF=F KetDBF=F FulRan=T
         wScrn=  0.000000 ICntrl=      2127 IOpCl=  1 I1Cent=           0 NGrid=           0
         NMat0=    1 NMatS0=      1 NMatT0=    0 NMatD0=    1 NMtDS0=    0 NMtDT0=    0
 Petite list used in FoFCou.
 Leave Link  703 at Mon Apr 21 19:46:12 2025, MaxMem=   536870912 cpu:               3.0 elap:               0.4
 (Enter /home/szhao/Apps/g16/l716.exe)
 Dipole        = 0.00000000D+00 0.00000000D+00-1.59286362D+00
 ***** Axes restored to original set *****
 -------------------------------------------------------------------
 Center     Atomic                   Forces (Hartrees/Bohr)
 Number     Number              X              Y              Z
 -------------------------------------------------------------------
      1        6           0.033244571   -0.000000000   -0.000000000
      2       16          -0.033244571   -0.000000000   -0.000000000
 -------------------------------------------------------------------
 Cartesian Forces:  Max     0.033244571 RMS     0.019193762
 Z-matrix is all fixed cartesians, so copy forces.
 Force constants in Cartesian coordinates: 
                1             2             3             4             5 
      1  0.100000D+01
      2  0.000000D+00  0.100000D+01
      3  0.000000D+00  0.000000D+00  0.100000D+01
      4  0.000000D+00  0.000000D+00  0.000000D+00  0.100000D+01
      5  0.000000D+00  0.000000D+00  0.000000D+00  0.000000D+00  0.100000D+01
      6  0.000000D+00  0.000000D+00  0.000000D+00  0.000000D+00  0.000000D+00
                6 
      6  0.100000D+01
 Leave Link  716 at Mon Apr 21 19:46:12 2025, MaxMem=   536870912 cpu:               0.5 elap:               0.1
 (Enter /home/szhao/Apps/g16/l103.exe)

 GradGradGradGradGradGradGradGradGradGradGradGradGradGradGradGradGradGrad
 Berny optimization.
 Search for a local minimum.
 Step number   1 out of a maximum of    2
 All quantities printed in internal units (Hartrees-Bohrs-Radians)
 Second derivative matrix not updated -- first step.
 The second derivative matrix:
                          X1        Y1        Z1        X2        Y2
           X1           1.00000
           Y1           0.00000   1.00000
           Z1           0.00000   0.00000   1.00000
           X2           0.00000   0.00000   0.00000   1.00000
           Y2           0.00000   0.00000   0.00000   0.00000   1.00000
           Z2           0.00000   0.00000   0.00000   0.00000   0.00000
                          Z2
           Z2           1.00000
 ITU=  0
     Eigenvalues ---    1.00000   1.00000   1.00000   1.00000   1.00000
     Eigenvalues ---    1.00000
 Angle between quadratic step and forces=   0.00 degrees.
 ClnCor:  largest displacement from symmetrization is 0.00D+00 for atom     0.
 Linear search not attempted -- first point.
 ClnCor:  largest displacement from symmetrization is 0.00D+00 for atom     0.
 B after Tr=     0.000000    0.000000    0.000000
         Rot=    1.000000    0.000000    0.000000    0.000000 Ang=   0.00 deg.
 Variable       Old X    -DE/DX   Delta X   Delta X   Delta X     New X
                                 (Linear)    (Quad)   (Total)
    X1       -3.66474   0.03324   0.00000   0.03324   0.03324  -3.63149
    Y1        0.00000  -0.00000   0.00000   0.00000   0.00000   0.00000
    Z1        0.00000  -0.00000   0.00000   0.00000   0.00000   0.00000
    X2        3.66474  -0.03324   0.00000  -0.03324  -0.03324   3.63149
    Y2        0.00000  -0.00000   0.00000   0.00000   0.00000   0.00000
    Z2        0.00000  -0.00000   0.00000   0.00000   0.00000   0.00000
         Item               Value     Threshold  Converged?
 Maximum Force            0.033245     0.000450     NO 
 RMS     Force            0.019194     0.000300     NO 
 Maximum Displacement     0.033245     0.001800     NO 
 RMS     Displacement     0.019194     0.001200     NO 
 Predicted change in Energy=-1.105202D-03
 GradGradGradGradGradGradGradGradGradGradGradGradGradGradGradGradGradGrad

 Leave Link  103 at Mon Apr 21 19:46:12 2025, MaxMem=   536870912 cpu:               0.3 elap:               0.1
 (Enter /home/szhao/Apps/g16/l9999.exe)
 1\1\GINC-NODE06\Force\UM062X\6-311+G(d,p)\C1S1\SZHAO\21-Apr-2025\0\\#p
  UM062X/6-311+G** force int=superfine pop=saveNBO\\Title Card Required
 \\0,1\C,-1.939296,0.,0.\S,1.939296,0.,0.\\Version=ES64L-G16RevA.03\Sta
 te=1-SG\HF=-435.746794\S2=0.\S2-1=0.\S2A=0.\RMSD=7.473e-09\RMSF=1.919e
 -02\Dipole=-1.5928636,0.,0.\Quadrupole=4.8551961,-2.427598,-2.427598,0
 .,0.,0.\PG=C*V [C*(C1S1)]\\@


            ARSENIC

 FOR SMELTER FUMES HAVE I BEEN NAMED,
    I AM AN EVIL POISONOUS SMOKE...
 BUT WHEN FROM POISON I AM FREED,
    THROUGH ART AND SLEIGHT OF HAND,
 THEN CAN I CURE BOTH MAN AND BEAST,
    FROM DIRE DISEASE OFTTIMES DIRECT THEM;
 BUT PREPARE ME CORRECTLY, AND TAKE GREAT CARE
    THAT YOU FAITHFULLY KEEP WATCHFUL GUARD OVER ME;
 FOR ELSE I AM POISON, AND POISON REMAIN,
    THAT PIERCES THE HEART OF MANY A ONE.

 ATTRIBUTED TO THE PROBABLY MYTHICAL 15TH
 CENTURY MONK, BASILIUS VALENTINUS
 Job cpu time:       0 days  0 hours  0 minutes 40.1 seconds.
 Elapsed time:       0 days  0 hours  0 minutes  6.0 seconds.
 File lengths (MBytes):  RWF=     17 Int=      0 D2E=      0 Chk=      2 Scr=      2
 Normal termination of Gaussian 16 at Mon Apr 21 19:46:13 2025.
