 Entering Gaussian System, Link 0=g16
 Initial command:
 /home/szhao/Apps/g16/l1.exe "/home/szhao/tmp/Gau-80951.inp" -scrdir="/home/szhao/tmp/"
 Default is to use a total of  16 processors:
                               16 via shared-memory
                                1 via Linda
 Entering Link 1 = /home/szhao/Apps/g16/l1.exe PID=     80952.
  
 Copyright (c) 1988,1990,1992,1993,1995,1998,2003,2009,2016,
            Gaussian, Inc.  All Rights Reserved.
  
 This is part of the Gaussian(R) 16 program.  It is based on
 the Gaussian(R) 09 system (copyright 2009, Gaussian, Inc.),
 the Gaussian(R) 03 system (copyright 2003, Gaussian, Inc.),
 the Gaussian(R) 98 system (copyright 1998, Gaussian, Inc.),
 the Gaussian(R) 94 system (copyright 1995, Gaussian, Inc.),
 the Gaussian 92(TM) system (copyright 1992, Gaussian, Inc.),
 the Gaussian 90(TM) system (copyright 1990, Gaussian, Inc.),
 the Gaussian 88(TM) system (copyright 1988, Gaussian, Inc.),
 the Gaussian 86(TM) system (copyright 1986, Carnegie Mellon
 University), and the Gaussian 82(TM) system (copyright 1983,
 Carnegie Mellon University). Gaussian is a federally registered
 trademark of Gaussian, Inc.
  
 This software contains proprietary and confidential information,
 including trade secrets, belonging to Gaussian, Inc.
  
 This software is provided under written license and may be
 used, copied, transmitted, or stored only in accord with that
 written license.
  
 The following legend is applicable only to US Government
 contracts under FAR:
  
                    RESTRICTED RIGHTS LEGEND
  
 Use, reproduction and disclosure by the US Government is
 subject to restrictions as set forth in subparagraphs (a)
 and (c) of the Commercial Computer Software - Restricted
 Rights clause in FAR 52.227-19.
  
 Gaussian, Inc.
 340 Quinnipiac St., Bldg. 40, Wallingford CT 06492
  
  
 ---------------------------------------------------------------
 Warning -- This program may not be used in any manner that
 competes with the business of Gaussian, Inc. or will provide
 assistance to any competitor of Gaussian, Inc.  The licensee
 of this program is prohibited from giving any competitor of
 Gaussian, Inc. access to this program.  By using this program,
 the user acknowledges that Gaussian, Inc. is engaged in the
 business of creating and licensing software in the field of
 computational chemistry and represents and warrants to the
 licensee that it is not a competitor of Gaussian, Inc. and that
 it will not use this program in any manner prohibited above.
 ---------------------------------------------------------------
  

 Cite this work as:
 Gaussian 16, Revision A.03,
 M. J. Frisch, G. W. Trucks, H. B. Schlegel, G. E. Scuseria, 
 M. A. Robb, J. R. Cheeseman, G. Scalmani, V. Barone, 
 G. A. Petersson, H. Nakatsuji, X. Li, M. Caricato, A. V. Marenich, 
 J. Bloino, B. G. Janesko, R. Gomperts, B. Mennucci, H. P. Hratchian, 
 J. V. Ortiz, A. F. Izmaylov, J. L. Sonnenberg, D. Williams-Young, 
 F. Ding, F. Lipparini, F. Egidi, J. Goings, B. Peng, A. Petrone, 
 T. Henderson, D. Ranasinghe, V. G. Zakrzewski, J. Gao, N. Rega, 
 G. Zheng, W. Liang, M. Hada, M. Ehara, K. Toyota, R. Fukuda, 
 J. Hasegawa, M. Ishida, T. Nakajima, Y. Honda, O. Kitao, H. Nakai, 
 T. Vreven, K. Throssell, J. A. Montgomery, Jr., J. E. Peralta, 
 F. Ogliaro, M. J. Bearpark, J. J. Heyd, E. N. Brothers, K. N. Kudin, 
 V. N. Staroverov, T. A. Keith, R. Kobayashi, J. Normand, 
 K. Raghavachari, A. P. Rendell, J. C. Burant, S. S. Iyengar, 
 J. Tomasi, M. Cossi, J. M. Millam, M. Klene, C. Adamo, R. Cammi, 
 J. W. Ochterski, R. L. Martin, K. Morokuma, O. Farkas, 
 J. B. Foresman, and D. J. Fox, Gaussian, Inc., Wallingford CT, 2016.
 
 ******************************************
 Gaussian 16:  ES64L-G16RevA.03 25-Dec-2016
                21-Apr-2025 
 ******************************************
 %chk=opt.chk
 %mem=4GB
 %nprocshared=8
 Will use up to    8 processors via shared memory.
 --------------------------------------------
 #p opt UM062X/6-311+G** nosymm int=superfine
 --------------------------------------------
 1/18=20,19=15,26=5,38=1/1,3;
 2/9=110,12=2,15=1,17=6,18=5,40=1/2;
 3/5=4,6=6,7=111,11=2,25=1,30=1,71=1,74=-55,75=-7,116=2/1,2,3;
 4//1;
 5/5=2,38=5/2;
 6/7=2,8=2,9=2,10=2,28=1/1;
 7/30=1/1,2,3,16;
 1/18=20,19=15,26=5/3(2);
 2/9=110,15=1/2;
 99//99;
 2/9=110,15=1/2;
 3/5=4,6=6,7=111,11=2,25=1,30=1,71=1,74=-55,75=-7,116=2/1,2,3;
 4/5=5,16=3,69=1/1;
 5/5=2,38=5/2;
 7/30=1/1,2,3,16;
 1/18=20,19=15,26=5/3(-5);
 2/9=110,15=1/2;
 6/7=2,8=2,9=2,10=2,19=2,28=1/1;
 99/9=1/99;
 Leave Link    1 at Mon Apr 21 19:40:35 2025, MaxMem=   536870912 cpu:               3.8 elap:               0.5
 (Enter /home/szhao/Apps/g16/l101.exe)
 -------------------
 Title Card Required
 -------------------
 Symbolic Z-matrix:
 Charge =  0 Multiplicity = 1
 C                    -1   -1.05214   0.        0. 
 S                    -1    1.05214   0.        0. 
 H                    0    -1.62778  -0.92504   0. 
 H                    0    -1.6289    0.92434  -0.00015 
 
 ITRead=  2  2  0  0
 MicOpt= -2 -2 -1 -1
 NAtoms=      4 NQM=        2 NQMF=       2 NMMI=      0 NMMIF=      0
                NMic=       0 NMicF=      0.
                    Isotopes and Nuclear Properties:
 (Nuclear quadrupole moments (NQMom) in fm**2, nuclear magnetic moments (NMagM)
  in nuclear magnetons)

  Atom         1           2           3           4
 IAtWgt=          12          32           1           1
 AtmWgt=  12.0000000  31.9720718   1.0078250   1.0078250
 NucSpn=           0           0           1           1
 AtZEff=  -0.0000000  -0.0000000  -0.0000000  -0.0000000
 NQMom=    0.0000000   0.0000000   0.0000000   0.0000000
 NMagM=    0.0000000   0.0000000   2.7928460   2.7928460
 AtZNuc=   6.0000000  16.0000000   1.0000000   1.0000000
 Leave Link  101 at Mon Apr 21 19:40:36 2025, MaxMem=   536870912 cpu:               2.9 elap:               0.4
 (Enter /home/szhao/Apps/g16/l103.exe)

 GradGradGradGradGradGradGradGradGradGradGradGradGradGradGradGradGradGrad
 Berny optimization.
 Initialization pass.
                           ----------------------------
                           !    Initial Parameters    !
                           ! (Angstroms and Degrees)  !
 --------------------------                            --------------------------
 ! Name  Definition              Value          Derivative Info.                !
 --------------------------------------------------------------------------------
 ! X1    R(1,-1)                -1.0521         Frozen                          !
 ! Y1    R(1,-2)                 0.0            Frozen                          !
 ! Z1    R(1,-3)                 0.0            Frozen                          !
 ! X2    R(2,-1)                 1.0521         Frozen                          !
 ! Y2    R(2,-2)                 0.0            Frozen                          !
 ! Z2    R(2,-3)                 0.0            Frozen                          !
 ! R1    R(1,3)                  1.0895         estimate D2E/DX2                !
 ! R2    R(1,4)                  1.0895         estimate D2E/DX2                !
 ! A1    A(2,1,3)              121.8936         estimate D2E/DX2                !
 ! A2    A(2,1,4)              121.9628         estimate D2E/DX2                !
 ! A3    A(3,1,4)              116.1436         estimate D2E/DX2                !
 ! D1    D(2,1,4,3)            179.9911         estimate D2E/DX2                !
 --------------------------------------------------------------------------------
 Trust Radius=3.00D-01 FncErr=1.00D-07 GrdErr=1.00D-07 EigMax=2.50D+02 EigMin=1.00D-04
 Number of steps in this run=     22 maximum allowed number of steps=    100.
 GradGradGradGradGradGradGradGradGradGradGradGradGradGradGradGradGradGrad

 Leave Link  103 at Mon Apr 21 19:40:37 2025, MaxMem=   536870912 cpu:               0.8 elap:               0.3
 (Enter /home/szhao/Apps/g16/l202.exe)
                          Input orientation:                          
 ---------------------------------------------------------------------
 Center     Atomic      Atomic             Coordinates (Angstroms)
 Number     Number       Type             X           Y           Z
 ---------------------------------------------------------------------
      1          6           0       -1.052140    0.000000    0.000000
      2         16           0        1.052140    0.000000    0.000000
      3          1           0       -1.627782   -0.925037    0.000000
      4          1           0       -1.628896    0.924339   -0.000152
 ---------------------------------------------------------------------
                    Distance matrix (angstroms):
                    1          2          3          4
     1  C    0.000000
     2  S    2.104279   0.000000
     3  H    1.089522   2.835079   0.000000
     4  H    1.089518   2.835905   1.849376   0.000000
 Symmetry turned off by external request.
 Stoichiometry    CH2S
 Framework group  C1[X(CH2S)]
 Deg. of freedom     6
 Full point group                 C1      NOp   1
 Rotational constants (GHZ):         293.2322148          10.7106068          10.3331770
 Leave Link  202 at Mon Apr 21 19:40:37 2025, MaxMem=   536870912 cpu:               0.1 elap:               0.1
 (Enter /home/szhao/Apps/g16/l301.exe)
 Standard basis: 6-311+G(d,p) (5D, 7F)
 Ernie: Thresh=  0.10000D-02 Tol=  0.10000D-05 Strict=F.
    64 basis functions,   102 primitive gaussians,    66 cartesian basis functions
    12 alpha electrons       12 beta electrons
       nuclear repulsion energy        36.2283145379 Hartrees.
 IExCor= 4336 DFT=T Ex+Corr=M062X ExCW=0 ScaHFX=  0.540000
 ScaDFX=  1.000000  1.000000  1.000000  1.000000 ScalE2=  1.000000  1.000000
 IRadAn=      7 IRanWt=     -1 IRanGd=            0 ICorTp=0 IEmpDi=  4
 NAtoms=    4 NActive=    4 NUniq=    4 SFac= 1.00D+00 NAtFMM=   60 NAOKFM=F Big=F
 Integral buffers will be    131072 words long.
 Raffenetti 2 integral format.
 Two-electron integral symmetry is turned off.
 Leave Link  301 at Mon Apr 21 19:40:37 2025, MaxMem=   536870912 cpu:               1.0 elap:               0.2
 (Enter /home/szhao/Apps/g16/l302.exe)
 NPDir=0 NMtPBC=     1 NCelOv=     1 NCel=       1 NClECP=     1 NCelD=      1
         NCelK=      1 NCelE2=     1 NClLst=     1 CellRange=     0.0.
 One-electron integrals computed using PRISM.
 NBasis=    64 RedAO= T EigKep=  2.26D-03  NBF=    64
 NBsUse=    64 1.00D-06 EigRej= -1.00D+00 NBFU=    64
 Precomputing XC quadrature grid using
 IXCGrd= 4 IRadAn=           7 IRanWt=          -1 IRanGd=           0 AccXCQ= 0.00D+00.
 Generated NRdTot=       0 NPtTot=           0 NUsed=           0 NTot=          32
 NSgBfM=    66    66    66    66    66 MxSgAt=     4 MxSgA2=     4.
 Leave Link  302 at Mon Apr 21 19:40:38 2025, MaxMem=   536870912 cpu:               1.4 elap:               0.3
 (Enter /home/szhao/Apps/g16/l303.exe)
 DipDrv:  MaxL=1.
 Leave Link  303 at Mon Apr 21 19:40:38 2025, MaxMem=   536870912 cpu:               0.7 elap:               0.1
 (Enter /home/szhao/Apps/g16/l401.exe)
 ExpMin= 4.05D-02 ExpMax= 9.34D+04 ExpMxC= 3.17D+03 IAcc=3 IRadAn=         7 AccDes= 0.00D+00
 Harris functional with IExCor= 1009 and IRadAn=       7 diagonalized for initial guess.
 HarFok:  IExCor= 1009 AccDes= 0.00D+00 IRadAn=         7 IDoV= 1 UseB2=F ITyADJ=14
 ICtDFT=  3500011 ScaDFX=  1.000000  1.000000  1.000000  1.000000
 FoFCou: FMM=F IPFlag=           0 FMFlag=      100000 FMFlg1=           0
         NFxFlg=           0 DoJE=T BraDBF=F KetDBF=T FulRan=T
         wScrn=  0.000000 ICntrl=       500 IOpCl=  0 I1Cent=   200000004 NGrid=           0
         NMat0=    1 NMatS0=      1 NMatT0=    0 NMatD0=    1 NMtDS0=    0 NMtDT0=    0
 Symmetry not used in FoFCou.
 Harris En= -437.146763049777    
 JPrj=0 DoOrth=F DoCkMO=F.
 Initial guess <Sx>= 0.0000 <Sy>= 0.0000 <Sz>= 0.0000 <S**2>=-0.0000 S=-0.0000
 Leave Link  401 at Mon Apr 21 19:40:39 2025, MaxMem=   536870912 cpu:               2.6 elap:               0.4
 (Enter /home/szhao/Apps/g16/l502.exe)
 Keep R1 and R2 ints in memory in canonical form, NReq=11470680.
 FoFCou: FMM=F IPFlag=           0 FMFlag=           0 FMFlg1=           0
         NFxFlg=           0 DoJE=F BraDBF=F KetDBF=F FulRan=T
         wScrn=  0.000000 ICntrl=       600 IOpCl=  0 I1Cent=           0 NGrid=           0
         NMat0=    1 NMatS0=   2080 NMatT0=    0 NMatD0=    1 NMtDS0=    0 NMtDT0=    0
 Symmetry not used in FoFCou.
 Two-electron integral symmetry not used.
 UHF open shell SCF:
 Using DIIS extrapolation, IDIIS=  1040.
 NGot=   536870912 LenX=   532532574 LenY=   532527777
 Requested convergence on RMS density matrix=1.00D-08 within 128 cycles.
 Requested convergence on MAX density matrix=1.00D-06.
 Requested convergence on             energy=1.00D-06.
 No special actions if energy rises.

 Cycle   1  Pass 1  IDiag  1:
 E= -437.289904889660    
 DIIS: error= 3.36D-02 at cycle   1 NSaved=   1.
 NSaved= 1 IEnMin= 1 EnMin= -437.289904889660     IErMin= 1 ErrMin= 3.36D-02
 ErrMax= 3.36D-02  0.00D+00 EMaxC= 1.00D-01 BMatC= 3.31D-01 BMatP= 3.31D-01
 IDIUse=3 WtCom= 6.64D-01 WtEn= 3.36D-01
 Coeff-Com:  0.100D+01
 Coeff-En:   0.100D+01
 Coeff:      0.100D+01
 Gap=     0.267 Goal=   None    Shift=    0.000
 Gap=     0.267 Goal=   None    Shift=    0.000
 GapD=    0.267 DampG=1.000 DampE=0.500 DampFc=0.5000 IDamp=-1.
 Damping current iteration by 5.00D-01
 RMSDP=6.63D-03 MaxDP=1.33D-01              OVMax= 3.77D-01

 Cycle   2  Pass 1  IDiag  1:
 E= -437.290487115394     Delta-E=       -0.000582225734 Rises=F Damp=T
 DIIS: error= 1.88D-02 at cycle   2 NSaved=   2.
 NSaved= 2 IEnMin= 2 EnMin= -437.290487115394     IErMin= 2 ErrMin= 1.88D-02
 ErrMax= 1.88D-02  0.00D+00 EMaxC= 1.00D-01 BMatC= 7.23D-02 BMatP= 3.31D-01
 IDIUse=3 WtCom= 8.12D-01 WtEn= 1.88D-01
 Coeff-Com:  0.214D+00 0.786D+00
 Coeff-En:   0.496D+00 0.504D+00
 Coeff:      0.267D+00 0.733D+00
 Gap=     0.164 Goal=   None    Shift=    0.000
 Gap=     0.164 Goal=   None    Shift=    0.000
 RMSDP=2.77D-03 MaxDP=5.18D-02 DE=-5.82D-04 OVMax= 3.04D-01

 Cycle   3  Pass 1  IDiag  1:
 E= -437.334678337290     Delta-E=       -0.044191221896 Rises=F Damp=F
 DIIS: error= 1.53D-02 at cycle   3 NSaved=   3.
 NSaved= 3 IEnMin= 3 EnMin= -437.334678337290     IErMin= 3 ErrMin= 1.53D-02
 ErrMax= 1.53D-02  0.00D+00 EMaxC= 1.00D-01 BMatC= 2.43D-02 BMatP= 7.23D-02
 IDIUse=3 WtCom= 8.47D-01 WtEn= 1.53D-01
 Coeff-Com: -0.931D-01 0.342D+00 0.751D+00
 Coeff-En:   0.000D+00 0.000D+00 0.100D+01
 Coeff:     -0.788D-01 0.290D+00 0.789D+00
 Gap=     0.190 Goal=   None    Shift=    0.000
 Gap=     0.190 Goal=   None    Shift=    0.000
 RMSDP=1.64D-03 MaxDP=3.69D-02 DE=-4.42D-02 OVMax= 9.68D-02

 Cycle   4  Pass 1  IDiag  1:
 E= -437.340574577380     Delta-E=       -0.005896240090 Rises=F Damp=F
 DIIS: error= 7.33D-03 at cycle   4 NSaved=   4.
 NSaved= 4 IEnMin= 4 EnMin= -437.340574577380     IErMin= 4 ErrMin= 7.33D-03
 ErrMax= 7.33D-03  0.00D+00 EMaxC= 1.00D-01 BMatC= 9.07D-03 BMatP= 2.43D-02
 IDIUse=3 WtCom= 9.27D-01 WtEn= 7.33D-02
 Coeff-Com:  0.644D-01-0.147D+00 0.182D+00 0.901D+00
 Coeff-En:   0.000D+00 0.000D+00 0.302D+00 0.698D+00
 Coeff:      0.597D-01-0.136D+00 0.190D+00 0.886D+00
 Gap=     0.183 Goal=   None    Shift=    0.000
 Gap=     0.183 Goal=   None    Shift=    0.000
 RMSDP=6.11D-04 MaxDP=1.07D-02 DE=-5.90D-03 OVMax= 2.39D-02

 Cycle   5  Pass 1  IDiag  1:
 E= -437.343466182571     Delta-E=       -0.002891605191 Rises=F Damp=F
 DIIS: error= 3.55D-04 at cycle   5 NSaved=   5.
 NSaved= 5 IEnMin= 5 EnMin= -437.343466182571     IErMin= 5 ErrMin= 3.55D-04
 ErrMax= 3.55D-04  0.00D+00 EMaxC= 1.00D-01 BMatC= 1.61D-05 BMatP= 9.07D-03
 IDIUse=3 WtCom= 9.96D-01 WtEn= 3.55D-03
 Coeff-Com: -0.878D-02 0.129D-01-0.401D-01-0.136D+00 0.117D+01
 Coeff-En:   0.000D+00 0.000D+00 0.000D+00 0.000D+00 0.100D+01
 Coeff:     -0.875D-02 0.129D-01-0.400D-01-0.135D+00 0.117D+01
 Gap=     0.183 Goal=   None    Shift=    0.000
 Gap=     0.183 Goal=   None    Shift=    0.000
 RMSDP=1.08D-04 MaxDP=2.03D-03 DE=-2.89D-03 OVMax= 6.17D-03

 Cycle   6  Pass 1  IDiag  1:
 E= -437.343493299608     Delta-E=       -0.000027117037 Rises=F Damp=F
 DIIS: error= 2.58D-04 at cycle   6 NSaved=   6.
 NSaved= 6 IEnMin= 6 EnMin= -437.343493299608     IErMin= 6 ErrMin= 2.58D-04
 ErrMax= 2.58D-04  0.00D+00 EMaxC= 1.00D-01 BMatC= 1.55D-05 BMatP= 1.61D-05
 IDIUse=3 WtCom= 9.97D-01 WtEn= 2.58D-03
 Coeff-Com: -0.899D-02 0.197D-01-0.350D-01-0.171D+00 0.283D+00 0.912D+00
 Coeff-En:   0.000D+00 0.000D+00 0.000D+00 0.000D+00 0.000D+00 0.100D+01
 Coeff:     -0.897D-02 0.197D-01-0.349D-01-0.171D+00 0.283D+00 0.913D+00
 Gap=     0.182 Goal=   None    Shift=    0.000
 Gap=     0.182 Goal=   None    Shift=    0.000
 RMSDP=5.07D-05 MaxDP=9.52D-04 DE=-2.71D-05 OVMax= 2.14D-03

 Cycle   7  Pass 1  IDiag  1:
 E= -437.343501697736     Delta-E=       -0.000008398128 Rises=F Damp=F
 DIIS: error= 1.14D-04 at cycle   7 NSaved=   7.
 NSaved= 7 IEnMin= 7 EnMin= -437.343501697736     IErMin= 7 ErrMin= 1.14D-04
 ErrMax= 1.14D-04  0.00D+00 EMaxC= 1.00D-01 BMatC= 2.20D-06 BMatP= 1.55D-05
 IDIUse=3 WtCom= 9.99D-01 WtEn= 1.14D-03
 Coeff-Com:  0.657D-03-0.113D-02 0.144D-02-0.659D-02-0.127D+00-0.526D-01
 Coeff-Com:  0.119D+01
 Coeff-En:   0.000D+00 0.000D+00 0.000D+00 0.000D+00 0.000D+00 0.000D+00
 Coeff-En:   0.100D+01
 Coeff:      0.656D-03-0.112D-02 0.144D-02-0.658D-02-0.127D+00-0.526D-01
 Coeff:      0.119D+01
 Gap=     0.182 Goal=   None    Shift=    0.000
 Gap=     0.182 Goal=   None    Shift=    0.000
 RMSDP=2.84D-05 MaxDP=5.40D-04 DE=-8.40D-06 OVMax= 1.24D-03

 Cycle   8  Pass 1  IDiag  1:
 E= -437.343503118492     Delta-E=       -0.000001420757 Rises=F Damp=F
 DIIS: error= 9.00D-06 at cycle   8 NSaved=   8.
 NSaved= 8 IEnMin= 8 EnMin= -437.343503118492     IErMin= 8 ErrMin= 9.00D-06
 ErrMax= 9.00D-06  0.00D+00 EMaxC= 1.00D-01 BMatC= 3.01D-08 BMatP= 2.20D-06
 IDIUse=1 WtCom= 1.00D+00 WtEn= 0.00D+00
 Coeff-Com:  0.231D-03-0.327D-03 0.793D-03 0.190D-02-0.243D-01-0.647D-01
 Coeff-Com:  0.207D+00 0.879D+00
 Coeff:      0.231D-03-0.327D-03 0.793D-03 0.190D-02-0.243D-01-0.647D-01
 Coeff:      0.207D+00 0.879D+00
 Gap=     0.182 Goal=   None    Shift=    0.000
 Gap=     0.182 Goal=   None    Shift=    0.000
 RMSDP=3.52D-06 MaxDP=5.69D-05 DE=-1.42D-06 OVMax= 1.44D-04

 Cycle   9  Pass 1  IDiag  1:
 E= -437.343503136642     Delta-E=       -0.000000018150 Rises=F Damp=F
 DIIS: error= 2.69D-06 at cycle   9 NSaved=   9.
 NSaved= 9 IEnMin= 9 EnMin= -437.343503136642     IErMin= 9 ErrMin= 2.69D-06
 ErrMax= 2.69D-06  0.00D+00 EMaxC= 1.00D-01 BMatC= 1.39D-09 BMatP= 3.01D-08
 IDIUse=1 WtCom= 1.00D+00 WtEn= 0.00D+00
 Coeff-Com:  0.736D-04-0.169D-03 0.288D-03 0.175D-02 0.317D-03-0.185D-01
 Coeff-Com: -0.120D-01 0.147D+00 0.881D+00
 Coeff:      0.736D-04-0.169D-03 0.288D-03 0.175D-02 0.317D-03-0.185D-01
 Coeff:     -0.120D-01 0.147D+00 0.881D+00
 Gap=     0.182 Goal=   None    Shift=    0.000
 Gap=     0.182 Goal=   None    Shift=    0.000
 RMSDP=5.87D-07 MaxDP=1.08D-05 DE=-1.81D-08 OVMax= 2.48D-05

 Cycle  10  Pass 1  IDiag  1:
 E= -437.343503137165     Delta-E=       -0.000000000523 Rises=F Damp=F
 DIIS: error= 5.30D-07 at cycle  10 NSaved=  10.
 NSaved=10 IEnMin=10 EnMin= -437.343503137165     IErMin=10 ErrMin= 5.30D-07
 ErrMax= 5.30D-07  0.00D+00 EMaxC= 1.00D-01 BMatC= 7.64D-11 BMatP= 1.39D-09
 IDIUse=1 WtCom= 1.00D+00 WtEn= 0.00D+00
 Coeff-Com: -0.462D-05 0.101D-04 0.288D-04 0.707D-04 0.435D-04-0.249D-03
 Coeff-Com:  0.857D-03-0.113D-01 0.608D-01 0.950D+00
 Coeff:     -0.462D-05 0.101D-04 0.288D-04 0.707D-04 0.435D-04-0.249D-03
 Coeff:      0.857D-03-0.113D-01 0.608D-01 0.950D+00
 Gap=     0.182 Goal=   None    Shift=    0.000
 Gap=     0.182 Goal=   None    Shift=    0.000
 RMSDP=7.72D-08 MaxDP=1.38D-06 DE=-5.23D-10 OVMax= 3.20D-06

 Cycle  11  Pass 1  IDiag  1:
 E= -437.343503137191     Delta-E=       -0.000000000026 Rises=F Damp=F
 DIIS: error= 1.25D-07 at cycle  11 NSaved=  11.
 NSaved=11 IEnMin=11 EnMin= -437.343503137191     IErMin=11 ErrMin= 1.25D-07
 ErrMax= 1.25D-07  0.00D+00 EMaxC= 1.00D-01 BMatC= 2.70D-12 BMatP= 7.64D-11
 IDIUse=1 WtCom= 1.00D+00 WtEn= 0.00D+00
 Coeff-Com:  0.260D-06-0.454D-06-0.836D-06-0.446D-05-0.652D-04 0.470D-03
 Coeff-Com:  0.103D-02-0.539D-02-0.280D-01 0.344D-01 0.998D+00
 Coeff:      0.260D-06-0.454D-06-0.836D-06-0.446D-05-0.652D-04 0.470D-03
 Coeff:      0.103D-02-0.539D-02-0.280D-01 0.344D-01 0.998D+00
 Gap=     0.182 Goal=   None    Shift=    0.000
 Gap=     0.182 Goal=   None    Shift=    0.000
 RMSDP=2.51D-08 MaxDP=4.03D-07 DE=-2.56D-11 OVMax= 9.26D-07

 Cycle  12  Pass 1  IDiag  1:
 E= -437.343503137192     Delta-E=       -0.000000000001 Rises=F Damp=F
 DIIS: error= 7.11D-09 at cycle  12 NSaved=  12.
 NSaved=12 IEnMin=12 EnMin= -437.343503137192     IErMin=12 ErrMin= 7.11D-09
 ErrMax= 7.11D-09  0.00D+00 EMaxC= 1.00D-01 BMatC= 9.84D-15 BMatP= 2.70D-12
 IDIUse=1 WtCom= 1.00D+00 WtEn= 0.00D+00
 Coeff-Com:  0.187D-09 0.152D-07-0.561D-06-0.206D-05-0.215D-05-0.929D-05
 Coeff-Com: -0.155D-03 0.497D-03 0.116D-02-0.150D-01-0.885D-01 0.110D+01
 Coeff:      0.187D-09 0.152D-07-0.561D-06-0.206D-05-0.215D-05-0.929D-05
 Coeff:     -0.155D-03 0.497D-03 0.116D-02-0.150D-01-0.885D-01 0.110D+01
 Gap=     0.182 Goal=   None    Shift=    0.000
 Gap=     0.182 Goal=   None    Shift=    0.000
 RMSDP=3.06D-09 MaxDP=3.61D-08 DE=-1.48D-12 OVMax= 7.97D-08

 SCF Done:  E(UM062X) =  -437.343503137     A.U. after   12 cycles
            NFock= 12  Conv=0.31D-08     -V/T= 2.0026
 <Sx>= 0.0000 <Sy>= 0.0000 <Sz>= 0.0000 <S**2>=-0.0000 S=-0.0000
 <L.S>=  0.00000000000    
 KE= 4.361920740497D+02 PE=-1.109948500367D+03 EE= 2.001846086422D+02
 Annihilation of the first spin contaminant:
 S**2 before annihilation    -0.0000,   after     0.0000
 Leave Link  502 at Mon Apr 21 19:40:44 2025, MaxMem=   536870912 cpu:              42.8 elap:               5.7
 (Enter /home/szhao/Apps/g16/l601.exe)
 Copying SCF densities to generalized density rwf, IOpCl= 1 IROHF=0.

 **********************************************************************

            Population analysis using the SCF density.

 **********************************************************************

 Alpha  occ. eigenvalues --  -89.92531 -10.67121  -8.28318  -6.20437  -6.20241
 Alpha  occ. eigenvalues --   -6.19661  -0.82077  -0.72071  -0.54187  -0.41849
 Alpha  occ. eigenvalues --   -0.32164  -0.30126
 Alpha virt. eigenvalues --   -0.11912  -0.01988   0.02502   0.05265   0.06298
 Alpha virt. eigenvalues --    0.06496   0.08437   0.08562   0.09585   0.14873
 Alpha virt. eigenvalues --    0.17350   0.19218   0.34787   0.36365   0.36867
 Alpha virt. eigenvalues --    0.42617   0.42881   0.55261   0.61403   0.63456
 Alpha virt. eigenvalues --    0.65656   0.75121   0.82466   0.84534   0.84724
 Alpha virt. eigenvalues --    0.90674   0.92210   1.05800   1.24443   1.40432
 Alpha virt. eigenvalues --    1.45830   1.51564   1.60038   1.67440   1.75910
 Alpha virt. eigenvalues --    1.80200   1.86793   1.91015   2.06720   2.41047
 Alpha virt. eigenvalues --    2.47195   2.48175   2.62468   2.73424   3.01806
 Alpha virt. eigenvalues --    3.68393   7.80185  17.46126  17.46474  17.54657
 Alpha virt. eigenvalues --   23.74441 189.05483
  Beta  occ. eigenvalues --  -89.92531 -10.67121  -8.28318  -6.20437  -6.20241
  Beta  occ. eigenvalues --   -6.19661  -0.82077  -0.72071  -0.54187  -0.41849
  Beta  occ. eigenvalues --   -0.32164  -0.30126
  Beta virt. eigenvalues --   -0.11912  -0.01988   0.02502   0.05265   0.06298
  Beta virt. eigenvalues --    0.06496   0.08437   0.08562   0.09585   0.14873
  Beta virt. eigenvalues --    0.17350   0.19218   0.34787   0.36365   0.36867
  Beta virt. eigenvalues --    0.42617   0.42881   0.55261   0.61403   0.63456
  Beta virt. eigenvalues --    0.65656   0.75121   0.82466   0.84534   0.84724
  Beta virt. eigenvalues --    0.90674   0.92210   1.05800   1.24443   1.40432
  Beta virt. eigenvalues --    1.45830   1.51564   1.60038   1.67440   1.75910
  Beta virt. eigenvalues --    1.80200   1.86793   1.91015   2.06720   2.41047
  Beta virt. eigenvalues --    2.47195   2.48175   2.62468   2.73424   3.01806
  Beta virt. eigenvalues --    3.68393   7.80185  17.46126  17.46474  17.54657
  Beta virt. eigenvalues --   23.74441 189.05483
          Condensed to atoms (all electrons):
               1          2          3          4
     1  C    5.227604   0.385410   0.362727   0.362701
     2  S    0.385410  15.728711  -0.023229  -0.023160
     3  H    0.362727  -0.023229   0.495451  -0.038035
     4  H    0.362701  -0.023160  -0.038035   0.495406
          Atomic-Atomic Spin Densities.
               1          2          3          4
     1  C   -0.000000  -0.000000  -0.000000  -0.000000
     2  S   -0.000000   0.000000   0.000000   0.000000
     3  H   -0.000000   0.000000  -0.000000   0.000000
     4  H   -0.000000   0.000000   0.000000  -0.000000
 Mulliken charges and spin densities:
               1          2
     1  C   -0.338442  -0.000000
     2  S   -0.067732   0.000000
     3  H    0.203085  -0.000000
     4  H    0.203089  -0.000000
 Sum of Mulliken charges =  -0.00000  -0.00000
 Mulliken charges and spin densities with hydrogens summed into heavy atoms:
               1          2
     1  C    0.067732  -0.000000
     2  S   -0.067732   0.000000
 Electronic spatial extent (au):  <R**2>=            155.9766
 Charge=             -0.0000 electrons
 Dipole moment (field-independent basis, Debye):
    X=             -2.7046    Y=             -0.0005    Z=             -0.0001  Tot=              2.7046
 Quadrupole moment (field-independent basis, Debye-Ang):
   XX=            -16.3901   YY=            -21.3248   ZZ=            -21.4167
   XY=             -0.0010   XZ=              0.0001   YZ=             -0.0000
 Traceless Quadrupole moment (field-independent basis, Debye-Ang):
   XX=              3.3204   YY=             -1.6143   ZZ=             -1.7061
   XY=             -0.0010   XZ=              0.0001   YZ=             -0.0000
 Octapole moment (field-independent basis, Debye-Ang**2):
  XXX=            -20.3321  YYY=             -0.0011  ZZZ=              0.0003  XYY=            -10.9049
  XXY=              0.0026  XXZ=             -0.0005  XZZ=             -5.6606  YZZ=              0.0004
  YYZ=             -0.0001  XYZ=              0.0004
 Hexadecapole moment (field-independent basis, Debye-Ang**3):
 XXXX=           -152.8348 YYYY=            -37.0740 ZZZZ=            -30.1659 XXXY=             -0.0120
 XXXZ=             -0.0004 YYYX=              0.0012 YYYZ=              0.0002 ZZZX=             -0.0006
 ZZZY=              0.0004 XXYY=            -32.5923 XXZZ=            -33.3310 YYZZ=            -11.6550
 XXYZ=             -0.0001 YYXZ=              0.0001 ZZXY=             -0.0004
 N-N= 3.622831453789D+01 E-N=-1.109948500445D+03  KE= 4.361920740497D+02
                          Isotropic Fermi Contact Couplings
        Atom                 a.u.       MegaHertz       Gauss      10(-4) cm-1
     1  C(13)              0.00000       0.00000       0.00000       0.00000
     2  S(33)              0.00000       0.00000       0.00000       0.00000
     3  H(1)               0.00000       0.00000       0.00000       0.00000
     4  H(1)               0.00000       0.00000       0.00000       0.00000
 --------------------------------------------------------
       Center         ----  Spin Dipole Couplings  ----
                      3XX-RR        3YY-RR        3ZZ-RR
 --------------------------------------------------------
     1   Atom        0.000000      0.000000      0.000000
     2   Atom        0.000000      0.000000      0.000000
     3   Atom        0.000000      0.000000      0.000000
     4   Atom        0.000000      0.000000      0.000000
 --------------------------------------------------------
                        XY            XZ            YZ
 --------------------------------------------------------
     1   Atom        0.000000      0.000000      0.000000
     2   Atom        0.000000      0.000000      0.000000
     3   Atom        0.000000      0.000000      0.000000
     4   Atom        0.000000      0.000000      0.000000
 --------------------------------------------------------


 ---------------------------------------------------------------------------------
              Anisotropic Spin Dipole Couplings in Principal Axis System
 ---------------------------------------------------------------------------------

       Atom             a.u.   MegaHertz   Gauss  10(-4) cm-1        Axes

              Baa     0.0000     0.000     0.000     0.000  1.0000  0.0000  0.0000
     1 C(13)  Bbb     0.0000     0.000     0.000     0.000 -0.0000  1.0000  0.0000
              Bcc     0.0000     0.000     0.000     0.000  0.0000  0.0000  1.0000
 
              Baa     0.0000     0.000     0.000     0.000  1.0000  0.0000  0.0000
     2 S(33)  Bbb     0.0000     0.000     0.000     0.000 -0.0000  1.0000  0.0000
              Bcc     0.0000     0.000     0.000     0.000  0.0000  0.0000  1.0000
 
              Baa     0.0000     0.000     0.000     0.000  1.0000  0.0000  0.0000
     3 H(1)   Bbb     0.0000     0.000     0.000     0.000 -0.0000  1.0000  0.0000
              Bcc     0.0000     0.000     0.000     0.000  0.0000  0.0000  1.0000
 
              Baa     0.0000     0.000     0.000     0.000  1.0000  0.0000  0.0000
     4 H(1)   Bbb     0.0000     0.000     0.000     0.000 -0.0000  1.0000  0.0000
              Bcc     0.0000     0.000     0.000     0.000  0.0000  0.0000  1.0000
 

 ---------------------------------------------------------------------------------

 No NMR shielding tensors so no spin-rotation constants.
 Leave Link  601 at Mon Apr 21 19:40:45 2025, MaxMem=   536870912 cpu:               1.9 elap:               0.3
 (Enter /home/szhao/Apps/g16/l701.exe)
 ... and contract with generalized density number  0.
 Compute integral first derivatives.
 Leave Link  701 at Mon Apr 21 19:40:46 2025, MaxMem=   536870912 cpu:               1.8 elap:               0.3
 (Enter /home/szhao/Apps/g16/l702.exe)
 L702 exits ... SP integral derivatives will be done elsewhere.
 Leave Link  702 at Mon Apr 21 19:40:46 2025, MaxMem=   536870912 cpu:               0.6 elap:               0.1
 (Enter /home/szhao/Apps/g16/l703.exe)
 Integral derivatives from FoFJK, PRISM(SPDF).
 Compute integral first derivatives, UseDBF=F ICtDFT=           0.
 Calling FoFJK, ICntrl=      2127 FMM=F ISym2X=0 I1Cent= 0 IOpClX= 1 NMat=1 NMatS=1 NMatT=0.
 FoFJK:  IHMeth= 1 ICntrl=    2127 DoSepK=F KAlg= 0 I1Cent=           0 FoldK=F
 IRaf=         0 NMat=       1 IRICut=       1 DoRegI=T DoRafI=F ISym2E= 0 IDoP0=0 IntGTp=1.
 FoFCou: FMM=F IPFlag=           0 FMFlag=      100000 FMFlg1=         800
         NFxFlg=           0 DoJE=F BraDBF=F KetDBF=F FulRan=T
         wScrn=  0.000000 ICntrl=      2127 IOpCl=  1 I1Cent=           0 NGrid=           0
         NMat0=    1 NMatS0=      1 NMatT0=    0 NMatD0=    1 NMtDS0=    0 NMtDT0=    0
 Symmetry not used in FoFCou.
 Leave Link  703 at Mon Apr 21 19:40:47 2025, MaxMem=   536870912 cpu:               6.9 elap:               0.9
 (Enter /home/szhao/Apps/g16/l716.exe)
 Dipole        =-1.06408695D+00-2.07012012D-04-5.39697578D-05
 -------------------------------------------------------------------
 Center     Atomic                   Forces (Hartrees/Bohr)
 Number     Number              X              Y              Z
 -------------------------------------------------------------------
      1        6          -0.000000000   -0.000000000   -0.000000000
      2       16          -0.000000000   -0.000000000   -0.000000000
      3        1           0.009564059   -0.003018915    0.000003722
      4        1           0.009594078    0.003055373    0.000003218
 -------------------------------------------------------------------
 Cartesian Forces:  Max     0.009594078 RMS     0.004102507
 Leave Link  716 at Mon Apr 21 19:40:47 2025, MaxMem=   536870912 cpu:               0.3 elap:               0.1
 (Enter /home/szhao/Apps/g16/l103.exe)

 GradGradGradGradGradGradGradGradGradGradGradGradGradGradGradGradGradGrad
 Berny optimization.
 FormGI is forming the generalized inverse of G from B-inverse, IUseBI=4.
 Internal  Forces:  Max     0.019158138 RMS     0.007344546
 Search for a local minimum.
 Step number   1 out of a maximum of   22
 All quantities printed in internal units (Hartrees-Bohrs-Radians)
 RMS Force = .68346D-02 SwitMx=.10000D-02 MixMth= 1
 Mixed Optimization -- RFO/linear search
 Second derivative matrix not updated -- first step.
 The second derivative matrix:
                          X1        Y1        Z1        X2        Y2
           X1           0.50000
           Y1           0.00000   0.50000
           Z1           0.00000   0.00000   0.50000
           X2           0.00000   0.00000   0.00000   0.50000
           Y2           0.00000   0.00000   0.00000   0.00000   0.50000
           Z2           0.00000   0.00000   0.00000   0.00000   0.00000
           R1           0.00000   0.00000   0.00000   0.00000   0.00000
           R2           0.00000   0.00000   0.00000   0.00000   0.00000
           A1           0.00000   0.00000   0.00000   0.00000   0.00000
           A2           0.00000   0.00000   0.00000   0.00000   0.00000
           A3           0.00000   0.00000   0.00000   0.00000   0.00000
           D1           0.00000   0.00000   0.00000   0.00000   0.00000
                          Z2        R1        R2        A1        A2
           Z2           0.50000
           R1           0.00000   0.34868
           R2           0.00000   0.00000   0.34868
           A1           0.00000   0.00000   0.00000   0.16000
           A2           0.00000   0.00000   0.00000   0.00000   0.16000
           A3           0.00000   0.00000   0.00000   0.00000   0.00000
           D1           0.00000   0.00000   0.00000   0.00000   0.00000
                          A3        D1
           A3           0.16000
           D1           0.00000   0.00241
 ITU=  0
     Eigenvalues ---    0.00241   0.16000   0.16000   0.34868   0.34868
     Eigenvalues --- 1000.000001000.000001000.000001000.000001000.00000
     Eigenvalues --- 1000.000001000.00000
 RFO step:  Lambda=-1.69212165D-03 EMin= 2.41201275D-03
 Linear search not attempted -- first point.
 Iteration  1 RMS(Cart)=  0.03482292 RMS(Int)=  0.00072379
 Iteration  2 RMS(Cart)=  0.00072469 RMS(Int)=  0.00000012
 Iteration  3 RMS(Cart)=  0.00000006 RMS(Int)=  0.00000011
 ITry= 1 IFail=0 DXMaxC= 7.71D-02 DCOld= 1.00D+10 DXMaxT= 3.00D-01 DXLimC= 3.00D+00 Rises=F
 Variable       Old X    -DE/DX   Delta X   Delta X   Delta X     New X
                                 (Linear)    (Quad)   (Total)
    X1       -1.98826   0.01916   0.00000   0.00000   0.00000  -1.98826
    Y1        0.00000   0.00006   0.00000   0.00000   0.00000   0.00000
    Z1        0.00000   0.00001   0.00000   0.00000   0.00000   0.00000
    X2        1.98826  -0.00000   0.00000   0.00000   0.00000   1.98826
    Y2        0.00000  -0.00002   0.00000   0.00000   0.00000   0.00000
    Z2        0.00000  -0.00000   0.00000   0.00000   0.00000   0.00000
    R1        2.05890  -0.00249   0.00000  -0.00711  -0.00711   2.05179
    R2        2.05889  -0.00249   0.00000  -0.00710  -0.00710   2.05179
    A1        2.12745  -0.00664   0.00000  -0.04106  -0.04106   2.08639
    A2        2.12865  -0.00672   0.00000  -0.04159  -0.04159   2.08706
    A3        2.02709   0.01336   0.00000   0.08265   0.08265   2.10974
    D1        3.14144   0.00001   0.00000   0.00122   0.00122  -3.14053
         Item               Value     Threshold  Converged?
 Maximum Force            0.013364     0.000450     NO 
 RMS     Force            0.006835     0.000300     NO 
 Maximum Displacement     0.077073     0.001800     NO 
 RMS     Displacement     0.034797     0.001200     NO 
 Predicted change in Energy=-8.548156D-04
 Lowest energy point so far.  Saving SCF results.
 GradGradGradGradGradGradGradGradGradGradGradGradGradGradGradGradGradGrad

 Leave Link  103 at Mon Apr 21 19:40:47 2025, MaxMem=   536870912 cpu:               0.6 elap:               0.2
 (Enter /home/szhao/Apps/g16/l202.exe)
                          Input orientation:                          
 ---------------------------------------------------------------------
 Center     Atomic      Atomic             Coordinates (Angstroms)
 Number     Number       Type             X           Y           Z
 ---------------------------------------------------------------------
      1          6           0       -1.052140    0.000000    0.000000
      2         16           0        1.052140    0.000000    0.000000
      3          1           0       -1.587472   -0.944614    0.000577
      4          1           0       -1.588111    0.944254    0.000415
 ---------------------------------------------------------------------
                    Distance matrix (angstroms):
                    1          2          3          4
     1  C    0.000000
     2  S    2.104279   0.000000
     3  H    1.085761   2.803542   0.000000
     4  H    1.085763   2.804022   1.888868   0.000000
 Symmetry turned off by external request.
 Stoichiometry    CH2S
 Framework group  C1[X(CH2S)]
 Deg. of freedom     6
 Full point group                 C1      NOp   1
 Rotational constants (GHZ):         281.0986613          10.7851262          10.3866152
 Leave Link  202 at Mon Apr 21 19:40:47 2025, MaxMem=   536870912 cpu:               0.1 elap:               0.0
 (Enter /home/szhao/Apps/g16/l301.exe)
 Standard basis: 6-311+G(d,p) (5D, 7F)
 Ernie: Thresh=  0.10000D-02 Tol=  0.10000D-05 Strict=F.
    64 basis functions,   102 primitive gaussians,    66 cartesian basis functions
    12 alpha electrons       12 beta electrons
       nuclear repulsion energy        36.3100478079 Hartrees.
 IExCor= 4336 DFT=T Ex+Corr=M062X ExCW=0 ScaHFX=  0.540000
 ScaDFX=  1.000000  1.000000  1.000000  1.000000 ScalE2=  1.000000  1.000000
 IRadAn=      7 IRanWt=     -1 IRanGd=            0 ICorTp=0 IEmpDi=  4
 NAtoms=    4 NActive=    4 NUniq=    4 SFac= 1.00D+00 NAtFMM=   60 NAOKFM=F Big=F
 Integral buffers will be    131072 words long.
 Raffenetti 2 integral format.
 Two-electron integral symmetry is turned off.
 Leave Link  301 at Mon Apr 21 19:40:48 2025, MaxMem=   536870912 cpu:               0.8 elap:               0.1
 (Enter /home/szhao/Apps/g16/l302.exe)
 NPDir=0 NMtPBC=     1 NCelOv=     1 NCel=       1 NClECP=     1 NCelD=      1
         NCelK=      1 NCelE2=     1 NClLst=     1 CellRange=     0.0.
 One-electron integrals computed using PRISM.
 NBasis=    64 RedAO= T EigKep=  2.21D-03  NBF=    64
 NBsUse=    64 1.00D-06 EigRej= -1.00D+00 NBFU=    64
 Precomputing XC quadrature grid using
 IXCGrd= 4 IRadAn=           7 IRanWt=          -1 IRanGd=           0 AccXCQ= 0.00D+00.
 Generated NRdTot=       0 NPtTot=           0 NUsed=           0 NTot=          32
 NSgBfM=    66    66    66    66    66 MxSgAt=     4 MxSgA2=     4.
 Leave Link  302 at Mon Apr 21 19:40:48 2025, MaxMem=   536870912 cpu:               2.8 elap:               0.4
 (Enter /home/szhao/Apps/g16/l303.exe)
 DipDrv:  MaxL=1.
 Leave Link  303 at Mon Apr 21 19:40:49 2025, MaxMem=   536870912 cpu:               0.5 elap:               0.2
 (Enter /home/szhao/Apps/g16/l401.exe)
 Initial guess from the checkpoint file:  "opt.chk"
 B after Tr=     0.006385    0.000048    0.000136
         Rot=    1.000000    0.000002   -0.000040    0.000019 Ang=   0.01 deg.
 Guess basis will be translated and rotated to current coordinates.
 JPrj=2 DoOrth=T DoCkMO=T.
 Initial guess <Sx>= 0.0000 <Sy>= 0.0000 <Sz>= 0.0000 <S**2>=-0.0000 S=-0.0000
 Generating alternative initial guess.
 ExpMin= 4.05D-02 ExpMax= 9.34D+04 ExpMxC= 3.17D+03 IAcc=3 IRadAn=         5 AccDes= 0.00D+00
 Harris functional with IExCor= 1009 and IRadAn=       5 diagonalized for initial guess.
 HarFok:  IExCor= 1009 AccDes= 0.00D+00 IRadAn=         5 IDoV= 1 UseB2=F ITyADJ=14
 ICtDFT=  3500011 ScaDFX=  1.000000  1.000000  1.000000  1.000000
 FoFCou: FMM=F IPFlag=           0 FMFlag=      100000 FMFlg1=           0
         NFxFlg=           0 DoJE=T BraDBF=F KetDBF=T FulRan=T
         wScrn=  0.000000 ICntrl=       500 IOpCl=  0 I1Cent=   200000004 NGrid=           0
         NMat0=    1 NMatS0=      1 NMatT0=    0 NMatD0=    1 NMtDS0=    0 NMtDT0=    0
 Symmetry not used in FoFCou.
 Harris En= -437.147827515403    
 Leave Link  401 at Mon Apr 21 19:40:49 2025, MaxMem=   536870912 cpu:               2.7 elap:               0.4
 (Enter /home/szhao/Apps/g16/l502.exe)
 Keep R1 and R2 ints in memory in canonical form, NReq=11470680.
 FoFCou: FMM=F IPFlag=           0 FMFlag=           0 FMFlg1=           0
         NFxFlg=           0 DoJE=F BraDBF=F KetDBF=F FulRan=T
         wScrn=  0.000000 ICntrl=       600 IOpCl=  0 I1Cent=           0 NGrid=           0
         NMat0=    1 NMatS0=   2080 NMatT0=    0 NMatD0=    1 NMtDS0=    0 NMtDT0=    0
 Symmetry not used in FoFCou.
 Two-electron integral symmetry not used.
 UHF open shell SCF:
 Using DIIS extrapolation, IDIIS=  1040.
 NGot=   536870912 LenX=   532532574 LenY=   532527777
 Requested convergence on RMS density matrix=1.00D-08 within 128 cycles.
 Requested convergence on MAX density matrix=1.00D-06.
 Requested convergence on             energy=1.00D-06.
 No special actions if energy rises.

 Cycle   1  Pass 1  IDiag  1:
 E= -437.344563118694    
 DIIS: error= 1.66D-03 at cycle   1 NSaved=   1.
 NSaved= 1 IEnMin= 1 EnMin= -437.344563118694     IErMin= 1 ErrMin= 1.66D-03
 ErrMax= 1.66D-03  0.00D+00 EMaxC= 1.00D-01 BMatC= 5.18D-04 BMatP= 5.18D-04
 IDIUse=3 WtCom= 9.83D-01 WtEn= 1.66D-02
 Coeff-Com:  0.100D+01
 Coeff-En:   0.100D+01
 Coeff:      0.100D+01
 Gap=     0.453 Goal=   None    Shift=    0.000
 Gap=     0.453 Goal=   None    Shift=    0.000
 GapD=    0.453 DampG=2.000 DampE=1.000 DampFc=2.0000 IDamp=-1.
 RMSDP=1.91D-04 MaxDP=2.22D-03              OVMax= 5.08D-03

 Cycle   2  Pass 1  IDiag  1:
 E= -437.344723265784     Delta-E=       -0.000160147090 Rises=F Damp=F
 DIIS: error= 6.02D-04 at cycle   2 NSaved=   2.
 NSaved= 2 IEnMin= 2 EnMin= -437.344723265784     IErMin= 2 ErrMin= 6.02D-04
 ErrMax= 6.02D-04  0.00D+00 EMaxC= 1.00D-01 BMatC= 6.31D-05 BMatP= 5.18D-04
 IDIUse=3 WtCom= 9.94D-01 WtEn= 6.02D-03
 Coeff-Com:  0.677D-01 0.932D+00
 Coeff-En:   0.000D+00 0.100D+01
 Coeff:      0.673D-01 0.933D+00
 Gap=     0.183 Goal=   None    Shift=    0.000
 Gap=     0.183 Goal=   None    Shift=    0.000
 RMSDP=1.31D-04 MaxDP=2.25D-03 DE=-1.60D-04 OVMax= 5.70D-03

 Cycle   3  Pass 1  IDiag  1:
 E= -437.344675277411     Delta-E=        0.000047988373 Rises=F Damp=F
 DIIS: error= 1.34D-03 at cycle   3 NSaved=   3.
 NSaved= 3 IEnMin= 2 EnMin= -437.344723265784     IErMin= 2 ErrMin= 6.02D-04
 ErrMax= 1.34D-03  0.00D+00 EMaxC= 1.00D-01 BMatC= 2.26D-04 BMatP= 6.31D-05
 IDIUse=3 WtCom= 2.15D-01 WtEn= 7.85D-01
 Coeff-Com: -0.738D-01 0.707D+00 0.367D+00
 Coeff-En:   0.000D+00 0.731D+00 0.269D+00
 Coeff:     -0.158D-01 0.726D+00 0.290D+00
 Gap=     0.182 Goal=   None    Shift=    0.000
 Gap=     0.182 Goal=   None    Shift=    0.000
 RMSDP=8.34D-05 MaxDP=1.95D-03 DE= 4.80D-05 OVMax= 5.18D-03

 Cycle   4  Pass 1  IDiag  1:
 E= -437.344748471667     Delta-E=       -0.000073194256 Rises=F Damp=F
 DIIS: error= 1.34D-04 at cycle   4 NSaved=   4.
 NSaved= 4 IEnMin= 4 EnMin= -437.344748471667     IErMin= 4 ErrMin= 1.34D-04
 ErrMax= 1.34D-04  0.00D+00 EMaxC= 1.00D-01 BMatC= 1.85D-06 BMatP= 6.31D-05
 IDIUse=3 WtCom= 9.99D-01 WtEn= 1.34D-03
 Coeff-Com: -0.200D-01 0.301D-01-0.345D-01 0.102D+01
 Coeff-En:   0.000D+00 0.000D+00 0.000D+00 0.100D+01
 Coeff:     -0.200D-01 0.300D-01-0.344D-01 0.102D+01
 Gap=     0.182 Goal=   None    Shift=    0.000
 Gap=     0.182 Goal=   None    Shift=    0.000
 RMSDP=2.33D-05 MaxDP=4.59D-04 DE=-7.32D-05 OVMax= 1.40D-03

 Cycle   5  Pass 1  IDiag  1:
 E= -437.344750370662     Delta-E=       -0.000001898995 Rises=F Damp=F
 DIIS: error= 6.77D-05 at cycle   5 NSaved=   5.
 NSaved= 5 IEnMin= 5 EnMin= -437.344750370662     IErMin= 5 ErrMin= 6.77D-05
 ErrMax= 6.77D-05  0.00D+00 EMaxC= 1.00D-01 BMatC= 6.95D-07 BMatP= 1.85D-06
 IDIUse=1 WtCom= 1.00D+00 WtEn= 0.00D+00
 Coeff-Com:  0.858D-02-0.115D+00-0.431D-03-0.824D-01 0.119D+01
 Coeff:      0.858D-02-0.115D+00-0.431D-03-0.824D-01 0.119D+01
 Gap=     0.182 Goal=   None    Shift=    0.000
 Gap=     0.182 Goal=   None    Shift=    0.000
 RMSDP=1.58D-05 MaxDP=2.85D-04 DE=-1.90D-06 OVMax= 6.76D-04

 Cycle   6  Pass 1  IDiag  1:
 E= -437.344750976719     Delta-E=       -0.000000606057 Rises=F Damp=F
 DIIS: error= 2.05D-05 at cycle   6 NSaved=   6.
 NSaved= 6 IEnMin= 6 EnMin= -437.344750976719     IErMin= 6 ErrMin= 2.05D-05
 ErrMax= 2.05D-05  0.00D+00 EMaxC= 1.00D-01 BMatC= 1.13D-07 BMatP= 6.95D-07
 IDIUse=1 WtCom= 1.00D+00 WtEn= 0.00D+00
 Coeff-Com:  0.290D-02-0.844D-02 0.335D-01-0.244D+00 0.174D+00 0.104D+01
 Coeff:      0.290D-02-0.844D-02 0.335D-01-0.244D+00 0.174D+00 0.104D+01
 Gap=     0.182 Goal=   None    Shift=    0.000
 Gap=     0.182 Goal=   None    Shift=    0.000
 RMSDP=6.38D-06 MaxDP=1.14D-04 DE=-6.06D-07 OVMax= 2.74D-04

 Cycle   7  Pass 1  IDiag  1:
 E= -437.344751054788     Delta-E=       -0.000000078069 Rises=F Damp=F
 DIIS: error= 8.49D-06 at cycle   7 NSaved=   7.
 NSaved= 7 IEnMin= 7 EnMin= -437.344751054788     IErMin= 7 ErrMin= 8.49D-06
 ErrMax= 8.49D-06  0.00D+00 EMaxC= 1.00D-01 BMatC= 1.66D-08 BMatP= 1.13D-07
 IDIUse=1 WtCom= 1.00D+00 WtEn= 0.00D+00
 Coeff-Com: -0.910D-03 0.136D-01 0.130D-01-0.305D-01-0.939D-01 0.872D-02
 Coeff-Com:  0.109D+01
 Coeff:     -0.910D-03 0.136D-01 0.130D-01-0.305D-01-0.939D-01 0.872D-02
 Coeff:      0.109D+01
 Gap=     0.182 Goal=   None    Shift=    0.000
 Gap=     0.182 Goal=   None    Shift=    0.000
 RMSDP=1.89D-06 MaxDP=3.54D-05 DE=-7.81D-08 OVMax= 7.65D-05

 Cycle   8  Pass 1  IDiag  1:
 E= -437.344751062115     Delta-E=       -0.000000007328 Rises=F Damp=F
 DIIS: error= 3.46D-07 at cycle   8 NSaved=   8.
 NSaved= 8 IEnMin= 8 EnMin= -437.344751062115     IErMin= 8 ErrMin= 3.46D-07
 ErrMax= 3.46D-07  0.00D+00 EMaxC= 1.00D-01 BMatC= 3.42D-11 BMatP= 1.66D-08
 IDIUse=1 WtCom= 1.00D+00 WtEn= 0.00D+00
 Coeff-Com: -0.105D-03 0.822D-03-0.351D-04 0.357D-02-0.115D-01-0.690D-02
 Coeff-Com:  0.120D-01 0.100D+01
 Coeff:     -0.105D-03 0.822D-03-0.351D-04 0.357D-02-0.115D-01-0.690D-02
 Coeff:      0.120D-01 0.100D+01
 Gap=     0.182 Goal=   None    Shift=    0.000
 Gap=     0.182 Goal=   None    Shift=    0.000
 RMSDP=1.26D-07 MaxDP=1.39D-06 DE=-7.33D-09 OVMax= 4.25D-06

 Cycle   9  Pass 1  IDiag  1:
 E= -437.344751062135     Delta-E=       -0.000000000020 Rises=F Damp=F
 DIIS: error= 6.62D-08 at cycle   9 NSaved=   9.
 NSaved= 9 IEnMin= 9 EnMin= -437.344751062135     IErMin= 9 ErrMin= 6.62D-08
 ErrMax= 6.62D-08  0.00D+00 EMaxC= 1.00D-01 BMatC= 1.38D-12 BMatP= 3.42D-11
 IDIUse=1 WtCom= 1.00D+00 WtEn= 0.00D+00
 Coeff-Com:  0.315D-04-0.463D-03-0.323D-03 0.832D-03 0.318D-02-0.967D-03
 Coeff-Com: -0.294D-01-0.390D-01 0.107D+01
 Coeff:      0.315D-04-0.463D-03-0.323D-03 0.832D-03 0.318D-02-0.967D-03
 Coeff:     -0.294D-01-0.390D-01 0.107D+01
 Gap=     0.182 Goal=   None    Shift=    0.000
 Gap=     0.182 Goal=   None    Shift=    0.000
 RMSDP=1.80D-08 MaxDP=2.62D-07 DE=-1.99D-11 OVMax= 5.59D-07

 Cycle  10  Pass 1  IDiag  1:
 E= -437.344751062136     Delta-E=       -0.000000000001 Rises=F Damp=F
 DIIS: error= 1.08D-08 at cycle  10 NSaved=  10.
 NSaved=10 IEnMin=10 EnMin= -437.344751062136     IErMin=10 ErrMin= 1.08D-08
 ErrMax= 1.08D-08  0.00D+00 EMaxC= 1.00D-01 BMatC= 2.29D-14 BMatP= 1.38D-12
 IDIUse=1 WtCom= 1.00D+00 WtEn= 0.00D+00
 Coeff-Com:  0.577D-05-0.732D-04-0.456D-04 0.558D-04 0.586D-03 0.728D-04
 Coeff-Com: -0.401D-02-0.268D-01 0.134D+00 0.896D+00
 Coeff:      0.577D-05-0.732D-04-0.456D-04 0.558D-04 0.586D-03 0.728D-04
 Coeff:     -0.401D-02-0.268D-01 0.134D+00 0.896D+00
 Gap=     0.182 Goal=   None    Shift=    0.000
 Gap=     0.182 Goal=   None    Shift=    0.000
 RMSDP=2.18D-09 MaxDP=3.11D-08 DE=-9.09D-13 OVMax= 5.86D-08

 SCF Done:  E(UM062X) =  -437.344751062     A.U. after   10 cycles
            NFock= 10  Conv=0.22D-08     -V/T= 2.0026
 <Sx>= 0.0000 <Sy>= 0.0000 <Sz>= 0.0000 <S**2>=-0.0000 S=-0.0000
 <L.S>=  0.00000000000    
 KE= 4.361999640985D+02 PE=-1.110129297786D+03 EE= 2.002745348178D+02
 Annihilation of the first spin contaminant:
 S**2 before annihilation    -0.0000,   after     0.0000
 Leave Link  502 at Mon Apr 21 19:40:55 2025, MaxMem=   536870912 cpu:              39.8 elap:               5.4
 (Enter /home/szhao/Apps/g16/l701.exe)
 ... and contract with generalized density number  0.
 Compute integral first derivatives.
 Leave Link  701 at Mon Apr 21 19:40:55 2025, MaxMem=   536870912 cpu:               1.2 elap:               0.2
 (Enter /home/szhao/Apps/g16/l702.exe)
 L702 exits ... SP integral derivatives will be done elsewhere.
 Leave Link  702 at Mon Apr 21 19:40:55 2025, MaxMem=   536870912 cpu:               0.4 elap:               0.2
 (Enter /home/szhao/Apps/g16/l703.exe)
 Integral derivatives from FoFJK, PRISM(SPDF).
 Compute integral first derivatives, UseDBF=F ICtDFT=           0.
 Calling FoFJK, ICntrl=      2127 FMM=F ISym2X=0 I1Cent= 0 IOpClX= 1 NMat=1 NMatS=1 NMatT=0.
 FoFJK:  IHMeth= 1 ICntrl=    2127 DoSepK=F KAlg= 0 I1Cent=           0 FoldK=F
 IRaf=         0 NMat=       1 IRICut=       1 DoRegI=T DoRafI=F ISym2E= 0 IDoP0=0 IntGTp=1.
 FoFCou: FMM=F IPFlag=           0 FMFlag=      100000 FMFlg1=         800
         NFxFlg=           0 DoJE=F BraDBF=F KetDBF=F FulRan=T
         wScrn=  0.000000 ICntrl=      2127 IOpCl=  1 I1Cent=           0 NGrid=           0
         NMat0=    1 NMatS0=      1 NMatT0=    0 NMatD0=    1 NMtDS0=    0 NMtDT0=    0
 Symmetry not used in FoFCou.
 Leave Link  703 at Mon Apr 21 19:40:57 2025, MaxMem=   536870912 cpu:               7.2 elap:               1.0
 (Enter /home/szhao/Apps/g16/l716.exe)
 Dipole        =-1.06111042D+00-1.08514631D-04 3.59093941D-04
 -------------------------------------------------------------------
 Center     Atomic                   Forces (Hartrees/Bohr)
 Number     Number              X              Y              Z
 -------------------------------------------------------------------
      1        6          -0.000000000   -0.000000000   -0.000000000
      2       16          -0.000000000   -0.000000000   -0.000000000
      3        1           0.004684990   -0.001221254   -0.000020643
      4        1           0.004705804    0.001236044   -0.000020841
 -------------------------------------------------------------------
 Cartesian Forces:  Max     0.004705804 RMS     0.001981453
 Leave Link  716 at Mon Apr 21 19:40:57 2025, MaxMem=   536870912 cpu:               1.7 elap:               0.3
 (Enter /home/szhao/Apps/g16/l103.exe)

 GradGradGradGradGradGradGradGradGradGradGradGradGradGradGradGradGradGrad
 Berny optimization.
 Using GEDIIS/GDIIS optimizer.
 FormGI is forming the generalized inverse of G from B-inverse, IUseBI=4.
 Internal  Forces:  Max     0.009390795 RMS     0.003571297
 Search for a local minimum.
 Step number   2 out of a maximum of   22
 All quantities printed in internal units (Hartrees-Bohrs-Radians)
 RMS Force = .32878D-02 SwitMx=.10000D-02 MixMth= 1
 Mixed Optimization -- RFO/linear search
 Update second derivatives using D2CorX and points    1    2
 DE= -1.25D-03 DEPred=-8.55D-04 R= 1.46D+00
 TightC=F SS=  1.41D+00  RLast= 1.02D-01 DXNew= 5.0454D-01 3.0519D-01
 Trust test= 1.46D+00 RLast= 1.02D-01 DXMaxT set to 3.05D-01
 The second derivative matrix:
                          X1        Y1        Z1        X2        Y2
           X1           0.60853
           Y1           0.00034   0.50000
           Z1           0.00064   0.00000   0.50000
           X2          -0.00000  -0.00000  -0.00000   0.50000
           Y2          -0.00010  -0.00000  -0.00000   0.00000   0.50000
           Z2          -0.00011  -0.00000  -0.00000   0.00000   0.00000
           R1          -0.01381  -0.00004  -0.00008   0.00000   0.00001
           R2          -0.01376  -0.00004  -0.00008   0.00000   0.00001
           A1          -0.03840  -0.00012  -0.00023   0.00000   0.00004
           A2          -0.03880  -0.00012  -0.00023   0.00000   0.00004
           A3           0.07720   0.00024   0.00046  -0.00000  -0.00007
           D1           0.00041   0.00000   0.00000  -0.00000  -0.00000
                          Z2        R1        R2        A1        A2
           Z2           0.50000
           R1           0.00001   0.34677
           R2           0.00001  -0.00191   0.34677
           A1           0.00004  -0.00484  -0.00484   0.14782
           A2           0.00004  -0.00491  -0.00491  -0.01238   0.14743
           A3          -0.00008   0.00975   0.00975   0.02456   0.02495
           D1          -0.00000  -0.00005  -0.00005  -0.00013  -0.00013
                          A3        D1
           A3           0.11049
           D1           0.00027   0.00241
 ITU=  1  0
 Use linear search instead of GDIIS.
     Eigenvalues ---    0.00241   0.08464   0.16000   0.34596   0.34868
     Eigenvalues --- 1000.000001000.000001000.000001000.000001000.00000
     Eigenvalues --- 1000.000001000.00000
 RFO step:  Lambda=-1.69483219D-06 EMin= 2.41224886D-03
 Quartic linear search produced a step of  0.98656.
 Iteration  1 RMS(Cart)=  0.03529517 RMS(Int)=  0.00084297
 Iteration  2 RMS(Cart)=  0.00087523 RMS(Int)=  0.00004054
 Iteration  3 RMS(Cart)=  0.00000049 RMS(Int)=  0.00004054
 ITry= 1 IFail=0 DXMaxC= 7.76D-02 DCOld= 1.00D+10 DXMaxT= 3.05D-01 DXLimC= 3.00D+00 Rises=F
 Variable       Old X    -DE/DX   Delta X   Delta X   Delta X     New X
                                 (Linear)    (Quad)   (Total)
    X1       -1.98826   0.00939   0.00000   0.00000   0.00000  -1.98826
    Y1        0.00000   0.00003   0.00000   0.00000   0.00000   0.00000
    Z1        0.00000  -0.00005   0.00000   0.00000   0.00000   0.00000
    X2        1.98826   0.00000   0.00000   0.00000   0.00000   1.98826
    Y2        0.00000  -0.00001   0.00000   0.00000   0.00000   0.00000
    Z2        0.00000   0.00001   0.00000   0.00000   0.00000   0.00000
    R1        2.05179  -0.00125  -0.00701  -0.00018  -0.00719   2.04460
    R2        2.05179  -0.00125  -0.00700  -0.00019  -0.00719   2.04460
    A1        2.08639  -0.00318  -0.04051   0.00004  -0.04055   2.04584
    A2        2.08706  -0.00323  -0.04103  -0.00007  -0.04119   2.04588
    A3        2.10974   0.00642   0.08154   0.00005   0.08151   2.19125
    D1       -3.14053  -0.00003   0.00120  -0.02557  -0.02436   3.11829
         Item               Value     Threshold  Converged?
 Maximum Force            0.006416     0.000450     NO 
 RMS     Force            0.003288     0.000300     NO 
 Maximum Displacement     0.077617     0.001800     NO 
 RMS     Displacement     0.035268     0.001200     NO 
 Predicted change in Energy=-3.752944D-04
 Lowest energy point so far.  Saving SCF results.
 GradGradGradGradGradGradGradGradGradGradGradGradGradGradGradGradGradGrad

 Leave Link  103 at Mon Apr 21 19:40:58 2025, MaxMem=   536870912 cpu:               1.2 elap:               0.3
 (Enter /home/szhao/Apps/g16/l202.exe)
                          Input orientation:                          
 ---------------------------------------------------------------------
 Center     Atomic      Atomic             Coordinates (Angstroms)
 Number     Number       Type             X           Y           Z
 ---------------------------------------------------------------------
      1          6           0       -1.052140    0.000000    0.000000
      2         16           0        1.052140    0.000000    0.000000
      3          1           0       -1.547002   -0.962102   -0.010172
      4          1           0       -1.547038    0.962082   -0.010337
 ---------------------------------------------------------------------
                    Distance matrix (angstroms):
                    1          2          3          4
     1  C    0.000000
     2  S    2.104279   0.000000
     3  H    1.081958   2.771512   0.000000
     4  H    1.081958   2.771540   1.924184   0.000000
 Symmetry turned off by external request.
 Stoichiometry    CH2S
 Framework group  C1[X(CH2S)]
 Deg. of freedom     6
 Full point group                 C1      NOp   1
 Rotational constants (GHZ):         270.8505395          10.8595721          10.4410218
 Leave Link  202 at Mon Apr 21 19:40:58 2025, MaxMem=   536870912 cpu:               0.2 elap:               0.1
 (Enter /home/szhao/Apps/g16/l301.exe)
 Standard basis: 6-311+G(d,p) (5D, 7F)
 Ernie: Thresh=  0.10000D-02 Tol=  0.10000D-05 Strict=F.
    64 basis functions,   102 primitive gaussians,    66 cartesian basis functions
    12 alpha electrons       12 beta electrons
       nuclear repulsion energy        36.3957596210 Hartrees.
 IExCor= 4336 DFT=T Ex+Corr=M062X ExCW=0 ScaHFX=  0.540000
 ScaDFX=  1.000000  1.000000  1.000000  1.000000 ScalE2=  1.000000  1.000000
 IRadAn=      7 IRanWt=     -1 IRanGd=            0 ICorTp=0 IEmpDi=  4
 NAtoms=    4 NActive=    4 NUniq=    4 SFac= 1.00D+00 NAtFMM=   60 NAOKFM=F Big=F
 Integral buffers will be    131072 words long.
 Raffenetti 2 integral format.
 Two-electron integral symmetry is turned off.
 Leave Link  301 at Mon Apr 21 19:40:59 2025, MaxMem=   536870912 cpu:               1.2 elap:               0.2
 (Enter /home/szhao/Apps/g16/l302.exe)
 NPDir=0 NMtPBC=     1 NCelOv=     1 NCel=       1 NClECP=     1 NCelD=      1
         NCelK=      1 NCelE2=     1 NClLst=     1 CellRange=     0.0.
 One-electron integrals computed using PRISM.
 NBasis=    64 RedAO= T EigKep=  2.17D-03  NBF=    64
 NBsUse=    64 1.00D-06 EigRej= -1.00D+00 NBFU=    64
 Precomputing XC quadrature grid using
 IXCGrd= 4 IRadAn=           7 IRanWt=          -1 IRanGd=           0 AccXCQ= 0.00D+00.
 Generated NRdTot=       0 NPtTot=           0 NUsed=           0 NTot=          32
 NSgBfM=    66    66    66    66    66 MxSgAt=     4 MxSgA2=     4.
 Leave Link  302 at Mon Apr 21 19:40:59 2025, MaxMem=   536870912 cpu:               1.9 elap:               0.3
 (Enter /home/szhao/Apps/g16/l303.exe)
 DipDrv:  MaxL=1.
 Leave Link  303 at Mon Apr 21 19:40:59 2025, MaxMem=   536870912 cpu:               0.4 elap:               0.1
 (Enter /home/szhao/Apps/g16/l401.exe)
 Initial guess from the checkpoint file:  "opt.chk"
 B after Tr=     0.006421    0.000051   -0.002565
         Rot=    1.000000   -0.000001    0.000754    0.000021 Ang=  -0.09 deg.
 Guess basis will be translated and rotated to current coordinates.
 JPrj=2 DoOrth=T DoCkMO=T.
 Initial guess <Sx>= 0.0000 <Sy>= 0.0000 <Sz>= 0.0000 <S**2>=-0.0000 S=-0.0000
 Generating alternative initial guess.
 ExpMin= 4.05D-02 ExpMax= 9.34D+04 ExpMxC= 3.17D+03 IAcc=3 IRadAn=         5 AccDes= 0.00D+00
 Harris functional with IExCor= 1009 and IRadAn=       5 diagonalized for initial guess.
 HarFok:  IExCor= 1009 AccDes= 0.00D+00 IRadAn=         5 IDoV= 1 UseB2=F ITyADJ=14
 ICtDFT=  3500011 ScaDFX=  1.000000  1.000000  1.000000  1.000000
 FoFCou: FMM=F IPFlag=           0 FMFlag=      100000 FMFlg1=           0
         NFxFlg=           0 DoJE=T BraDBF=F KetDBF=T FulRan=T
         wScrn=  0.000000 ICntrl=       500 IOpCl=  0 I1Cent=   200000004 NGrid=           0
         NMat0=    1 NMatS0=      1 NMatT0=    0 NMatD0=    1 NMtDS0=    0 NMtDT0=    0
 Symmetry not used in FoFCou.
 Harris En= -437.148148294982    
 Leave Link  401 at Mon Apr 21 19:41:00 2025, MaxMem=   536870912 cpu:               2.8 elap:               0.4
 (Enter /home/szhao/Apps/g16/l502.exe)
 Keep R1 and R2 ints in memory in canonical form, NReq=11470680.
 FoFCou: FMM=F IPFlag=           0 FMFlag=           0 FMFlg1=           0
         NFxFlg=           0 DoJE=F BraDBF=F KetDBF=F FulRan=T
         wScrn=  0.000000 ICntrl=       600 IOpCl=  0 I1Cent=           0 NGrid=           0
         NMat0=    1 NMatS0=   2080 NMatT0=    0 NMatD0=    1 NMtDS0=    0 NMtDT0=    0
 Symmetry not used in FoFCou.
 Two-electron integral symmetry not used.
 UHF open shell SCF:
 Using DIIS extrapolation, IDIIS=  1040.
 NGot=   536870912 LenX=   532532574 LenY=   532527777
 Requested convergence on RMS density matrix=1.00D-08 within 128 cycles.
 Requested convergence on MAX density matrix=1.00D-06.
 Requested convergence on             energy=1.00D-06.
 No special actions if energy rises.

 Cycle   1  Pass 1  IDiag  1:
 E= -437.344938780514    
 DIIS: error= 1.75D-03 at cycle   1 NSaved=   1.
 NSaved= 1 IEnMin= 1 EnMin= -437.344938780514     IErMin= 1 ErrMin= 1.75D-03
 ErrMax= 1.75D-03  0.00D+00 EMaxC= 1.00D-01 BMatC= 5.49D-04 BMatP= 5.49D-04
 IDIUse=3 WtCom= 9.83D-01 WtEn= 1.75D-02
 Coeff-Com:  0.100D+01
 Coeff-En:   0.100D+01
 Coeff:      0.100D+01
 Gap=     0.453 Goal=   None    Shift=    0.000
 Gap=     0.453 Goal=   None    Shift=    0.000
 GapD=    0.453 DampG=2.000 DampE=1.000 DampFc=2.0000 IDamp=-1.
 RMSDP=2.05D-04 MaxDP=2.24D-03              OVMax= 5.36D-03

 Cycle   2  Pass 1  IDiag  1:
 E= -437.345111419200     Delta-E=       -0.000172638686 Rises=F Damp=F
 DIIS: error= 6.13D-04 at cycle   2 NSaved=   2.
 NSaved= 2 IEnMin= 2 EnMin= -437.345111419200     IErMin= 2 ErrMin= 6.13D-04
 ErrMax= 6.13D-04  0.00D+00 EMaxC= 1.00D-01 BMatC= 6.28D-05 BMatP= 5.49D-04
 IDIUse=3 WtCom= 9.94D-01 WtEn= 6.13D-03
 Coeff-Com:  0.561D-01 0.944D+00
 Coeff-En:   0.000D+00 0.100D+01
 Coeff:      0.557D-01 0.944D+00
 Gap=     0.183 Goal=   None    Shift=    0.000
 Gap=     0.183 Goal=   None    Shift=    0.000
 RMSDP=1.35D-04 MaxDP=2.28D-03 DE=-1.73D-04 OVMax= 5.75D-03

 Cycle   3  Pass 1  IDiag  1:
 E= -437.345061749676     Delta-E=        0.000049669524 Rises=F Damp=F
 DIIS: error= 1.37D-03 at cycle   3 NSaved=   3.
 NSaved= 3 IEnMin= 2 EnMin= -437.345111419200     IErMin= 2 ErrMin= 6.13D-04
 ErrMax= 1.37D-03  0.00D+00 EMaxC= 1.00D-01 BMatC= 2.34D-04 BMatP= 6.28D-05
 IDIUse=3 WtCom= 2.13D-01 WtEn= 7.87D-01
 Coeff-Com: -0.741D-01 0.714D+00 0.360D+00
 Coeff-En:   0.000D+00 0.735D+00 0.265D+00
 Coeff:     -0.158D-01 0.731D+00 0.285D+00
 Gap=     0.181 Goal=   None    Shift=    0.000
 Gap=     0.181 Goal=   None    Shift=    0.000
 RMSDP=8.49D-05 MaxDP=1.98D-03 DE= 4.97D-05 OVMax= 5.24D-03

 Cycle   4  Pass 1  IDiag  1:
 E= -437.345137338607     Delta-E=       -0.000075588931 Rises=F Damp=F
 DIIS: error= 1.32D-04 at cycle   4 NSaved=   4.
 NSaved= 4 IEnMin= 4 EnMin= -437.345137338607     IErMin= 4 ErrMin= 1.32D-04
 ErrMax= 1.32D-04  0.00D+00 EMaxC= 1.00D-01 BMatC= 1.85D-06 BMatP= 6.28D-05
 IDIUse=3 WtCom= 9.99D-01 WtEn= 1.32D-03
 Coeff-Com: -0.189D-01 0.971D-02-0.434D-01 0.105D+01
 Coeff-En:   0.000D+00 0.000D+00 0.000D+00 0.100D+01
 Coeff:     -0.189D-01 0.970D-02-0.433D-01 0.105D+01
 Gap=     0.181 Goal=   None    Shift=    0.000
 Gap=     0.181 Goal=   None    Shift=    0.000
 RMSDP=2.45D-05 MaxDP=4.59D-04 DE=-7.56D-05 OVMax= 1.42D-03

 Cycle   5  Pass 1  IDiag  1:
 E= -437.345139361389     Delta-E=       -0.000002022782 Rises=F Damp=F
 DIIS: error= 6.58D-05 at cycle   5 NSaved=   5.
 NSaved= 5 IEnMin= 5 EnMin= -437.345139361389     IErMin= 5 ErrMin= 6.58D-05
 ErrMax= 6.58D-05  0.00D+00 EMaxC= 1.00D-01 BMatC= 6.48D-07 BMatP= 1.85D-06
 IDIUse=1 WtCom= 1.00D+00 WtEn= 0.00D+00
 Coeff-Com:  0.855D-02-0.105D+00 0.717D-02-0.141D+00 0.123D+01
 Coeff:      0.855D-02-0.105D+00 0.717D-02-0.141D+00 0.123D+01
 Gap=     0.181 Goal=   None    Shift=    0.000
 Gap=     0.181 Goal=   None    Shift=    0.000
 RMSDP=1.65D-05 MaxDP=2.81D-04 DE=-2.02D-06 OVMax= 7.00D-04

 Cycle   6  Pass 1  IDiag  1:
 E= -437.345139963309     Delta-E=       -0.000000601920 Rises=F Damp=F
 DIIS: error= 2.03D-05 at cycle   6 NSaved=   6.
 NSaved= 6 IEnMin= 6 EnMin= -437.345139963309     IErMin= 6 ErrMin= 2.03D-05
 ErrMax= 2.03D-05  0.00D+00 EMaxC= 1.00D-01 BMatC= 1.13D-07 BMatP= 6.48D-07
 IDIUse=1 WtCom= 1.00D+00 WtEn= 0.00D+00
 Coeff-Com:  0.309D-02-0.870D-02 0.339D-01-0.251D+00 0.241D+00 0.982D+00
 Coeff:      0.309D-02-0.870D-02 0.339D-01-0.251D+00 0.241D+00 0.982D+00
 Gap=     0.181 Goal=   None    Shift=    0.000
 Gap=     0.181 Goal=   None    Shift=    0.000
 RMSDP=5.95D-06 MaxDP=1.05D-04 DE=-6.02D-07 OVMax= 2.43D-04

 Cycle   7  Pass 1  IDiag  1:
 E= -437.345140035840     Delta-E=       -0.000000072531 Rises=F Damp=F
 DIIS: error= 8.10D-06 at cycle   7 NSaved=   7.
 NSaved= 7 IEnMin= 7 EnMin= -437.345140035840     IErMin= 7 ErrMin= 8.10D-06
 ErrMax= 8.10D-06  0.00D+00 EMaxC= 1.00D-01 BMatC= 1.51D-08 BMatP= 1.13D-07
 IDIUse=1 WtCom= 1.00D+00 WtEn= 0.00D+00
 Coeff-Com: -0.901D-03 0.136D-01 0.123D-01-0.296D-01-0.101D+00 0.318D-01
 Coeff-Com:  0.107D+01
 Coeff:     -0.901D-03 0.136D-01 0.123D-01-0.296D-01-0.101D+00 0.318D-01
 Coeff:      0.107D+01
 Gap=     0.181 Goal=   None    Shift=    0.000
 Gap=     0.181 Goal=   None    Shift=    0.000
 RMSDP=1.84D-06 MaxDP=3.46D-05 DE=-7.25D-08 OVMax= 7.63D-05

 Cycle   8  Pass 1  IDiag  1:
 E= -437.345140042788     Delta-E=       -0.000000006948 Rises=F Damp=F
 DIIS: error= 4.95D-07 at cycle   8 NSaved=   8.
 NSaved= 8 IEnMin= 8 EnMin= -437.345140042788     IErMin= 8 ErrMin= 4.95D-07
 ErrMax= 4.95D-07  0.00D+00 EMaxC= 1.00D-01 BMatC= 8.20D-11 BMatP= 1.51D-08
 IDIUse=1 WtCom= 1.00D+00 WtEn= 0.00D+00
 Coeff-Com: -0.175D-03 0.169D-02 0.762D-03 0.264D-02-0.194D-01-0.105D-01
 Coeff-Com:  0.880D-01 0.937D+00
 Coeff:     -0.175D-03 0.169D-02 0.762D-03 0.264D-02-0.194D-01-0.105D-01
 Coeff:      0.880D-01 0.937D+00
 Gap=     0.181 Goal=   None    Shift=    0.000
 Gap=     0.181 Goal=   None    Shift=    0.000
 RMSDP=1.67D-07 MaxDP=2.17D-06 DE=-6.95D-09 OVMax= 5.34D-06

 Cycle   9  Pass 1  IDiag  1:
 E= -437.345140042840     Delta-E=       -0.000000000052 Rises=F Damp=F
 DIIS: error= 1.50D-07 at cycle   9 NSaved=   9.
 NSaved= 9 IEnMin= 9 EnMin= -437.345140042840     IErMin= 9 ErrMin= 1.50D-07
 ErrMax= 1.50D-07  0.00D+00 EMaxC= 1.00D-01 BMatC= 6.28D-12 BMatP= 8.20D-11
 IDIUse=1 WtCom= 1.00D+00 WtEn= 0.00D+00
 Coeff-Com:  0.522D-04-0.863D-03-0.720D-03 0.209D-02 0.585D-02-0.218D-02
 Coeff-Com: -0.668D-01-0.215D-01 0.108D+01
 Coeff:      0.522D-04-0.863D-03-0.720D-03 0.209D-02 0.585D-02-0.218D-02
 Coeff:     -0.668D-01-0.215D-01 0.108D+01
 Gap=     0.181 Goal=   None    Shift=    0.000
 Gap=     0.181 Goal=   None    Shift=    0.000
 RMSDP=6.78D-08 MaxDP=8.16D-07 DE=-5.18D-11 OVMax= 2.19D-06

 Cycle  10  Pass 1  IDiag  1:
 E= -437.345140042847     Delta-E=       -0.000000000007 Rises=F Damp=F
 DIIS: error= 6.19D-08 at cycle  10 NSaved=  10.
 NSaved=10 IEnMin=10 EnMin= -437.345140042847     IErMin=10 ErrMin= 6.19D-08
 ErrMax= 6.19D-08  0.00D+00 EMaxC= 1.00D-01 BMatC= 1.01D-12 BMatP= 6.28D-12
 IDIUse=1 WtCom= 1.00D+00 WtEn= 0.00D+00
 Coeff-Com:  0.218D-04-0.210D-03-0.363D-04-0.429D-03 0.249D-02 0.670D-03
 Coeff-Com: -0.650D-02-0.140D+00 0.413D-01 0.110D+01
 Coeff:      0.218D-04-0.210D-03-0.363D-04-0.429D-03 0.249D-02 0.670D-03
 Coeff:     -0.650D-02-0.140D+00 0.413D-01 0.110D+01
 Gap=     0.181 Goal=   None    Shift=    0.000
 Gap=     0.181 Goal=   None    Shift=    0.000
 RMSDP=2.66D-08 MaxDP=3.47D-07 DE=-6.59D-12 OVMax= 1.04D-06

 Cycle  11  Pass 1  IDiag  1:
 E= -437.345140042849     Delta-E=       -0.000000000002 Rises=F Damp=F
 DIIS: error= 2.25D-08 at cycle  11 NSaved=  11.
 NSaved=11 IEnMin=11 EnMin= -437.345140042849     IErMin=11 ErrMin= 2.25D-08
 ErrMax= 2.25D-08  0.00D+00 EMaxC= 1.00D-01 BMatC= 5.10D-14 BMatP= 1.01D-12
 IDIUse=1 WtCom= 1.00D+00 WtEn= 0.00D+00
 Coeff-Com: -0.924D-05 0.133D-03 0.880D-04-0.210D-03-0.996D-03 0.456D-03
 Coeff-Com:  0.834D-02 0.119D-01-0.947D-01-0.190D+00 0.127D+01
 Coeff:     -0.924D-05 0.133D-03 0.880D-04-0.210D-03-0.996D-03 0.456D-03
 Coeff:      0.834D-02 0.119D-01-0.947D-01-0.190D+00 0.127D+01
 Gap=     0.181 Goal=   None    Shift=    0.000
 Gap=     0.181 Goal=   None    Shift=    0.000
 RMSDP=8.17D-09 MaxDP=1.15D-07 DE=-2.05D-12 OVMax= 4.33D-07

 SCF Done:  E(UM062X) =  -437.345140043     A.U. after   11 cycles
            NFock= 11  Conv=0.82D-08     -V/T= 2.0026
 <Sx>= 0.0000 <Sy>= 0.0000 <Sz>= 0.0000 <S**2>=-0.0000 S=-0.0000
 <L.S>=  0.00000000000    
 KE= 4.362089402199D+02 PE=-1.110316864436D+03 EE= 2.003670245526D+02
 Annihilation of the first spin contaminant:
 S**2 before annihilation    -0.0000,   after    -0.0000
 Leave Link  502 at Mon Apr 21 19:41:05 2025, MaxMem=   536870912 cpu:              39.7 elap:               5.3
 (Enter /home/szhao/Apps/g16/l701.exe)
 ... and contract with generalized density number  0.
 Compute integral first derivatives.
 Leave Link  701 at Mon Apr 21 19:41:06 2025, MaxMem=   536870912 cpu:               1.6 elap:               0.3
 (Enter /home/szhao/Apps/g16/l702.exe)
 L702 exits ... SP integral derivatives will be done elsewhere.
 Leave Link  702 at Mon Apr 21 19:41:06 2025, MaxMem=   536870912 cpu:               0.4 elap:               0.1
 (Enter /home/szhao/Apps/g16/l703.exe)
 Integral derivatives from FoFJK, PRISM(SPDF).
 Compute integral first derivatives, UseDBF=F ICtDFT=           0.
 Calling FoFJK, ICntrl=      2127 FMM=F ISym2X=0 I1Cent= 0 IOpClX= 1 NMat=1 NMatS=1 NMatT=0.
 FoFJK:  IHMeth= 1 ICntrl=    2127 DoSepK=F KAlg= 0 I1Cent=           0 FoldK=F
 IRaf=         0 NMat=       1 IRICut=       1 DoRegI=T DoRafI=F ISym2E= 0 IDoP0=0 IntGTp=1.
 FoFCou: FMM=F IPFlag=           0 FMFlag=      100000 FMFlg1=         800
         NFxFlg=           0 DoJE=F BraDBF=F KetDBF=F FulRan=T
         wScrn=  0.000000 ICntrl=      2127 IOpCl=  1 I1Cent=           0 NGrid=           0
         NMat0=    1 NMatS0=      1 NMatT0=    0 NMatD0=    1 NMtDS0=    0 NMtDT0=    0
 Symmetry not used in FoFCou.
 Leave Link  703 at Mon Apr 21 19:41:07 2025, MaxMem=   536870912 cpu:               9.2 elap:               1.3
 (Enter /home/szhao/Apps/g16/l716.exe)
 Dipole        =-1.05714942D+00-6.31584410D-06-7.59467122D-03
 -------------------------------------------------------------------
 Center     Atomic                   Forces (Hartrees/Bohr)
 Number     Number              X              Y              Z
 -------------------------------------------------------------------
      1        6          -0.000000000   -0.000000000   -0.000000000
      2       16          -0.000000000   -0.000000000   -0.000000000
      3        1          -0.000092157   -0.000194257    0.000386795
      4        1          -0.000090852    0.000194936    0.000386780
 -------------------------------------------------------------------
 Cartesian Forces:  Max     0.000386795 RMS     0.000180668
 Leave Link  716 at Mon Apr 21 19:41:08 2025, MaxMem=   536870912 cpu:               0.7 elap:               0.2
 (Enter /home/szhao/Apps/g16/l103.exe)

 GradGradGradGradGradGradGradGradGradGradGradGradGradGradGradGradGradGrad
 Berny optimization.
 Using GEDIIS/GDIIS optimizer.
 FormGI is forming the generalized inverse of G from B-inverse, IUseBI=4.
 Internal  Forces:  Max     0.000956394 RMS     0.000352309
 Search for a local minimum.
 Step number   3 out of a maximum of   22
 All quantities printed in internal units (Hartrees-Bohrs-Radians)
 RMS Force = .29093D-03 SwitMx=.10000D-02 MixMth= 2
 Mixed Optimization -- En-DIIS/RFO-DIIS
 Update second derivatives using D2CorX and points    1    2    3
 DE= -3.89D-04 DEPred=-3.75D-04 R= 1.04D+00
 TightC=F SS=  1.41D+00  RLast= 1.03D-01 DXNew= 5.1326D-01 3.1005D-01
 Trust test= 1.04D+00 RLast= 1.03D-01 DXMaxT set to 3.10D-01
 The second derivative matrix:
                          X1        Y1        Z1        X2        Y2
           X1           0.61191
           Y1           0.00030   0.50000
           Z1          -0.01175  -0.00003   0.50123
           X2           0.00000   0.00000  -0.00000   0.50000
           Y2          -0.00014  -0.00000   0.00001  -0.00000   0.50000
           Z2           0.00223   0.00001  -0.00023   0.00000  -0.00000
           R1          -0.01638  -0.00004   0.00177  -0.00000   0.00002
           R2          -0.01634  -0.00004   0.00177  -0.00000   0.00002
           A1          -0.03713  -0.00010   0.00390  -0.00000   0.00005
           A2          -0.03757  -0.00010   0.00396  -0.00000   0.00005
           A3           0.07496   0.00020  -0.00785   0.00000  -0.00009
           D1          -0.00722  -0.00002   0.00082  -0.00000   0.00001
                          Z2        R1        R2        A1        A2
           Z2           0.50004
           R1          -0.00034   0.34743
           R2          -0.00034  -0.00125   0.34743
           A1          -0.00074  -0.00430  -0.00430   0.14655
           A2          -0.00075  -0.00436  -0.00436  -0.01364   0.14616
           A3           0.00149   0.00862   0.00862   0.02700   0.02739
           D1          -0.00016   0.00111   0.00110   0.00239   0.00243
                          A3        D1
           A3           0.10579
           D1          -0.00483   0.00295
 ITU=  1  1  0
 Use linear search instead of GDIIS.
     Eigenvalues ---    0.00249   0.07815   0.16000   0.34702   0.34868
     Eigenvalues --- 1000.000001000.000001000.000001000.000001000.00000
     Eigenvalues --- 1000.000001000.00000
 RFO step:  Lambda=-1.57168028D-04 EMin= 2.48743039D-03
 Quartic linear search produced a step of -0.02097.
 Iteration  1 RMS(Cart)=  0.06794774 RMS(Int)=  0.01340908
 Iteration  2 RMS(Cart)=  0.01495122 RMS(Int)=  0.00397450
 Iteration  3 RMS(Cart)=  0.00026297 RMS(Int)=  0.00396779
 Iteration  4 RMS(Cart)=  0.00000127 RMS(Int)=  0.00396779
 Iteration  5 RMS(Cart)=  0.00000001 RMS(Int)=  0.00396779
 ITry= 1 IFail=0 DXMaxC= 1.99D-01 DCOld= 1.00D+10 DXMaxT= 3.10D-01 DXLimC= 3.00D+00 Rises=F
 Variable       Old X    -DE/DX   Delta X   Delta X   Delta X     New X
                                 (Linear)    (Quad)   (Total)
    X1       -1.98826  -0.00018   0.00000   0.00000   0.00000  -1.98826
    Y1        0.00000   0.00000   0.00000   0.00000   0.00000   0.00000
    Z1        0.00000   0.00096   0.00000   0.00000   0.00000   0.00000
    X2        1.98826  -0.00000   0.00000   0.00000   0.00000   1.98826
    Y2        0.00000  -0.00000   0.00000   0.00000   0.00000   0.00000
    Z2        0.00000  -0.00018   0.00000   0.00000   0.00000   0.00000
    R1        2.04460   0.00021   0.00015  -0.00088  -0.00073   2.04387
    R2        2.04460   0.00021   0.00015  -0.00089  -0.00073   2.04387
    A1        2.04584  -0.00001   0.00085  -0.00689  -0.01405   2.03179
    A2        2.04588  -0.00000   0.00086  -0.00699  -0.01398   2.03190
    A3        2.19125   0.00002  -0.00171   0.01848   0.00895   2.20020
    D1        3.11829   0.00065   0.00051   0.24259   0.24170  -2.92319
         Item               Value     Threshold  Converged?
 Maximum Force            0.000647     0.000450     NO 
 RMS     Force            0.000291     0.000300     YES
 Maximum Displacement     0.199251     0.001800     NO 
 RMS     Displacement     0.082035     0.001200     NO 
 Predicted change in Energy=-7.395213D-05
 Lowest energy point so far.  Saving SCF results.
 GradGradGradGradGradGradGradGradGradGradGradGradGradGradGradGradGradGrad

 Leave Link  103 at Mon Apr 21 19:41:08 2025, MaxMem=   536870912 cpu:               1.3 elap:               0.2
 (Enter /home/szhao/Apps/g16/l202.exe)
                          Input orientation:                          
 ---------------------------------------------------------------------
 Center     Atomic      Atomic             Coordinates (Angstroms)
 Number     Number       Type             X           Y           Z
 ---------------------------------------------------------------------
      1          6           0       -1.052140    0.000000    0.000000
      2         16           0        1.052140    0.000000    0.000000
      3          1           0       -1.533262   -0.963971    0.095253
      4          1           0       -1.533366    0.963934    0.095102
 ---------------------------------------------------------------------
                    Distance matrix (angstroms):
                    1          2          3          4
     1  C    0.000000
     2  S    2.104279   0.000000
     3  H    1.081569   2.760908   0.000000
     4  H    1.081569   2.760988   1.927905   0.000000
 Symmetry turned off by external request.
 Stoichiometry    CH2S
 Framework group  C1[X(CH2S)]
 Deg. of freedom     6
 Full point group                 C1      NOp   1
 Rotational constants (GHZ):         267.7537411          10.8804634          10.4618776
 Leave Link  202 at Mon Apr 21 19:41:09 2025, MaxMem=   536870912 cpu:               0.3 elap:               0.1
 (Enter /home/szhao/Apps/g16/l301.exe)
 Standard basis: 6-311+G(d,p) (5D, 7F)
 Ernie: Thresh=  0.10000D-02 Tol=  0.10000D-05 Strict=F.
    64 basis functions,   102 primitive gaussians,    66 cartesian basis functions
    12 alpha electrons       12 beta electrons
       nuclear repulsion energy        36.4207454181 Hartrees.
 IExCor= 4336 DFT=T Ex+Corr=M062X ExCW=0 ScaHFX=  0.540000
 ScaDFX=  1.000000  1.000000  1.000000  1.000000 ScalE2=  1.000000  1.000000
 IRadAn=      7 IRanWt=     -1 IRanGd=            0 ICorTp=0 IEmpDi=  4
 NAtoms=    4 NActive=    4 NUniq=    4 SFac= 1.00D+00 NAtFMM=   60 NAOKFM=F Big=F
 Integral buffers will be    131072 words long.
 Raffenetti 2 integral format.
 Two-electron integral symmetry is turned off.
 Leave Link  301 at Mon Apr 21 19:41:09 2025, MaxMem=   536870912 cpu:               0.9 elap:               0.2
 (Enter /home/szhao/Apps/g16/l302.exe)
 NPDir=0 NMtPBC=     1 NCelOv=     1 NCel=       1 NClECP=     1 NCelD=      1
         NCelK=      1 NCelE2=     1 NClLst=     1 CellRange=     0.0.
 One-electron integrals computed using PRISM.
 NBasis=    64 RedAO= T EigKep=  2.15D-03  NBF=    64
 NBsUse=    64 1.00D-06 EigRej= -1.00D+00 NBFU=    64
 Precomputing XC quadrature grid using
 IXCGrd= 4 IRadAn=           7 IRanWt=          -1 IRanGd=           0 AccXCQ= 0.00D+00.
 Generated NRdTot=       0 NPtTot=           0 NUsed=           0 NTot=          32
 NSgBfM=    66    66    66    66    66 MxSgAt=     4 MxSgA2=     4.
 Leave Link  302 at Mon Apr 21 19:41:10 2025, MaxMem=   536870912 cpu:               1.7 elap:               0.3
 (Enter /home/szhao/Apps/g16/l303.exe)
 DipDrv:  MaxL=1.
 Leave Link  303 at Mon Apr 21 19:41:10 2025, MaxMem=   536870912 cpu:               0.5 elap:               0.1
 (Enter /home/szhao/Apps/g16/l401.exe)
 Initial guess from the checkpoint file:  "opt.chk"
 B after Tr=     0.002244   -0.000003    0.025142
         Rot=    0.999973   -0.000003   -0.007301   -0.000002 Ang=  -0.84 deg.
 Guess basis will be translated and rotated to current coordinates.
 JPrj=2 DoOrth=T DoCkMO=T.
 Initial guess <Sx>= 0.0000 <Sy>= 0.0000 <Sz>= 0.0000 <S**2>=-0.0000 S=-0.0000
 Generating alternative initial guess.
 ExpMin= 4.05D-02 ExpMax= 9.34D+04 ExpMxC= 3.17D+03 IAcc=3 IRadAn=         5 AccDes= 0.00D+00
 Harris functional with IExCor= 1009 and IRadAn=       5 diagonalized for initial guess.
 HarFok:  IExCor= 1009 AccDes= 0.00D+00 IRadAn=         5 IDoV= 1 UseB2=F ITyADJ=14
 ICtDFT=  3500011 ScaDFX=  1.000000  1.000000  1.000000  1.000000
 FoFCou: FMM=F IPFlag=           0 FMFlag=      100000 FMFlg1=           0
         NFxFlg=           0 DoJE=T BraDBF=F KetDBF=T FulRan=T
         wScrn=  0.000000 ICntrl=       500 IOpCl=  0 I1Cent=   200000004 NGrid=           0
         NMat0=    1 NMatS0=      1 NMatT0=    0 NMatD0=    1 NMtDS0=    0 NMtDT0=    0
 Symmetry not used in FoFCou.
 Harris En= -437.147757239380    
 Leave Link  401 at Mon Apr 21 19:41:10 2025, MaxMem=   536870912 cpu:               3.4 elap:               0.5
 (Enter /home/szhao/Apps/g16/l502.exe)
 Keep R1 and R2 ints in memory in canonical form, NReq=11470680.
 FoFCou: FMM=F IPFlag=           0 FMFlag=           0 FMFlg1=           0
         NFxFlg=           0 DoJE=F BraDBF=F KetDBF=F FulRan=T
         wScrn=  0.000000 ICntrl=       600 IOpCl=  0 I1Cent=           0 NGrid=           0
         NMat0=    1 NMatS0=   2080 NMatT0=    0 NMatD0=    1 NMtDS0=    0 NMtDT0=    0
 Symmetry not used in FoFCou.
 Two-electron integral symmetry not used.
 UHF open shell SCF:
 Using DIIS extrapolation, IDIIS=  1040.
[...]
 Coeff-Com:  0.973D+00
 Coeff:     -0.576D-03 0.106D-01 0.358D-02-0.247D-01-0.399D-01 0.781D-01
 Coeff:      0.973D+00
 Gap=     0.181 Goal=   None    Shift=    0.000
 Gap=     0.181 Goal=   None    Shift=    0.000
 RMSDP=2.77D-08 MaxDP=5.14D-07 DE=-2.30D-11 OVMax= 1.08D-06

 Cycle   8  Pass 1  IDiag  1:
 E= -437.345147664912     Delta-E=       -0.000000000002 Rises=F Damp=F
 DIIS: error= 7.88D-09 at cycle   8 NSaved=   8.
 NSaved= 8 IEnMin= 8 EnMin= -437.345147664912     IErMin= 8 ErrMin= 7.88D-09
 ErrMax= 7.88D-09  0.00D+00 EMaxC= 1.00D-01 BMatC= 2.61D-14 BMatP= 3.90D-12
 IDIUse=1 WtCom= 1.00D+00 WtEn= 0.00D+00
 Coeff-Com: -0.127D-03 0.127D-02 0.477D-03 0.213D-03-0.906D-02-0.176D-01
 Coeff-Com:  0.744D-01 0.950D+00
 Coeff:     -0.127D-03 0.127D-02 0.477D-03 0.213D-03-0.906D-02-0.176D-01
 Coeff:      0.744D-01 0.950D+00
 Gap=     0.181 Goal=   None    Shift=    0.000
 Gap=     0.181 Goal=   None    Shift=    0.000
 RMSDP=4.04D-09 MaxDP=3.77D-08 DE=-1.59D-12 OVMax= 1.34D-07

 SCF Done:  E(UM062X) =  -437.345147665     A.U. after    8 cycles
            NFock=  8  Conv=0.40D-08     -V/T= 2.0026
 <Sx>= 0.0000 <Sy>= 0.0000 <Sz>= 0.0000 <S**2>= 0.0000 S= 0.0000
 <L.S>=  0.00000000000    
 KE= 4.362080185463D+02 PE=-1.110312352456D+03 EE= 2.003655085519D+02
 Annihilation of the first spin contaminant:
 S**2 before annihilation    -0.0000,   after     0.0000
 Leave Link  502 at Mon Apr 21 19:41:25 2025, MaxMem=   536870912 cpu:              31.6 elap:               4.3
 (Enter /home/szhao/Apps/g16/l701.exe)
 ... and contract with generalized density number  0.
 Compute integral first derivatives.
 Leave Link  701 at Mon Apr 21 19:41:26 2025, MaxMem=   536870912 cpu:               1.4 elap:               0.2
 (Enter /home/szhao/Apps/g16/l702.exe)
 L702 exits ... SP integral derivatives will be done elsewhere.
 Leave Link  702 at Mon Apr 21 19:41:26 2025, MaxMem=   536870912 cpu:               0.5 elap:               0.1
 (Enter /home/szhao/Apps/g16/l703.exe)
 Integral derivatives from FoFJK, PRISM(SPDF).
 Compute integral first derivatives, UseDBF=F ICtDFT=           0.
 Calling FoFJK, ICntrl=      2127 FMM=F ISym2X=0 I1Cent= 0 IOpClX= 1 NMat=1 NMatS=1 NMatT=0.
 FoFJK:  IHMeth= 1 ICntrl=    2127 DoSepK=F KAlg= 0 I1Cent=           0 FoldK=F
 IRaf=         0 NMat=       1 IRICut=       1 DoRegI=T DoRafI=F ISym2E= 0 IDoP0=0 IntGTp=1.
 FoFCou: FMM=F IPFlag=           0 FMFlag=      100000 FMFlg1=         800
         NFxFlg=           0 DoJE=F BraDBF=F KetDBF=F FulRan=T
         wScrn=  0.000000 ICntrl=      2127 IOpCl=  1 I1Cent=           0 NGrid=           0
         NMat0=    1 NMatS0=      1 NMatT0=    0 NMatD0=    1 NMtDS0=    0 NMtDT0=    0
 Symmetry not used in FoFCou.
 Leave Link  703 at Mon Apr 21 19:41:27 2025, MaxMem=   536870912 cpu:               7.4 elap:               1.0
 (Enter /home/szhao/Apps/g16/l716.exe)
 Dipole        =-1.05731868D+00-6.96250092D-05-1.20116510D-04
 -------------------------------------------------------------------
 Center     Atomic                   Forces (Hartrees/Bohr)
 Number     Number              X              Y              Z
 -------------------------------------------------------------------
      1        6          -0.000000000   -0.000000000   -0.000000000
      2       16          -0.000000000   -0.000000000   -0.000000000
      3        1          -0.000024569    0.000047749    0.000006076
      4        1          -0.000009005   -0.000039257    0.000006221
 -------------------------------------------------------------------
 Cartesian Forces:  Max     0.000047749 RMS     0.000019539
 Leave Link  716 at Mon Apr 21 19:41:27 2025, MaxMem=   536870912 cpu:               0.9 elap:               0.1
 (Enter /home/szhao/Apps/g16/l103.exe)

 GradGradGradGradGradGradGradGradGradGradGradGradGradGradGradGradGradGrad
 Berny optimization.
 Using GEDIIS/GDIIS optimizer.
 FormGI is forming the generalized inverse of G from B-inverse, IUseBI=4.
 Internal  Forces:  Max     0.000047472 RMS     0.000025535
 Search for a local minimum.
 Step number   5 out of a maximum of   22
 All quantities printed in internal units (Hartrees-Bohrs-Radians)
 RMS Force = .31795D-04 SwitMx=.10000D-02 MixMth= 2
 Mixed Optimization -- En-DIIS/RFO-DIIS
 Update second derivatives using D2CorX and points    1    2    4    3    5
 DE= -7.62D-06 DEPred=-3.21D-06 R= 2.38D+00
 TightC=F SS=  1.41D+00  RLast= 2.30D-02 DXNew= 2.6072D-01 6.8886D-02
 Trust test= 2.38D+00 RLast= 2.30D-02 DXMaxT set to 1.55D-01
 The second derivative matrix:
                          X1        Y1        Z1        X2        Y2
           X1           0.60954
           Y1           0.00029   0.50002
           Z1          -0.01239  -0.00102   0.56112
           X2           0.00000   0.00000  -0.00000   0.50000
           Y2          -0.00013  -0.00001   0.00052  -0.00000   0.50000
           Z2           0.00236   0.00019  -0.01169   0.00000  -0.00010
           R1          -0.02021  -0.00031   0.00253  -0.00000   0.00016
           R2          -0.02017  -0.00031   0.00250  -0.00000   0.00015
           A1          -0.03636   0.00000  -0.00502   0.00000  -0.00001
           A2          -0.03797  -0.00005  -0.00660   0.00000   0.00002
           A3           0.07228   0.00000  -0.00533   0.00000   0.00001
           D1          -0.00839  -0.00069   0.04097  -0.00000   0.00036
                          Z2        R1        R2        A1        A2
           Z2           0.50224
           R1          -0.00041   0.34805
           R2          -0.00041  -0.00064   0.34803
           A1           0.00098  -0.00472  -0.00471   0.13985
           A2           0.00130  -0.00412  -0.00412  -0.02029   0.13997
           A3           0.00105   0.00992   0.00992   0.02009   0.02089
           D1          -0.00784   0.00068   0.00066   0.00025  -0.00099
                          A3        D1
           A3           0.10041
           D1          -0.00018   0.02773
 ITU=  1 -1  1  1  0
 Use linear search instead of GDIIS.
     Eigenvalues ---    0.02772   0.07847   0.16020   0.34842   0.34868
     Eigenvalues --- 1000.000001000.000001000.000001000.000001000.00000
     Eigenvalues --- 1000.000001000.00000
 RFO step:  Lambda=-5.18905089D-08 EMin= 2.77166243D-02
 Quartic linear search produced a step of  0.00959.
 Iteration  1 RMS(Cart)=  0.00028976 RMS(Int)=  0.00000036
 Iteration  2 RMS(Cart)=  0.00000008 RMS(Int)=  0.00000035
 ITry= 1 IFail=0 DXMaxC= 6.98D-04 DCOld= 1.00D+10 DXMaxT= 1.55D-01 DXLimC= 3.00D+00 Rises=F
 Variable       Old X    -DE/DX   Delta X   Delta X   Delta X     New X
                                 (Linear)    (Quad)   (Total)
    X1       -1.98826  -0.00003   0.00000   0.00000   0.00000  -1.98826
    Y1        0.00000   0.00002   0.00000   0.00000   0.00000   0.00000
    Z1        0.00000   0.00002   0.00000   0.00000   0.00000   0.00000
    X2        1.98826   0.00000   0.00000   0.00000   0.00000   1.98826
    Y2        0.00000  -0.00001   0.00000   0.00000   0.00000   0.00000
    Z2        0.00000  -0.00000   0.00000   0.00000   0.00000   0.00000
    R1        2.04523  -0.00003   0.00001  -0.00007  -0.00007   2.04516
    R2        2.04523  -0.00003   0.00001  -0.00007  -0.00007   2.04516
    A1        2.04539   0.00004  -0.00000   0.00041   0.00040   2.04579
    A2        2.04585   0.00001  -0.00000   0.00018   0.00018   2.04603
    A3        2.19195  -0.00005   0.00001  -0.00059  -0.00058   2.19137
    D1        3.14122   0.00001   0.00022   0.00015   0.00037  -3.14159
         Item               Value     Threshold  Converged?
 Maximum Force            0.000047     0.000450     YES
 RMS     Force            0.000032     0.000300     YES
 Maximum Displacement     0.000698     0.001800     YES
 RMS     Displacement     0.000290     0.001200     YES
 Predicted change in Energy=-2.662857D-08
 Optimization completed.
    -- Stationary point found.
                           ----------------------------
                           !   Optimized Parameters   !
                           ! (Angstroms and Degrees)  !
 --------------------------                            --------------------------
 ! Name  Definition              Value          Derivative Info.                !
 --------------------------------------------------------------------------------
 ! X1    R(1,-1)                -1.0521         -DE/DX =    0.0                 !
 ! Y1    R(1,-2)                 0.0            -DE/DX =    0.0                 !
 ! Z1    R(1,-3)                 0.0            -DE/DX =    0.0                 !
 ! X2    R(2,-1)                 1.0521         -DE/DX =    0.0                 !
 ! Y2    R(2,-2)                 0.0            -DE/DX =    0.0                 !
 ! Z2    R(2,-3)                 0.0            -DE/DX =    0.0                 !
 ! R1    R(1,3)                  1.0823         -DE/DX =    0.0                 !
 ! R2    R(1,4)                  1.0823         -DE/DX =    0.0                 !
 ! A1    A(2,1,3)              117.192          -DE/DX =    0.0                 !
 ! A2    A(2,1,4)              117.2185         -DE/DX =    0.0                 !
 ! A3    A(3,1,4)              125.5895         -DE/DX =    0.0                 !
 ! D1    D(2,1,4,3)           -180.0211         -DE/DX =    0.0                 !
 --------------------------------------------------------------------------------
 Lowest energy point so far.  Saving SCF results.
 Largest change from initial coordinates is atom    4       0.090 Angstoms.
 GradGradGradGradGradGradGradGradGradGradGradGradGradGradGradGradGradGrad

 Leave Link  103 at Mon Apr 21 19:41:27 2025, MaxMem=   536870912 cpu:               1.0 elap:               0.2
 (Enter /home/szhao/Apps/g16/l202.exe)
                          Input orientation:                          
 ---------------------------------------------------------------------
 Center     Atomic      Atomic             Coordinates (Angstroms)
 Number     Number       Type             X           Y           Z
 ---------------------------------------------------------------------
      1          6           0       -1.052140    0.000000    0.000000
      2         16           0        1.052140    0.000000    0.000000
      3          1           0       -1.546717   -0.962675    0.000317
      4          1           0       -1.547162    0.962446   -0.000641
 ---------------------------------------------------------------------
                    Distance matrix (angstroms):
                    1          2          3          4
     1  C    0.000000
     2  S    2.104279   0.000000
     3  H    1.082289   2.771425   0.000000
     4  H    1.082289   2.771763   1.925121   0.000000
 Symmetry turned off by external request.
 Stoichiometry    CH2S
 Framework group  C1[X(CH2S)]
 Deg. of freedom     6
 Full point group                 C1      NOp   1
 Rotational constants (GHZ):         270.6113119          10.8597656          10.4407723
 Leave Link  202 at Mon Apr 21 19:41:28 2025, MaxMem=   536870912 cpu:               0.1 elap:               0.1
 (Enter /home/szhao/Apps/g16/l601.exe)
 Copying SCF densities to generalized density rwf, IOpCl= 1 IROHF=0.

 **********************************************************************

            Population analysis using the SCF density.

 **********************************************************************

 Alpha  occ. eigenvalues --  -89.92311 -10.66996  -8.28115  -6.20208  -6.20067
 Alpha  occ. eigenvalues --   -6.19465  -0.82165  -0.71711  -0.55734  -0.41039
 Alpha  occ. eigenvalues --   -0.32143  -0.30042
 Alpha virt. eigenvalues --   -0.11921  -0.01559   0.02807   0.05026   0.06280
 Alpha virt. eigenvalues --    0.06649   0.08294   0.08520   0.09618   0.14551
 Alpha virt. eigenvalues --    0.16415   0.20653   0.34792   0.36422   0.36864
 Alpha virt. eigenvalues --    0.41623   0.42835   0.55313   0.60836   0.65413
 Alpha virt. eigenvalues --    0.65734   0.74818   0.82677   0.84602   0.84836
 Alpha virt. eigenvalues --    0.91653   0.93197   1.04672   1.26627   1.39501
 Alpha virt. eigenvalues --    1.42858   1.51564   1.62771   1.67342   1.75446
 Alpha virt. eigenvalues --    1.79305   1.88463   1.96145   1.97965   2.41514
 Alpha virt. eigenvalues --    2.48765   2.57584   2.61320   2.73333   2.98693
 Alpha virt. eigenvalues --    3.68876   7.80291  17.46315  17.46778  17.55000
 Alpha virt. eigenvalues --   23.75909 189.05636
  Beta  occ. eigenvalues --  -89.92311 -10.66996  -8.28115  -6.20208  -6.20067
  Beta  occ. eigenvalues --   -6.19465  -0.82165  -0.71711  -0.55734  -0.41039
  Beta  occ. eigenvalues --   -0.32143  -0.30042
  Beta virt. eigenvalues --   -0.11921  -0.01559   0.02807   0.05026   0.06280
  Beta virt. eigenvalues --    0.06649   0.08294   0.08520   0.09618   0.14551
  Beta virt. eigenvalues --    0.16415   0.20653   0.34792   0.36422   0.36864
  Beta virt. eigenvalues --    0.41623   0.42835   0.55313   0.60836   0.65413
  Beta virt. eigenvalues --    0.65734   0.74818   0.82677   0.84602   0.84836
  Beta virt. eigenvalues --    0.91653   0.93197   1.04672   1.26627   1.39501
  Beta virt. eigenvalues --    1.42858   1.51564   1.62771   1.67342   1.75446
  Beta virt. eigenvalues --    1.79305   1.88463   1.96145   1.97965   2.41514
  Beta virt. eigenvalues --    2.48765   2.57584   2.61320   2.73333   2.98693
  Beta virt. eigenvalues --    3.68876   7.80291  17.46315  17.46778  17.55000
  Beta virt. eigenvalues --   23.75909 189.05636
          Condensed to atoms (all electrons):
               1          2          3          4
     1  C    5.218716   0.402359   0.363352   0.363335
     2  S    0.402359  15.730330  -0.028771  -0.028738
     3  H    0.363352  -0.028771   0.485674  -0.031728
     4  H    0.363335  -0.028738  -0.031728   0.485662
          Atomic-Atomic Spin Densities.
               1          2          3          4
     1  C    0.000000   0.000000  -0.000000  -0.000000
     2  S    0.000000  -0.000000  -0.000000   0.000000
     3  H   -0.000000  -0.000000  -0.000000   0.000000
     4  H   -0.000000   0.000000   0.000000  -0.000000
 Mulliken charges and spin densities:
               1          2
     1  C   -0.347762   0.000000
     2  S   -0.075180  -0.000000
     3  H    0.211473  -0.000000
     4  H    0.211469  -0.000000
 Sum of Mulliken charges =   0.00000   0.00000
 Mulliken charges and spin densities with hydrogens summed into heavy atoms:
               1          2
     1  C    0.075180   0.000000
     2  S   -0.075180  -0.000000
 Electronic spatial extent (au):  <R**2>=            154.8326
 Charge=              0.0000 electrons
 Dipole moment (field-independent basis, Debye):
    X=             -2.6874    Y=             -0.0002    Z=             -0.0003  Tot=              2.6874
 Quadrupole moment (field-independent basis, Debye-Ang):
   XX=            -16.9689   YY=            -20.9998   ZZ=            -21.4205
   XY=             -0.0005   XZ=              0.0002   YZ=             -0.0002
 Traceless Quadrupole moment (field-independent basis, Debye-Ang):
   XX=              2.8275   YY=             -1.2035   ZZ=             -1.6241
   XY=             -0.0005   XZ=              0.0002   YZ=             -0.0002
 Octapole moment (field-independent basis, Debye-Ang**2):
  XXX=            -19.9815  YYY=             -0.0005  ZZZ=              0.0005  XYY=            -11.4185
  XXY=              0.0012  XXZ=             -0.0009  XZZ=             -5.6825  YZZ=              0.0001
  YYZ=             -0.0003  XYZ=              0.0029
 Hexadecapole moment (field-independent basis, Debye-Ang**3):
 XXXX=           -154.7751 YYYY=            -36.7235 ZZZZ=            -30.2330 XXXY=             -0.0048
 XXXZ=             -0.0010 YYYX=              0.0004 YYYZ=              0.0008 ZZZX=             -0.0012
 ZZZY=              0.0025 XXYY=            -32.2855 XXZZ=            -33.0512 YYZZ=            -11.7198
 XXYZ=             -0.0004 YYXZ=              0.0003 ZZXY=             -0.0001
 N-N= 3.639367769324D+01 E-N=-1.110312352761D+03  KE= 4.362080185463D+02
                          Isotropic Fermi Contact Couplings
        Atom                 a.u.       MegaHertz       Gauss      10(-4) cm-1
     1  C(13)              0.00000       0.00000       0.00000       0.00000
     2  S(33)              0.00000       0.00000       0.00000       0.00000
     3  H(1)              -0.00000      -0.00000      -0.00000      -0.00000
     4  H(1)              -0.00000      -0.00000      -0.00000      -0.00000
 --------------------------------------------------------
       Center         ----  Spin Dipole Couplings  ----
                      3XX-RR        3YY-RR        3ZZ-RR
 --------------------------------------------------------
     1   Atom       -0.000000     -0.000000      0.000000
     2   Atom        0.000000      0.000000     -0.000000
     3   Atom       -0.000000      0.000000     -0.000000
     4   Atom       -0.000000      0.000000     -0.000000
 --------------------------------------------------------
                        XY            XZ            YZ
 --------------------------------------------------------
     1   Atom       -0.000000      0.000000      0.000000
     2   Atom       -0.000000      0.000000     -0.000000
     3   Atom        0.000000     -0.000000     -0.000000
     4   Atom       -0.000000     -0.000000      0.000000
 --------------------------------------------------------


 ---------------------------------------------------------------------------------
              Anisotropic Spin Dipole Couplings in Principal Axis System
 ---------------------------------------------------------------------------------

       Atom             a.u.   MegaHertz   Gauss  10(-4) cm-1        Axes

              Baa    -0.0000    -0.000    -0.000    -0.000  0.0013  1.0000 -0.0001
     1 C(13)  Bbb    -0.0000    -0.000    -0.000    -0.000  1.0000 -0.0013 -0.0000
              Bcc     0.0000     0.000     0.000     0.000  0.0000  0.0001  1.0000
 
              Baa    -0.0000    -0.000    -0.000    -0.000 -0.0016  0.0002  1.0000
     2 S(33)  Bbb     0.0000     0.000     0.000     0.000  0.9998  0.0182  0.0016
              Bcc     0.0000     0.000     0.000     0.000 -0.0182  0.9998 -0.0003
 
              Baa    -0.0000    -0.000    -0.000    -0.000  0.9124 -0.4093  0.0001
     3 H(1)   Bbb    -0.0000    -0.000    -0.000    -0.000  0.0001  0.0005  1.0000
              Bcc     0.0000     0.000     0.000     0.000  0.4093  0.9124 -0.0005
 
              Baa    -0.0000    -0.000    -0.000    -0.000  0.9122  0.4098  0.0000
     4 H(1)   Bbb    -0.0000    -0.000    -0.000    -0.000  0.0002 -0.0004  1.0000
              Bcc     0.0000     0.000     0.000     0.000 -0.4098  0.9122  0.0004
 

 ---------------------------------------------------------------------------------

 No NMR shielding tensors so no spin-rotation constants.
 Leave Link  601 at Mon Apr 21 19:41:28 2025, MaxMem=   536870912 cpu:               2.0 elap:               0.4
 (Enter /home/szhao/Apps/g16/l9999.exe)
 1\1\GINC-NODE06\FOpt\UM062X\6-311+G(d,p)\C1H2S1\SZHAO\21-Apr-2025\0\\#
 p opt UM062X/6-311+G** nosymm int=superfine\\Title Card Required\\0,1\
 C,-1.05213956,0.,0.\S,1.05213956,0.,0.\H,-1.5467166286,-0.9626750068,0
 .0003168639\H,-1.5471623426,0.9624458143,-0.0006412442\\Version=ES64L-
 G16RevA.03\HF=-437.3451477\S2=0.\S2-1=0.\S2A=0.\RMSD=4.039e-09\RMSF=1.
 954e-05\Dipole=-1.0573187,-0.0000696,-0.0001201\Quadrupole=2.1021998,-
 0.8947361,-1.2074637,-0.0003863,0.0001442,-0.0001556\PG=C01 [X(C1H2S1)
 ]\\@


 THE ... SCIENTISTS WERE WRONG ... THE MOST PERSISTENT PRINCIPLES 
 OF THE UNIVERSE WERE ACCIDENT AND ERROR.

                          -- FRANK HERBERT IN DUNE
 Job cpu time:       0 days  0 hours  4 minutes 55.0 seconds.
 Elapsed time:       0 days  0 hours  0 minutes 42.7 seconds.
 File lengths (MBytes):  RWF=     22 Int=      0 D2E=      0 Chk=      2 Scr=      2
 Normal termination of Gaussian 16 at Mon Apr 21 19:41:29 2025.
