 Entering Gaussian System, Link 0=g16
 Initial command:
 /home/szhao/Apps/g16/l1.exe "/home/szhao/tmp/Gau-137136.inp" -scrdir="/home/szhao/tmp/"
 Default is to use a total of  16 processors:
                               16 via shared-memory
                                1 via Linda
 Entering Link 1 = /home/szhao/Apps/g16/l1.exe PID=    137137.
  
 Copyright (c) 1988,1990,1992,1993,1995,1998,2003,2009,2016,
            Gaussian, Inc.  All Rights Reserved.
  
 This is part of the Gaussian(R) 16 program.  It is based on
 the Gaussian(R) 09 system (copyright 2009, Gaussian, Inc.),
 the Gaussian(R) 03 system (copyright 2003, Gaussian, Inc.),
 the Gaussian(R) 98 system (copyright 1998, Gaussian, Inc.),
 the Gaussian(R) 94 system (copyright 1995, Gaussian, Inc.),
 the Gaussian 92(TM) system (copyright 1992, Gaussian, Inc.),
 the Gaussian 90(TM) system (copyright 1990, Gaussian, Inc.),
 the Gaussian 88(TM) system (copyright 1988, Gaussian, Inc.),
 the Gaussian 86(TM) system (copyright 1986, Carnegie Mellon
 University), and the Gaussian 82(TM) system (copyright 1983,
 Carnegie Mellon University). Gaussian is a federally registered
 trademark of Gaussian, Inc.
  
 This software contains proprietary and confidential information,
 including trade secrets, belonging to Gaussian, Inc.
  
 This software is provided under written license and may be
 used, copied, transmitted, or stored only in accord with that
 written license.
  
 The following legend is applicable only to US Government
 contracts under FAR:
  
                    RESTRICTED RIGHTS LEGEND
  
 Use, reproduction and disclosure by the US Government is
 subject to restrictions as set forth in subparagraphs (a)
 and (c) of the Commercial Computer Software - Restricted
 Rights clause in FAR 52.227-19.
  
 Gaussian, Inc.
 340 Quinnipiac St., Bldg. 40, Wallingford CT 06492
  
  
 ---------------------------------------------------------------
 Warning -- This program may not be used in any manner that
 competes with the business of Gaussian, Inc. or will provide
 assistance to any competitor of Gaussian, Inc.  The licensee
 of this program is prohibited from giving any competitor of
 Gaussian, Inc. access to this program.  By using this program,
 the user acknowledges that Gaussian, Inc. is engaged in the
 business of creating and licensing software in the field of
 computational chemistry and represents and warrants to the
 licensee that it is not a competitor of Gaussian, Inc. and that
 it will not use this program in any manner prohibited above.
 ---------------------------------------------------------------
  

 Cite this work as:
 Gaussian 16, Revision A.03,
 M. J. Frisch, G. W. Trucks, H. B. Schlegel, G. E. Scuseria, 
 M. A. Robb, J. R. Cheeseman, G. Scalmani, V. Barone, 
 G. A. Petersson, H. Nakatsuji, X. Li, M. Caricato, A. V. Marenich, 
 J. Bloino, B. G. Janesko, R. Gomperts, B. Mennucci, H. P. Hratchian, 
 J. V. Ortiz, A. F. Izmaylov, J. L. Sonnenberg, D. Williams-Young, 
 F. Ding, F. Lipparini, F. Egidi, J. Goings, B. Peng, A. Petrone, 
 T. Henderson, D. Ranasinghe, V. G. Zakrzewski, J. Gao, N. Rega, 
 G. Zheng, W. Liang, M. Hada, M. Ehara, K. Toyota, R. Fukuda, 
 J. Hasegawa, M. Ishida, T. Nakajima, Y. Honda, O. Kitao, H. Nakai, 
 T. Vreven, K. Throssell, J. A. Montgomery, Jr., J. E. Peralta, 
 F. Ogliaro, M. J. Bearpark, J. J. Heyd, E. N. Brothers, K. N. Kudin, 
 V. N. Staroverov, T. A. Keith, R. Kobayashi, J. Normand, 
 K. Raghavachari, A. P. Rendell, J. C. Burant, S. S. Iyengar, 
 J. Tomasi, M. Cossi, J. M. Millam, M. Klene, C. Adamo, R. Cammi, 
 J. W. Ochterski, R. L. Martin, K. Morokuma, O. Farkas, 
 J. B. Foresman, and D. J. Fox, Gaussian, Inc., Wallingford CT, 2016.
 
 ******************************************
 Gaussian 16:  ES64L-G16RevA.03 25-Dec-2016
                21-Apr-2025 
 ******************************************
 %chk=opt.chk
 %mem=32GB
 %nprocshared=16
 Will use up to   16 processors via shared memory.
 --------------------------------------------
 #p opt UM062X/6-311+G** nosymm int=superfine
 --------------------------------------------
 1/18=20,19=15,26=5,38=1/1,3;
 2/9=110,12=2,15=1,17=6,18=5,40=1/2;
 3/5=4,6=6,7=111,11=2,25=1,30=1,71=1,74=-55,75=-7,116=2/1,2,3;
 4//1;
 5/5=2,38=5/2;
 6/7=2,8=2,9=2,10=2,28=1/1;
 7/30=1/1,2,3,16;
 1/18=20,19=15,26=5/3(2);
 2/9=110,15=1/2;
 99//99;
 2/9=110,15=1/2;
 3/5=4,6=6,7=111,11=2,25=1,30=1,71=1,74=-55,75=-7,116=2/1,2,3;
 4/5=5,16=3,69=1/1;
 5/5=2,38=5/2;
 7/30=1/1,2,3,16;
 1/18=20,19=15,26=5/3(-5);
 2/9=110,15=1/2;
 6/7=2,8=2,9=2,10=2,19=2,28=1/1;
 99/9=1/99;
 Leave Link    1 at Mon Apr 21 18:18:59 2025, MaxMem=  4294967296 cpu:               3.1 elap:               0.2
 (Enter /home/szhao/Apps/g16/l101.exe)
 -------------------
 Title Card Required
 -------------------
 Symbolic Z-matrix:
 Charge =  0 Multiplicity = 1
 C                    -1   -0.78164   0.        0. 
 N                    -1    0.78164   0.        0. 
 H                    0    -1.4033   -0.90066   0. 
 H                    0     1.14287  -0.95582  -0.00013 
 H                    0    -1.30817   0.95472  -0.00011 
 
 ITRead=  2  2  0  0  0
 MicOpt= -2 -2 -1 -1 -1
 NAtoms=      5 NQM=        3 NQMF=       2 NMMI=      0 NMMIF=      0
                NMic=       0 NMicF=      0.
                    Isotopes and Nuclear Properties:
 (Nuclear quadrupole moments (NQMom) in fm**2, nuclear magnetic moments (NMagM)
  in nuclear magnetons)

  Atom         1           2           3           4           5
 IAtWgt=          12          14           1           1           1
 AtmWgt=  12.0000000  14.0030740   1.0078250   1.0078250   1.0078250
 NucSpn=           0           2           1           1           1
 AtZEff=  -0.0000000  -0.0000000  -0.0000000  -0.0000000  -0.0000000
 NQMom=    0.0000000   2.0440000   0.0000000   0.0000000   0.0000000
 NMagM=    0.0000000   0.4037610   2.7928460   2.7928460   2.7928460
 AtZNuc=   6.0000000   7.0000000   1.0000000   1.0000000   1.0000000
 Leave Link  101 at Mon Apr 21 18:19:00 2025, MaxMem=  4294967296 cpu:              14.4 elap:               0.9
 (Enter /home/szhao/Apps/g16/l103.exe)

 GradGradGradGradGradGradGradGradGradGradGradGradGradGradGradGradGradGrad
 Berny optimization.
 Initialization pass.
                           ----------------------------
                           !    Initial Parameters    !
                           ! (Angstroms and Degrees)  !
 --------------------------                            --------------------------
 ! Name  Definition              Value          Derivative Info.                !
 --------------------------------------------------------------------------------
 ! X1    R(1,-1)                -0.7816         Frozen                          !
 ! Y1    R(1,-2)                 0.0            Frozen                          !
 ! Z1    R(1,-3)                 0.0            Frozen                          !
 ! X2    R(2,-1)                 0.7816         Frozen                          !
 ! Y2    R(2,-2)                 0.0            Frozen                          !
 ! Z2    R(2,-3)                 0.0            Frozen                          !
 ! R1    R(1,3)                  1.0944         estimate D2E/DX2                !
 ! R2    R(1,5)                  1.0903         estimate D2E/DX2                !
 ! R3    R(2,4)                  1.0218         estimate D2E/DX2                !
 ! A1    A(2,1,3)              124.6144         estimate D2E/DX2                !
 ! A2    A(2,1,5)              118.877          estimate D2E/DX2                !
 ! A3    A(3,1,5)              116.5086         estimate D2E/DX2                !
 ! A4    A(1,2,4)              110.7031         estimate D2E/DX2                !
 ! D1    D(3,1,2,4)              0.0075         estimate D2E/DX2                !
 ! D2    D(5,1,2,4)           -179.9859         estimate D2E/DX2                !
 --------------------------------------------------------------------------------
 Trust Radius=3.00D-01 FncErr=1.00D-07 GrdErr=1.00D-07 EigMax=2.50D+02 EigMin=1.00D-04
 Number of steps in this run=     25 maximum allowed number of steps=    100.
 GradGradGradGradGradGradGradGradGradGradGradGradGradGradGradGradGradGrad

 Leave Link  103 at Mon Apr 21 18:19:00 2025, MaxMem=  4294967296 cpu:               0.6 elap:               0.1
 (Enter /home/szhao/Apps/g16/l202.exe)
                          Input orientation:                          
 ---------------------------------------------------------------------
 Center     Atomic      Atomic             Coordinates (Angstroms)
 Number     Number       Type             X           Y           Z
 ---------------------------------------------------------------------
      1          6           0       -0.781637    0.000000    0.000000
      2          7           0        0.781637    0.000000    0.000000
      3          1           0       -1.403297   -0.900661    0.000000
      4          1           0        1.142870   -0.955819   -0.000126
      5          1           0       -1.308169    0.954719   -0.000110
 ---------------------------------------------------------------------
                    Distance matrix (angstroms):
                    1          2          3          4          5
     1  C    0.000000
     2  N    1.563274   0.000000
     3  H    1.094373   2.363287   0.000000
     4  H    2.148794   1.021802   2.546764   0.000000
     5  H    1.090286   2.297559   1.857817   3.107692   0.000000
 Symmetry turned off by external request.
 Stoichiometry    CH3N
 Framework group  C1[X(CH3N)]
 Deg. of freedom     9
 Full point group                 C1      NOp   1
 Rotational constants (GHZ):         197.0959631          24.0923094          21.4681226
 Leave Link  202 at Mon Apr 21 18:19:01 2025, MaxMem=  4294967296 cpu:               0.6 elap:               0.1
 (Enter /home/szhao/Apps/g16/l301.exe)
 Standard basis: 6-311+G(d,p) (5D, 7F)
 Ernie: Thresh=  0.10000D-02 Tol=  0.10000D-05 Strict=F.
    62 basis functions,    96 primitive gaussians,    64 cartesian basis functions
     8 alpha electrons        8 beta electrons
       nuclear repulsion energy        28.9760089765 Hartrees.
 IExCor= 4336 DFT=T Ex+Corr=M062X ExCW=0 ScaHFX=  0.540000
 ScaDFX=  1.000000  1.000000  1.000000  1.000000 ScalE2=  1.000000  1.000000
 IRadAn=      7 IRanWt=     -1 IRanGd=            0 ICorTp=0 IEmpDi=  4
 NAtoms=    5 NActive=    5 NUniq=    5 SFac= 1.00D+00 NAtFMM=   60 NAOKFM=F Big=F
 Integral buffers will be    131072 words long.
 Raffenetti 2 integral format.
 Two-electron integral symmetry is turned off.
 Leave Link  301 at Mon Apr 21 18:19:01 2025, MaxMem=  4294967296 cpu:               1.5 elap:               0.1
 (Enter /home/szhao/Apps/g16/l302.exe)
 NPDir=0 NMtPBC=     1 NCelOv=     1 NCel=       1 NClECP=     1 NCelD=      1
         NCelK=      1 NCelE2=     1 NClLst=     1 CellRange=     0.0.
 One-electron integrals computed using PRISM.
 NBasis=    62 RedAO= T EigKep=  3.07D-03  NBF=    62
 NBsUse=    62 1.00D-06 EigRej= -1.00D+00 NBFU=    62
 Precomputing XC quadrature grid using
 IXCGrd= 4 IRadAn=           7 IRanWt=          -1 IRanGd=           0 AccXCQ= 0.00D+00.
 Generated NRdTot=       0 NPtTot=           0 NUsed=           0 NTot=          32
 NSgBfM=    64    64    64    64    64 MxSgAt=     5 MxSgA2=     5.
 Leave Link  302 at Mon Apr 21 18:19:01 2025, MaxMem=  4294967296 cpu:               5.0 elap:               0.4
 (Enter /home/szhao/Apps/g16/l303.exe)
 DipDrv:  MaxL=1.
 Leave Link  303 at Mon Apr 21 18:19:02 2025, MaxMem=  4294967296 cpu:               1.8 elap:               0.2
 (Enter /home/szhao/Apps/g16/l401.exe)
 ExpMin= 4.38D-02 ExpMax= 6.29D+03 ExpMxC= 9.49D+02 IAcc=3 IRadAn=         7 AccDes= 0.00D+00
 Harris functional with IExCor= 1009 and IRadAn=       7 diagonalized for initial guess.
 HarFok:  IExCor= 1009 AccDes= 0.00D+00 IRadAn=         7 IDoV= 1 UseB2=F ITyADJ=14
 ICtDFT=  3500011 ScaDFX=  1.000000  1.000000  1.000000  1.000000
 FoFCou: FMM=F IPFlag=           0 FMFlag=      100000 FMFlg1=           0
         NFxFlg=           0 DoJE=T BraDBF=F KetDBF=T FulRan=T
         wScrn=  0.000000 ICntrl=       500 IOpCl=  0 I1Cent=   200000004 NGrid=           0
         NMat0=    1 NMatS0=      1 NMatT0=    0 NMatD0=    1 NMtDS0=    0 NMtDT0=    0
 Symmetry not used in FoFCou.
 Harris En= -94.4923448485952    
 JPrj=0 DoOrth=F DoCkMO=F.
 Initial guess <Sx>= 0.0000 <Sy>= 0.0000 <Sz>= 0.0000 <S**2>= 0.0000 S= 0.0000
 Leave Link  401 at Mon Apr 21 18:19:02 2025, MaxMem=  4294967296 cpu:               7.4 elap:               0.7
 (Enter /home/szhao/Apps/g16/l502.exe)
 Keep R1 and R2 ints in memory in canonical form, NReq=18097897.
 FoFCou: FMM=F IPFlag=           0 FMFlag=           0 FMFlg1=           0
         NFxFlg=           0 DoJE=F BraDBF=F KetDBF=F FulRan=T
         wScrn=  0.000000 ICntrl=       600 IOpCl=  0 I1Cent=           0 NGrid=           0
         NMat0=    1 NMatS0=   1953 NMatT0=    0 NMatD0=    1 NMtDS0=    0 NMtDT0=    0
 Symmetry not used in FoFCou.
 Two-electron integral symmetry not used.
 UHF open shell SCF:
 Using DIIS extrapolation, IDIIS=  1040.
 NGot=  4294967296 LenX=  4291141281 LenY=  4291136744
 Requested convergence on RMS density matrix=1.00D-08 within 128 cycles.
 Requested convergence on MAX density matrix=1.00D-06.
 Requested convergence on             energy=1.00D-06.
 No special actions if energy rises.

 Cycle   1  Pass 1  IDiag  1:
 E= -94.5048193396492    
 DIIS: error= 2.99D-02 at cycle   1 NSaved=   1.
 NSaved= 1 IEnMin= 1 EnMin= -94.5048193396492     IErMin= 1 ErrMin= 2.99D-02
 ErrMax= 2.99D-02  0.00D+00 EMaxC= 1.00D-01 BMatC= 1.88D-01 BMatP= 1.88D-01
 IDIUse=3 WtCom= 7.01D-01 WtEn= 2.99D-01
 Coeff-Com:  0.100D+01
 Coeff-En:   0.100D+01
 Coeff:      0.100D+01
 Gap=     0.286 Goal=   None    Shift=    0.000
 Gap=     0.286 Goal=   None    Shift=    0.000
 GapD=    0.286 DampG=1.000 DampE=0.500 DampFc=0.5000 IDamp=-1.
 Damping current iteration by 5.00D-01
 RMSDP=4.93D-03 MaxDP=5.68D-02              OVMax= 1.73D-01

 Cycle   2  Pass 1  IDiag  1:
 E= -94.5162489196216     Delta-E=       -0.011429579972 Rises=F Damp=T
 DIIS: error= 1.21D-02 at cycle   2 NSaved=   2.
 NSaved= 2 IEnMin= 2 EnMin= -94.5162489196216     IErMin= 2 ErrMin= 1.21D-02
 ErrMax= 1.21D-02  0.00D+00 EMaxC= 1.00D-01 BMatC= 3.39D-02 BMatP= 1.88D-01
 IDIUse=3 WtCom= 8.79D-01 WtEn= 1.21D-01
 Coeff-Com:  0.761D-01 0.924D+00
 Coeff-En:   0.238D+00 0.762D+00
 Coeff:      0.957D-01 0.904D+00
 Gap=     0.325 Goal=   None    Shift=    0.000
 Gap=     0.325 Goal=   None    Shift=    0.000
 RMSDP=1.41D-03 MaxDP=2.05D-02 DE=-1.14D-02 OVMax= 1.47D-01

 Cycle   3  Pass 1  IDiag  1:
 E= -94.5295671692721     Delta-E=       -0.013318249650 Rises=F Damp=F
 DIIS: error= 2.01D-02 at cycle   3 NSaved=   3.
 NSaved= 3 IEnMin= 3 EnMin= -94.5295671692721     IErMin= 2 ErrMin= 1.21D-02
 ErrMax= 2.01D-02  0.00D+00 EMaxC= 1.00D-01 BMatC= 3.37D-02 BMatP= 3.39D-02
 IDIUse=3 WtCom= 7.99D-01 WtEn= 2.01D-01
 Coeff-Com: -0.130D+00 0.554D+00 0.576D+00
 Coeff-En:   0.000D+00 0.542D-01 0.946D+00
 Coeff:     -0.104D+00 0.453D+00 0.651D+00
 Gap=     0.292 Goal=   None    Shift=    0.000
 Gap=     0.292 Goal=   None    Shift=    0.000
 RMSDP=1.21D-03 MaxDP=2.09D-02 DE=-1.33D-02 OVMax= 7.56D-02

 Cycle   4  Pass 1  IDiag  1:
 E= -94.5352203943166     Delta-E=       -0.005653225045 Rises=F Damp=F
 DIIS: error= 1.09D-02 at cycle   4 NSaved=   4.
 NSaved= 4 IEnMin= 4 EnMin= -94.5352203943166     IErMin= 4 ErrMin= 1.09D-02
 ErrMax= 1.09D-02  0.00D+00 EMaxC= 1.00D-01 BMatC= 1.14D-02 BMatP= 3.37D-02
 IDIUse=3 WtCom= 8.91D-01 WtEn= 1.09D-01
 Coeff-Com: -0.179D-01 0.495D-01 0.386D+00 0.582D+00
 Coeff-En:   0.000D+00 0.000D+00 0.294D+00 0.706D+00
 Coeff:     -0.159D-01 0.440D-01 0.376D+00 0.596D+00
 Gap=     0.297 Goal=   None    Shift=    0.000
 Gap=     0.297 Goal=   None    Shift=    0.000
 RMSDP=4.85D-04 MaxDP=8.25D-03 DE=-5.65D-03 OVMax= 2.54D-02

 Cycle   5  Pass 1  IDiag  1:
 E= -94.5379237235532     Delta-E=       -0.002703329237 Rises=F Damp=F
 DIIS: error= 2.96D-04 at cycle   5 NSaved=   5.
 NSaved= 5 IEnMin= 5 EnMin= -94.5379237235532     IErMin= 5 ErrMin= 2.96D-04
 ErrMax= 2.96D-04  0.00D+00 EMaxC= 1.00D-01 BMatC= 1.05D-05 BMatP= 1.14D-02
 IDIUse=3 WtCom= 9.97D-01 WtEn= 2.96D-03
 Coeff-Com:  0.389D-03-0.518D-02 0.476D-01 0.979D-01 0.859D+00
 Coeff-En:   0.000D+00 0.000D+00 0.000D+00 0.000D+00 0.100D+01
 Coeff:      0.387D-03-0.517D-02 0.474D-01 0.976D-01 0.860D+00
 Gap=     0.298 Goal=   None    Shift=    0.000
 Gap=     0.298 Goal=   None    Shift=    0.000
 RMSDP=2.61D-05 MaxDP=3.59D-04 DE=-2.70D-03 OVMax= 1.72D-03

 Cycle   6  Pass 1  IDiag  1:
 E= -94.5379277230651     Delta-E=       -0.000003999512 Rises=F Damp=F
 DIIS: error= 1.20D-04 at cycle   6 NSaved=   6.
 NSaved= 6 IEnMin= 6 EnMin= -94.5379277230651     IErMin= 6 ErrMin= 1.20D-04
 ErrMax= 1.20D-04  0.00D+00 EMaxC= 1.00D-01 BMatC= 3.03D-06 BMatP= 1.05D-05
 IDIUse=3 WtCom= 9.99D-01 WtEn= 1.20D-03
 Coeff-Com:  0.144D-02-0.288D-02-0.186D-01-0.461D-01-0.141D+00 0.121D+01
 Coeff-En:   0.000D+00 0.000D+00 0.000D+00 0.000D+00 0.000D+00 0.100D+01
 Coeff:      0.144D-02-0.287D-02-0.186D-01-0.460D-01-0.141D+00 0.121D+01
 Gap=     0.298 Goal=   None    Shift=    0.000
 Gap=     0.298 Goal=   None    Shift=    0.000
 RMSDP=2.09D-05 MaxDP=2.33D-04 DE=-4.00D-06 OVMax= 4.90D-04

 Cycle   7  Pass 1  IDiag  1:
 E= -94.5379287989117     Delta-E=       -0.000001075847 Rises=F Damp=F
 DIIS: error= 2.51D-05 at cycle   7 NSaved=   7.
 NSaved= 7 IEnMin= 7 EnMin= -94.5379287989117     IErMin= 7 ErrMin= 2.51D-05
 ErrMax= 2.51D-05  0.00D+00 EMaxC= 1.00D-01 BMatC= 1.23D-07 BMatP= 3.03D-06
 IDIUse=1 WtCom= 1.00D+00 WtEn= 0.00D+00
 Coeff-Com: -0.240D-03 0.629D-03 0.473D-02 0.837D-02-0.608D-02-0.341D+00
 Coeff-Com:  0.133D+01
 Coeff:     -0.240D-03 0.629D-03 0.473D-02 0.837D-02-0.608D-02-0.341D+00
 Coeff:      0.133D+01
 Gap=     0.298 Goal=   None    Shift=    0.000
 Gap=     0.298 Goal=   None    Shift=    0.000
 RMSDP=5.30D-06 MaxDP=4.74D-05 DE=-1.08D-06 OVMax= 1.37D-04

 Cycle   8  Pass 1  IDiag  1:
 E= -94.5379288551236     Delta-E=       -0.000000056212 Rises=F Damp=F
 DIIS: error= 2.92D-06 at cycle   8 NSaved=   8.
 NSaved= 8 IEnMin= 8 EnMin= -94.5379288551236     IErMin= 8 ErrMin= 2.92D-06
 ErrMax= 2.92D-06  0.00D+00 EMaxC= 1.00D-01 BMatC= 1.16D-09 BMatP= 1.23D-07
 IDIUse=1 WtCom= 1.00D+00 WtEn= 0.00D+00
 Coeff-Com: -0.213D-04 0.404D-04 0.313D-03 0.733D-03 0.636D-02-0.255D-01
 Coeff-Com: -0.280D-01 0.105D+01
 Coeff:     -0.213D-04 0.404D-04 0.313D-03 0.733D-03 0.636D-02-0.255D-01
 Coeff:     -0.280D-01 0.105D+01
 Gap=     0.298 Goal=   None    Shift=    0.000
 Gap=     0.298 Goal=   None    Shift=    0.000
 RMSDP=4.95D-07 MaxDP=7.06D-06 DE=-5.62D-08 OVMax= 1.41D-05

 Cycle   9  Pass 1  IDiag  1:
 E= -94.5379288556747     Delta-E=       -0.000000000551 Rises=F Damp=F
 DIIS: error= 4.88D-07 at cycle   9 NSaved=   9.
 NSaved= 9 IEnMin= 9 EnMin= -94.5379288556747     IErMin= 9 ErrMin= 4.88D-07
 ErrMax= 4.88D-07  0.00D+00 EMaxC= 1.00D-01 BMatC= 5.55D-11 BMatP= 1.16D-09
 IDIUse=1 WtCom= 1.00D+00 WtEn= 0.00D+00
 Coeff-Com:  0.425D-05-0.118D-04-0.612D-04-0.132D-03 0.306D-03 0.590D-02
 Coeff-Com: -0.327D-01-0.416D-01 0.107D+01
 Coeff:      0.425D-05-0.118D-04-0.612D-04-0.132D-03 0.306D-03 0.590D-02
 Coeff:     -0.327D-01-0.416D-01 0.107D+01
 Gap=     0.298 Goal=   None    Shift=    0.000
 Gap=     0.298 Goal=   None    Shift=    0.000
 RMSDP=1.24D-07 MaxDP=1.96D-06 DE=-5.51D-10 OVMax= 3.59D-06

 Cycle  10  Pass 1  IDiag  1:
 E= -94.5379288556994     Delta-E=       -0.000000000025 Rises=F Damp=F
 DIIS: error= 7.79D-08 at cycle  10 NSaved=  10.
 NSaved=10 IEnMin=10 EnMin= -94.5379288556994     IErMin=10 ErrMin= 7.79D-08
 ErrMax= 7.79D-08  0.00D+00 EMaxC= 1.00D-01 BMatC= 1.09D-12 BMatP= 5.55D-11
 IDIUse=1 WtCom= 1.00D+00 WtEn= 0.00D+00
 Coeff-Com:  0.617D-06-0.158D-05-0.125D-04-0.237D-04-0.143D-03 0.142D-02
 Coeff-Com: -0.309D-02-0.323D-01 0.872D-01 0.947D+00
 Coeff:      0.617D-06-0.158D-05-0.125D-04-0.237D-04-0.143D-03 0.142D-02
 Coeff:     -0.309D-02-0.323D-01 0.872D-01 0.947D+00
 Gap=     0.298 Goal=   None    Shift=    0.000
 Gap=     0.298 Goal=   None    Shift=    0.000
 RMSDP=1.53D-08 MaxDP=2.72D-07 DE=-2.47D-11 OVMax= 4.19D-07

 Cycle  11  Pass 1  IDiag  1:
 E= -94.5379288556998     Delta-E=       -0.000000000000 Rises=F Damp=F
 DIIS: error= 2.32D-08 at cycle  11 NSaved=  11.
 NSaved=11 IEnMin=11 EnMin= -94.5379288556998     IErMin=11 ErrMin= 2.32D-08
 ErrMax= 2.32D-08  0.00D+00 EMaxC= 1.00D-01 BMatC= 1.04D-13 BMatP= 1.09D-12
 IDIUse=1 WtCom= 1.00D+00 WtEn= 0.00D+00
 Coeff-Com: -0.142D-06 0.330D-06 0.420D-06 0.289D-05-0.202D-04-0.517D-04
 Coeff-Com:  0.732D-03 0.124D-02-0.268D-01 0.377D-01 0.987D+00
 Coeff:     -0.142D-06 0.330D-06 0.420D-06 0.289D-05-0.202D-04-0.517D-04
 Coeff:      0.732D-03 0.124D-02-0.268D-01 0.377D-01 0.987D+00
 Gap=     0.298 Goal=   None    Shift=    0.000
 Gap=     0.298 Goal=   None    Shift=    0.000
 RMSDP=3.00D-09 MaxDP=3.36D-08 DE=-3.98D-13 OVMax= 6.05D-08

 SCF Done:  E(UM062X) =  -94.5379288557     A.U. after   11 cycles
            NFock= 11  Conv=0.30D-08     -V/T= 2.0097
 <Sx>= 0.0000 <Sy>= 0.0000 <Sz>= 0.0000 <S**2>=-0.0000 S=-0.0000
 <L.S>=  0.00000000000    
 KE= 9.363052851793D+01 PE=-2.777414790425D+02 EE= 6.059701269239D+01
 Annihilation of the first spin contaminant:
 S**2 before annihilation    -0.0000,   after     0.0000
 Leave Link  502 at Mon Apr 21 18:19:09 2025, MaxMem=  4294967296 cpu:              74.0 elap:               6.3
 (Enter /home/szhao/Apps/g16/l601.exe)
 Copying SCF densities to generalized density rwf, IOpCl= 1 IROHF=0.

 **********************************************************************

            Population analysis using the SCF density.

 **********************************************************************

 Alpha  occ. eigenvalues --  -14.78712 -10.63287  -0.93440  -0.74349  -0.54334
 Alpha  occ. eigenvalues --   -0.49147  -0.36217  -0.34528
 Alpha virt. eigenvalues --   -0.04769   0.01995   0.03195   0.05062   0.07580
 Alpha virt. eigenvalues --    0.12402   0.15921   0.16545   0.17742   0.19817
 Alpha virt. eigenvalues --    0.21891   0.25385   0.26471   0.44884   0.45302
 Alpha virt. eigenvalues --    0.57077   0.59018   0.62221   0.67947   0.78004
 Alpha virt. eigenvalues --    0.82065   0.86977   0.89234   1.07612   1.18867
 Alpha virt. eigenvalues --    1.19415   1.39506   1.42609   1.46888   1.50545
 Alpha virt. eigenvalues --    1.57565   1.68069   1.75731   1.92275   1.97729
 Alpha virt. eigenvalues --    2.11640   2.26329   2.29015   2.42343   2.42508
 Alpha virt. eigenvalues --    2.47721   2.50810   2.57754   2.66381   2.77789
 Alpha virt. eigenvalues --    2.80953   3.05203   3.37175   3.72026   3.88701
 Alpha virt. eigenvalues --    4.25418   4.66231  23.78699  35.48859
  Beta  occ. eigenvalues --  -14.78712 -10.63287  -0.93440  -0.74349  -0.54334
  Beta  occ. eigenvalues --   -0.49147  -0.36217  -0.34528
  Beta virt. eigenvalues --   -0.04769   0.01995   0.03195   0.05062   0.07580
  Beta virt. eigenvalues --    0.12402   0.15921   0.16545   0.17742   0.19817
  Beta virt. eigenvalues --    0.21891   0.25385   0.26471   0.44884   0.45302
  Beta virt. eigenvalues --    0.57077   0.59018   0.62221   0.67947   0.78004
  Beta virt. eigenvalues --    0.82065   0.86977   0.89234   1.07612   1.18867
  Beta virt. eigenvalues --    1.19415   1.39506   1.42609   1.46888   1.50545
  Beta virt. eigenvalues --    1.57565   1.68069   1.75731   1.92275   1.97729
  Beta virt. eigenvalues --    2.11640   2.26329   2.29015   2.42343   2.42508
  Beta virt. eigenvalues --    2.47721   2.50810   2.57754   2.66381   2.77789
  Beta virt. eigenvalues --    2.80953   3.05203   3.37175   3.72026   3.88701
  Beta virt. eigenvalues --    4.25418   4.66231  23.78699  35.48859
          Condensed to atoms (all electrons):
               1          2          3          4          5
     1  C    5.110865   0.387116   0.355512   0.002355   0.401224
     2  N    0.387116   6.726928  -0.009633   0.241256  -0.045409
     3  H    0.355512  -0.009633   0.548057  -0.013333  -0.046677
     4  H    0.002355   0.241256  -0.013333   0.553149   0.007579
     5  H    0.401224  -0.045409  -0.046677   0.007579   0.501021
          Atomic-Atomic Spin Densities.
               1          2          3          4          5
     1  C   -0.000000   0.000000  -0.000000   0.000000   0.000000
     2  N    0.000000  -0.000000   0.000000   0.000000  -0.000000
     3  H   -0.000000   0.000000   0.000000  -0.000000  -0.000000
     4  H    0.000000   0.000000  -0.000000   0.000000   0.000000
     5  H    0.000000  -0.000000  -0.000000   0.000000   0.000000
 Mulliken charges and spin densities:
               1          2
     1  C   -0.257072   0.000000
     2  N   -0.300257  -0.000000
     3  H    0.166074   0.000000
     4  H    0.208994   0.000000
     5  H    0.182262   0.000000
 Sum of Mulliken charges =  -0.00000  -0.00000
 Mulliken charges and spin densities with hydrogens summed into heavy atoms:
               1          2
     1  C    0.091263   0.000000
     2  N   -0.091263  -0.000000
 Electronic spatial extent (au):  <R**2>=             84.2140
 Charge=             -0.0000 electrons
 Dipole moment (field-independent basis, Debye):
    X=             -2.0474    Y=             -1.5064    Z=             -0.0002  Tot=              2.5418
 Quadrupole moment (field-independent basis, Debye-Ang):
   XX=            -11.8755   YY=            -11.8380   ZZ=            -14.7934
   XY=             -2.3079   XZ=             -0.0001   YZ=              0.0001
 Traceless Quadrupole moment (field-independent basis, Debye-Ang):
   XX=              0.9602   YY=              0.9976   ZZ=             -1.9578
   XY=             -2.3079   XZ=             -0.0001   YZ=              0.0001
 Octapole moment (field-independent basis, Debye-Ang**2):
  XXX=             -0.8276  YYY=              0.2134  ZZZ=              0.0004  XYY=             -0.2900
  XXY=             -2.2592  XXZ=             -0.0004  XZZ=              0.7451  YZZ=              0.3164
  YYZ=             -0.0002  XYZ=              0.0004
 Hexadecapole moment (field-independent basis, Debye-Ang**3):
 XXXX=            -72.9071 YYYY=            -21.9836 ZZZZ=            -17.5742 XXXY=             -2.2203
 XXXZ=             -0.0002 YYYX=             -0.9382 YYYZ=              0.0001 ZZZX=             -0.0001
 ZZZY=              0.0001 XXYY=            -12.9125 XXZZ=            -16.1739 YYZZ=             -7.2342
 XXYZ=              0.0000 YYXZ=             -0.0000 ZZXY=              0.2172
 N-N= 2.897600897651D+01 E-N=-2.777414790073D+02  KE= 9.363052851793D+01
                          Isotropic Fermi Contact Couplings
        Atom                 a.u.       MegaHertz       Gauss      10(-4) cm-1
     1  C(13)             -0.00000      -0.00000      -0.00000      -0.00000
     2  N(14)              0.00000       0.00000       0.00000       0.00000
     3  H(1)               0.00000       0.00000       0.00000       0.00000
     4  H(1)               0.00000       0.00000       0.00000       0.00000
     5  H(1)              -0.00000      -0.00000      -0.00000      -0.00000
 --------------------------------------------------------
       Center         ----  Spin Dipole Couplings  ----
                      3XX-RR        3YY-RR        3ZZ-RR
 --------------------------------------------------------
     1   Atom        0.000000      0.000000      0.000000
     2   Atom        0.000000      0.000000      0.000000
     3   Atom        0.000000      0.000000      0.000000
     4   Atom        0.000000      0.000000      0.000000
     5   Atom        0.000000      0.000000      0.000000
 --------------------------------------------------------
                        XY            XZ            YZ
 --------------------------------------------------------
     1   Atom        0.000000      0.000000      0.000000
     2   Atom        0.000000      0.000000      0.000000
     3   Atom        0.000000      0.000000      0.000000
     4   Atom        0.000000      0.000000      0.000000
     5   Atom        0.000000      0.000000      0.000000
 --------------------------------------------------------


 ---------------------------------------------------------------------------------
              Anisotropic Spin Dipole Couplings in Principal Axis System
 ---------------------------------------------------------------------------------

       Atom             a.u.   MegaHertz   Gauss  10(-4) cm-1        Axes

              Baa     0.0000     0.000     0.000     0.000  1.0000  0.0000  0.0000
     1 C(13)  Bbb     0.0000     0.000     0.000     0.000 -0.0000  1.0000  0.0000
              Bcc     0.0000     0.000     0.000     0.000  0.0000  0.0000  1.0000
 
              Baa     0.0000     0.000     0.000     0.000  1.0000  0.0000  0.0000
     2 N(14)  Bbb     0.0000     0.000     0.000     0.000 -0.0000  1.0000  0.0000
              Bcc     0.0000     0.000     0.000     0.000  0.0000  0.0000  1.0000
 
              Baa     0.0000     0.000     0.000     0.000  1.0000  0.0000  0.0000
     3 H(1)   Bbb     0.0000     0.000     0.000     0.000 -0.0000  1.0000  0.0000
              Bcc     0.0000     0.000     0.000     0.000  0.0000  0.0000  1.0000
 
              Baa     0.0000     0.000     0.000     0.000  1.0000  0.0000  0.0000
     4 H(1)   Bbb     0.0000     0.000     0.000     0.000 -0.0000  1.0000  0.0000
              Bcc     0.0000     0.000     0.000     0.000  0.0000  0.0000  1.0000
 
              Baa     0.0000     0.000     0.000     0.000  1.0000  0.0000  0.0000
     5 H(1)   Bbb     0.0000     0.000     0.000     0.000 -0.0000  1.0000  0.0000
              Bcc     0.0000     0.000     0.000     0.000  0.0000  0.0000  1.0000
 

 ---------------------------------------------------------------------------------

 No NMR shielding tensors so no spin-rotation constants.
 Leave Link  601 at Mon Apr 21 18:19:09 2025, MaxMem=  4294967296 cpu:               2.8 elap:               0.2
 (Enter /home/szhao/Apps/g16/l701.exe)
 ... and contract with generalized density number  0.
 Compute integral first derivatives.
 Leave Link  701 at Mon Apr 21 18:19:10 2025, MaxMem=  4294967296 cpu:               5.5 elap:               0.5
 (Enter /home/szhao/Apps/g16/l702.exe)
 L702 exits ... SP integral derivatives will be done elsewhere.
 Leave Link  702 at Mon Apr 21 18:19:10 2025, MaxMem=  4294967296 cpu:               1.5 elap:               0.2
 (Enter /home/szhao/Apps/g16/l703.exe)
 Integral derivatives from FoFJK, PRISM(SPDF).
 Compute integral first derivatives, UseDBF=F ICtDFT=           0.
 Calling FoFJK, ICntrl=      2127 FMM=F ISym2X=0 I1Cent= 0 IOpClX= 1 NMat=1 NMatS=1 NMatT=0.
 FoFJK:  IHMeth= 1 ICntrl=    2127 DoSepK=F KAlg= 0 I1Cent=           0 FoldK=F
 IRaf=         0 NMat=       1 IRICut=       1 DoRegI=T DoRafI=F ISym2E= 0 IDoP0=0 IntGTp=1.
 FoFCou: FMM=F IPFlag=           0 FMFlag=      100000 FMFlg1=         800
         NFxFlg=           0 DoJE=F BraDBF=F KetDBF=F FulRan=T
         wScrn=  0.000000 ICntrl=      2127 IOpCl=  1 I1Cent=           0 NGrid=           0
         NMat0=    1 NMatS0=      1 NMatT0=    0 NMatD0=    1 NMtDS0=    0 NMtDT0=    0
 Symmetry not used in FoFCou.
 Leave Link  703 at Mon Apr 21 18:19:11 2025, MaxMem=  4294967296 cpu:              11.5 elap:               0.9
 (Enter /home/szhao/Apps/g16/l716.exe)
 Dipole        =-8.05489669D-01-5.92644138D-01-9.30808089D-05
 -------------------------------------------------------------------
 Center     Atomic                   Forces (Hartrees/Bohr)
 Number     Number              X              Y              Z
 -------------------------------------------------------------------
      1        6          -0.000000000   -0.000000000   -0.000000000
      2        7          -0.000000000   -0.000000000   -0.000000000
      3        1           0.009919652   -0.000254943   -0.000000733
      4        1          -0.012897004   -0.007525256    0.000008011
      5        1           0.012442446    0.000040805    0.000008293
 -------------------------------------------------------------------
 Cartesian Forces:  Max     0.012897004 RMS     0.005634672
 Leave Link  716 at Mon Apr 21 18:19:12 2025, MaxMem=  4294967296 cpu:               1.3 elap:               0.1
 (Enter /home/szhao/Apps/g16/l103.exe)

 GradGradGradGradGradGradGradGradGradGradGradGradGradGradGradGradGradGrad
 Berny optimization.
 FormGI is forming the generalized inverse of G from B-inverse, IUseBI=4.
 Internal  Forces:  Max     0.028432002 RMS     0.012401449
 Search for a local minimum.
 Step number   1 out of a maximum of   25
 All quantities printed in internal units (Hartrees-Bohrs-Radians)
 RMS Force = .11333D-01 SwitMx=.10000D-02 MixMth= 1
 Mixed Optimization -- RFO/linear search
 Second derivative matrix not updated -- first step.
 The second derivative matrix:
                          X1        Y1        Z1        X2        Y2
           X1           0.50000
           Y1           0.00000   0.50000
           Z1           0.00000   0.00000   0.50000
           X2           0.00000   0.00000   0.00000   0.50000
           Y2           0.00000   0.00000   0.00000   0.00000   0.50000
           Z2           0.00000   0.00000   0.00000   0.00000   0.00000
           R1           0.00000   0.00000   0.00000   0.00000   0.00000
           R2           0.00000   0.00000   0.00000   0.00000   0.00000
           R3           0.00000   0.00000   0.00000   0.00000   0.00000
           A1           0.00000   0.00000   0.00000   0.00000   0.00000
           A2           0.00000   0.00000   0.00000   0.00000   0.00000
           A3           0.00000   0.00000   0.00000   0.00000   0.00000
           A4           0.00000   0.00000   0.00000   0.00000   0.00000
           D1           0.00000   0.00000   0.00000   0.00000   0.00000
           D2           0.00000   0.00000   0.00000   0.00000   0.00000
                          Z2        R1        R2        R3        A1
           Z2           0.50000
           R1           0.00000   0.34312
           R2           0.00000   0.00000   0.34780
           R3           0.00000   0.00000   0.00000   0.44052
           A1           0.00000   0.00000   0.00000   0.00000   0.16000
           A2           0.00000   0.00000   0.00000   0.00000   0.00000
           A3           0.00000   0.00000   0.00000   0.00000   0.00000
           A4           0.00000   0.00000   0.00000   0.00000   0.00000
           D1           0.00000   0.00000   0.00000   0.00000   0.00000
           D2           0.00000   0.00000   0.00000   0.00000   0.00000
                          A2        A3        A4        D1        D2
           A2           0.16000
           A3           0.00000   0.16000
           A4           0.00000   0.00000   0.16000
           D1           0.00000   0.00000   0.00000   0.00230
           D2           0.00000   0.00000   0.00000   0.00000   0.00230
 ITU=  0
     Eigenvalues ---    0.00230   0.00230   0.16000   0.16000   0.16000
     Eigenvalues ---    0.34312   0.34780   0.440521000.000001000.00000
     Eigenvalues --- 1000.000001000.000001000.000001000.000001000.00000
 RFO step:  Lambda=-6.70558787D-03 EMin= 2.30000000D-03
 Linear search not attempted -- first point.
 Iteration  1 RMS(Cart)=  0.08976610 RMS(Int)=  0.00710552
 Iteration  2 RMS(Cart)=  0.00737866 RMS(Int)=  0.00001715
 Iteration  3 RMS(Cart)=  0.00003202 RMS(Int)=  0.00000010
 Iteration  4 RMS(Cart)=  0.00000000 RMS(Int)=  0.00000010
 ITry= 1 IFail=0 DXMaxC= 3.15D-01 DCOld= 1.00D+10 DXMaxT= 3.00D-01 DXLimC= 3.00D+00 Rises=F
 Variable       Old X    -DE/DX   Delta X   Delta X   Delta X     New X
                                 (Linear)    (Quad)   (Total)
    X1       -1.47708   0.02236   0.00000   0.00000   0.00000  -1.47708
    Y1        0.00000   0.01121   0.00000   0.00000   0.00000   0.00000
    Z1        0.00000   0.00001   0.00000   0.00000   0.00000   0.00000
    X2        1.47708  -0.01290   0.00000   0.00000   0.00000   1.47708
    Y2        0.00000  -0.01895   0.00000   0.00000   0.00000   0.00000
    Z2        0.00000   0.00001   0.00000   0.00000   0.00000   0.00000
    R1        2.06806  -0.00543   0.00000  -0.01551  -0.01551   2.05256
    R2        2.06034  -0.00597   0.00000  -0.01685  -0.01685   2.04349
    R3        1.93093   0.00248   0.00000   0.00555   0.00555   1.93647
    A1        2.17493  -0.00396   0.00000  -0.02375  -0.02375   2.15118
    A2        2.07479  -0.00926   0.00000  -0.05558  -0.05558   2.01922
    A3        2.03346   0.01322   0.00000   0.07932   0.07932   2.11278
    A4        1.93213  -0.02843   0.00000  -0.17055  -0.17055   1.76158
    D1        0.00013  -0.00000   0.00000  -0.00028  -0.00028  -0.00014
    D2       -3.14135  -0.00001   0.00000  -0.00153  -0.00153   3.14031
         Item               Value     Threshold  Converged?
 Maximum Force            0.028432     0.000450     NO 
 RMS     Force            0.011333     0.000300     NO 
 Maximum Displacement     0.315419     0.001800     NO 
 RMS     Displacement     0.091089     0.001200     NO 
 Predicted change in Energy=-3.485533D-03
 Lowest energy point so far.  Saving SCF results.
 GradGradGradGradGradGradGradGradGradGradGradGradGradGradGradGradGradGrad

 Leave Link  103 at Mon Apr 21 18:19:12 2025, MaxMem=  4294967296 cpu:               1.3 elap:               0.1
 (Enter /home/szhao/Apps/g16/l202.exe)
                          Input orientation:                          
 ---------------------------------------------------------------------
 Center     Atomic      Atomic             Coordinates (Angstroms)
 Number     Number       Type             X           Y           Z
 ---------------------------------------------------------------------
      1          6           0       -0.781637    0.000000    0.000000
      2          7           0        0.781637    0.000000    0.000000
      3          1           0       -1.377234   -0.908307    0.000149
      4          1           0        0.975957   -1.006143    0.000310
      5          1           0       -1.250458    0.974457    0.000949
 ---------------------------------------------------------------------
                    Distance matrix (angstroms):
                    1          2          3          4          5
     1  C    0.000000
     2  N    1.563274   0.000000
     3  H    1.086166   2.342167   0.000000
     4  H    2.025207   1.024736   2.355224   0.000000
     5  H    1.081370   2.253659   1.887028   2.979883   0.000000
 Symmetry turned off by external request.
 Stoichiometry    CH3N
 Framework group  C1[X(CH3N)]
 Deg. of freedom     9
 Full point group                 C1      NOp   1
 Rotational constants (GHZ):         185.4300022          24.7902347          21.8668463
 Leave Link  202 at Mon Apr 21 18:19:12 2025, MaxMem=  4294967296 cpu:               1.3 elap:               0.2
 (Enter /home/szhao/Apps/g16/l301.exe)
 Standard basis: 6-311+G(d,p) (5D, 7F)
 Ernie: Thresh=  0.10000D-02 Tol=  0.10000D-05 Strict=F.
    62 basis functions,    96 primitive gaussians,    64 cartesian basis functions
     8 alpha electrons        8 beta electrons
       nuclear repulsion energy        29.1670622092 Hartrees.
 IExCor= 4336 DFT=T Ex+Corr=M062X ExCW=0 ScaHFX=  0.540000
 ScaDFX=  1.000000  1.000000  1.000000  1.000000 ScalE2=  1.000000  1.000000
 IRadAn=      7 IRanWt=     -1 IRanGd=            0 ICorTp=0 IEmpDi=  4
 NAtoms=    5 NActive=    5 NUniq=    5 SFac= 1.00D+00 NAtFMM=   60 NAOKFM=F Big=F
 Integral buffers will be    131072 words long.
 Raffenetti 2 integral format.
 Two-electron integral symmetry is turned off.
 Leave Link  301 at Mon Apr 21 18:19:13 2025, MaxMem=  4294967296 cpu:               2.2 elap:               0.2
 (Enter /home/szhao/Apps/g16/l302.exe)
 NPDir=0 NMtPBC=     1 NCelOv=     1 NCel=       1 NClECP=     1 NCelD=      1
         NCelK=      1 NCelE2=     1 NClLst=     1 CellRange=     0.0.
 One-electron integrals computed using PRISM.
 NBasis=    62 RedAO= T EigKep=  3.07D-03  NBF=    62
 NBsUse=    62 1.00D-06 EigRej= -1.00D+00 NBFU=    62
 Precomputing XC quadrature grid using
 IXCGrd= 4 IRadAn=           7 IRanWt=          -1 IRanGd=           0 AccXCQ= 0.00D+00.
 Generated NRdTot=       0 NPtTot=           0 NUsed=           0 NTot=          32
 NSgBfM=    64    64    64    64    64 MxSgAt=     5 MxSgA2=     5.
 Leave Link  302 at Mon Apr 21 18:19:13 2025, MaxMem=  4294967296 cpu:               3.8 elap:               0.3
 (Enter /home/szhao/Apps/g16/l303.exe)
 DipDrv:  MaxL=1.
 Leave Link  303 at Mon Apr 21 18:19:13 2025, MaxMem=  4294967296 cpu:               2.1 elap:               0.2
 (Enter /home/szhao/Apps/g16/l401.exe)
 Initial guess from the checkpoint file:  "opt.chk"
 B after Tr=    -0.008010   -0.006122    0.000207
         Rot=    0.999963   -0.000092   -0.000033    0.008561 Ang=  -0.98 deg.
 Guess basis will be translated and rotated to current coordinates.
 JPrj=2 DoOrth=T DoCkMO=T.
 Initial guess <Sx>= 0.0000 <Sy>= 0.0000 <Sz>= 0.0000 <S**2>=-0.0000 S=-0.0000
 Generating alternative initial guess.
 ExpMin= 4.38D-02 ExpMax= 6.29D+03 ExpMxC= 9.49D+02 IAcc=3 IRadAn=         5 AccDes= 0.00D+00
 Harris functional with IExCor= 1009 and IRadAn=       5 diagonalized for initial guess.
 HarFok:  IExCor= 1009 AccDes= 0.00D+00 IRadAn=         5 IDoV= 1 UseB2=F ITyADJ=14
 ICtDFT=  3500011 ScaDFX=  1.000000  1.000000  1.000000  1.000000
 FoFCou: FMM=F IPFlag=           0 FMFlag=      100000 FMFlg1=           0
         NFxFlg=           0 DoJE=T BraDBF=F KetDBF=T FulRan=T
         wScrn=  0.000000 ICntrl=       500 IOpCl=  0 I1Cent=   200000004 NGrid=           0
         NMat0=    1 NMatS0=      1 NMatT0=    0 NMatD0=    1 NMtDS0=    0 NMtDT0=    0
 Symmetry not used in FoFCou.
 Harris En= -94.4954051089879    
 Leave Link  401 at Mon Apr 21 18:19:14 2025, MaxMem=  4294967296 cpu:               9.3 elap:               0.9
 (Enter /home/szhao/Apps/g16/l502.exe)
 Keep R1 and R2 ints in memory in canonical form, NReq=18097897.
 FoFCou: FMM=F IPFlag=           0 FMFlag=           0 FMFlg1=           0
         NFxFlg=           0 DoJE=F BraDBF=F KetDBF=F FulRan=T
         wScrn=  0.000000 ICntrl=       600 IOpCl=  0 I1Cent=           0 NGrid=           0
         NMat0=    1 NMatS0=   1953 NMatT0=    0 NMatD0=    1 NMtDS0=    0 NMtDT0=    0
 Symmetry not used in FoFCou.
 Two-electron integral symmetry not used.
 UHF open shell SCF:
 Using DIIS extrapolation, IDIIS=  1040.
 NGot=  4294967296 LenX=  4291141281 LenY=  4291136744
 Requested convergence on RMS density matrix=1.00D-08 within 128 cycles.
 Requested convergence on MAX density matrix=1.00D-06.
 Requested convergence on             energy=1.00D-06.
 No special actions if energy rises.

 Cycle   1  Pass 1  IDiag  1:
 E= -94.5393211012804    
 DIIS: error= 4.40D-03 at cycle   1 NSaved=   1.
 NSaved= 1 IEnMin= 1 EnMin= -94.5393211012804     IErMin= 1 ErrMin= 4.40D-03
 ErrMax= 4.40D-03  0.00D+00 EMaxC= 1.00D-01 BMatC= 6.28D-03 BMatP= 6.28D-03
 IDIUse=3 WtCom= 9.56D-01 WtEn= 4.40D-02
 Coeff-Com:  0.100D+01
 Coeff-En:   0.100D+01
 Coeff:      0.100D+01
 Gap=     0.570 Goal=   None    Shift=    0.000
 Gap=     0.570 Goal=   None    Shift=    0.000
 GapD=    0.570 DampG=2.000 DampE=1.000 DampFc=2.0000 IDamp=-1.
 RMSDP=8.53D-04 MaxDP=1.19D-02              OVMax= 1.86D-02

 Cycle   2  Pass 1  IDiag  1:
 E= -94.5413205528433     Delta-E=       -0.001999451563 Rises=F Damp=F
 DIIS: error= 7.97D-04 at cycle   2 NSaved=   2.
 NSaved= 2 IEnMin= 2 EnMin= -94.5413205528433     IErMin= 2 ErrMin= 7.97D-04
 ErrMax= 7.97D-04  0.00D+00 EMaxC= 1.00D-01 BMatC= 1.60D-04 BMatP= 6.28D-03
 IDIUse=3 WtCom= 9.92D-01 WtEn= 7.97D-03
 Coeff-Com: -0.111D+00 0.111D+01
 Coeff-En:   0.000D+00 0.100D+01
 Coeff:     -0.110D+00 0.111D+01
 Gap=     0.299 Goal=   None    Shift=    0.000
 Gap=     0.299 Goal=   None    Shift=    0.000
 RMSDP=1.97D-04 MaxDP=2.39D-03 DE=-2.00D-03 OVMax= 4.66D-03

 Cycle   3  Pass 1  IDiag  1:
 E= -94.5413770321287     Delta-E=       -0.000056479285 Rises=F Damp=F
 DIIS: error= 8.32D-04 at cycle   3 NSaved=   3.
 NSaved= 3 IEnMin= 3 EnMin= -94.5413770321287     IErMin= 2 ErrMin= 7.97D-04
 ErrMax= 8.32D-04  0.00D+00 EMaxC= 1.00D-01 BMatC= 7.73D-05 BMatP= 1.60D-04
 IDIUse=3 WtCom= 9.92D-01 WtEn= 8.32D-03
 Coeff-Com: -0.646D-01 0.517D+00 0.548D+00
 Coeff-En:   0.000D+00 0.000D+00 0.100D+01
 Coeff:     -0.641D-01 0.513D+00 0.551D+00
 Gap=     0.299 Goal=   None    Shift=    0.000
 Gap=     0.299 Goal=   None    Shift=    0.000
 RMSDP=6.74D-05 MaxDP=1.06D-03 DE=-5.65D-05 OVMax= 3.47D-03

 Cycle   4  Pass 1  IDiag  1:
 E= -94.5413890092953     Delta-E=       -0.000011977167 Rises=F Damp=F
 DIIS: error= 6.03D-04 at cycle   4 NSaved=   4.
 NSaved= 4 IEnMin= 4 EnMin= -94.5413890092953     IErMin= 4 ErrMin= 6.03D-04
 ErrMax= 6.03D-04  0.00D+00 EMaxC= 1.00D-01 BMatC= 3.41D-05 BMatP= 7.73D-05
 IDIUse=3 WtCom= 9.94D-01 WtEn= 6.03D-03
 Coeff-Com: -0.221D-01 0.128D+00 0.392D+00 0.502D+00
 Coeff-En:   0.000D+00 0.000D+00 0.303D+00 0.697D+00
 Coeff:     -0.219D-01 0.127D+00 0.392D+00 0.503D+00
 Gap=     0.299 Goal=   None    Shift=    0.000
 Gap=     0.299 Goal=   None    Shift=    0.000
 RMSDP=2.94D-05 MaxDP=4.78D-04 DE=-1.20D-05 OVMax= 1.48D-03

 Cycle   5  Pass 1  IDiag  1:
 E= -94.5413967604910     Delta-E=       -0.000007751196 Rises=F Damp=F
 DIIS: error= 8.84D-05 at cycle   5 NSaved=   5.
 NSaved= 5 IEnMin= 5 EnMin= -94.5413967604910     IErMin= 5 ErrMin= 8.84D-05
 ErrMax= 8.84D-05  0.00D+00 EMaxC= 1.00D-01 BMatC= 1.31D-06 BMatP= 3.41D-05
 IDIUse=1 WtCom= 1.00D+00 WtEn= 0.00D+00
 Coeff-Com:  0.276D-02-0.459D-01 0.695D-01 0.204D+00 0.769D+00
 Coeff:      0.276D-02-0.459D-01 0.695D-01 0.204D+00 0.769D+00
 Gap=     0.299 Goal=   None    Shift=    0.000
 Gap=     0.299 Goal=   None    Shift=    0.000
 RMSDP=1.16D-05 MaxDP=1.41D-04 DE=-7.75D-06 OVMax= 2.51D-04

 Cycle   6  Pass 1  IDiag  1:
 E= -94.5413971258129     Delta-E=       -0.000000365322 Rises=F Damp=F
 DIIS: error= 1.23D-05 at cycle   6 NSaved=   6.
 NSaved= 6 IEnMin= 6 EnMin= -94.5413971258129     IErMin= 6 ErrMin= 1.23D-05
 ErrMax= 1.23D-05  0.00D+00 EMaxC= 1.00D-01 BMatC= 2.18D-08 BMatP= 1.31D-06
 IDIUse=1 WtCom= 1.00D+00 WtEn= 0.00D+00
 Coeff-Com:  0.144D-02-0.140D-01-0.660D-02 0.895D-02 0.126D+00 0.884D+00
 Coeff:      0.144D-02-0.140D-01-0.660D-02 0.895D-02 0.126D+00 0.884D+00
 Gap=     0.299 Goal=   None    Shift=    0.000
 Gap=     0.299 Goal=   None    Shift=    0.000
 RMSDP=2.05D-06 MaxDP=1.92D-05 DE=-3.65D-07 OVMax= 4.59D-05

 Cycle   7  Pass 1  IDiag  1:
 E= -94.5413971336584     Delta-E=       -0.000000007845 Rises=F Damp=F
 DIIS: error= 3.07D-06 at cycle   7 NSaved=   7.
 NSaved= 7 IEnMin= 7 EnMin= -94.5413971336584     IErMin= 7 ErrMin= 3.07D-06
 ErrMax= 3.07D-06  0.00D+00 EMaxC= 1.00D-01 BMatC= 1.87D-09 BMatP= 2.18D-08
 IDIUse=1 WtCom= 1.00D+00 WtEn= 0.00D+00
 Coeff-Com: -0.233D-03 0.311D-02-0.157D-02-0.146D-01-0.383D-01-0.427D-01
 Coeff-Com:  0.109D+01
 Coeff:     -0.233D-03 0.311D-02-0.157D-02-0.146D-01-0.383D-01-0.427D-01
 Coeff:      0.109D+01
 Gap=     0.299 Goal=   None    Shift=    0.000
 Gap=     0.299 Goal=   None    Shift=    0.000
 RMSDP=6.54D-07 MaxDP=6.84D-06 DE=-7.85D-09 OVMax= 1.89D-05

 Cycle   8  Pass 1  IDiag  1:
 E= -94.5413971344490     Delta-E=       -0.000000000791 Rises=F Damp=F
 DIIS: error= 9.55D-07 at cycle   8 NSaved=   8.
 NSaved= 8 IEnMin= 8 EnMin= -94.5413971344490     IErMin= 8 ErrMin= 9.55D-07
 ErrMax= 9.55D-07  0.00D+00 EMaxC= 1.00D-01 BMatC= 1.25D-10 BMatP= 1.87D-09
 IDIUse=1 WtCom= 1.00D+00 WtEn= 0.00D+00
 Coeff-Com: -0.505D-04 0.458D-03 0.636D-03-0.940D-03-0.259D-02-0.334D-01
 Coeff-Com: -0.643D-01 0.110D+01
 Coeff:     -0.505D-04 0.458D-03 0.636D-03-0.940D-03-0.259D-02-0.334D-01
 Coeff:     -0.643D-01 0.110D+01
 Gap=     0.299 Goal=   None    Shift=    0.000
 Gap=     0.299 Goal=   None    Shift=    0.000
 RMSDP=1.75D-07 MaxDP=2.04D-06 DE=-7.91D-10 OVMax= 4.12D-06

 Cycle   9  Pass 1  IDiag  1:
 E= -94.5413971345026     Delta-E=       -0.000000000054 Rises=F Damp=F
 DIIS: error= 2.14D-07 at cycle   9 NSaved=   9.
 NSaved= 9 IEnMin= 9 EnMin= -94.5413971345026     IErMin= 9 ErrMin= 2.14D-07
 ErrMax= 2.14D-07  0.00D+00 EMaxC= 1.00D-01 BMatC= 7.68D-12 BMatP= 1.25D-10
 IDIUse=1 WtCom= 1.00D+00 WtEn= 0.00D+00
 Coeff-Com:  0.205D-04-0.257D-03 0.136D-03 0.817D-03 0.308D-02 0.943D-02
 Coeff-Com: -0.808D-01-0.915D-01 0.116D+01
 Coeff:      0.205D-04-0.257D-03 0.136D-03 0.817D-03 0.308D-02 0.943D-02
 Coeff:     -0.808D-01-0.915D-01 0.116D+01
 Gap=     0.299 Goal=   None    Shift=    0.000
 Gap=     0.299 Goal=   None    Shift=    0.000
 RMSDP=4.87D-08 MaxDP=5.20D-07 DE=-5.36D-11 OVMax= 1.12D-06

 Cycle  10  Pass 1  IDiag  1:
 E= -94.5413971345064     Delta-E=       -0.000000000004 Rises=F Damp=F
 DIIS: error= 4.50D-08 at cycle  10 NSaved=  10.
 NSaved=10 IEnMin=10 EnMin= -94.5413971345064     IErMin=10 ErrMin= 4.50D-08
 ErrMax= 4.50D-08  0.00D+00 EMaxC= 1.00D-01 BMatC= 3.41D-13 BMatP= 7.68D-12
 IDIUse=1 WtCom= 1.00D+00 WtEn= 0.00D+00
 Coeff-Com:  0.215D-06 0.304D-05-0.171D-04-0.952D-04-0.135D-03 0.964D-03
 Coeff-Com:  0.633D-02-0.317D-01-0.100D+00 0.112D+01
 Coeff:      0.215D-06 0.304D-05-0.171D-04-0.952D-04-0.135D-03 0.964D-03
 Coeff:      0.633D-02-0.317D-01-0.100D+00 0.112D+01
 Gap=     0.299 Goal=   None    Shift=    0.000
 Gap=     0.299 Goal=   None    Shift=    0.000
 RMSDP=6.23D-09 MaxDP=5.94D-08 DE=-3.72D-12 OVMax= 1.97D-07

 SCF Done:  E(UM062X) =  -94.5413971345     A.U. after   10 cycles
            NFock= 10  Conv=0.62D-08     -V/T= 2.0092
 <Sx>= 0.0000 <Sy>= 0.0000 <Sz>= 0.0000 <S**2>=-0.0000 S=-0.0000
 <L.S>=  0.00000000000    
 KE= 9.367968644706D+01 PE=-2.781566604214D+02 EE= 6.076851463062D+01
 Annihilation of the first spin contaminant:
 S**2 before annihilation    -0.0000,   after    -0.0000
 Leave Link  502 at Mon Apr 21 18:19:20 2025, MaxMem=  4294967296 cpu:              69.7 elap:               5.9
 (Enter /home/szhao/Apps/g16/l701.exe)
 ... and contract with generalized density number  0.
 Compute integral first derivatives.
 Leave Link  701 at Mon Apr 21 18:19:21 2025, MaxMem=  4294967296 cpu:               3.8 elap:               0.3
 (Enter /home/szhao/Apps/g16/l702.exe)
 L702 exits ... SP integral derivatives will be done elsewhere.
 Leave Link  702 at Mon Apr 21 18:19:21 2025, MaxMem=  4294967296 cpu:               1.9 elap:               0.2
 (Enter /home/szhao/Apps/g16/l703.exe)
 Integral derivatives from FoFJK, PRISM(SPDF).
 Compute integral first derivatives, UseDBF=F ICtDFT=           0.
 Calling FoFJK, ICntrl=      2127 FMM=F ISym2X=0 I1Cent= 0 IOpClX= 1 NMat=1 NMatS=1 NMatT=0.
 FoFJK:  IHMeth= 1 ICntrl=    2127 DoSepK=F KAlg= 0 I1Cent=           0 FoldK=F
 IRaf=         0 NMat=       1 IRICut=       1 DoRegI=T DoRafI=F ISym2E= 0 IDoP0=0 IntGTp=1.
 FoFCou: FMM=F IPFlag=           0 FMFlag=      100000 FMFlg1=         800
         NFxFlg=           0 DoJE=F BraDBF=F KetDBF=F FulRan=T
         wScrn=  0.000000 ICntrl=      2127 IOpCl=  1 I1Cent=           0 NGrid=           0
         NMat0=    1 NMatS0=      1 NMatT0=    0 NMatD0=    1 NMtDS0=    0 NMtDT0=    0
 Symmetry not used in FoFCou.
 Leave Link  703 at Mon Apr 21 18:19:22 2025, MaxMem=  4294967296 cpu:              14.7 elap:               1.1
 (Enter /home/szhao/Apps/g16/l716.exe)
 Dipole        =-8.58988544D-01-5.82109241D-01 4.70524441D-04
 -------------------------------------------------------------------
 Center     Atomic                   Forces (Hartrees/Bohr)
 Number     Number              X              Y              Z
 -------------------------------------------------------------------
      1        6          -0.000000000   -0.000000000   -0.000000000
      2        7          -0.000000000   -0.000000000   -0.000000000
      3        1           0.004357399   -0.001154128   -0.000011485
      4        1           0.001633220   -0.001566321   -0.000035938
      5        1           0.001986466    0.000918613   -0.000047551
 -------------------------------------------------------------------
 Cartesian Forces:  Max     0.004357399 RMS     0.001419701
 Leave Link  716 at Mon Apr 21 18:19:23 2025, MaxMem=  4294967296 cpu:               2.4 elap:               0.2
 (Enter /home/szhao/Apps/g16/l103.exe)

 GradGradGradGradGradGradGradGradGradGradGradGradGradGradGradGradGradGrad
 Berny optimization.
 Using GEDIIS/GDIIS optimizer.
 FormGI is forming the generalized inverse of G from B-inverse, IUseBI=4.
 Internal  Forces:  Max     0.006343864 RMS     0.002586680
 Search for a local minimum.
 Step number   2 out of a maximum of   25
 All quantities printed in internal units (Hartrees-Bohrs-Radians)
 RMS Force = .23661D-02 SwitMx=.10000D-02 MixMth= 1
 Mixed Optimization -- RFO/linear search
 Update second derivatives using D2CorX and points    1    2
 DE= -3.47D-03 DEPred=-3.49D-03 R= 9.95D-01
 TightC=F SS=  1.41D+00  RLast= 1.99D-01 DXNew= 5.0454D-01 5.9692D-01
 Trust test= 9.95D-01 RLast= 1.99D-01 DXMaxT set to 5.05D-01
 The second derivative matrix:
                          X1        Y1        Z1        X2        Y2
           X1           0.53860
           Y1           0.03315   0.52847
           Z1           0.00019   0.00016   0.50000
           X2          -0.03501  -0.03007  -0.00017   0.53176
           Y2          -0.04746  -0.04075  -0.00024   0.04305   0.55834
           Z2           0.00007   0.00006   0.00000  -0.00007  -0.00009
           R1          -0.00964  -0.00828  -0.00005   0.00875   0.01185
           R2          -0.01431  -0.01229  -0.00007   0.01298   0.01760
           R3           0.00152   0.00131   0.00001  -0.00138  -0.00187
           A1           0.00097   0.00083   0.00000  -0.00088  -0.00119
           A2          -0.02219  -0.01906  -0.00011   0.02013   0.02729
           A3           0.02122   0.01823   0.00011  -0.01925  -0.02609
           A4          -0.07461  -0.06407  -0.00037   0.06768   0.09173
           D1           0.00003   0.00003   0.00000  -0.00003  -0.00004
           D2          -0.00024  -0.00020  -0.00000   0.00022   0.00029
                          Z2        R1        R2        R3        A1
           Z2           0.50000
           R1          -0.00002   0.34113
           R2          -0.00003  -0.00127   0.34777
           R3           0.00000   0.00164   0.00166   0.43965
           A1           0.00000  -0.00338  -0.00382   0.00148   0.15778
           A2          -0.00004  -0.00180   0.00014   0.00250  -0.00580
           A3           0.00004   0.00519   0.00368  -0.00398   0.00802
           A4          -0.00014  -0.00391   0.00283   0.00741  -0.01798
           D1           0.00000  -0.00001  -0.00001   0.00000   0.00000
           D2          -0.00000   0.00006   0.00008  -0.00001  -0.00001
                          A2        A3        A4        D1        D2
           A2           0.16048
           A3           0.00532   0.14666
           A4           0.00522   0.01276   0.18859
           D1          -0.00002   0.00002  -0.00006   0.00230
           D2           0.00013  -0.00012   0.00044  -0.00000   0.00230
 ITU=  1  0
 Use linear search instead of GDIIS.
     Eigenvalues ---    0.00230   0.00230   0.13320   0.16000   0.19953
     Eigenvalues ---    0.34118   0.34817   0.439991000.000001000.00000
     Eigenvalues --- 1000.000001000.000001000.000001000.000001000.00000
 RFO step:  Lambda=-3.01160161D-04 EMin= 2.30002782D-03
 Quartic linear search produced a step of  0.00812.
 Iteration  1 RMS(Cart)=  0.02116823 RMS(Int)=  0.00031864
 Iteration  2 RMS(Cart)=  0.00031162 RMS(Int)=  0.00010311
 Iteration  3 RMS(Cart)=  0.00000007 RMS(Int)=  0.00010311
 ITry= 1 IFail=0 DXMaxC= 5.23D-02 DCOld= 1.00D+10 DXMaxT= 5.05D-01 DXLimC= 3.00D+00 Rises=F
 Variable       Old X    -DE/DX   Delta X   Delta X   Delta X     New X
                                 (Linear)    (Quad)   (Total)
    X1       -1.47708   0.00634   0.00000   0.00000   0.00000  -1.47708
    Y1        0.00000  -0.00255   0.00000   0.00000   0.00000   0.00000
    Z1        0.00000  -0.00007   0.00000   0.00000   0.00000   0.00000
    X2        1.47708   0.00163   0.00000   0.00000   0.00000   1.47708
    Y2        0.00000   0.00075   0.00000   0.00000   0.00000   0.00000
    Z2        0.00000  -0.00002   0.00000   0.00000   0.00000   0.00000
    R1        2.05256  -0.00142  -0.00013  -0.00475  -0.00487   2.04768
    R2        2.04349  -0.00003  -0.00014  -0.00071  -0.00085   2.04265
    R3        1.93647   0.00185   0.00005   0.00443   0.00447   1.94094
    A1        2.15118  -0.00436  -0.00019  -0.02827  -0.02869   2.12249
    A2        2.01922  -0.00006  -0.00045  -0.00233  -0.00301   2.01621
    A3        2.11278   0.00442   0.00064   0.03063   0.03105   2.14383
    A4        1.76158   0.00253  -0.00138   0.00979   0.00840   1.76998
    D1       -0.00014  -0.00002  -0.00000  -0.00604  -0.00603  -0.00617
    D2        3.14031   0.00008  -0.00001   0.03291   0.03289  -3.10998
         Item               Value     Threshold  Converged?
 Maximum Force            0.004417     0.000450     NO 
 RMS     Force            0.002366     0.000300     NO 
 Maximum Displacement     0.052255     0.001800     NO 
 RMS     Displacement     0.021268     0.001200     NO 
 Predicted change in Energy=-1.514518D-04
 Lowest energy point so far.  Saving SCF results.
 GradGradGradGradGradGradGradGradGradGradGradGradGradGradGradGradGradGrad

 Leave Link  103 at Mon Apr 21 18:19:24 2025, MaxMem=  4294967296 cpu:               6.1 elap:               0.6
 (Enter /home/szhao/Apps/g16/l202.exe)
                          Input orientation:                          
 ---------------------------------------------------------------------
 Center     Atomic      Atomic             Coordinates (Angstroms)
 Number     Number       Type             X           Y           Z
 ---------------------------------------------------------------------
      1          6           0       -0.781637    0.000000    0.000000
      2          7           0        0.781637    0.000000    0.000000
      3          1           0       -1.349582   -0.922750   -0.011568
      4          1           0        0.984874   -1.006774   -0.006405
      5          1           0       -1.247329    0.975149   -0.024629
 ---------------------------------------------------------------------
                    Distance matrix (angstroms):
                    1          2          3          4          5
     1  C    0.000000
     2  N    1.563274   0.000000
     3  H    1.083588   2.322433   0.000000
     4  H    2.033272   1.027103   2.335973   0.000000
     5  H    1.080921   2.251272   1.900696   2.985143   0.000000
 Symmetry turned off by external request.
 Stoichiometry    CH3N
 Framework group  C1[X(CH3N)]
 Deg. of freedom     9
 Full point group                 C1      NOp   1
 Rotational constants (GHZ):         183.5846461          24.8679824          21.9024759
 Leave Link  202 at Mon Apr 21 18:19:24 2025, MaxMem=  4294967296 cpu:               0.3 elap:               0.1
 (Enter /home/szhao/Apps/g16/l301.exe)
 Standard basis: 6-311+G(d,p) (5D, 7F)
 Ernie: Thresh=  0.10000D-02 Tol=  0.10000D-05 Strict=F.
    62 basis functions,    96 primitive gaussians,    64 cartesian basis functions
     8 alpha electrons        8 beta electrons
       nuclear repulsion energy        29.1753905985 Hartrees.
 IExCor= 4336 DFT=T Ex+Corr=M062X ExCW=0 ScaHFX=  0.540000
 ScaDFX=  1.000000  1.000000  1.000000  1.000000 ScalE2=  1.000000  1.000000
 IRadAn=      7 IRanWt=     -1 IRanGd=            0 ICorTp=0 IEmpDi=  4
 NAtoms=    5 NActive=    5 NUniq=    5 SFac= 1.00D+00 NAtFMM=   60 NAOKFM=F Big=F
 Integral buffers will be    131072 words long.
 Raffenetti 2 integral format.
 Two-electron integral symmetry is turned off.
 Leave Link  301 at Mon Apr 21 18:19:24 2025, MaxMem=  4294967296 cpu:               1.8 elap:               0.2
 (Enter /home/szhao/Apps/g16/l302.exe)
 NPDir=0 NMtPBC=     1 NCelOv=     1 NCel=       1 NClECP=     1 NCelD=      1
         NCelK=      1 NCelE2=     1 NClLst=     1 CellRange=     0.0.
 One-electron integrals computed using PRISM.
 NBasis=    62 RedAO= T EigKep=  3.08D-03  NBF=    62
 NBsUse=    62 1.00D-06 EigRej= -1.00D+00 NBFU=    62
 Precomputing XC quadrature grid using
 IXCGrd= 4 IRadAn=           7 IRanWt=          -1 IRanGd=           0 AccXCQ= 0.00D+00.
 Generated NRdTot=       0 NPtTot=           0 NUsed=           0 NTot=          32
 NSgBfM=    64    64    64    64    64 MxSgAt=     5 MxSgA2=     5.
 Leave Link  302 at Mon Apr 21 18:19:25 2025, MaxMem=  4294967296 cpu:               9.3 elap:               0.6
 (Enter /home/szhao/Apps/g16/l303.exe)
 DipDrv:  MaxL=1.
 Leave Link  303 at Mon Apr 21 18:19:25 2025, MaxMem=  4294967296 cpu:               1.6 elap:               0.2
 (Enter /home/szhao/Apps/g16/l401.exe)
 Initial guess from the checkpoint file:  "opt.chk"
 B after Tr=     0.004346   -0.001383   -0.005178
         Rot=    0.999997    0.001285    0.001490   -0.001541 Ang=   0.29 deg.
 Guess basis will be translated and rotated to current coordinates.
 JPrj=2 DoOrth=T DoCkMO=T.
 Initial guess <Sx>= 0.0000 <Sy>= 0.0000 <Sz>= 0.0000 <S**2>=-0.0000 S=-0.0000
 Generating alternative initial guess.
 ExpMin= 4.38D-02 ExpMax= 6.29D+03 ExpMxC= 9.49D+02 IAcc=3 IRadAn=         5 AccDes= 0.00D+00
 Harris functional with IExCor= 1009 and IRadAn=       5 diagonalized for initial guess.
 HarFok:  IExCor= 1009 AccDes= 0.00D+00 IRadAn=         5 IDoV= 1 UseB2=F ITyADJ=14
 ICtDFT=  3500011 ScaDFX=  1.000000  1.000000  1.000000  1.000000
 FoFCou: FMM=F IPFlag=           0 FMFlag=      100000 FMFlg1=           0
         NFxFlg=           0 DoJE=T BraDBF=F KetDBF=T FulRan=T
         wScrn=  0.000000 ICntrl=       500 IOpCl=  0 I1Cent=   200000004 NGrid=           0
         NMat0=    1 NMatS0=      1 NMatT0=    0 NMatD0=    1 NMtDS0=    0 NMtDT0=    0
 Symmetry not used in FoFCou.
 Harris En= -94.4956310320453    
 Leave Link  401 at Mon Apr 21 18:19:27 2025, MaxMem=  4294967296 cpu:              12.1 elap:               1.1
 (Enter /home/szhao/Apps/g16/l502.exe)
 Keep R1 and R2 ints in memory in canonical form, NReq=18097897.
 FoFCou: FMM=F IPFlag=           0 FMFlag=           0 FMFlg1=           0
         NFxFlg=           0 DoJE=F BraDBF=F KetDBF=F FulRan=T
         wScrn=  0.000000 ICntrl=       600 IOpCl=  0 I1Cent=           0 NGrid=           0
         NMat0=    1 NMatS0=   1953 NMatT0=    0 NMatD0=    1 NMtDS0=    0 NMtDT0=    0
 Symmetry not used in FoFCou.
 Two-electron integral symmetry not used.
 UHF open shell SCF:
 Using DIIS extrapolation, IDIIS=  1040.
 NGot=  4294967296 LenX=  4291141281 LenY=  4291136744
 Requested convergence on RMS density matrix=1.00D-08 within 128 cycles.
 Requested convergence on MAX density matrix=1.00D-06.
 Requested convergence on             energy=1.00D-06.
 No special actions if energy rises.

 Cycle   1  Pass 1  IDiag  1:
 E= -94.5414681238671    
 DIIS: error= 8.69D-04 at cycle   1 NSaved=   1.
 NSaved= 1 IEnMin= 1 EnMin= -94.5414681238671     IErMin= 1 ErrMin= 8.69D-04
 ErrMax= 8.69D-04  0.00D+00 EMaxC= 1.00D-01 BMatC= 2.32D-04 BMatP= 2.32D-04
 IDIUse=3 WtCom= 9.91D-01 WtEn= 8.69D-03
 Coeff-Com:  0.100D+01
 Coeff-En:   0.100D+01
 Coeff:      0.100D+01
 Gap=     0.571 Goal=   None    Shift=    0.000
 Gap=     0.571 Goal=   None    Shift=    0.000
 RMSDP=1.20D-04 MaxDP=8.64D-04              OVMax= 3.68D-03

 Cycle   2  Pass 1  IDiag  1:
 E= -94.5415416891573     Delta-E=       -0.000073565290 Rises=F Damp=F
 DIIS: error= 5.05D-04 at cycle   2 NSaved=   2.
 NSaved= 2 IEnMin= 2 EnMin= -94.5415416891573     IErMin= 2 ErrMin= 5.05D-04
 ErrMax= 5.05D-04  0.00D+00 EMaxC= 1.00D-01 BMatC= 3.45D-05 BMatP= 2.32D-04
 IDIUse=3 WtCom= 9.95D-01 WtEn= 5.05D-03
 Coeff-Com:  0.984D-01 0.902D+00
 Coeff-En:   0.000D+00 0.100D+01
 Coeff:      0.979D-01 0.902D+00
 Gap=     0.300 Goal=   None    Shift=    0.000
 Gap=     0.300 Goal=   None    Shift=    0.000
 RMSDP=7.57D-05 MaxDP=9.15D-04 DE=-7.36D-05 OVMax= 3.44D-03

 Cycle   3  Pass 1  IDiag  1:
 E= -94.5415291436302     Delta-E=        0.000012545527 Rises=F Damp=F
 DIIS: error= 1.07D-03 at cycle   3 NSaved=   3.
 NSaved= 3 IEnMin= 2 EnMin= -94.5415416891573     IErMin= 2 ErrMin= 5.05D-04
 ErrMax= 1.07D-03  0.00D+00 EMaxC= 1.00D-01 BMatC= 9.56D-05 BMatP= 3.45D-05
 IDIUse=3 WtCom= 2.35D-01 WtEn= 7.65D-01
 Coeff-Com: -0.764D-01 0.673D+00 0.404D+00
 Coeff-En:   0.000D+00 0.678D+00 0.322D+00
 Coeff:     -0.179D-01 0.677D+00 0.341D+00
 Gap=     0.299 Goal=   None    Shift=    0.000
 Gap=     0.299 Goal=   None    Shift=    0.000
 RMSDP=4.13D-05 MaxDP=5.28D-04 DE= 1.25D-05 OVMax= 2.35D-03

 Cycle   4  Pass 1  IDiag  1:
 E= -94.5415516028952     Delta-E=       -0.000022459265 Rises=F Damp=F
 DIIS: error= 6.39D-05 at cycle   4 NSaved=   4.
 NSaved= 4 IEnMin= 4 EnMin= -94.5415516028952     IErMin= 4 ErrMin= 6.39D-05
 ErrMax= 6.39D-05  0.00D+00 EMaxC= 1.00D-01 BMatC= 4.25D-07 BMatP= 3.45D-05
 IDIUse=1 WtCom= 1.00D+00 WtEn= 0.00D+00
 Coeff-Com: -0.172D-01 0.389D-02-0.404D-01 0.105D+01
 Coeff:     -0.172D-01 0.389D-02-0.404D-01 0.105D+01
 Gap=     0.299 Goal=   None    Shift=    0.000
 Gap=     0.299 Goal=   None    Shift=    0.000
 RMSDP=7.89D-06 MaxDP=9.58D-05 DE=-2.25D-05 OVMax= 3.09D-04

 Cycle   5  Pass 1  IDiag  1:
 E= -94.5415518499228     Delta-E=       -0.000000247028 Rises=F Damp=F
 DIIS: error= 1.13D-05 at cycle   5 NSaved=   5.
 NSaved= 5 IEnMin= 5 EnMin= -94.5415518499228     IErMin= 5 ErrMin= 1.13D-05
 ErrMax= 1.13D-05  0.00D+00 EMaxC= 1.00D-01 BMatC= 2.84D-08 BMatP= 4.25D-07
 IDIUse=1 WtCom= 1.00D+00 WtEn= 0.00D+00
 Coeff-Com:  0.520D-02-0.512D-01-0.155D-01-0.527D-01 0.111D+01
 Coeff:      0.520D-02-0.512D-01-0.155D-01-0.527D-01 0.111D+01
 Gap=     0.299 Goal=   None    Shift=    0.000
 Gap=     0.299 Goal=   None    Shift=    0.000
 RMSDP=3.37D-06 MaxDP=3.15D-05 DE=-2.47D-07 OVMax= 1.27D-04

 Cycle   6  Pass 1  IDiag  1:
 E= -94.5415518741451     Delta-E=       -0.000000024222 Rises=F Damp=F
 DIIS: error= 4.31D-06 at cycle   6 NSaved=   6.
 NSaved= 6 IEnMin= 6 EnMin= -94.5415518741451     IErMin= 6 ErrMin= 4.31D-06
 ErrMax= 4.31D-06  0.00D+00 EMaxC= 1.00D-01 BMatC= 3.78D-09 BMatP= 2.84D-08
 IDIUse=1 WtCom= 1.00D+00 WtEn= 0.00D+00
 Coeff-Com:  0.941D-03 0.928D-03 0.915D-02-0.957D-01 0.108D+00 0.977D+00
 Coeff:      0.941D-03 0.928D-03 0.915D-02-0.957D-01 0.108D+00 0.977D+00
 Gap=     0.299 Goal=   None    Shift=    0.000
 Gap=     0.299 Goal=   None    Shift=    0.000
 RMSDP=8.54D-07 MaxDP=8.02D-06 DE=-2.42D-08 OVMax= 3.98D-05

 Cycle   7  Pass 1  IDiag  1:
 E= -94.5415518764115     Delta-E=       -0.000000002266 Rises=F Damp=F
 DIIS: error= 1.89D-06 at cycle   7 NSaved=   7.
 NSaved= 7 IEnMin= 7 EnMin= -94.5415518764115     IErMin= 7 ErrMin= 1.89D-06
 ErrMax= 1.89D-06  0.00D+00 EMaxC= 1.00D-01 BMatC= 4.31D-10 BMatP= 3.78D-09
 IDIUse=1 WtCom= 1.00D+00 WtEn= 0.00D+00
 Coeff-Com: -0.511D-03 0.781D-02 0.579D-02-0.231D-01-0.110D+00 0.142D+00
 Coeff-Com:  0.978D+00
 Coeff:     -0.511D-03 0.781D-02 0.579D-02-0.231D-01-0.110D+00 0.142D+00
 Coeff:      0.978D+00
 Gap=     0.299 Goal=   None    Shift=    0.000
 Gap=     0.299 Goal=   None    Shift=    0.000
 RMSDP=3.80D-07 MaxDP=3.98D-06 DE=-2.27D-09 OVMax= 1.92D-05

 Cycle   8  Pass 1  IDiag  1:
 E= -94.5415518767450     Delta-E=       -0.000000000334 Rises=F Damp=F
 DIIS: error= 5.90D-07 at cycle   8 NSaved=   8.
 NSaved= 8 IEnMin= 8 EnMin= -94.5415518767450     IErMin= 8 ErrMin= 5.90D-07
 ErrMax= 5.90D-07  0.00D+00 EMaxC= 1.00D-01 BMatC= 4.57D-11 BMatP= 4.31D-10
 IDIUse=1 WtCom= 1.00D+00 WtEn= 0.00D+00
 Coeff-Com: -0.178D-03 0.133D-02 0.385D-03 0.381D-02-0.259D-01-0.994D-01
 Coeff-Com:  0.244D+00 0.876D+00
 Coeff:     -0.178D-03 0.133D-02 0.385D-03 0.381D-02-0.259D-01-0.994D-01
 Coeff:      0.244D+00 0.876D+00
 Gap=     0.299 Goal=   None    Shift=    0.000
 Gap=     0.299 Goal=   None    Shift=    0.000
 RMSDP=1.08D-07 MaxDP=1.16D-06 DE=-3.34D-10 OVMax= 5.78D-06

 Cycle   9  Pass 1  IDiag  1:
 E= -94.5415518767760     Delta-E=       -0.000000000031 Rises=F Damp=F
 DIIS: error= 1.71D-07 at cycle   9 NSaved=   9.
 NSaved= 9 IEnMin= 9 EnMin= -94.5415518767760     IErMin= 9 ErrMin= 1.71D-07
 ErrMax= 1.71D-07  0.00D+00 EMaxC= 1.00D-01 BMatC= 3.24D-12 BMatP= 4.57D-11
 IDIUse=1 WtCom= 1.00D+00 WtEn= 0.00D+00
 Coeff-Com:  0.673D-04-0.892D-03-0.755D-03 0.222D-02 0.140D-01-0.154D-01
 Coeff-Com: -0.105D+00-0.641D-01 0.117D+01
 Coeff:      0.673D-04-0.892D-03-0.755D-03 0.222D-02 0.140D-01-0.154D-01
 Coeff:     -0.105D+00-0.641D-01 0.117D+01
 Gap=     0.299 Goal=   None    Shift=    0.000
 Gap=     0.299 Goal=   None    Shift=    0.000
 RMSDP=3.99D-08 MaxDP=4.77D-07 DE=-3.10D-11 OVMax= 1.97D-06

 Cycle  10  Pass 1  IDiag  1:
 E= -94.5415518767786     Delta-E=       -0.000000000003 Rises=F Damp=F
 DIIS: error= 3.88D-08 at cycle  10 NSaved=  10.
 NSaved=10 IEnMin=10 EnMin= -94.5415518767786     IErMin=10 ErrMin= 3.88D-08
 ErrMax= 3.88D-08  0.00D+00 EMaxC= 1.00D-01 BMatC= 2.71D-13 BMatP= 3.24D-12
 IDIUse=1 WtCom= 1.00D+00 WtEn= 0.00D+00
 Coeff-Com:  0.114D-04-0.764D-04-0.567D-04-0.256D-03 0.182D-02 0.477D-02
 Coeff-Com: -0.962D-02-0.333D-01-0.513D-01 0.109D+01
 Coeff:      0.114D-04-0.764D-04-0.567D-04-0.256D-03 0.182D-02 0.477D-02
 Coeff:     -0.962D-02-0.333D-01-0.513D-01 0.109D+01
 Gap=     0.299 Goal=   None    Shift=    0.000
 Gap=     0.299 Goal=   None    Shift=    0.000
 RMSDP=6.91D-09 MaxDP=5.62D-08 DE=-2.61D-12 OVMax= 2.79D-07

 SCF Done:  E(UM062X) =  -94.5415518768     A.U. after   10 cycles
            NFock= 10  Conv=0.69D-08     -V/T= 2.0092
 <Sx>= 0.0000 <Sy>= 0.0000 <Sz>= 0.0000 <S**2>=-0.0000 S=-0.0000
 <L.S>=  0.00000000000    
 KE= 9.367944817014D+01 PE=-2.781768560858D+02 EE= 6.078046544046D+01
 Annihilation of the first spin contaminant:
 S**2 before annihilation    -0.0000,   after     0.0000
 Leave Link  502 at Mon Apr 21 18:19:32 2025, MaxMem=  4294967296 cpu:              67.2 elap:               5.1
 (Enter /home/szhao/Apps/g16/l701.exe)
 ... and contract with generalized density number  0.
 Compute integral first derivatives.
 Leave Link  701 at Mon Apr 21 18:19:32 2025, MaxMem=  4294967296 cpu:               4.0 elap:               0.4
 (Enter /home/szhao/Apps/g16/l702.exe)
 L702 exits ... SP integral derivatives will be done elsewhere.
 Leave Link  702 at Mon Apr 21 18:19:33 2025, MaxMem=  4294967296 cpu:               0.7 elap:               0.1
 (Enter /home/szhao/Apps/g16/l703.exe)
 Integral derivatives from FoFJK, PRISM(SPDF).
 Compute integral first derivatives, UseDBF=F ICtDFT=           0.
 Calling FoFJK, ICntrl=      2127 FMM=F ISym2X=0 I1Cent= 0 IOpClX= 1 NMat=1 NMatS=1 NMatT=0.
 FoFJK:  IHMeth= 1 ICntrl=    2127 DoSepK=F KAlg= 0 I1Cent=           0 FoldK=F
 IRaf=         0 NMat=       1 IRICut=       1 DoRegI=T DoRafI=F ISym2E= 0 IDoP0=0 IntGTp=1.
 FoFCou: FMM=F IPFlag=           0 FMFlag=      100000 FMFlg1=         800
         NFxFlg=           0 DoJE=F BraDBF=F KetDBF=F FulRan=T
         wScrn=  0.000000 ICntrl=      2127 IOpCl=  1 I1Cent=           0 NGrid=           0
         NMat0=    1 NMatS0=      1 NMatT0=    0 NMatD0=    1 NMtDS0=    0 NMtDT0=    0
 Symmetry not used in FoFCou.
 Leave Link  703 at Mon Apr 21 18:19:34 2025, MaxMem=  4294967296 cpu:              14.3 elap:               1.2
 (Enter /home/szhao/Apps/g16/l716.exe)
 Dipole        =-8.54130904D-01-5.83958906D-01-1.46335482D-02
 -------------------------------------------------------------------
 Center     Atomic                   Forces (Hartrees/Bohr)
 Number     Number              X              Y              Z
 -------------------------------------------------------------------
      1        6          -0.000000000   -0.000000000   -0.000000000
      2        7          -0.000000000   -0.000000000   -0.000000000
      3        1           0.001163646   -0.000653649    0.000560021
      4        1           0.000351660    0.000314136    0.000719011
      5        1           0.000825667    0.000251249    0.001270361
 -------------------------------------------------------------------
 Cartesian Forces:  Max     0.001270361 RMS     0.000588384
 Leave Link  716 at Mon Apr 21 18:19:34 2025, MaxMem=  4294967296 cpu:               1.5 elap:               0.2
 (Enter /home/szhao/Apps/g16/l103.exe)

 GradGradGradGradGradGradGradGradGradGradGradGradGradGradGradGradGradGrad
 Berny optimization.
 Using GEDIIS/GDIIS optimizer.
 FormGI is forming the generalized inverse of G from B-inverse, IUseBI=4.
 Internal  Forces:  Max     0.002301023 RMS     0.001209674
 Search for a local minimum.
 Step number   3 out of a maximum of   25
 All quantities printed in internal units (Hartrees-Bohrs-Radians)
 RMS Force = .10897D-02 SwitMx=.10000D-02 MixMth= 1
 Mixed Optimization -- RFO/linear search
 Update second derivatives using D2CorX and points    1    2    3
 DE= -1.55D-04 DEPred=-1.51D-04 R= 1.02D+00
 TightC=F SS=  1.41D+00  RLast= 5.50D-02 DXNew= 8.4853D-01 1.6513D-01
 Trust test= 1.02D+00 RLast= 5.50D-02 DXMaxT set to 5.05D-01
 The second derivative matrix:
                          X1        Y1        Z1        X2        Y2
           X1           0.62470
           Y1           0.01398   0.53054
           Z1          -0.04146   0.00845   0.51970
           X2          -0.02095  -0.03103  -0.00600   0.53191
           Y2          -0.06195  -0.03537   0.00775   0.03855   0.55868
           Z2          -0.00479   0.00103   0.00230  -0.00074   0.00084
           R1          -0.03141   0.00030   0.01217   0.00150   0.01186
           R2          -0.01565  -0.01132   0.00088   0.01209   0.01716
           R3           0.03259  -0.00991  -0.01697   0.00795  -0.00288
           A1          -0.03975   0.02070   0.02459  -0.01822  -0.00493
           A2          -0.02503  -0.01730   0.00177   0.01856   0.02666
           A3           0.06318  -0.00280  -0.02547  -0.00084  -0.02170
           A4          -0.07142  -0.06831  -0.00351   0.07169   0.09465
           D1          -0.01671   0.00340   0.00794  -0.00241   0.00313
           D2           0.04148  -0.00870  -0.01983   0.00625  -0.00751
                          Z2        R1        R2        R3        A1
           Z2           0.50027
           R1           0.00141   0.34072
           R2           0.00008  -0.00208   0.34758
           R3          -0.00198   0.00053   0.00251   0.44318
           A1           0.00288  -0.01011  -0.00653   0.00617   0.12814
           A2           0.00018  -0.00300  -0.00016   0.00368  -0.00999
           A3          -0.00296   0.01313   0.00664  -0.00999   0.04151
           A4          -0.00051   0.00042   0.00388   0.00278  -0.00485
           D1           0.00093   0.00484   0.00036  -0.00675   0.00970
           D2          -0.00231  -0.01186  -0.00081   0.01663  -0.02371
                          A2        A3        A4        D1        D2
           A2           0.16000
           A3           0.00992   0.10898
           A4           0.00692  -0.00180   0.18478
           D1           0.00072  -0.01006  -0.00127   0.00550
           D2          -0.00165   0.02449   0.00331  -0.00798   0.02223
 ITU=  1  1  0
 Use linear search instead of GDIIS.
     Eigenvalues ---    0.00231   0.00352   0.09265   0.16049   0.18784
     Eigenvalues ---    0.34176   0.34832   0.444361000.000001000.00000
     Eigenvalues --- 1000.000001000.000001000.000001000.000001000.00000
 RFO step:  Lambda=-1.82402626D-03 EMin= 2.30805283D-03
 Quartic linear search produced a step of  0.02352.
 Iteration  1 RMS(Cart)=  0.16001773 RMS(Int)=  0.07491465
 Iteration  2 RMS(Cart)=  0.08439736 RMS(Int)=  0.03809534
 Iteration  3 RMS(Cart)=  0.01738798 RMS(Int)=  0.03532658
 Iteration  4 RMS(Cart)=  0.00170717 RMS(Int)=  0.03531744
 Iteration  5 RMS(Cart)=  0.00032724 RMS(Int)=  0.03531712
 Iteration  6 RMS(Cart)=  0.00006294 RMS(Int)=  0.03531711
 Iteration  7 RMS(Cart)=  0.00001212 RMS(Int)=  0.03531711
 Iteration  8 RMS(Cart)=  0.00000233 RMS(Int)=  0.03531711
 Iteration  9 RMS(Cart)=  0.00000045 RMS(Int)=  0.03531711
 ITry= 1 IFail=0 DXMaxC= 6.58D-01 DCOld= 1.00D+10 DXMaxT= 5.05D-01 DXLimC= 3.00D+00 Rises=F
 Variable       Old X    -DE/DX   Delta X   Delta X   Delta X     New X
                                 (Linear)    (Quad)   (Total)
    X1       -1.47708   0.00199   0.00000   0.00000   0.00000  -1.47708
    Y1        0.00000  -0.00100   0.00000   0.00000   0.00000   0.00000
    Z1        0.00000   0.00230   0.00000   0.00000   0.00000   0.00000
    X2        1.47708   0.00035   0.00000   0.00000   0.00000   1.47708
    Y2        0.00000   0.00092   0.00000   0.00000   0.00000   0.00000
    Z2        0.00000   0.00025   0.00000   0.00000   0.00000   0.00000
    R1        2.04768  -0.00006  -0.00011  -0.03313  -0.03324   2.01444
    R2        2.04265  -0.00016  -0.00002  -0.00979  -0.00981   2.03284
    R3        1.94094  -0.00024   0.00011   0.02750   0.02761   1.96855
    A1        2.12249  -0.00121  -0.00067  -0.17497  -0.23763   1.88486
    A2        2.01621  -0.00020  -0.00007  -0.02435  -0.08573   1.93048
    A3        2.14383   0.00152   0.00073   0.22238   0.14292   2.28676
    A4        1.76998   0.00079   0.00020   0.01205   0.01225   1.78223
    D1       -0.00617   0.00094  -0.00014   0.20697   0.15846   0.15228
    D2       -3.10998  -0.00230   0.00077  -0.46513  -0.41598   2.75722
         Item               Value     Threshold  Converged?
 Maximum Force            0.002301     0.000450     NO 
 RMS     Force            0.001090     0.000300     NO 
 Maximum Displacement     0.658398     0.001800     NO 
 RMS     Displacement     0.241511     0.001200     NO 
 Predicted change in Energy=-2.992576D-04
 Lowest energy point so far.  Saving SCF results.
 GradGradGradGradGradGradGradGradGradGradGradGradGradGradGradGradGradGrad

 Leave Link  103 at Mon Apr 21 18:19:37 2025, MaxMem=  4294967296 cpu:              23.6 elap:               2.7
 (Enter /home/szhao/Apps/g16/l202.exe)
                          Input orientation:                          
 ---------------------------------------------------------------------
 Center     Atomic      Atomic             Coordinates (Angstroms)
 Number     Number       Type             X           Y           Z
 ---------------------------------------------------------------------
      1          6           0       -0.781637    0.000000    0.000000
      2          7           0        0.781637    0.000000    0.000000
      3          1           0       -1.110956   -0.991734    0.210628
      4          1           0        1.000255   -1.016862    0.058015
      5          1           0       -1.160273    0.953414    0.323780
 ---------------------------------------------------------------------
                    Distance matrix (angstroms):
                    1          2          3          4          5
     1  C    0.000000
     2  N    1.563274   0.000000
     3  H    1.065998   2.147047   0.000000
     4  H    2.052441   1.041714   2.116869   0.000000
     5  H    1.075731   2.187429   1.949060   2.936068   0.000000
 Symmetry turned off by external request.
 Stoichiometry    CH3N
 Framework group  C1[X(CH3N)]
 Deg. of freedom     9
 Full point group                 C1      NOp   1
 Rotational constants (GHZ):         169.9809144          25.6582921          22.5413063
 Leave Link  202 at Mon Apr 21 18:19:37 2025, MaxMem=  4294967296 cpu:               0.6 elap:               0.1
 (Enter /home/szhao/Apps/g16/l301.exe)
 Standard basis: 6-311+G(d,p) (5D, 7F)
 Ernie: Thresh=  0.10000D-02 Tol=  0.10000D-05 Strict=F.
    62 basis functions,    96 primitive gaussians,    64 cartesian basis functions
     8 alpha electrons        8 beta electrons
       nuclear repulsion energy        29.3705623262 Hartrees.
 IExCor= 4336 DFT=T Ex+Corr=M062X ExCW=0 ScaHFX=  0.540000
 ScaDFX=  1.000000  1.000000  1.000000  1.000000 ScalE2=  1.000000  1.000000
 IRadAn=      7 IRanWt=     -1 IRanGd=            0 ICorTp=0 IEmpDi=  4
[...]
 IRaf=         0 NMat=       1 IRICut=       1 DoRegI=T DoRafI=F ISym2E= 0 IDoP0=0 IntGTp=1.
 FoFCou: FMM=F IPFlag=           0 FMFlag=      100000 FMFlg1=         800
         NFxFlg=           0 DoJE=F BraDBF=F KetDBF=F FulRan=T
         wScrn=  0.000000 ICntrl=      2127 IOpCl=  1 I1Cent=           0 NGrid=           0
         NMat0=    1 NMatS0=      1 NMatT0=    0 NMatD0=    1 NMtDS0=    0 NMtDT0=    0
 Symmetry not used in FoFCou.
 Leave Link  703 at Mon Apr 21 18:20:30 2025, MaxMem=  4294967296 cpu:              14.5 elap:               1.4
 (Enter /home/szhao/Apps/g16/l716.exe)
 Dipole        =-8.51930812D-01-5.84609871D-01-1.03500642D-02
 -------------------------------------------------------------------
 Center     Atomic                   Forces (Hartrees/Bohr)
 Number     Number              X              Y              Z
 -------------------------------------------------------------------
      1        6          -0.000000000   -0.000000000   -0.000000000
      2        7          -0.000000000   -0.000000000   -0.000000000
      3        1          -0.000018410   -0.000015624    0.000001021
      4        1           0.000008626   -0.000005447   -0.000001687
      5        1           0.000015473    0.000020121   -0.000002625
 -------------------------------------------------------------------
 Cartesian Forces:  Max     0.000020121 RMS     0.000009459
 Leave Link  716 at Mon Apr 21 18:20:31 2025, MaxMem=  4294967296 cpu:               1.4 elap:               0.2
 (Enter /home/szhao/Apps/g16/l103.exe)

 GradGradGradGradGradGradGradGradGradGradGradGradGradGradGradGradGradGrad
 Berny optimization.
 Using GEDIIS/GDIIS optimizer.
 FormGI is forming the generalized inverse of G from B-inverse, IUseBI=4.
 Internal  Forces:  Max     0.000036013 RMS     0.000016292
 Search for a local minimum.
 Step number   8 out of a maximum of   25
 All quantities printed in internal units (Hartrees-Bohrs-Radians)
 RMS Force = .18246D-04 SwitMx=.10000D-02 MixMth= 2
 Mixed Optimization -- En-DIIS/RFO-DIIS
 Swapping is turned off.
 Update second derivatives using D2CorX and points    1    2    4    5    3
                                                      6    7    8
 DE= -2.44D-06 DEPred=-2.44D-06 R= 9.98D-01
 TightC=F SS=  1.41D+00  RLast= 6.54D-03 DXNew= 2.1213D-01 1.9623D-02
 Trust test= 9.98D-01 RLast= 6.54D-03 DXMaxT set to 1.26D-01
 The second derivative matrix:
                          X1        Y1        Z1        X2        Y2
           X1           0.66637
           Y1           0.02739   0.57848
           Z1          -0.00968  -0.02699   0.58178
           X2          -0.01820  -0.05236  -0.00052   0.54085
           Y2          -0.04180  -0.07037   0.02054   0.04796   0.56604
           Z2           0.00077   0.00418  -0.01804  -0.00014   0.00004
           R1          -0.05158  -0.02172   0.00703   0.00267   0.01424
           R2          -0.01867  -0.02047  -0.00144   0.01558   0.01625
           R3           0.04730   0.00068  -0.01158   0.01320  -0.00830
           A1          -0.07161   0.02264  -0.00491  -0.01868  -0.00770
           A2          -0.02019  -0.02872  -0.00877   0.02286   0.02450
           A3           0.08459  -0.00381  -0.00110  -0.00265  -0.00466
           A4          -0.05613  -0.10904   0.00647   0.08225   0.10417
           D1          -0.00740  -0.01602   0.05483  -0.00103   0.00993
           D2           0.00829   0.01867  -0.05836   0.00162  -0.01684
                          Z2        R1        R2        R3        A1
           Z2           0.53467
           R1           0.00330   0.34257
           R2          -0.00040   0.00088   0.34835
           R3          -0.00544   0.00586  -0.00012   0.42744
           A1           0.00412  -0.00052  -0.00707  -0.00998   0.10983
           A2           0.00295   0.00086  -0.00355  -0.00996  -0.04109
           A3           0.00391   0.00828   0.00441  -0.00462  -0.00234
           A4           0.00006   0.00170   0.00781   0.01305  -0.00017
           D1          -0.03464   0.00144   0.00021  -0.00015  -0.00183
           D2          -0.01515  -0.00168  -0.00005   0.00058   0.00099
                          A2        A3        A4        D1        D2
           A2           0.12553
           A3          -0.01182   0.09183
           A4           0.01302   0.00005   0.18749
           D1          -0.00318  -0.00193   0.00161   0.05378
           D2           0.00059   0.00062  -0.00182  -0.01885   0.06843
 ITU=  1  1  0 -1 -1  1  1  0
     Eigenvalues ---    0.04086   0.08124   0.09396   0.15699   0.18999
     Eigenvalues ---    0.34216   0.34918   0.428621000.000001000.00000
     Eigenvalues --- 1000.000001000.000001000.000001000.000001000.00000
 En-DIIS/RFO-DIIS/Sim-DIIS IScMMF=       -3 using points:     8    7    6
 RFO step:  Lambda=-1.58779693D-08.
 NNeg= 0 NGDIIS= 3 SimSw=  2.50D-01 Rises=F DC= -2.44D-06 SmlDif=  1.00D-05
 NRisDI= 0 DoIntr=F SqrtH=F CThrHd= 10.0 CDAdj=  3.0
 RMS Error=  0.8337919640D-04 NUsed= 3 OKEnD=F EnDIS=F
 InvSVX:  RCond= 4.65D-06 Info=           0 Equed=N FErr=  1.13D-15 BErr=  8.25D-17
 DidBck=F Rises=F RFO-DIIS coefs:    1.00492   -0.00427   -0.00065
 Iteration  1 RMS(Cart)=  0.00015827 RMS(Int)=  0.00000009
 Iteration  2 RMS(Cart)=  0.00000002 RMS(Int)=  0.00000008
 ITry= 1 IFail=0 DXMaxC= 4.20D-04 DCOld= 1.00D+10 DXMaxT= 1.26D-01 DXLimC= 3.00D+00 Rises=F
 Variable       Old X    -DE/DX   Delta X   Delta X   Delta X     New X
                                 (Linear)    (Quad)   (Total)
    X1       -1.47708  -0.00000   0.00000   0.00000   0.00000  -1.47708
    Y1        0.00000   0.00002   0.00000   0.00000   0.00000   0.00000
    Z1        0.00000  -0.00000   0.00000   0.00000   0.00000   0.00000
    X2        1.47708   0.00001   0.00000   0.00000   0.00000   1.47708
    Y2        0.00000  -0.00002   0.00000   0.00000   0.00000   0.00000
    Z2        0.00000  -0.00000   0.00000   0.00000   0.00000   0.00000
    R1        2.04688   0.00002  -0.00001   0.00007   0.00007   2.04695
    R2        2.04163   0.00001  -0.00000   0.00003   0.00003   2.04166
    R3        1.94018   0.00001   0.00000   0.00001   0.00001   1.94019
    A1        2.11085   0.00003  -0.00001   0.00017   0.00016   2.11101
    A2        2.01228  -0.00004  -0.00001  -0.00023  -0.00023   2.01205
    A3        2.16005   0.00001   0.00002   0.00006   0.00008   2.16013
    A4        1.77436   0.00001  -0.00001   0.00010   0.00009   1.77445
    D1       -0.00006   0.00000   0.00000   0.00003   0.00003  -0.00003
    D2        3.14149   0.00000   0.00000   0.00006   0.00007   3.14156
         Item               Value     Threshold  Converged?
 Maximum Force            0.000036     0.000450     YES
 RMS     Force            0.000018     0.000300     YES
 Maximum Displacement     0.000420     0.001800     YES
 RMS     Displacement     0.000158     0.001200     YES
 Predicted change in Energy=-8.386470D-09
 Optimization completed.
    -- Stationary point found.
                           ----------------------------
                           !   Optimized Parameters   !
                           ! (Angstroms and Degrees)  !
 --------------------------                            --------------------------
 ! Name  Definition              Value          Derivative Info.                !
 --------------------------------------------------------------------------------
 ! X1    R(1,-1)                -0.7816         -DE/DX =    0.0                 !
 ! Y1    R(1,-2)                 0.0            -DE/DX =    0.0                 !
 ! Z1    R(1,-3)                 0.0            -DE/DX =    0.0                 !
 ! X2    R(2,-1)                 0.7816         -DE/DX =    0.0                 !
 ! Y2    R(2,-2)                 0.0            -DE/DX =    0.0                 !
 ! Z2    R(2,-3)                 0.0            -DE/DX =    0.0                 !
 ! R1    R(1,3)                  1.0832         -DE/DX =    0.0                 !
 ! R2    R(1,5)                  1.0804         -DE/DX =    0.0                 !
 ! R3    R(2,4)                  1.0267         -DE/DX =    0.0                 !
 ! A1    A(2,1,3)              120.9431         -DE/DX =    0.0                 !
 ! A2    A(2,1,5)              115.2954         -DE/DX =    0.0                 !
 ! A3    A(3,1,5)              123.7616         -DE/DX =    0.0                 !
 ! A4    A(1,2,4)              101.6636         -DE/DX =    0.0                 !
 ! D1    D(3,1,2,4)             -0.0032         -DE/DX =    0.0                 !
 ! D2    D(5,1,2,4)            179.9943         -DE/DX =    0.0                 !
 --------------------------------------------------------------------------------
 Lowest energy point so far.  Saving SCF results.
 Largest change from initial coordinates is atom    4       0.071 Angstoms.
 GradGradGradGradGradGradGradGradGradGradGradGradGradGradGradGradGradGrad

 Leave Link  103 at Mon Apr 21 18:20:31 2025, MaxMem=  4294967296 cpu:               2.7 elap:               0.4
 (Enter /home/szhao/Apps/g16/l202.exe)
                          Input orientation:                          
 ---------------------------------------------------------------------
 Center     Atomic      Atomic             Coordinates (Angstroms)
 Number     Number       Type             X           Y           Z
 ---------------------------------------------------------------------
      1          6           0       -0.781637    0.000000    0.000000
      2          7           0        0.781637    0.000000    0.000000
      3          1           0       -1.338584   -0.928859   -0.016507
      4          1           0        0.989199   -1.005342   -0.017810
      5          1           0       -1.243268    0.976638    0.017399
 ---------------------------------------------------------------------
                    Distance matrix (angstroms):
                    1          2          3          4          5
     1  C    0.000000
     2  N    1.563274   0.000000
     3  H    1.083163   2.314820   0.000000
     4  H    2.036392   1.026699   2.329040   0.000000
     5  H    1.080384   2.248192   1.908181   2.985531   0.000000
 Symmetry turned off by external request.
 Stoichiometry    CH3N
 Framework group  C1[X(CH3N)]
 Deg. of freedom     9
 Full point group                 C1      NOp   1
 Rotational constants (GHZ):         182.8495505          24.9067527          21.9208201
 Leave Link  202 at Mon Apr 21 18:20:31 2025, MaxMem=  4294967296 cpu:               0.7 elap:               0.2
 (Enter /home/szhao/Apps/g16/l601.exe)
 Copying SCF densities to generalized density rwf, IOpCl= 1 IROHF=0.

 **********************************************************************

            Population analysis using the SCF density.

 **********************************************************************

 Alpha  occ. eigenvalues --  -14.78825 -10.62877  -0.93943  -0.73905  -0.55356
 Alpha  occ. eigenvalues --   -0.47722  -0.37472  -0.34621
 Alpha virt. eigenvalues --   -0.04681   0.01894   0.03358   0.04942   0.07535
 Alpha virt. eigenvalues --    0.12493   0.15690   0.16166   0.17814   0.20798
 Alpha virt. eigenvalues --    0.22056   0.24588   0.26661   0.44258   0.46531
 Alpha virt. eigenvalues --    0.56975   0.57047   0.62461   0.68738   0.79036
 Alpha virt. eigenvalues --    0.82311   0.87054   0.88091   1.06631   1.20151
 Alpha virt. eigenvalues --    1.22098   1.36955   1.39453   1.45151   1.48481
 Alpha virt. eigenvalues --    1.59878   1.73177   1.73782   1.96571   1.96764
 Alpha virt. eigenvalues --    2.04872   2.26933   2.32334   2.41523   2.41546
 Alpha virt. eigenvalues --    2.48803   2.53432   2.62630   2.68255   2.78052
 Alpha virt. eigenvalues --    2.79441   3.02109   3.37582   3.73234   3.88504
 Alpha virt. eigenvalues --    4.32413   4.60044  23.81266  35.48315
  Beta  occ. eigenvalues --  -14.78825 -10.62877  -0.93943  -0.73905  -0.55356
  Beta  occ. eigenvalues --   -0.47722  -0.37472  -0.34621
  Beta virt. eigenvalues --   -0.04681   0.01894   0.03358   0.04942   0.07535
  Beta virt. eigenvalues --    0.12493   0.15690   0.16166   0.17814   0.20798
  Beta virt. eigenvalues --    0.22056   0.24588   0.26661   0.44258   0.46531
  Beta virt. eigenvalues --    0.56975   0.57047   0.62461   0.68738   0.79036
  Beta virt. eigenvalues --    0.82311   0.87054   0.88091   1.06631   1.20151
  Beta virt. eigenvalues --    1.22098   1.36955   1.39453   1.45151   1.48481
  Beta virt. eigenvalues --    1.59878   1.73177   1.73782   1.96571   1.96764
  Beta virt. eigenvalues --    2.04872   2.26933   2.32334   2.41523   2.41546
  Beta virt. eigenvalues --    2.48803   2.53432   2.62630   2.68255   2.78052
  Beta virt. eigenvalues --    2.79441   3.02109   3.37582   3.73234   3.88504
  Beta virt. eigenvalues --    4.32413   4.60044  23.81266  35.48315
          Condensed to atoms (all electrons):
               1          2          3          4          5
     1  C    5.154668   0.354827   0.355557   0.004281   0.404775
     2  N    0.354827   6.744960  -0.004986   0.233892  -0.053039
     3  H    0.355557  -0.004986   0.537426  -0.018407  -0.039566
     4  H    0.004281   0.233892  -0.018407   0.575294   0.009811
     5  H    0.404775  -0.053039  -0.039566   0.009811   0.493359
          Atomic-Atomic Spin Densities.
               1          2          3          4          5
     1  C    0.000000  -0.000000  -0.000000   0.000000  -0.000000
     2  N   -0.000000  -0.000000   0.000000   0.000000   0.000000
     3  H   -0.000000   0.000000  -0.000000   0.000000   0.000000
     4  H    0.000000   0.000000   0.000000  -0.000000  -0.000000
     5  H   -0.000000   0.000000   0.000000  -0.000000  -0.000000
 Mulliken charges and spin densities:
               1          2
     1  C   -0.274109  -0.000000
     2  N   -0.275654  -0.000000
     3  H    0.169975  -0.000000
     4  H    0.195128   0.000000
     5  H    0.184659  -0.000000
 Sum of Mulliken charges =   0.00000  -0.00000
 Mulliken charges and spin densities with hydrogens summed into heavy atoms:
               1          2
     1  C    0.080526  -0.000000
     2  N   -0.080526   0.000000
 Electronic spatial extent (au):  <R**2>=             82.7895
 Charge=             -0.0000 electrons
 Dipole moment (field-independent basis, Debye):
    X=             -2.1654    Y=             -1.4859    Z=             -0.0263  Tot=              2.6263
 Quadrupole moment (field-independent basis, Debye-Ang):
   XX=            -12.7092   YY=            -11.3961   ZZ=            -14.7850
   XY=             -1.9292   XZ=             -0.0342   YZ=              0.0602
 Traceless Quadrupole moment (field-independent basis, Debye-Ang):
   XX=              0.2542   YY=              1.5673   ZZ=             -1.8215
   XY=             -1.9292   XZ=             -0.0342   YZ=              0.0602
 Octapole moment (field-independent basis, Debye-Ang**2):
  XXX=             -1.1434  YYY=              0.1898  ZZZ=              0.0194  XYY=             -0.4605
  XXY=             -1.7058  XXZ=             -0.0302  XZZ=              0.7359  YZZ=              0.3663
  YYZ=             -0.0096  XYZ=             -0.0214
 Hexadecapole moment (field-independent basis, Debye-Ang**3):
 XXXX=            -73.3228 YYYY=            -21.4385 ZZZZ=            -17.5632 XXXY=             -1.0493
 XXXZ=             -0.0186 YYYX=             -0.7633 YYYZ=              0.0058 ZZZX=              0.0123
 ZZZY=             -0.0748 XXYY=            -12.9609 XXZZ=            -15.7861 YYZZ=             -7.2549
 XXYZ=              0.0502 YYXZ=             -0.0217 ZZXY=              0.2300
 N-N= 2.918408677524D+01 E-N=-2.781969463395D+02  KE= 9.368099845792D+01
                          Isotropic Fermi Contact Couplings
        Atom                 a.u.       MegaHertz       Gauss      10(-4) cm-1
     1  C(13)             -0.00000      -0.00000      -0.00000      -0.00000
     2  N(14)             -0.00000      -0.00000      -0.00000      -0.00000
     3  H(1)               0.00000       0.00000       0.00000       0.00000
     4  H(1)               0.00000       0.00000       0.00000       0.00000
     5  H(1)              -0.00000      -0.00000      -0.00000      -0.00000
 --------------------------------------------------------
       Center         ----  Spin Dipole Couplings  ----
                      3XX-RR        3YY-RR        3ZZ-RR
 --------------------------------------------------------
     1   Atom        0.000000      0.000000      0.000000
     2   Atom        0.000000      0.000000      0.000000
     3   Atom        0.000000      0.000000      0.000000
     4   Atom        0.000000      0.000000      0.000000
     5   Atom        0.000000      0.000000      0.000000
 --------------------------------------------------------
                        XY            XZ            YZ
 --------------------------------------------------------
     1   Atom        0.000000      0.000000      0.000000
     2   Atom        0.000000      0.000000      0.000000
     3   Atom        0.000000      0.000000      0.000000
     4   Atom        0.000000      0.000000      0.000000
     5   Atom        0.000000      0.000000      0.000000
 --------------------------------------------------------


 ---------------------------------------------------------------------------------
              Anisotropic Spin Dipole Couplings in Principal Axis System
 ---------------------------------------------------------------------------------

       Atom             a.u.   MegaHertz   Gauss  10(-4) cm-1        Axes

              Baa     0.0000     0.000     0.000     0.000  1.0000  0.0000  0.0000
     1 C(13)  Bbb     0.0000     0.000     0.000     0.000 -0.0000  1.0000  0.0000
              Bcc     0.0000     0.000     0.000     0.000  0.0000  0.0000  1.0000
 
              Baa     0.0000     0.000     0.000     0.000  1.0000  0.0000  0.0000
     2 N(14)  Bbb     0.0000     0.000     0.000     0.000 -0.0000  1.0000  0.0000
              Bcc     0.0000     0.000     0.000     0.000  0.0000  0.0000  1.0000
 
              Baa     0.0000     0.000     0.000     0.000  1.0000  0.0000  0.0000
     3 H(1)   Bbb     0.0000     0.000     0.000     0.000 -0.0000  1.0000  0.0000
              Bcc     0.0000     0.000     0.000     0.000  0.0000  0.0000  1.0000
 
              Baa     0.0000     0.000     0.000     0.000  1.0000  0.0000  0.0000
     4 H(1)   Bbb     0.0000     0.000     0.000     0.000 -0.0000  1.0000  0.0000
              Bcc     0.0000     0.000     0.000     0.000  0.0000  0.0000  1.0000
 
              Baa     0.0000     0.000     0.000     0.000  1.0000  0.0000  0.0000
     5 H(1)   Bbb     0.0000     0.000     0.000     0.000 -0.0000  1.0000  0.0000
              Bcc     0.0000     0.000     0.000     0.000  0.0000  0.0000  1.0000
 

 ---------------------------------------------------------------------------------

 No NMR shielding tensors so no spin-rotation constants.
 Leave Link  601 at Mon Apr 21 18:20:32 2025, MaxMem=  4294967296 cpu:               4.8 elap:               0.6
 (Enter /home/szhao/Apps/g16/l9999.exe)
 1\1\GINC-NODE05\FOpt\UM062X\6-311+G(d,p)\C1H3N1\SZHAO\21-Apr-2025\0\\#
 p opt UM062X/6-311+G** nosymm int=superfine\\Title Card Required\\0,1\
 C,-0.78163709,0.,0.\N,0.78163709,0.,0.\H,-1.3385842731,-0.9288593003,-
 0.0165066932\H,0.9891992297,-1.0053420141,-0.0178103942\H,-1.243268283
 8,0.9766384499,0.017399179\\Version=ES64L-G16RevA.03\HF=-94.5416129\S2
 =0.\S2-1=0.\S2A=0.\RMSD=4.130e-09\RMSF=9.459e-06\Dipole=-0.8519308,-0.
 5846099,-0.0103501\Quadrupole=0.1890252,1.1652408,-1.354266,-1.4342896
 ,-0.0254621,0.0447539\PG=C01 [X(C1H3N1)]\\@


 BULLDOZER: SOMEONE WHO SLEEPS THROUGH SPEECHES.
 Job cpu time:       0 days  0 hours 15 minutes 30.1 seconds.
 Elapsed time:       0 days  0 hours  1 minutes 20.9 seconds.
 File lengths (MBytes):  RWF=     17 Int=      0 D2E=      0 Chk=      2 Scr=      2
 Normal termination of Gaussian 16 at Mon Apr 21 18:20:32 2025.
