Title Card Required                                                     
Freq      UM062X                                                      6-31+G(d,p)         
Number of atoms                            I                6
Info1-9                                    I   N=           9
          15          15           0           0           0         100
           6          18        -502
Full Title                                 C   N=           2
Title Card Required     
Route                                      C   N=           4
#p UM062X/6-31+G** freq=raman int=superfine     
Charge                                     I                1
Multiplicity                               I                2
Number of electrons                        I               15
Number of alpha electrons                  I                8
Number of beta electrons                   I                7
Number of basis functions                  I               58
Number of independent functions            I               58
Number of point charges in /Mol/           I                0
Number of translation vectors              I                0
Atomic numbers                             I   N=           6
           6           6           1           1           1           1
Nuclear charges                            R   N=           6
  6.00000000E+00  6.00000000E+00  1.00000000E+00  1.00000000E+00  1.00000000E+00
  1.00000000E+00
Current cartesian coordinates              R   N=          18
 -5.55969369E-23  1.32499659E+00  0.00000000E+00 -1.62265191E-16 -1.32499659E+00
  0.00000000E+00 -1.73914708E+00  2.37726791E+00  3.10121065E-01  1.73914708E+00
  2.37726980E+00 -3.10121065E-01  1.73914708E+00 -2.37726791E+00  3.10121065E-01
 -1.73914708E+00 -2.37726980E+00 -3.10121065E-01
Number of symbols in /Mol/                 I                0
Force Field                                I                0
Atom Types                                 C   N=           6
                                                            
            
Int Atom Types                             I   N=           6
           0           0           0           0           0           0
MM charges                                 R   N=           6
  0.00000000E+00  0.00000000E+00  0.00000000E+00  0.00000000E+00  0.00000000E+00
  0.00000000E+00
Integer atomic weights                     I   N=           6
          12          12           1           1           1           1
Real atomic weights                        R   N=           6
  1.20000000E+01  1.20000000E+01  1.00782504E+00  1.00782504E+00  1.00782504E+00
  1.00782504E+00
Atom fragment info                         I   N=           6
           0           0           0           0           0           0
Atom residue num                           I   N=           6
           0           0           0           0           0           0
Nuclear spins                              I   N=           6
           0           0           1           1           1           1
Nuclear ZEff                               R   N=           6
 -3.60000000E+00 -3.60000000E+00 -1.00000000E+00 -1.00000000E+00 -1.00000000E+00
 -1.00000000E+00
Nuclear ZNuc                               R   N=           6
  6.00000000E+00  6.00000000E+00  1.00000000E+00  1.00000000E+00  1.00000000E+00
  1.00000000E+00
Nuclear QMom                               R   N=           6
  0.00000000E+00  0.00000000E+00  0.00000000E+00  0.00000000E+00  0.00000000E+00
  0.00000000E+00
Nuclear GFac                               R   N=           6
  0.00000000E+00  0.00000000E+00  2.79284600E+00  2.79284600E+00  2.79284600E+00
  2.79284600E+00
MicOpt                                     I   N=           6
          -1          -1          -1          -1          -1          -1
Number of residues                         I                0
Number of secondary structures             I                0
SymInf integers                            I   N=          26
           2           2           1           1           1          -1
          -1           1           0           0           0           0
           0           0           0           0           0           0
           0           0           0           0           0           0
           0           0
RotTr to input orientation                 R   N=          12
 -1.00000000E+00  9.95799127E-17  0.00000000E+00  9.95799267E-17  1.00000000E+00
  0.00000000E+00  0.00000000E+00  0.00000000E+00 -1.00000000E+00  0.00000000E+00
  2.77555756E-17  0.00000000E+00
Number of contracted shells                I               22
Number of primitive shells                 I               44
Pure/Cartesian d shells                    I                1
Pure/Cartesian f shells                    I                0
Highest angular momentum                   I                2
Largest degree of contraction              I                6
Shell types                                I   N=          22
           0          -1          -1          -1           2           0
          -1          -1          -1           2           0           0
           1           0           0           1           0           0
           1           0           0           1
Number of primitives per shell             I   N=          22
           6           3           1           1           1           6
           3           1           1           1           3           1
           1           3           1           1           3           1
           1           3           1           1
Shell to atom map                          I   N=          22
           1           1           1           1           1           2
           2           2           2           2           3           3
           3           4           4           4           5           5
           5           6           6           6
Primitive exponents                        R   N=          44
  3.04752488E+03  4.57369518E+02  1.03948685E+02  2.92101553E+01  9.28666296E+00
  3.16392696E+00  7.86827235E+00  1.88128854E+00  5.44249258E-01  1.68714478E-01
  4.38000000E-02  8.00000000E-01  3.04752488E+03  4.57369518E+02  1.03948685E+02
  2.92101553E+01  9.28666296E+00  3.16392696E+00  7.86827235E+00  1.88128854E+00
  5.44249258E-01  1.68714478E-01  4.38000000E-02  8.00000000E-01  1.87311370E+01
  2.82539436E+00  6.40121692E-01  1.61277759E-01  1.10000000E+00  1.87311370E+01
  2.82539436E+00  6.40121692E-01  1.61277759E-01  1.10000000E+00  1.87311370E+01
  2.82539436E+00  6.40121692E-01  1.61277759E-01  1.10000000E+00  1.87311370E+01
  2.82539436E+00  6.40121692E-01  1.61277759E-01  1.10000000E+00
Contraction coefficients                   R   N=          44
  1.83473713E-03  1.40373228E-02  6.88426223E-02  2.32184443E-01  4.67941348E-01
  3.62311985E-01 -1.19332420E-01 -1.60854152E-01  1.14345644E+00  1.00000000E+00
  1.00000000E+00  1.00000000E+00  1.83473713E-03  1.40373228E-02  6.88426223E-02
  2.32184443E-01  4.67941348E-01  3.62311985E-01 -1.19332420E-01 -1.60854152E-01
  1.14345644E+00  1.00000000E+00  1.00000000E+00  1.00000000E+00  3.34946043E-02
  2.34726953E-01  8.13757326E-01  1.00000000E+00  1.00000000E+00  3.34946043E-02
  2.34726953E-01  8.13757326E-01  1.00000000E+00  1.00000000E+00  3.34946043E-02
  2.34726953E-01  8.13757326E-01  1.00000000E+00  1.00000000E+00  3.34946043E-02
  2.34726953E-01  8.13757326E-01  1.00000000E+00  1.00000000E+00
P(S=P) Contraction coefficients            R   N=          44
  0.00000000E+00  0.00000000E+00  0.00000000E+00  0.00000000E+00  0.00000000E+00
  0.00000000E+00  6.89990666E-02  3.16423961E-01  7.44308291E-01  1.00000000E+00
  1.00000000E+00  0.00000000E+00  0.00000000E+00  0.00000000E+00  0.00000000E+00
  0.00000000E+00  0.00000000E+00  0.00000000E+00  6.89990666E-02  3.16423961E-01
  7.44308291E-01  1.00000000E+00  1.00000000E+00  0.00000000E+00  0.00000000E+00
  0.00000000E+00  0.00000000E+00  0.00000000E+00  0.00000000E+00  0.00000000E+00
  0.00000000E+00  0.00000000E+00  0.00000000E+00  0.00000000E+00  0.00000000E+00
  0.00000000E+00  0.00000000E+00  0.00000000E+00  0.00000000E+00  0.00000000E+00
  0.00000000E+00  0.00000000E+00  0.00000000E+00  0.00000000E+00
Coordinates of each shell                  R   N=          66
 -3.70646246E-23  1.32499659E+00  0.00000000E+00 -3.70646246E-23  1.32499659E+00
  0.00000000E+00 -3.70646246E-23  1.32499659E+00  0.00000000E+00 -3.70646246E-23
  1.32499659E+00  0.00000000E+00 -3.70646246E-23  1.32499659E+00  0.00000000E+00
 -1.62265209E-16 -1.32499659E+00  0.00000000E+00 -1.62265209E-16 -1.32499659E+00
  0.00000000E+00 -1.62265209E-16 -1.32499659E+00  0.00000000E+00 -1.62265209E-16
 -1.32499659E+00  0.00000000E+00 -1.62265209E-16 -1.32499659E+00  0.00000000E+00
 -1.73914708E+00  2.37726791E+00  3.10121065E-01 -1.73914708E+00  2.37726791E+00
  3.10121065E-01 -1.73914708E+00  2.37726791E+00  3.10121065E-01  1.73914708E+00
  2.37726980E+00 -3.10121065E-01  1.73914708E+00  2.37726980E+00 -3.10121065E-01
  1.73914708E+00  2.37726980E+00 -3.10121065E-01  1.73914708E+00 -2.37726791E+00
  3.10121065E-01  1.73914708E+00 -2.37726791E+00  3.10121065E-01  1.73914708E+00
 -2.37726791E+00  3.10121065E-01 -1.73914708E+00 -2.37726980E+00 -3.10121065E-01
 -1.73914708E+00 -2.37726980E+00 -3.10121065E-01 -1.73914708E+00 -2.37726980E+00
 -3.10121065E-01
Num ILSW                                   I              100
ILSW                                       I   N=         100
           1           1           0           0           2           0
           0           0           0           0        4336          -1
           7           0           0           0           2           0
           0           0           0           0           1           0
           1           0           0           0           0           0
           0           0      100000           0          -1           0
           0           0           0           0           0           0
           0           0           0           1           0           0
           0 -2000000000           1           0           0           0
           0           0           4          52           0           0
           0           0          55           0           0           0
           0           0           0           6           0           1
           0           0           0           0           0           0
           0           0           0           0           0           0
           0           0           0           0           0           0
           0           0           0           0           0           0
           0           0           0           0
Num RLSW                                   I               52
RLSW                                       R   N=          52
  1.00000000E+00  1.00000000E+00  1.00000000E+00  1.00000000E+00  5.40000000E-01
  0.00000000E+00  0.00000000E+00  1.00000000E+00  0.00000000E+00  0.00000000E+00
  0.00000000E+00  0.00000000E+00  1.00000000E+00  0.00000000E+00  0.00000000E+00
  0.00000000E+00  0.00000000E+00  1.00000000E+00  0.00000000E+00  0.00000000E+00
  0.00000000E+00  0.00000000E+00  1.00000000E+00  0.00000000E+00  0.00000000E+00
  0.00000000E+00  0.00000000E+00  1.00000000E+00  0.00000000E+00  0.00000000E+00
  0.00000000E+00  0.00000000E+00  1.00000000E+00  0.00000000E+00  0.00000000E+00
  0.00000000E+00  0.00000000E+00  0.00000000E+00  1.00000000E+00  1.00000000E+00
  0.00000000E+00  1.00000000E+00  0.00000000E+00  0.00000000E+00  0.00000000E+00
  0.00000000E+00  0.00000000E+00  0.00000000E+00  0.00000000E+00  0.00000000E+00
  0.00000000E+00  0.00000000E+00
MxBond                                     I                3
NBond                                      I   N=           6
           3           3           1           1           1           1
IBond                                      I   N=          18
           2           3           4           1           5           6
           1           0           0           1           0           0
           2           0           0           2           0           0
RBond                                      R   N=          18
  1.50000000E+00  1.00000000E+00  1.00000000E+00  1.50000000E+00  1.00000000E+00
  1.00000000E+00  1.00000000E+00  0.00000000E+00  0.00000000E+00  1.00000000E+00
  0.00000000E+00  0.00000000E+00  1.00000000E+00  0.00000000E+00  0.00000000E+00
  1.00000000E+00  0.00000000E+00  0.00000000E+00
Virial Ratio                               R      2.008783533694387E+00
SCF Energy                                 R     -7.817004099012109E+01
Total Energy                               R     -7.817004099012109E+01
S**2                                       R      7.536426708658537E-01
S**2 after annihilation                    R      7.500096032122031E-01
RMS Force                                  R      7.464276405667661E-04
RMS Density                                R      8.776028438329992E-09
NImag                                      I                0
Job Status                                 I                1
Nuclear derivative order                   I                2
External E-field                           R   N=          35
  0.00000000E+00  0.00000000E+00  0.00000000E+00  0.00000000E+00  0.00000000E+00
  0.00000000E+00  0.00000000E+00  0.00000000E+00  0.00000000E+00  0.00000000E+00
  0.00000000E+00  0.00000000E+00  0.00000000E+00  0.00000000E+00  0.00000000E+00
  0.00000000E+00  0.00000000E+00  0.00000000E+00  0.00000000E+00  0.00000000E+00
  0.00000000E+00  0.00000000E+00  0.00000000E+00  0.00000000E+00  0.00000000E+00
  0.00000000E+00  0.00000000E+00  0.00000000E+00  0.00000000E+00  0.00000000E+00
  0.00000000E+00  0.00000000E+00  0.00000000E+00  0.00000000E+00  0.00000000E+00
IOpCl                                      I                1
IROHF                                      I                0
Alpha Orbital Energies                     R   N=          58
 -1.09038095E+01 -1.09030017E+01 -1.18569324E+00 -9.76459891E-01 -8.45513876E-01
 -7.94738959E-01 -7.35709600E-01 -6.54254600E-01 -2.96117750E-01 -1.43564336E-01
 -1.25016305E-01 -1.21670450E-01 -9.93617016E-02 -7.68506819E-02 -6.60098335E-02
 -4.57658900E-02 -1.22287923E-02 -5.32088534E-03 -8.33958265E-04  4.39702473E-02
  8.77808609E-02  1.48814880E-01  3.62187686E-01  4.06977412E-01  4.30161443E-01
  4.83270857E-01  4.85125721E-01  5.69939507E-01  6.83880589E-01  7.02643044E-01
  7.46337285E-01  7.80133369E-01  8.81723900E-01  8.88736319E-01  1.13354731E+00
  1.15548726E+00  1.23150353E+00  1.60616177E+00  1.64783723E+00  1.64806036E+00
  1.76446722E+00  1.77559983E+00  1.81129057E+00  2.00180437E+00  2.09575679E+00
  2.17845844E+00  2.23222079E+00  2.26627641E+00  2.33926096E+00  2.40903335E+00
  2.45326717E+00  2.67165748E+00  2.93852743E+00  3.04168046E+00  3.14656331E+00
  3.36568969E+00  3.89075596E+00  4.16103280E+00
Beta Orbital Energies                      R   N=          58
 -1.09013415E+01 -1.09006564E+01 -1.14767316E+00 -9.56109289E-01 -8.31236920E-01
 -7.84960482E-01 -7.29181224E-01 -4.08773618E-01 -2.25721279E-01 -1.56477699E-01
 -1.22683808E-01 -1.21326367E-01 -9.78743477E-02 -8.31999466E-02 -6.36124016E-02
 -3.15468357E-02 -7.90017382E-03 -1.46939912E-03  5.45360958E-03  4.70860372E-02
  1.06161885E-01  1.58020827E-01  3.67770792E-01  4.12473133E-01  4.51597203E-01
  4.94217698E-01  5.06748000E-01  5.87649369E-01  6.91800915E-01  7.22048718E-01
  7.68005904E-01  8.02456729E-01  8.90538762E-01  9.06564777E-01  1.17783112E+00
  1.19784323E+00  1.26988829E+00  1.68132639E+00  1.68623830E+00  1.69517150E+00
  1.80735422E+00  1.82100727E+00  1.84737173E+00  2.03164944E+00  2.12523080E+00
  2.21917933E+00  2.28063472E+00  2.30284824E+00  2.36806304E+00  2.43591182E+00
  2.47665474E+00  2.70776140E+00  2.96820350E+00  3.07901851E+00  3.18618376E+00
  3.41826383E+00  3.93683999E+00  4.20338074E+00
Alpha MO coefficients                      R   N=        3364
  7.02671919E-01  2.90256688E-02 -2.64771888E-11 -2.73189490E-04  1.00218487E-10
 -5.41993876E-03  1.86313616E-09 -4.12602804E-06 -2.74247842E-10  5.49341997E-04
  4.70406401E-10 -7.38362360E-04 -3.21382114E-11 -5.28701112E-03 -5.42148524E-03
 -5.20763310E-03  1.21033397E-10 -1.27680265E-06 -4.31706638E-11  7.02671919E-01
  2.90256688E-02  2.64771888E-11  2.73189490E-04  1.00218487E-10 -5.41993876E-03
 -1.86313616E-09  4.12602804E-06 -2.74247842E-10  5.49341997E-04 -4.70406401E-10
  7.38362360E-04 -3.21382114E-11 -5.28701112E-03 -5.42148524E-03 -5.20763310E-03
  1.21033397E-10  1.27680265E-06  4.31706638E-11 -5.50260959E-05  8.36693493E-04
 -5.69817242E-05 -7.90430853E-06  5.35462830E-06 -5.50264992E-05  8.36690745E-04
  5.69822141E-05 -7.90377793E-06 -5.35473459E-06 -5.50260959E-05  8.36693493E-04
  5.69817242E-05  7.90430853E-06  5.35462830E-06 -5.50264992E-05  8.36690745E-04
 -5.69822141E-05  7.90377793E-06 -5.35473459E-06  7.02960385E-01  2.92495429E-02
 -2.12880344E-10 -5.92077748E-04  1.29372046E-10 -1.15477162E-02  1.04216372E-09
  2.53920362E-03 -3.09253910E-10  1.74026958E-02  1.93986176E-10 -4.87040206E-03
 -1.94595565E-11 -5.03688110E-03 -4.59991172E-03 -5.03918357E-03  6.72767828E-11
  1.34572346E-05 -2.59100415E-11 -7.02960385E-01 -2.92495429E-02 -2.12880344E-10
 -5.92077748E-04 -1.29372046E-10  1.15477162E-02  1.04216372E-09  2.53920362E-03
  3.09253910E-10 -1.74026958E-02  1.93986176E-10 -4.87040206E-03  1.94595565E-11
  5.03688110E-03  4.59991172E-03  5.03918357E-03 -6.72767828E-11  1.34572346E-05
 -2.59100415E-11  7.78228048E-05  8.28966512E-04 -1.46492258E-04 -6.80538525E-06
  2.05048342E-05  7.78226624E-05  8.28964353E-04  1.46492624E-04 -6.80527595E-06
 -2.05048969E-05 -7.78228048E-05 -8.28966512E-04 -1.46492258E-04 -6.80538525E-06
 -2.05048342E-05 -7.78226624E-05 -8.28964353E-04  1.46492624E-04 -6.80527595E-06
  2.05048969E-05 -1.58205695E-01  3.22571476E-01 -6.18869965E-08 -1.13537431E-01
  1.83427380E-08  2.42617262E-01  1.44072938E-08 -1.56165539E-02  3.62244051E-09
 -3.80437978E-03  2.45544588E-09  4.26691236E-03 -6.26297550E-10 -1.04674507E-02
  5.76817393E-03 -1.16771864E-02  6.90007054E-10  7.31492672E-05 -2.55670966E-09
 -1.58205695E-01  3.22571476E-01  6.18869965E-08  1.13537431E-01  1.83427380E-08
  2.42617262E-01 -1.44072938E-08  1.56165539E-02  3.62244051E-09 -3.80437978E-03
 -2.45544588E-09 -4.26691236E-03 -6.26297550E-10 -1.04674507E-02  5.76817393E-03
 -1.16771864E-02  6.90007054E-10 -7.31492672E-05  2.55670966E-09  7.86838009E-02
  7.87726058E-03  6.96066726E-03 -5.19212888E-03 -1.39666054E-03  7.86836857E-02
  7.87723271E-03 -6.96065866E-03 -5.19212766E-03  1.39665860E-03  7.86838009E-02
  7.87726058E-03 -6.96066726E-03  5.19212888E-03 -1.39666054E-03  7.86836857E-02
  7.87723271E-03  6.96065866E-03  5.19212766E-03  1.39665860E-03 -1.30982277E-01
  2.78360217E-01 -2.66278838E-07  1.63981218E-01  3.07629312E-08  3.13632834E-01
 -7.91202699E-08  3.08090232E-02  7.85032783E-09 -1.63699202E-01 -2.73013398E-09
  4.50785842E-02  2.54570065E-09  3.93912830E-03 -1.47223612E-02 -6.43947180E-03
  6.46448844E-09 -1.88069732E-03  1.25178397E-09  1.30982277E-01 -2.78360217E-01
 -2.66278838E-07  1.63981218E-01 -3.07629312E-08 -3.13632834E-01 -7.91202699E-08
  3.08090232E-02 -7.85032783E-09  1.63699202E-01 -2.73013398E-09  4.50785842E-02
 -2.54570065E-09 -3.93912830E-03  1.47223612E-02  6.43947180E-03 -6.46448844E-09
 -1.88069732E-03  1.25178397E-09  1.41282319E-01  4.45493870E-02  9.59213778E-03
 -4.38109267E-03 -2.13939352E-03  1.41282095E-01  4.45493554E-02 -9.59212776E-03
 -4.38109383E-03  2.13939076E-03 -1.41282319E-01 -4.45493870E-02  9.59213778E-03
 -4.38109267E-03  2.13939352E-03 -1.41282095E-01 -4.45493554E-02 -9.59212776E-03
 -4.38109383E-03 -2.13939076E-03 -8.35479023E-08  1.75559389E-07  3.53910551E-01
  1.53873827E-07 -2.98884016E-02  2.45796147E-07  1.51532737E-01  7.88546522E-08
 -1.39065737E-02 -1.37465155E-07  1.45232360E-03  3.92247899E-08  3.90759159E-04
 -9.81515428E-09  6.51792267E-09 -1.29144078E-09 -1.68846291E-03  3.64270860E-09
 -2.30683980E-03  8.35479023E-08 -1.75559389E-07  3.53910551E-01  1.53873827E-07
  2.98884016E-02 -2.45796147E-07  1.51532737E-01  7.88546522E-08  1.39065737E-02
  1.37465155E-07  1.45232360E-03  3.92247899E-08 -3.90759159E-04  9.81515428E-09
 -6.51792267E-09  1.29144078E-09  1.68846291E-03  3.64270860E-09 -2.30683980E-03
 -1.52098159E-01 -5.86740912E-02 -4.95722830E-03  5.76604788E-03  1.65937743E-03
  1.52098280E-01  5.86741741E-02 -4.95723550E-03 -5.76605631E-03  1.65937853E-03
  1.52098159E-01  5.86740912E-02 -4.95722830E-03  5.76604788E-03 -1.65937743E-03
 -1.52098280E-01 -5.86741741E-02 -4.95723550E-03 -5.76605631E-03 -1.65937853E-03
 -2.27767656E-03 -3.96413185E-03 -1.06226484E-07  4.30181335E-01  3.31440732E-08
  4.88065659E-02  1.09606821E-08  1.41610176E-01  7.81803336E-09  8.96855491E-04
  1.33783893E-09  3.29518321E-03 -2.67872657E-10  1.73956357E-02 -1.36123768E-02
  1.53074197E-03 -4.87811437E-09 -2.67137625E-03 -2.46071773E-11 -2.27767656E-03
 -3.96413185E-03  1.06226484E-07 -4.30181335E-01  3.31440732E-08  4.88065659E-02
 -1.09606821E-08 -1.41610176E-01  7.81803336E-09  8.96855491E-04 -1.33783893E-09
 -3.29518321E-03 -2.67872657E-10  1.73956357E-02 -1.36123768E-02  1.53074197E-03
 -4.87811437E-09  2.67137625E-03  2.46071773E-11  1.26331410E-01  7.02045634E-02
  6.21298032E-03  1.34182066E-03 -1.41425840E-03  1.26331400E-01  7.02045326E-02
 -6.21298493E-03  1.34180794E-03  1.41425925E-03  1.26331410E-01  7.02045634E-02
 -6.21298032E-03 -1.34182066E-03 -1.41425840E-03  1.26331400E-01  7.02045326E-02
  6.21298493E-03 -1.34180794E-03  1.41425925E-03 -2.92250864E-08  6.72998050E-08
  3.09511025E-01  1.61987553E-08 -1.72641944E-01  1.47690190E-07  1.79133293E-01
  4.65565534E-08 -8.95396039E-02  8.23221421E-09  6.02332143E-03 -2.06715626E-09
 -1.85632144E-03 -1.69066637E-08  1.45835035E-08  2.71599444E-09  2.15984627E-02
  5.77790398E-09  6.58565724E-03 -2.92250864E-08  6.72998050E-08 -3.09511025E-01
 -1.61987553E-08 -1.72641944E-01  1.47690190E-07 -1.79133293E-01 -4.65565534E-08
 -8.95396039E-02  8.23221421E-09 -6.02332143E-03  2.06715626E-09 -1.85632144E-03
 -1.69066637E-08  1.45835035E-08  2.71599444E-09  2.15984627E-02 -5.77790398E-09
 -6.58565724E-03 -1.78679145E-01 -8.94447829E-02 -4.81391720E-03  4.86104933E-03
 -4.32829704E-04  1.78679138E-01  8.94448030E-02 -4.81391511E-03 -4.86105756E-03
 -4.32828641E-04 -1.78679145E-01 -8.94447829E-02  4.81391720E-03 -4.86104933E-03
 -4.32829704E-04  1.78679138E-01  8.94448030E-02  4.81391511E-03  4.86105756E-03
 -4.32828641E-04 -4.06861604E-09  6.75392723E-09  1.65551810E-01 -1.90708289E-08
  3.92690698E-01  4.47644453E-08  8.58667034E-02 -3.18949685E-09  2.42774285E-01
  4.45422295E-09 -1.77116268E-03 -7.37409098E-09  1.03660658E-02 -1.01964827E-08
  5.03393472E-09  4.55450904E-09  9.87478410E-03 -3.72744834E-09 -2.51614341E-02
 -4.06861604E-09  6.75392723E-09 -1.65551810E-01  1.90708289E-08  3.92690698E-01
  4.47644453E-08 -8.58667034E-02  3.18949685E-09  2.42774285E-01  4.45422295E-09
  1.77116268E-03  7.37409098E-09  1.03660658E-02 -1.01964827E-08  5.03393472E-09
  4.55450904E-09  9.87478410E-03  3.72744834E-09  2.51614341E-02 -6.54489951E-02
 -5.58802638E-02 -2.73074357E-04  1.21084570E-03  6.95673425E-03  6.54489826E-02
  5.58802582E-02 -2.73074864E-04 -1.21085051E-03  6.95672940E-03 -6.54489951E-02
 -5.58802638E-02  2.73074357E-04 -1.21084570E-03  6.95673425E-03  6.54489826E-02
  5.58802582E-02  2.73074864E-04  1.21085051E-03  6.95672940E-03 -1.26604304E-08
  2.99079453E-08  6.46829194E-02 -9.74989103E-09  4.54233263E-01  7.21284487E-08
  7.86808928E-02 -9.33709190E-09  4.52939207E-01  2.52247180E-07  1.25511773E-02
 -7.97168959E-08  2.06002711E-01 -1.21513273E-09 -7.20456531E-09  4.13102801E-09
 -7.39513748E-03 -6.16005175E-09  1.97744606E-02  1.26604304E-08 -2.99079453E-08
  6.46829194E-02 -9.74989103E-09 -4.54233263E-01 -7.21284487E-08  7.86808928E-02
 -9.33709190E-09 -4.52939207E-01 -2.52247180E-07  1.25511773E-02 -7.97168959E-08
 -2.06002711E-01  1.21513273E-09  7.20456531E-09 -4.13102801E-09  7.39513748E-03
 -6.16005175E-09  1.97744606E-02  3.29622856E-02  5.50584118E-02  2.57449136E-03
  5.48923501E-04  1.27091986E-02 -3.29623086E-02 -5.50584762E-02  2.57449086E-03
 -5.48922020E-04  1.27091984E-02 -3.29622856E-02 -5.50584118E-02  2.57449136E-03
  5.48923501E-04 -1.27091986E-02  3.29623086E-02  5.50584762E-02  2.57449086E-03
 -5.48922020E-04 -1.27091984E-02  5.77029029E-02 -1.33674591E-01 -6.55659081E-08
 -9.37077992E-02 -1.85406799E-09 -6.04552276E-01 -8.37519079E-10 -1.71216554E-01
 -4.37149216E-09  7.63384476E-01  3.38050410E-07  1.22097148E-01 -4.18936968E-09
  1.32225199E-02 -2.91448772E-03  1.22234035E-02 -2.44579390E-09  2.40842565E-05
 -1.60144526E-10  5.77029029E-02 -1.33674591E-01  6.55659081E-08  9.37077992E-02
 -1.85406799E-09 -6.04552276E-01  8.37519079E-10  1.71216554E-01 -4.37149216E-09
  7.63384476E-01 -3.38050410E-07 -1.22097148E-01 -4.18936968E-09  1.32225199E-02
 -2.91448772E-03  1.22234035E-02 -2.44579390E-09 -2.40842565E-05  1.60144526E-10
  1.31318661E-02  5.72979125E-02 -1.04555900E-02  1.62070817E-03  1.69158741E-03
  1.31318722E-02  5.72978223E-02  1.04555875E-02  1.62071734E-03 -1.69158771E-03
  1.31318661E-02  5.72979125E-02  1.04555900E-02 -1.62070817E-03  1.69158741E-03
  1.31318722E-02  5.72978223E-02 -1.04555875E-02 -1.62071734E-03 -1.69158771E-03
 -6.46621616E-02  1.51957697E-01  1.61147914E-06  1.62000629E-02 -3.07643188E-07
  6.19024979E-01  2.57185852E-06 -3.09384186E-02 -5.70567699E-07  5.22630664E+00
 -3.80704994E-06 -2.10611467E+00  2.12938949E-07 -1.31357776E-03 -1.83330924E-02
  3.25580696E-03 -1.96658101E-07  1.56819972E-03 -6.18764230E-09  6.46621616E-02
 -1.51957697E-01  1.61147914E-06  1.62000629E-02  3.07643188E-07 -6.19024979E-01
  2.57185852E-06 -3.09384186E-02  5.70567699E-07 -5.22630664E+00 -3.80704994E-06
 -2.10611467E+00 -2.12938949E-07  1.31357776E-03  1.83330924E-02 -3.25580696E-03
  1.96658101E-07  1.56819972E-03 -6.18764230E-09 -2.30915894E-02 -1.24570804E-01
  5.11897962E-03 -9.09255483E-03 -9.39415306E-04 -2.30923863E-02 -1.24574180E-01
 -5.11910495E-03 -9.09265226E-03  9.39411976E-04  2.30915894E-02  1.24570804E-01
  5.11897962E-03 -9.09255483E-03  9.39415306E-04  2.30923863E-02  1.24574180E-01
 -5.11910495E-03 -9.09265226E-03 -9.39411976E-04 -4.48014392E-07  1.07546175E-06
 -1.93703417E-01  8.43322225E-08  2.81606607E-02  4.41341487E-06 -2.92773948E-01
 -4.77234791E-07  5.12305985E-02  4.01661330E-05  5.31174970E-01 -1.63426795E-05
 -4.14019225E-02  9.70215083E-10 -1.31576687E-07  1.71662388E-08  2.12585174E-02
  5.94977994E-09  4.99930284E-04  4.48014392E-07 -1.07546175E-06 -1.93703417E-01
  8.43322225E-08 -2.81606607E-02 -4.41341487E-06 -2.92773948E-01 -4.77234791E-07
 -5.12305985E-02 -4.01661330E-05  5.31174970E-01 -1.63426795E-05  4.14019225E-02
 -9.70215083E-10  1.31576687E-07 -1.71662388E-08 -2.12585174E-02  5.94977994E-09
  4.99930284E-04 -3.47011026E-02 -1.56413775E-01  8.91005036E-03 -5.13054175E-03
 -2.80613198E-04  3.47009194E-02  1.56412547E-01  8.90996791E-03  5.13039809E-03
 -2.80597527E-04  3.47011026E-02  1.56413775E-01  8.91005036E-03 -5.13054175E-03
  2.80613198E-04 -3.47009194E-02 -1.56412547E-01  8.90996791E-03  5.13039809E-03
  2.80597527E-04 -5.57315100E-09 -2.79978991E-10  2.32135939E-02  3.58172477E-08
 -1.45487875E-01  9.76939756E-08  3.44625967E-02  7.00513975E-08 -1.94893154E-01
  7.09359050E-08 -1.46701586E-01 -1.50618808E-07  5.95524350E-01 -1.84875640E-09
 -2.51172372E-09  4.05405378E-09  3.26295699E-04  4.17322204E-09  1.41082577E-02
 -5.57315100E-09 -2.79978991E-10 -2.32135939E-02 -3.58172477E-08 -1.45487875E-01
  9.76939756E-08 -3.44625967E-02 -7.00513975E-08 -1.94893154E-01  7.09359050E-08
  1.46701586E-01  1.50618808E-07  5.95524350E-01 -1.84875640E-09 -2.51172372E-09
  4.05405378E-09  3.26295699E-04 -4.17322204E-09 -1.41082577E-02  1.90372236E-03
  1.58495486E-02 -1.54035900E-03  1.35148385E-03  4.44778790E-03 -1.90376564E-03
 -1.58497865E-02 -1.54035659E-03 -1.35148389E-03  4.44779199E-03  1.90372236E-03
  1.58495486E-02  1.54035900E-03 -1.35148385E-03  4.44778790E-03 -1.90376564E-03
 -1.58497865E-02  1.54035659E-03  1.35148389E-03  4.44779199E-03 -2.16640592E-02
  5.08262428E-02 -1.47671583E-07 -8.39204521E-02 -1.04210607E-08  3.88620604E-01
 -3.69449299E-07  5.74440384E-02 -3.03858068E-09  1.83620329E-01  6.80020037E-07
  1.41473582E+00  9.33788463E-08 -1.83027976E-02  1.94600400E-02 -1.25076371E-02
  5.88324398E-10  5.33722848E-04  8.19764722E-10 -2.16640592E-02  5.08262428E-02
  1.47671583E-07  8.39204521E-02 -1.04210607E-08  3.88620604E-01  3.69449299E-07
 -5.74440384E-02 -3.03858068E-09  1.83620329E-01 -6.80020037E-07 -1.41473582E+00
  9.33788463E-08 -1.83027976E-02  1.94600400E-02 -1.25076371E-02  5.88324398E-10
 -5.33722848E-04 -8.19764722E-10 -2.20056507E-02 -1.05006461E-01  3.84246651E-03
  9.64109138E-03 -5.25616371E-04 -2.20055901E-02 -1.05006134E-01 -3.84245762E-03
  9.64111369E-03  5.25616077E-04 -2.20056507E-02 -1.05006461E-01 -3.84246651E-03
 -9.64109138E-03 -5.25616371E-04 -2.20055901E-02 -1.05006134E-01  3.84245762E-03
 -9.64111369E-03  5.25616077E-04  5.24429731E-08 -3.88556417E-08 -1.70318848E-01
 -1.18516966E-07 -1.12478163E-02 -1.06247769E-06 -1.60452672E-01 -4.71545848E-07
 -2.48093622E-02 -7.21158131E-07  2.01398860E+00 -4.58787989E-07  4.92269559E-02
  4.00178903E-08 -1.73827040E-09 -2.58536460E-08  1.12508154E-03 -6.39901739E-09
  1.61458681E-03  5.24429731E-08 -3.88556417E-08  1.70318848E-01  1.18516966E-07
 -1.12478163E-02 -1.06247769E-06  1.60452672E-01  4.71545848E-07 -2.48093622E-02
 -7.21158131E-07 -2.01398860E+00  4.58787989E-07  4.92269559E-02  4.00178903E-08
 -1.73827040E-09 -2.58536460E-08  1.12508154E-03  6.39901739E-09 -1.61458681E-03
  1.29671103E-03  4.95516700E-02  8.42873047E-03 -8.66112700E-03 -6.36940328E-04
 -1.29640349E-03 -4.95497795E-02  8.42873658E-03  8.66110947E-03 -6.36936469E-04