 Entering Gaussian System, Link 0=g16
 Initial command:
 /home/szhao/Apps/g16/l1.exe "/home/szhao/tmp/Gau-136761.inp" -scrdir="/home/szhao/tmp/"
 Default is to use a total of  16 processors:
                               16 via shared-memory
                                1 via Linda
 Entering Link 1 = /home/szhao/Apps/g16/l1.exe PID=    136762.
  
 Copyright (c) 1988,1990,1992,1993,1995,1998,2003,2009,2016,
            Gaussian, Inc.  All Rights Reserved.
  
 This is part of the Gaussian(R) 16 program.  It is based on
 the Gaussian(R) 09 system (copyright 2009, Gaussian, Inc.),
 the Gaussian(R) 03 system (copyright 2003, Gaussian, Inc.),
 the Gaussian(R) 98 system (copyright 1998, Gaussian, Inc.),
 the Gaussian(R) 94 system (copyright 1995, Gaussian, Inc.),
 the Gaussian 92(TM) system (copyright 1992, Gaussian, Inc.),
 the Gaussian 90(TM) system (copyright 1990, Gaussian, Inc.),
 the Gaussian 88(TM) system (copyright 1988, Gaussian, Inc.),
 the Gaussian 86(TM) system (copyright 1986, Carnegie Mellon
 University), and the Gaussian 82(TM) system (copyright 1983,
 Carnegie Mellon University). Gaussian is a federally registered
 trademark of Gaussian, Inc.
  
 This software contains proprietary and confidential information,
 including trade secrets, belonging to Gaussian, Inc.
  
 This software is provided under written license and may be
 used, copied, transmitted, or stored only in accord with that
 written license.
  
 The following legend is applicable only to US Government
 contracts under FAR:
  
                    RESTRICTED RIGHTS LEGEND
  
 Use, reproduction and disclosure by the US Government is
 subject to restrictions as set forth in subparagraphs (a)
 and (c) of the Commercial Computer Software - Restricted
 Rights clause in FAR 52.227-19.
  
 Gaussian, Inc.
 340 Quinnipiac St., Bldg. 40, Wallingford CT 06492
  
  
 ---------------------------------------------------------------
 Warning -- This program may not be used in any manner that
 competes with the business of Gaussian, Inc. or will provide
 assistance to any competitor of Gaussian, Inc.  The licensee
 of this program is prohibited from giving any competitor of
 Gaussian, Inc. access to this program.  By using this program,
 the user acknowledges that Gaussian, Inc. is engaged in the
 business of creating and licensing software in the field of
 computational chemistry and represents and warrants to the
 licensee that it is not a competitor of Gaussian, Inc. and that
 it will not use this program in any manner prohibited above.
 ---------------------------------------------------------------
  

 Cite this work as:
 Gaussian 16, Revision A.03,
 M. J. Frisch, G. W. Trucks, H. B. Schlegel, G. E. Scuseria, 
 M. A. Robb, J. R. Cheeseman, G. Scalmani, V. Barone, 
 G. A. Petersson, H. Nakatsuji, X. Li, M. Caricato, A. V. Marenich, 
 J. Bloino, B. G. Janesko, R. Gomperts, B. Mennucci, H. P. Hratchian, 
 J. V. Ortiz, A. F. Izmaylov, J. L. Sonnenberg, D. Williams-Young, 
 F. Ding, F. Lipparini, F. Egidi, J. Goings, B. Peng, A. Petrone, 
 T. Henderson, D. Ranasinghe, V. G. Zakrzewski, J. Gao, N. Rega, 
 G. Zheng, W. Liang, M. Hada, M. Ehara, K. Toyota, R. Fukuda, 
 J. Hasegawa, M. Ishida, T. Nakajima, Y. Honda, O. Kitao, H. Nakai, 
 T. Vreven, K. Throssell, J. A. Montgomery, Jr., J. E. Peralta, 
 F. Ogliaro, M. J. Bearpark, J. J. Heyd, E. N. Brothers, K. N. Kudin, 
 V. N. Staroverov, T. A. Keith, R. Kobayashi, J. Normand, 
 K. Raghavachari, A. P. Rendell, J. C. Burant, S. S. Iyengar, 
 J. Tomasi, M. Cossi, J. M. Millam, M. Klene, C. Adamo, R. Cammi, 
 J. W. Ochterski, R. L. Martin, K. Morokuma, O. Farkas, 
 J. B. Foresman, and D. J. Fox, Gaussian, Inc., Wallingford CT, 2016.
 
 ******************************************
 Gaussian 16:  ES64L-G16RevA.03 25-Dec-2016
                21-Apr-2025 
 ******************************************
 %chk=opt.chk
 %mem=4GB
 %nprocshared=8
 Will use up to    8 processors via shared memory.
 --------------------------------------------
 #p opt UM062X/6-311+G** nosymm int=superfine
 --------------------------------------------
 1/18=20,19=15,26=5,38=1/1,3;
 2/9=110,12=2,15=1,17=6,18=5,40=1/2;
 3/5=4,6=6,7=111,11=2,25=1,30=1,71=1,74=-55,75=-7,116=2/1,2,3;
 4//1;
 5/5=2,38=5/2;
 6/7=2,8=2,9=2,10=2,28=1/1;
 7/30=1/1,2,3,16;
 1/18=20,19=15,26=5/3(2);
 2/9=110,15=1/2;
 99//99;
 2/9=110,15=1/2;
 3/5=4,6=6,7=111,11=2,25=1,30=1,71=1,74=-55,75=-7,116=2/1,2,3;
 4/5=5,16=3,69=1/1;
 5/5=2,38=5/2;
 7/30=1/1,2,3,16;
 1/18=20,19=15,26=5/3(-5);
 2/9=110,15=1/2;
 6/7=2,8=2,9=2,10=2,19=2,28=1/1;
 99/9=1/99;
 Leave Link    1 at Mon Apr 21 21:15:11 2025, MaxMem=   536870912 cpu:               2.2 elap:               0.5
 (Enter /home/szhao/Apps/g16/l101.exe)
 -------------------
 Title Card Required
 -------------------
 Symbolic Z-matrix:
 Charge =  0 Multiplicity = 1
 S                    -1   -1.54319   0.        0. 
 S                    -1    1.54319   0.        0. 
 H                    0    -1.72683  -1.33225   0. 
 H                    0     1.72683   0.02841   1.33195 
 
 Add virtual bond connecting atoms S2         and S1         Dist= 5.83D+00.
 ITRead=  2  2  0  0
 MicOpt= -2 -2 -1 -1
 NAtoms=      4 NQM=        2 NQMF=       2 NMMI=      0 NMMIF=      0
                NMic=       0 NMicF=      0.
                    Isotopes and Nuclear Properties:
 (Nuclear quadrupole moments (NQMom) in fm**2, nuclear magnetic moments (NMagM)
  in nuclear magnetons)

  Atom         1           2           3           4
 IAtWgt=          32          32           1           1
 AtmWgt=  31.9720718  31.9720718   1.0078250   1.0078250
 NucSpn=           0           0           1           1
 AtZEff=  -0.0000000  -0.0000000  -0.0000000  -0.0000000
 NQMom=    0.0000000   0.0000000   0.0000000   0.0000000
 NMagM=    0.0000000   0.0000000   2.7928460   2.7928460
 AtZNuc=  16.0000000  16.0000000   1.0000000   1.0000000
 Leave Link  101 at Mon Apr 21 21:15:12 2025, MaxMem=   536870912 cpu:               2.8 elap:               0.4
 (Enter /home/szhao/Apps/g16/l103.exe)

 GradGradGradGradGradGradGradGradGradGradGradGradGradGradGradGradGradGrad
 Berny optimization.
 Initialization pass.
                           ----------------------------
                           !    Initial Parameters    !
                           ! (Angstroms and Degrees)  !
 --------------------------                            --------------------------
 ! Name  Definition              Value          Derivative Info.                !
 --------------------------------------------------------------------------------
 ! X1    R(1,-1)                -1.5432         Frozen                          !
 ! Y1    R(1,-2)                 0.0            Frozen                          !
 ! Z1    R(1,-3)                 0.0            Frozen                          !
 ! X2    R(2,-1)                 1.5432         Frozen                          !
 ! Y2    R(2,-2)                 0.0            Frozen                          !
 ! Z2    R(2,-3)                 0.0            Frozen                          !
 ! R1    R(1,3)                  1.3448         estimate D2E/DX2                !
 ! R2    R(2,4)                  1.3448         estimate D2E/DX2                !
 ! A1    A(2,1,3)               97.8484         estimate D2E/DX2                !
 ! A2    A(1,2,4)               97.8484         estimate D2E/DX2                !
 ! D1    D(3,1,2,4)            -91.2217         estimate D2E/DX2                !
 --------------------------------------------------------------------------------
 Trust Radius=3.00D-01 FncErr=1.00D-07 GrdErr=1.00D-07 EigMax=2.50D+02 EigMin=1.00D-04
 Number of steps in this run=     21 maximum allowed number of steps=    100.
 GradGradGradGradGradGradGradGradGradGradGradGradGradGradGradGradGradGrad

 Leave Link  103 at Mon Apr 21 21:15:12 2025, MaxMem=   536870912 cpu:               0.4 elap:               0.2
 (Enter /home/szhao/Apps/g16/l202.exe)
                          Input orientation:                          
 ---------------------------------------------------------------------
 Center     Atomic      Atomic             Coordinates (Angstroms)
 Number     Number       Type             X           Y           Z
 ---------------------------------------------------------------------
      1         16           0       -1.543191    0.000000    0.000000
      2         16           0        1.543191    0.000000    0.000000
      3          1           0       -1.726833   -1.332250    0.000000
      4          1           0        1.726833    0.028406    1.331947
 ---------------------------------------------------------------------
                    Distance matrix (angstroms):
                    1          2          3          4
     1  S    0.000000
     2  S    3.086383   0.000000
     3  H    1.344848   3.530999   0.000000
     4  H    3.530999   1.344848   3.943765   0.000000
 Symmetry turned off by external request.
 Stoichiometry    H2S2
 Framework group  C2[X(H2S2)]
 Deg. of freedom     4
 Full point group                 C2      NOp   2
 Rotational constants (GHZ):         146.3208245           3.1574946           3.1563188
 Leave Link  202 at Mon Apr 21 21:15:12 2025, MaxMem=   536870912 cpu:               0.1 elap:               0.0
 (Enter /home/szhao/Apps/g16/l301.exe)
 Standard basis: 6-311+G(d,p) (5D, 7F)
 Ernie: Thresh=  0.10000D-02 Tol=  0.10000D-05 Strict=F.
    72 basis functions,   116 primitive gaussians,    74 cartesian basis functions
    17 alpha electrons       17 beta electrons
       nuclear repulsion energy        61.4140185811 Hartrees.
 IExCor= 4336 DFT=T Ex+Corr=M062X ExCW=0 ScaHFX=  0.540000
 ScaDFX=  1.000000  1.000000  1.000000  1.000000 ScalE2=  1.000000  1.000000
 IRadAn=      7 IRanWt=     -1 IRanGd=            0 ICorTp=0 IEmpDi=  4
 NAtoms=    4 NActive=    4 NUniq=    4 SFac= 1.00D+00 NAtFMM=   60 NAOKFM=F Big=F
 Integral buffers will be    131072 words long.
 Raffenetti 2 integral format.
 Two-electron integral symmetry is turned off.
 Leave Link  301 at Mon Apr 21 21:15:13 2025, MaxMem=   536870912 cpu:               1.1 elap:               0.2
 (Enter /home/szhao/Apps/g16/l302.exe)
 NPDir=0 NMtPBC=     1 NCelOv=     1 NCel=       1 NClECP=     1 NCelD=      1
         NCelK=      1 NCelE2=     1 NClLst=     1 CellRange=     0.0.
 One-electron integrals computed using PRISM.
 NBasis=    72 RedAO= T EigKep=  7.77D-03  NBF=    72
 NBsUse=    72 1.00D-06 EigRej= -1.00D+00 NBFU=    72
 Precomputing XC quadrature grid using
 IXCGrd= 4 IRadAn=           7 IRanWt=          -1 IRanGd=           0 AccXCQ= 0.00D+00.
 Generated NRdTot=       0 NPtTot=           0 NUsed=           0 NTot=          32
 NSgBfM=    68    68    68    68    68 MxSgAt=     4 MxSgA2=     4.
 Leave Link  302 at Mon Apr 21 21:15:13 2025, MaxMem=   536870912 cpu:               1.4 elap:               0.2
 (Enter /home/szhao/Apps/g16/l303.exe)
 DipDrv:  MaxL=1.
 Leave Link  303 at Mon Apr 21 21:15:13 2025, MaxMem=   536870912 cpu:               0.4 elap:               0.1
 (Enter /home/szhao/Apps/g16/l401.exe)
 ExpMin= 4.05D-02 ExpMax= 9.34D+04 ExpMxC= 3.17D+03 IAcc=3 IRadAn=         7 AccDes= 0.00D+00
 Harris functional with IExCor= 1009 and IRadAn=       7 diagonalized for initial guess.
 HarFok:  IExCor= 1009 AccDes= 0.00D+00 IRadAn=         7 IDoV= 1 UseB2=F ITyADJ=14
 ICtDFT=  3500011 ScaDFX=  1.000000  1.000000  1.000000  1.000000
 FoFCou: FMM=F IPFlag=           0 FMFlag=      100000 FMFlg1=           0
         NFxFlg=           0 DoJE=T BraDBF=F KetDBF=T FulRan=T
         wScrn=  0.000000 ICntrl=       500 IOpCl=  0 I1Cent=   200000004 NGrid=           0
         NMat0=    1 NMatS0=      1 NMatT0=    0 NMatD0=    1 NMtDS0=    0 NMtDT0=    0
 Symmetry not used in FoFCou.
 Harris En= -797.102493520021    
 JPrj=0 DoOrth=F DoCkMO=F.
 Initial guess <Sx>= 0.0000 <Sy>= 0.0000 <Sz>= 0.0000 <S**2>= 0.0000 S= 0.0000
 Leave Link  401 at Mon Apr 21 21:15:14 2025, MaxMem=   536870912 cpu:               3.1 elap:               0.4
 (Enter /home/szhao/Apps/g16/l502.exe)
 Keep R1 and R2 ints in memory in canonical form, NReq=14118010.
 FoFCou: FMM=F IPFlag=           0 FMFlag=           0 FMFlg1=           0
         NFxFlg=           0 DoJE=F BraDBF=F KetDBF=F FulRan=T
         wScrn=  0.000000 ICntrl=       600 IOpCl=  0 I1Cent=           0 NGrid=           0
         NMat0=    1 NMatS0=   2628 NMatT0=    0 NMatD0=    1 NMtDS0=    0 NMtDT0=    0
 Symmetry not used in FoFCou.
 Two-electron integral symmetry not used.
 UHF open shell SCF:
 Using DIIS extrapolation, IDIIS=  1040.
 NGot=   536870912 LenX=   529949706 LenY=   529943789
 Requested convergence on RMS density matrix=1.00D-08 within 128 cycles.
 Requested convergence on MAX density matrix=1.00D-06.
 Requested convergence on             energy=1.00D-06.
 No special actions if energy rises.

 Cycle   1  Pass 1  IDiag  1:
 E= -797.450939277171    
 DIIS: error= 2.03D-02 at cycle   1 NSaved=   1.
 NSaved= 1 IEnMin= 1 EnMin= -797.450939277171     IErMin= 1 ErrMin= 2.03D-02
 ErrMax= 2.03D-02  0.00D+00 EMaxC= 1.00D-01 BMatC= 2.63D-01 BMatP= 2.63D-01
 IDIUse=3 WtCom= 7.97D-01 WtEn= 2.03D-01
 Coeff-Com:  0.100D+01
 Coeff-En:   0.100D+01
 Coeff:      0.100D+01
 Gap=     0.160 Goal=   None    Shift=    0.000
 Gap=     0.160 Goal=   None    Shift=    0.000
 GapD=    0.160 DampG=1.000 DampE=0.500 DampFc=0.5000 IDamp=-1.
 Damping current iteration by 5.00D-01
 RMSDP=1.96D-03 MaxDP=2.93D-02              OVMax= 2.20D-02

 Cycle   2  Pass 1  IDiag  1:
 E= -797.456708382297     Delta-E=       -0.005769105125 Rises=F Damp=T
 DIIS: error= 8.71D-03 at cycle   2 NSaved=   2.
 NSaved= 2 IEnMin= 2 EnMin= -797.456708382297     IErMin= 2 ErrMin= 8.71D-03
 ErrMax= 8.71D-03  0.00D+00 EMaxC= 1.00D-01 BMatC= 4.20D-02 BMatP= 2.63D-01
 IDIUse=3 WtCom= 9.13D-01 WtEn= 8.71D-02
 Coeff-Com: -0.608D+00 0.161D+01
 Coeff-En:   0.000D+00 0.100D+01
 Coeff:     -0.555D+00 0.156D+01
 Gap=     0.163 Goal=   None    Shift=    0.000
 Gap=     0.163 Goal=   None    Shift=    0.000
 RMSDP=9.79D-04 MaxDP=1.09D-02 DE=-5.77D-03 OVMax= 6.65D-03

 Cycle   3  Pass 1  IDiag  1:
 E= -797.462142850664     Delta-E=       -0.005434468368 Rises=F Damp=F
 DIIS: error= 4.13D-04 at cycle   3 NSaved=   3.
 NSaved= 3 IEnMin= 3 EnMin= -797.462142850664     IErMin= 3 ErrMin= 4.13D-04
 ErrMax= 4.13D-04  0.00D+00 EMaxC= 1.00D-01 BMatC= 1.58D-04 BMatP= 4.20D-02
 IDIUse=3 WtCom= 9.96D-01 WtEn= 4.13D-03
 Coeff-Com: -0.552D-01 0.111D+00 0.944D+00
 Coeff-En:   0.000D+00 0.000D+00 0.100D+01
 Coeff:     -0.550D-01 0.111D+00 0.944D+00
 Gap=     0.163 Goal=   None    Shift=    0.000
 Gap=     0.163 Goal=   None    Shift=    0.000
 RMSDP=1.54D-04 MaxDP=3.35D-03 DE=-5.43D-03 OVMax= 2.93D-03

 Cycle   4  Pass 1  IDiag  1:
 E= -797.462178496061     Delta-E=       -0.000035645397 Rises=F Damp=F
 DIIS: error= 2.37D-04 at cycle   4 NSaved=   4.
 NSaved= 4 IEnMin= 4 EnMin= -797.462178496061     IErMin= 4 ErrMin= 2.37D-04
 ErrMax= 2.37D-04  0.00D+00 EMaxC= 1.00D-01 BMatC= 2.61D-05 BMatP= 1.58D-04
 IDIUse=3 WtCom= 9.98D-01 WtEn= 2.37D-03
 Coeff-Com:  0.540D-02-0.160D-01 0.276D+00 0.735D+00
 Coeff-En:   0.000D+00 0.000D+00 0.000D+00 0.100D+01
 Coeff:      0.538D-02-0.160D-01 0.275D+00 0.735D+00
 Gap=     0.164 Goal=   None    Shift=    0.000
 Gap=     0.164 Goal=   None    Shift=    0.000
 RMSDP=4.53D-05 MaxDP=9.67D-04 DE=-3.56D-05 OVMax= 1.19D-03

 Cycle   5  Pass 1  IDiag  1:
 E= -797.462186196158     Delta-E=       -0.000007700097 Rises=F Damp=F
 DIIS: error= 3.42D-05 at cycle   5 NSaved=   5.
 NSaved= 5 IEnMin= 5 EnMin= -797.462186196158     IErMin= 5 ErrMin= 3.42D-05
 ErrMax= 3.42D-05  0.00D+00 EMaxC= 1.00D-01 BMatC= 5.54D-07 BMatP= 2.61D-05
 IDIUse=1 WtCom= 1.00D+00 WtEn= 0.00D+00
 Coeff-Com:  0.592D-03-0.657D-03-0.752D-01-0.608D-01 0.114D+01
 Coeff:      0.592D-03-0.657D-03-0.752D-01-0.608D-01 0.114D+01
 Gap=     0.164 Goal=   None    Shift=    0.000
 Gap=     0.164 Goal=   None    Shift=    0.000
 RMSDP=1.32D-05 MaxDP=1.02D-04 DE=-7.70D-06 OVMax= 5.43D-04

 Cycle   6  Pass 1  IDiag  1:
 E= -797.462186666242     Delta-E=       -0.000000470084 Rises=F Damp=F
 DIIS: error= 1.09D-05 at cycle   6 NSaved=   6.
 NSaved= 6 IEnMin= 6 EnMin= -797.462186666242     IErMin= 6 ErrMin= 1.09D-05
 ErrMax= 1.09D-05  0.00D+00 EMaxC= 1.00D-01 BMatC= 4.57D-08 BMatP= 5.54D-07
 IDIUse=1 WtCom= 1.00D+00 WtEn= 0.00D+00
 Coeff-Com: -0.373D-03 0.109D-02-0.257D-01-0.408D-01 0.191D+00 0.875D+00
 Coeff:     -0.373D-03 0.109D-02-0.257D-01-0.408D-01 0.191D+00 0.875D+00
 Gap=     0.164 Goal=   None    Shift=    0.000
 Gap=     0.164 Goal=   None    Shift=    0.000
 RMSDP=4.85D-06 MaxDP=5.32D-05 DE=-4.70D-07 OVMax= 2.90D-04

 Cycle   7  Pass 1  IDiag  1:
 E= -797.462186739368     Delta-E=       -0.000000073126 Rises=F Damp=F
 DIIS: error= 6.61D-06 at cycle   7 NSaved=   7.
 NSaved= 7 IEnMin= 7 EnMin= -797.462186739368     IErMin= 7 ErrMin= 6.61D-06
 ErrMax= 6.61D-06  0.00D+00 EMaxC= 1.00D-01 BMatC= 1.52D-08 BMatP= 4.57D-08
 IDIUse=1 WtCom= 1.00D+00 WtEn= 0.00D+00
 Coeff-Com:  0.447D-04-0.141D-03 0.866D-02 0.787D-02-0.158D+00 0.792D-01
 Coeff-Com:  0.106D+01
 Coeff:      0.447D-04-0.141D-03 0.866D-02 0.787D-02-0.158D+00 0.792D-01
 Coeff:      0.106D+01
 Gap=     0.164 Goal=   None    Shift=    0.000
 Gap=     0.164 Goal=   None    Shift=    0.000
 RMSDP=4.14D-06 MaxDP=5.23D-05 DE=-7.31D-08 OVMax= 2.74D-04

 Cycle   8  Pass 1  IDiag  1:
 E= -797.462186772148     Delta-E=       -0.000000032780 Rises=F Damp=F
 DIIS: error= 5.32D-06 at cycle   8 NSaved=   8.
 NSaved= 8 IEnMin= 8 EnMin= -797.462186772148     IErMin= 8 ErrMin= 5.32D-06
 ErrMax= 5.32D-06  0.00D+00 EMaxC= 1.00D-01 BMatC= 1.71D-08 BMatP= 1.52D-08
 IDIUse=1 WtCom= 1.00D+00 WtEn= 0.00D+00
 Coeff-Com:  0.140D-03-0.418D-03 0.143D-01 0.181D-01-0.183D+00-0.171D+00
 Coeff-Com:  0.832D+00 0.490D+00
 Coeff:      0.140D-03-0.418D-03 0.143D-01 0.181D-01-0.183D+00-0.171D+00
 Coeff:      0.832D+00 0.490D+00
 Gap=     0.164 Goal=   None    Shift=    0.000
 Gap=     0.164 Goal=   None    Shift=    0.000
 RMSDP=2.27D-06 MaxDP=2.75D-05 DE=-3.28D-08 OVMax= 1.46D-04

 Cycle   9  Pass 1  IDiag  1:
 E= -797.462186789051     Delta-E=       -0.000000016902 Rises=F Damp=F
 DIIS: error= 2.33D-06 at cycle   9 NSaved=   9.
 NSaved= 9 IEnMin= 9 EnMin= -797.462186789051     IErMin= 9 ErrMin= 2.33D-06
 ErrMax= 2.33D-06  0.00D+00 EMaxC= 1.00D-01 BMatC= 2.15D-09 BMatP= 1.52D-08
 IDIUse=1 WtCom= 1.00D+00 WtEn= 0.00D+00
 Coeff-Com: -0.533D-04 0.123D-03-0.364D-02-0.232D-02 0.820D-01-0.541D-01
 Coeff-Com: -0.565D+00 0.177D-01 0.153D+01
 Coeff:     -0.533D-04 0.123D-03-0.364D-02-0.232D-02 0.820D-01-0.541D-01
 Coeff:     -0.565D+00 0.177D-01 0.153D+01
 Gap=     0.164 Goal=   None    Shift=    0.000
 Gap=     0.164 Goal=   None    Shift=    0.000
 RMSDP=3.19D-06 MaxDP=4.36D-05 DE=-1.69D-08 OVMax= 2.29D-04

 Cycle  10  Pass 1  IDiag  1:
 E= -797.462186799555     Delta-E=       -0.000000010504 Rises=F Damp=F
 DIIS: error= 8.84D-07 at cycle  10 NSaved=  10.
 NSaved=10 IEnMin=10 EnMin= -797.462186799555     IErMin=10 ErrMin= 8.84D-07
 ErrMax= 8.84D-07  0.00D+00 EMaxC= 1.00D-01 BMatC= 2.51D-10 BMatP= 2.15D-09
 IDIUse=1 WtCom= 1.00D+00 WtEn= 0.00D+00
 Coeff-Com: -0.261D-04 0.837D-04-0.331D-02-0.456D-02 0.401D-01 0.244D-01
 Coeff-Com: -0.182D+00-0.102D+00 0.330D-01 0.119D+01
 Coeff:     -0.261D-04 0.837D-04-0.331D-02-0.456D-02 0.401D-01 0.244D-01
 Coeff:     -0.182D+00-0.102D+00 0.330D-01 0.119D+01
 Gap=     0.164 Goal=   None    Shift=    0.000
 Gap=     0.164 Goal=   None    Shift=    0.000
 RMSDP=1.29D-06 MaxDP=1.79D-05 DE=-1.05D-08 OVMax= 9.31D-05

 Cycle  11  Pass 1  IDiag  1:
 E= -797.462186800844     Delta-E=       -0.000000001289 Rises=F Damp=F
 DIIS: error= 2.34D-07 at cycle  11 NSaved=  11.
 NSaved=11 IEnMin=11 EnMin= -797.462186800844     IErMin=11 ErrMin= 2.34D-07
 ErrMax= 2.34D-07  0.00D+00 EMaxC= 1.00D-01 BMatC= 2.14D-11 BMatP= 2.51D-10
 IDIUse=1 WtCom= 1.00D+00 WtEn= 0.00D+00
 Coeff-Com:  0.771D-05-0.141D-04 0.186D-04-0.198D-03-0.257D-02 0.873D-02
 Coeff-Com:  0.417D-01-0.196D-01-0.196D+00 0.187D+00 0.981D+00
 Coeff:      0.771D-05-0.141D-04 0.186D-04-0.198D-03-0.257D-02 0.873D-02
 Coeff:      0.417D-01-0.196D-01-0.196D+00 0.187D+00 0.981D+00
 Gap=     0.164 Goal=   None    Shift=    0.000
 Gap=     0.164 Goal=   None    Shift=    0.000
 RMSDP=2.78D-07 MaxDP=3.83D-06 DE=-1.29D-09 OVMax= 1.97D-05

 Cycle  12  Pass 1  IDiag  1:
 E= -797.462186800894     Delta-E=       -0.000000000051 Rises=F Damp=F
 DIIS: error= 1.78D-08 at cycle  12 NSaved=  12.
 NSaved=12 IEnMin=12 EnMin= -797.462186800894     IErMin=12 ErrMin= 1.78D-08
 ErrMax= 1.78D-08  0.00D+00 EMaxC= 1.00D-01 BMatC= 1.01D-13 BMatP= 2.14D-11
 IDIUse=1 WtCom= 1.00D+00 WtEn= 0.00D+00
 Coeff-Com: -0.103D-06-0.326D-06 0.509D-04 0.652D-04-0.601D-03-0.652D-03
 Coeff-Com:  0.608D-03 0.312D-02 0.127D-01-0.347D-01-0.933D-01 0.111D+01
 Coeff:     -0.103D-06-0.326D-06 0.509D-04 0.652D-04-0.601D-03-0.652D-03
 Coeff:      0.608D-03 0.312D-02 0.127D-01-0.347D-01-0.933D-01 0.111D+01
 Gap=     0.164 Goal=   None    Shift=    0.000
 Gap=     0.164 Goal=   None    Shift=    0.000
 RMSDP=1.38D-08 MaxDP=1.56D-07 DE=-5.07D-11 OVMax= 7.52D-07

 Cycle  13  Pass 1  IDiag  1:
 E= -797.462186800895     Delta-E=       -0.000000000000 Rises=F Damp=F
 DIIS: error= 3.55D-09 at cycle  13 NSaved=  13.
 NSaved=13 IEnMin=13 EnMin= -797.462186800895     IErMin=13 ErrMin= 3.55D-09
 ErrMax= 3.55D-09  0.00D+00 EMaxC= 1.00D-01 BMatC= 3.21D-15 BMatP= 1.01D-13
 IDIUse=1 WtCom= 1.00D+00 WtEn= 0.00D+00
 Coeff-Com: -0.251D-06 0.428D-06 0.472D-05 0.901D-05 0.108D-04-0.280D-03
 Coeff-Com: -0.805D-03 0.778D-03 0.562D-02-0.740D-02-0.297D-01 0.137D+00
 Coeff-Com:  0.895D+00
 Coeff:     -0.251D-06 0.428D-06 0.472D-05 0.901D-05 0.108D-04-0.280D-03
 Coeff:     -0.805D-03 0.778D-03 0.562D-02-0.740D-02-0.297D-01 0.137D+00
 Coeff:      0.895D+00
 Gap=     0.164 Goal=   None    Shift=    0.000
 Gap=     0.164 Goal=   None    Shift=    0.000
 RMSDP=1.60D-09 MaxDP=1.79D-08 DE=-4.55D-13 OVMax= 9.31D-08

 SCF Done:  E(UM062X) =  -797.462186801     A.U. after   13 cycles
            NFock= 13  Conv=0.16D-08     -V/T= 2.0015
 <Sx>= 0.0000 <Sy>= 0.0000 <Sz>= 0.0000 <S**2>= 0.0000 S= 0.0000
 <L.S>=  0.00000000000    
 KE= 7.962695789506D+02 PE=-2.019234929809D+03 EE= 3.640891454760D+02
 Annihilation of the first spin contaminant:
 S**2 before annihilation     0.0000,   after     0.0000
 Leave Link  502 at Mon Apr 21 21:15:22 2025, MaxMem=   536870912 cpu:              58.6 elap:               7.7
 (Enter /home/szhao/Apps/g16/l601.exe)
 Copying SCF densities to generalized density rwf, IOpCl= 1 IROHF=0.

 **********************************************************************

            Population analysis using the SCF density.

 **********************************************************************

 Alpha  occ. eigenvalues --  -89.94652 -89.94652  -8.30793  -8.30793  -6.22953
 Alpha  occ. eigenvalues --   -6.22953  -6.22682  -6.22682  -6.22130  -6.22130
 Alpha  occ. eigenvalues --   -0.82368  -0.80323  -0.47812  -0.46889  -0.35022
 Alpha  occ. eigenvalues --   -0.33228  -0.33218
 Alpha virt. eigenvalues --   -0.16861   0.01976   0.03049   0.04907   0.05033
 Alpha virt. eigenvalues --    0.06489   0.07057   0.07348   0.07869   0.10874
 Alpha virt. eigenvalues --    0.13463   0.30154   0.31002   0.32504   0.36569
 Alpha virt. eigenvalues --    0.36708   0.38773   0.40560   0.41411   0.55891
 Alpha virt. eigenvalues --    0.68696   0.72934   0.73890   0.74114   0.74312
 Alpha virt. eigenvalues --    0.81894   0.81979   0.82218   0.88818   1.00018
 Alpha virt. eigenvalues --    1.00325   1.47870   1.47898   1.48011   1.48270
 Alpha virt. eigenvalues --    1.65205   1.66944   1.67133   1.68993   1.68998
 Alpha virt. eigenvalues --    1.72895   2.10528   2.11902   2.54309   2.58004
 Alpha virt. eigenvalues --    7.82748   7.91390  17.43772  17.44069  17.44083
 Alpha virt. eigenvalues --   17.46796  17.48726  17.49025 189.08144 189.19048
  Beta  occ. eigenvalues --  -89.94652 -89.94652  -8.30793  -8.30793  -6.22953
  Beta  occ. eigenvalues --   -6.22953  -6.22682  -6.22682  -6.22130  -6.22130
  Beta  occ. eigenvalues --   -0.82368  -0.80323  -0.47812  -0.46889  -0.35022
  Beta  occ. eigenvalues --   -0.33228  -0.33218
  Beta virt. eigenvalues --   -0.16861   0.01976   0.03049   0.04907   0.05033
  Beta virt. eigenvalues --    0.06489   0.07057   0.07348   0.07869   0.10874
  Beta virt. eigenvalues --    0.13463   0.30154   0.31002   0.32504   0.36569
  Beta virt. eigenvalues --    0.36708   0.38773   0.40560   0.41411   0.55891
  Beta virt. eigenvalues --    0.68696   0.72934   0.73890   0.74114   0.74312
  Beta virt. eigenvalues --    0.81894   0.81979   0.82218   0.88818   1.00018
  Beta virt. eigenvalues --    1.00325   1.47870   1.47898   1.48011   1.48270
  Beta virt. eigenvalues --    1.65205   1.66944   1.67133   1.68993   1.68998
  Beta virt. eigenvalues --    1.72895   2.10528   2.11902   2.54309   2.58004
  Beta virt. eigenvalues --    7.82748   7.91390  17.43772  17.44069  17.44083
  Beta virt. eigenvalues --   17.46796  17.48726  17.49025 189.08144 189.19048
          Condensed to atoms (all electrons):
               1          2          3          4
     1  S   15.679165   0.155142   0.249375   0.000829
     2  S    0.155142  15.679165   0.000830   0.249373
     3  H    0.249375   0.000830   0.665466  -0.000180
     4  H    0.000829   0.249373  -0.000180   0.665466
          Atomic-Atomic Spin Densities.
               1          2          3          4
     1  S   -0.000000  -0.000000   0.000000   0.000000
     2  S   -0.000000   0.000000   0.000000  -0.000000
     3  H    0.000000   0.000000  -0.000000  -0.000000
     4  H    0.000000  -0.000000  -0.000000  -0.000000
 Mulliken charges and spin densities:
               1          2
     1  S   -0.084511  -0.000000
     2  S   -0.084509   0.000000
     3  H    0.084509  -0.000000
     4  H    0.084511  -0.000000
 Sum of Mulliken charges =   0.00000   0.00000
 Mulliken charges and spin densities with hydrogens summed into heavy atoms:
               1          2
     1  S   -0.000003  -0.000000
     2  S    0.000003   0.000000
 Electronic spatial extent (au):  <R**2>=            365.8707
 Charge=              0.0000 electrons
 Dipole moment (field-independent basis, Debye):
    X=              0.0001    Y=             -1.0231    Z=              1.0451  Tot=              1.4625
 Quadrupole moment (field-independent basis, Debye-Ang):
   XX=            -24.2485   YY=            -28.0633   ZZ=            -28.0673
   XY=              2.3037   XZ=              2.2553   YZ=              0.0937
 Traceless Quadrupole moment (field-independent basis, Debye-Ang):
   XX=              2.5445   YY=             -1.2703   ZZ=             -1.2743
   XY=              2.3037   XZ=              2.2553   YZ=              0.0937
 Octapole moment (field-independent basis, Debye-Ang**2):
  XXX=              0.0005  YYY=              0.8738  ZZZ=             -0.9281  XYY=             -6.4182
  XXY=             -2.8074  XXZ=              2.8671  XZZ=              6.4184  YZZ=              0.8536
  YYZ=             -0.8369  XYZ=              0.1369
 Hexadecapole moment (field-independent basis, Debye-Ang**3):
 XXXX=           -398.7002 YYYY=            -45.6911 ZZZZ=            -45.6968 XXXY=              4.2792
 XXXZ=              4.1911 YYYX=             -0.6412 YYYZ=              0.0264 ZZZX=             -0.5657
 ZZZY=              0.1045 XXYY=            -79.7769 XXZZ=            -79.7872 YYZZ=            -16.4519
 XXYZ=              0.2387 YYXZ=             -1.1913 ZZXY=             -1.1543
 N-N= 6.141401858114D+01 E-N=-2.019234929722D+03  KE= 7.962695789506D+02
                          Isotropic Fermi Contact Couplings
        Atom                 a.u.       MegaHertz       Gauss      10(-4) cm-1
     1  S(33)             -0.00000      -0.00000      -0.00000      -0.00000
     2  S(33)             -0.00000      -0.00000      -0.00000      -0.00000
     3  H(1)              -0.00000      -0.00000      -0.00000      -0.00000
     4  H(1)              -0.00000      -0.00000      -0.00000      -0.00000
 --------------------------------------------------------
       Center         ----  Spin Dipole Couplings  ----
                      3XX-RR        3YY-RR        3ZZ-RR
 --------------------------------------------------------
     1   Atom        0.000000      0.000000      0.000000
     2   Atom        0.000000      0.000000      0.000000
     3   Atom        0.000000      0.000000      0.000000
     4   Atom        0.000000      0.000000      0.000000
 --------------------------------------------------------
                        XY            XZ            YZ
 --------------------------------------------------------
     1   Atom        0.000000      0.000000      0.000000
     2   Atom        0.000000      0.000000      0.000000
     3   Atom        0.000000      0.000000      0.000000
     4   Atom        0.000000      0.000000      0.000000
 --------------------------------------------------------


 ---------------------------------------------------------------------------------
              Anisotropic Spin Dipole Couplings in Principal Axis System
 ---------------------------------------------------------------------------------

       Atom             a.u.   MegaHertz   Gauss  10(-4) cm-1        Axes

              Baa     0.0000     0.000     0.000     0.000  1.0000  0.0000  0.0000
     1 S(33)  Bbb     0.0000     0.000     0.000     0.000 -0.0000  1.0000  0.0000
              Bcc     0.0000     0.000     0.000     0.000  0.0000  0.0000  1.0000
 
              Baa     0.0000     0.000     0.000     0.000  1.0000  0.0000  0.0000
     2 S(33)  Bbb     0.0000     0.000     0.000     0.000 -0.0000  1.0000  0.0000
              Bcc     0.0000     0.000     0.000     0.000  0.0000  0.0000  1.0000
 
              Baa     0.0000     0.000     0.000     0.000  1.0000  0.0000  0.0000
     3 H(1)   Bbb     0.0000     0.000     0.000     0.000 -0.0000  1.0000  0.0000
              Bcc     0.0000     0.000     0.000     0.000  0.0000  0.0000  1.0000
 
              Baa     0.0000     0.000     0.000     0.000  1.0000  0.0000  0.0000
     4 H(1)   Bbb     0.0000     0.000     0.000     0.000 -0.0000  1.0000  0.0000
              Bcc     0.0000     0.000     0.000     0.000  0.0000  0.0000  1.0000
 

 ---------------------------------------------------------------------------------

 No NMR shielding tensors so no spin-rotation constants.
 Leave Link  601 at Mon Apr 21 21:15:22 2025, MaxMem=   536870912 cpu:               1.3 elap:               0.2
 (Enter /home/szhao/Apps/g16/l701.exe)
 ... and contract with generalized density number  0.
 Compute integral first derivatives.
 Leave Link  701 at Mon Apr 21 21:15:23 2025, MaxMem=   536870912 cpu:               0.9 elap:               0.2
 (Enter /home/szhao/Apps/g16/l702.exe)
 L702 exits ... SP integral derivatives will be done elsewhere.
 Leave Link  702 at Mon Apr 21 21:15:23 2025, MaxMem=   536870912 cpu:               0.5 elap:               0.1
 (Enter /home/szhao/Apps/g16/l703.exe)
 Integral derivatives from FoFJK, PRISM(SPDF).
 Compute integral first derivatives, UseDBF=F ICtDFT=           0.
 Calling FoFJK, ICntrl=      2127 FMM=F ISym2X=0 I1Cent= 0 IOpClX= 1 NMat=1 NMatS=1 NMatT=0.
 FoFJK:  IHMeth= 1 ICntrl=    2127 DoSepK=F KAlg= 0 I1Cent=           0 FoldK=F
 IRaf=         0 NMat=       1 IRICut=       1 DoRegI=T DoRafI=F ISym2E= 0 IDoP0=0 IntGTp=1.
 FoFCou: FMM=F IPFlag=           0 FMFlag=      100000 FMFlg1=         800
         NFxFlg=           0 DoJE=F BraDBF=F KetDBF=F FulRan=T
         wScrn=  0.000000 ICntrl=      2127 IOpCl=  1 I1Cent=           0 NGrid=           0
         NMat0=    1 NMatS0=      1 NMatT0=    0 NMatD0=    1 NMtDS0=    0 NMtDT0=    0
 Symmetry not used in FoFCou.
 Leave Link  703 at Mon Apr 21 21:15:24 2025, MaxMem=   536870912 cpu:               6.1 elap:               0.8
 (Enter /home/szhao/Apps/g16/l716.exe)
 Dipole        = 2.27939773D-05-4.02519206D-01 4.11173894D-01
 -------------------------------------------------------------------
 Center     Atomic                   Forces (Hartrees/Bohr)
 Number     Number              X              Y              Z
 -------------------------------------------------------------------
      1       16          -0.000000000   -0.000000000   -0.000000000
      2       16          -0.000000000   -0.000000000   -0.000000000
      3        1           0.004528703   -0.001334062    0.000056317
      4        1          -0.004538011   -0.000085821    0.001363949
 -------------------------------------------------------------------
 Cartesian Forces:  Max     0.004538011 RMS     0.001931176
 Leave Link  716 at Mon Apr 21 21:15:25 2025, MaxMem=   536870912 cpu:               1.0 elap:               0.3
 (Enter /home/szhao/Apps/g16/l103.exe)

 GradGradGradGradGradGradGradGradGradGradGradGradGradGradGradGradGradGrad
 Berny optimization.
 FormGI is forming the generalized inverse of G from B-inverse, IUseBI=4.
 Internal  Forces:  Max     0.011897433 RMS     0.005684912
 Search for a local minimum.
 Step number   1 out of a maximum of   21
 All quantities printed in internal units (Hartrees-Bohrs-Radians)
 RMS Force = .75284D-02 SwitMx=.10000D-02 MixMth= 1
 Mixed Optimization -- RFO/linear search
 Second derivative matrix not updated -- first step.
 The second derivative matrix:
                          X1        Y1        Z1        X2        Y2
           X1           0.50000
           Y1           0.00000   0.50000
           Z1           0.00000   0.00000   0.50000
           X2           0.00000   0.00000   0.00000   0.50000
           Y2           0.00000   0.00000   0.00000   0.00000   0.50000
           Z2           0.00000   0.00000   0.00000   0.00000   0.00000
           R1           0.00000   0.00000   0.00000   0.00000   0.00000
           R2           0.00000   0.00000   0.00000   0.00000   0.00000
           A1           0.00000   0.00000   0.00000   0.00000   0.00000
           A2           0.00000   0.00000   0.00000   0.00000   0.00000
           D1           0.00000   0.00000   0.00000   0.00000   0.00000
                          Z2        R1        R2        A1        A2
           Z2           0.50000
           R1           0.00000   0.26038
           R2           0.00000   0.00000   0.26038
           A1           0.00000   0.00000   0.00000   0.16000
           A2           0.00000   0.00000   0.00000   0.00000   0.16000
           D1           0.00000   0.00000   0.00000   0.00000   0.00000
                          D1
           D1           0.00230
 ITU=  0
     Eigenvalues ---    0.00230   0.16000   0.16000   0.26038   0.26038
     Eigenvalues --- 1000.000001000.000001000.000001000.000001000.00000
     Eigenvalues --- 1000.00000
 RFO step:  Lambda=-1.76060515D-03 EMin= 2.30000000D-03
 Linear search not attempted -- first point.
 Iteration  1 RMS(Cart)=  0.08391738 RMS(Int)=  0.00326028
 Iteration  2 RMS(Cart)=  0.00337627 RMS(Int)=  0.00000135
 Iteration  3 RMS(Cart)=  0.00000288 RMS(Int)=  0.00000000
 Iteration  4 RMS(Cart)=  0.00000000 RMS(Int)=  0.00000000
 ITry= 1 IFail=0 DXMaxC= 1.86D-01 DCOld= 1.00D+10 DXMaxT= 3.00D-01 DXLimC= 3.00D+00 Rises=F
 Variable       Old X    -DE/DX   Delta X   Delta X   Delta X     New X
                                 (Linear)    (Quad)   (Total)
    X1       -2.91621   0.00453   0.00000   0.00000   0.00000  -2.91621
    Y1        0.00000  -0.00341   0.00000   0.00000   0.00000   0.00000
    Z1        0.00000  -0.00195   0.00000   0.00000   0.00000   0.00000
    X2        2.91621  -0.00454   0.00000   0.00000   0.00000   2.91621
    Y2        0.00000   0.00202   0.00000   0.00000   0.00000   0.00000
    Z2        0.00000   0.00340   0.00000   0.00000   0.00000   0.00000
    R1        2.54139   0.00070   0.00000   0.00268   0.00268   2.54408
    R2        2.54139   0.00073   0.00000   0.00278   0.00278   2.54418
    A1        1.70778  -0.01186   0.00000  -0.07335  -0.07335   1.63443
    A2        1.70778  -0.01190   0.00000  -0.07355  -0.07355   1.63423
    D1       -1.59212   0.00022   0.00000   0.05307   0.05307  -1.53905
         Item               Value     Threshold  Converged?
 Maximum Force            0.011897     0.000450     NO 
 RMS     Force            0.007528     0.000300     NO 
 Maximum Displacement     0.185763     0.001800     NO 
 RMS     Displacement     0.084610     0.001200     NO 
 Predicted change in Energy=-8.922903D-04
 Lowest energy point so far.  Saving SCF results.
 GradGradGradGradGradGradGradGradGradGradGradGradGradGradGradGradGradGrad

 Leave Link  103 at Mon Apr 21 21:15:25 2025, MaxMem=   536870912 cpu:               1.1 elap:               0.3
 (Enter /home/szhao/Apps/g16/l202.exe)
                          Input orientation:                          
 ---------------------------------------------------------------------
 Center     Atomic      Atomic             Coordinates (Angstroms)
 Number     Number       Type             X           Y           Z
 ---------------------------------------------------------------------
      1         16           0       -1.543191    0.000000    0.000000
      2         16           0        1.543191    0.000000    0.000000
      3          1           0       -1.628803   -1.343051    0.036322
      4          1           0        1.628532   -0.006330    1.343597
 ---------------------------------------------------------------------
                    Distance matrix (angstroms):
                    1          2          3          4
     1  S    0.000000
     2  S    3.086383   0.000000
     3  H    1.346267   3.444801   0.000000
     4  H    3.444579   1.346320   3.755799   0.000000
 Symmetry turned off by external request.
 Stoichiometry    H2S2
 Framework group  C1[X(H2S2)]
 Deg. of freedom     6
 Full point group                 C1      NOp   1
 Rotational constants (GHZ):         143.5374641           3.1707608           3.1684042
 Leave Link  202 at Mon Apr 21 21:15:26 2025, MaxMem=   536870912 cpu:               0.3 elap:               0.1
 (Enter /home/szhao/Apps/g16/l301.exe)
 Standard basis: 6-311+G(d,p) (5D, 7F)
 Ernie: Thresh=  0.10000D-02 Tol=  0.10000D-05 Strict=F.
    72 basis functions,   116 primitive gaussians,    74 cartesian basis functions
    17 alpha electrons       17 beta electrons
       nuclear repulsion energy        61.5273702441 Hartrees.
 IExCor= 4336 DFT=T Ex+Corr=M062X ExCW=0 ScaHFX=  0.540000
 ScaDFX=  1.000000  1.000000  1.000000  1.000000 ScalE2=  1.000000  1.000000
 IRadAn=      7 IRanWt=     -1 IRanGd=            0 ICorTp=0 IEmpDi=  4
 NAtoms=    4 NActive=    4 NUniq=    4 SFac= 1.00D+00 NAtFMM=   60 NAOKFM=F Big=F
 Integral buffers will be    131072 words long.
 Raffenetti 2 integral format.
 Two-electron integral symmetry is turned off.
 Leave Link  301 at Mon Apr 21 21:15:26 2025, MaxMem=   536870912 cpu:               0.8 elap:               0.2
 (Enter /home/szhao/Apps/g16/l302.exe)
 NPDir=0 NMtPBC=     1 NCelOv=     1 NCel=       1 NClECP=     1 NCelD=      1
         NCelK=      1 NCelE2=     1 NClLst=     1 CellRange=     0.0.
 One-electron integrals computed using PRISM.
 NBasis=    72 RedAO= T EigKep=  7.82D-03  NBF=    72
 NBsUse=    72 1.00D-06 EigRej= -1.00D+00 NBFU=    72
 Precomputing XC quadrature grid using
 IXCGrd= 4 IRadAn=           7 IRanWt=          -1 IRanGd=           0 AccXCQ= 0.00D+00.
 Generated NRdTot=       0 NPtTot=           0 NUsed=           0 NTot=          32
 NSgBfM=    68    68    68    68    68 MxSgAt=     4 MxSgA2=     4.
 Leave Link  302 at Mon Apr 21 21:15:27 2025, MaxMem=   536870912 cpu:               1.5 elap:               0.3
 (Enter /home/szhao/Apps/g16/l303.exe)
 DipDrv:  MaxL=1.
 Leave Link  303 at Mon Apr 21 21:15:28 2025, MaxMem=   536870912 cpu:               0.5 elap:               0.4
 (Enter /home/szhao/Apps/g16/l401.exe)
 Initial guess from the checkpoint file:  "opt.chk"
 B after Tr=    -0.000015   -0.002568    0.002630
         Rot=    1.000000    0.000252    0.000535   -0.000544 Ang=   0.09 deg.
 Guess basis will be translated and rotated to current coordinates.
 JPrj=2 DoOrth=T DoCkMO=T.
 Initial guess <Sx>= 0.0000 <Sy>= 0.0000 <Sz>= 0.0000 <S**2>= 0.0000 S= 0.0000
 Generating alternative initial guess.
 ExpMin= 4.05D-02 ExpMax= 9.34D+04 ExpMxC= 3.17D+03 IAcc=3 IRadAn=         5 AccDes= 0.00D+00
 Harris functional with IExCor= 1009 and IRadAn=       5 diagonalized for initial guess.
 HarFok:  IExCor= 1009 AccDes= 0.00D+00 IRadAn=         5 IDoV= 1 UseB2=F ITyADJ=14
 ICtDFT=  3500011 ScaDFX=  1.000000  1.000000  1.000000  1.000000
 FoFCou: FMM=F IPFlag=           0 FMFlag=      100000 FMFlg1=           0
         NFxFlg=           0 DoJE=T BraDBF=F KetDBF=T FulRan=T
         wScrn=  0.000000 ICntrl=       500 IOpCl=  0 I1Cent=   200000004 NGrid=           0
         NMat0=    1 NMatS0=      1 NMatT0=    0 NMatD0=    1 NMtDS0=    0 NMtDT0=    0
 Symmetry not used in FoFCou.
 Harris En= -797.103101561021    
 Leave Link  401 at Mon Apr 21 21:15:28 2025, MaxMem=   536870912 cpu:               2.5 elap:               0.5
 (Enter /home/szhao/Apps/g16/l502.exe)
 Keep R1 and R2 ints in memory in canonical form, NReq=14118010.
 FoFCou: FMM=F IPFlag=           0 FMFlag=           0 FMFlg1=           0
         NFxFlg=           0 DoJE=F BraDBF=F KetDBF=F FulRan=T
         wScrn=  0.000000 ICntrl=       600 IOpCl=  0 I1Cent=           0 NGrid=           0
         NMat0=    1 NMatS0=   2628 NMatT0=    0 NMatD0=    1 NMtDS0=    0 NMtDT0=    0
 Symmetry not used in FoFCou.
 Two-electron integral symmetry not used.
 UHF open shell SCF:
 Using DIIS extrapolation, IDIIS=  1040.
 NGot=   536870912 LenX=   529949706 LenY=   529943789
 Requested convergence on RMS density matrix=1.00D-08 within 128 cycles.
 Requested convergence on MAX density matrix=1.00D-06.
 Requested convergence on             energy=1.00D-06.
 No special actions if energy rises.

 Cycle   1  Pass 1  IDiag  1:
 E= -797.462143384665    
 DIIS: error= 3.72D-03 at cycle   1 NSaved=   1.
 NSaved= 1 IEnMin= 1 EnMin= -797.462143384665     IErMin= 1 ErrMin= 3.72D-03
 ErrMax= 3.72D-03  0.00D+00 EMaxC= 1.00D-01 BMatC= 2.26D-03 BMatP= 2.26D-03
 IDIUse=3 WtCom= 9.63D-01 WtEn= 3.72D-02
 Coeff-Com:  0.100D+01
 Coeff-En:   0.100D+01
 Coeff:      0.100D+01
 Gap=     0.483 Goal=   None    Shift=    0.000
 Gap=     0.483 Goal=   None    Shift=    0.000
 GapD=    0.483 DampG=2.000 DampE=1.000 DampFc=2.0000 IDamp=-1.
 RMSDP=4.99D-04 MaxDP=5.33D-03              OVMax= 2.00D-02

 Cycle   2  Pass 1  IDiag  1:
 E= -797.463420467132     Delta-E=       -0.001277082467 Rises=F Damp=F
 DIIS: error= 5.08D-04 at cycle   2 NSaved=   2.
 NSaved= 2 IEnMin= 2 EnMin= -797.463420467132     IErMin= 2 ErrMin= 5.08D-04
 ErrMax= 5.08D-04  0.00D+00 EMaxC= 1.00D-01 BMatC= 1.05D-04 BMatP= 2.26D-03
 IDIUse=3 WtCom= 9.95D-01 WtEn= 5.08D-03
 Coeff-Com: -0.149D+00 0.115D+01
 Coeff-En:   0.000D+00 0.100D+01
 Coeff:     -0.149D+00 0.115D+01
 Gap=     0.164 Goal=   None    Shift=    0.000
 Gap=     0.164 Goal=   None    Shift=    0.000
 RMSDP=1.79D-04 MaxDP=2.10D-03 DE=-1.28D-03 OVMax= 8.87D-03

 Cycle   3  Pass 1  IDiag  1:
 E= -797.463538569342     Delta-E=       -0.000118102210 Rises=F Damp=F
 DIIS: error= 1.16D-04 at cycle   3 NSaved=   3.
 NSaved= 3 IEnMin= 3 EnMin= -797.463538569342     IErMin= 3 ErrMin= 1.16D-04
 ErrMax= 1.16D-04  0.00D+00 EMaxC= 1.00D-01 BMatC= 7.32D-06 BMatP= 1.05D-04
 IDIUse=3 WtCom= 9.99D-01 WtEn= 1.16D-03
 Coeff-Com: -0.204D-01 0.661D-02 0.101D+01
 Coeff-En:   0.000D+00 0.000D+00 0.100D+01
 Coeff:     -0.203D-01 0.660D-02 0.101D+01
 Gap=     0.164 Goal=   None    Shift=    0.000
 Gap=     0.164 Goal=   None    Shift=    0.000
 RMSDP=6.73D-05 MaxDP=6.30D-04 DE=-1.18D-04 OVMax= 3.04D-03

 Cycle   4  Pass 1  IDiag  1:
 E= -797.463550517654     Delta-E=       -0.000011948312 Rises=F Damp=F
 DIIS: error= 8.47D-05 at cycle   4 NSaved=   4.
 NSaved= 4 IEnMin= 4 EnMin= -797.463550517654     IErMin= 4 ErrMin= 8.47D-05
 ErrMax= 8.47D-05  0.00D+00 EMaxC= 1.00D-01 BMatC= 2.75D-06 BMatP= 7.32D-06
 IDIUse=1 WtCom= 1.00D+00 WtEn= 0.00D+00
 Coeff-Com:  0.159D-01-0.178D+00 0.246D+00 0.916D+00
 Coeff:      0.159D-01-0.178D+00 0.246D+00 0.916D+00
 Gap=     0.164 Goal=   None    Shift=    0.000
 Gap=     0.164 Goal=   None    Shift=    0.000
 RMSDP=3.40D-05 MaxDP=3.74D-04 DE=-1.19D-05 OVMax= 1.97D-03

 Cycle   5  Pass 1  IDiag  1:
 E= -797.463553694840     Delta-E=       -0.000003177186 Rises=F Damp=F
 DIIS: error= 3.15D-05 at cycle   5 NSaved=   5.
 NSaved= 5 IEnMin= 5 EnMin= -797.463553694840     IErMin= 5 ErrMin= 3.15D-05
 ErrMax= 3.15D-05  0.00D+00 EMaxC= 1.00D-01 BMatC= 2.38D-07 BMatP= 2.75D-06
 IDIUse=1 WtCom= 1.00D+00 WtEn= 0.00D+00
 Coeff-Com: -0.148D-02 0.355D-01-0.130D+00-0.197D+00 0.129D+01
 Coeff:     -0.148D-02 0.355D-01-0.130D+00-0.197D+00 0.129D+01
 Gap=     0.164 Goal=   None    Shift=    0.000
 Gap=     0.164 Goal=   None    Shift=    0.000
 RMSDP=2.30D-05 MaxDP=3.08D-04 DE=-3.18D-06 OVMax= 1.62D-03

 Cycle   6  Pass 1  IDiag  1:
 E= -797.463554714761     Delta-E=       -0.000001019921 Rises=F Damp=F
 DIIS: error= 1.64D-05 at cycle   6 NSaved=   6.
 NSaved= 6 IEnMin= 6 EnMin= -797.463554714761     IErMin= 6 ErrMin= 1.64D-05
 ErrMax= 1.64D-05  0.00D+00 EMaxC= 1.00D-01 BMatC= 9.55D-08 BMatP= 2.38D-07
 IDIUse=1 WtCom= 1.00D+00 WtEn= 0.00D+00
 Coeff-Com: -0.434D-02 0.501D-01-0.775D-01-0.227D+00 0.917D-01 0.117D+01
 Coeff:     -0.434D-02 0.501D-01-0.775D-01-0.227D+00 0.917D-01 0.117D+01
 Gap=     0.164 Goal=   None    Shift=    0.000
 Gap=     0.164 Goal=   None    Shift=    0.000
 RMSDP=1.59D-05 MaxDP=2.19D-04 DE=-1.02D-06 OVMax= 1.15D-03

 Cycle   7  Pass 1  IDiag  1:
 E= -797.463555098147     Delta-E=       -0.000000383387 Rises=F Damp=F
 DIIS: error= 7.94D-06 at cycle   7 NSaved=   7.
 NSaved= 7 IEnMin= 7 EnMin= -797.463555098147     IErMin= 7 ErrMin= 7.94D-06
 ErrMax= 7.94D-06  0.00D+00 EMaxC= 1.00D-01 BMatC= 5.07D-08 BMatP= 9.55D-08
 IDIUse=1 WtCom= 1.00D+00 WtEn= 0.00D+00
 Coeff-Com: -0.228D-02 0.215D-01-0.174D-01-0.812D-01-0.287D+00 0.645D+00
 Coeff-Com:  0.721D+00
 Coeff:     -0.228D-02 0.215D-01-0.174D-01-0.812D-01-0.287D+00 0.645D+00
 Coeff:      0.721D+00
 Gap=     0.164 Goal=   None    Shift=    0.000
 Gap=     0.164 Goal=   None    Shift=    0.000
 RMSDP=8.29D-06 MaxDP=1.10D-04 DE=-3.83D-07 OVMax= 5.75D-04

 Cycle   8  Pass 1  IDiag  1:
 E= -797.463555197190     Delta-E=       -0.000000099043 Rises=F Damp=F
 DIIS: error= 7.28D-06 at cycle   8 NSaved=   8.
 NSaved= 8 IEnMin= 8 EnMin= -797.463555197190     IErMin= 8 ErrMin= 7.28D-06
 ErrMax= 7.28D-06  0.00D+00 EMaxC= 1.00D-01 BMatC= 3.17D-08 BMatP= 5.07D-08
 IDIUse=1 WtCom= 1.00D+00 WtEn= 0.00D+00
 Coeff-Com:  0.865D-03-0.140D-01 0.317D-01 0.810D-01-0.289D+00-0.232D+00
 Coeff-Com:  0.645D+00 0.777D+00
 Coeff:      0.865D-03-0.140D-01 0.317D-01 0.810D-01-0.289D+00-0.232D+00
 Coeff:      0.645D+00 0.777D+00
 Gap=     0.164 Goal=   None    Shift=    0.000
 Gap=     0.164 Goal=   None    Shift=    0.000
 RMSDP=6.89D-06 MaxDP=9.45D-05 DE=-9.90D-08 OVMax= 4.90D-04

 Cycle   9  Pass 1  IDiag  1:
 E= -797.463555237652     Delta-E=       -0.000000040462 Rises=F Damp=F
 DIIS: error= 8.52D-07 at cycle   9 NSaved=   9.
 NSaved= 9 IEnMin= 9 EnMin= -797.463555237652     IErMin= 9 ErrMin= 8.52D-07
 ErrMax= 8.52D-07  0.00D+00 EMaxC= 1.00D-01 BMatC= 3.76D-10 BMatP= 3.17D-08
 IDIUse=1 WtCom= 1.00D+00 WtEn= 0.00D+00
 Coeff-Com:  0.359D-03-0.471D-02 0.903D-02 0.248D-01-0.415D-01-0.853D-01
 Coeff-Com:  0.709D-01 0.145D+00 0.882D+00
 Coeff:      0.359D-03-0.471D-02 0.903D-02 0.248D-01-0.415D-01-0.853D-01
 Coeff:      0.709D-01 0.145D+00 0.882D+00
 Gap=     0.164 Goal=   None    Shift=    0.000
 Gap=     0.164 Goal=   None    Shift=    0.000
 RMSDP=6.40D-07 MaxDP=7.72D-06 DE=-4.05D-08 OVMax= 4.04D-05

 Cycle  10  Pass 1  IDiag  1:
 E= -797.463555238103     Delta-E=       -0.000000000451 Rises=F Damp=F
 DIIS: error= 1.65D-07 at cycle  10 NSaved=  10.
 NSaved=10 IEnMin=10 EnMin= -797.463555238103     IErMin=10 ErrMin= 1.65D-07
 ErrMax= 1.65D-07  0.00D+00 EMaxC= 1.00D-01 BMatC= 1.91D-11 BMatP= 3.76D-10
 IDIUse=1 WtCom= 1.00D+00 WtEn= 0.00D+00
 Coeff-Com: -0.293D-04 0.601D-03-0.147D-02-0.445D-02 0.172D-01 0.141D-01
 Coeff-Com: -0.476D-01-0.547D-01 0.585D-01 0.102D+01
 Coeff:     -0.293D-04 0.601D-03-0.147D-02-0.445D-02 0.172D-01 0.141D-01
 Coeff:     -0.476D-01-0.547D-01 0.585D-01 0.102D+01
 Gap=     0.164 Goal=   None    Shift=    0.000
 Gap=     0.164 Goal=   None    Shift=    0.000
 RMSDP=2.03D-07 MaxDP=2.30D-06 DE=-4.51D-10 OVMax= 1.21D-05

 Cycle  11  Pass 1  IDiag  1:
 E= -797.463555238131     Delta-E=       -0.000000000027 Rises=F Damp=F
 DIIS: error= 2.37D-08 at cycle  11 NSaved=  11.
 NSaved=11 IEnMin=11 EnMin= -797.463555238131     IErMin=11 ErrMin= 2.37D-08
 ErrMax= 2.37D-08  0.00D+00 EMaxC= 1.00D-01 BMatC= 3.32D-13 BMatP= 1.91D-11
 IDIUse=1 WtCom= 1.00D+00 WtEn= 0.00D+00
 Coeff-Com: -0.285D-05 0.146D-04-0.144D-04 0.496D-04-0.170D-02 0.824D-03
 Coeff-Com:  0.499D-02 0.341D-02-0.362D-01-0.930D-01 0.112D+01
 Coeff:     -0.285D-05 0.146D-04-0.144D-04 0.496D-04-0.170D-02 0.824D-03
 Coeff:      0.499D-02 0.341D-02-0.362D-01-0.930D-01 0.112D+01
 Gap=     0.164 Goal=   None    Shift=    0.000
 Gap=     0.164 Goal=   None    Shift=    0.000
 RMSDP=1.94D-08 MaxDP=3.36D-07 DE=-2.73D-11 OVMax= 3.93D-07

 Cycle  12  Pass 1  IDiag  1:
 E= -797.463555238131     Delta-E=       -0.000000000001 Rises=F Damp=F
 DIIS: error= 5.11D-09 at cycle  12 NSaved=  12.
 NSaved=12 IEnMin=12 EnMin= -797.463555238131     IErMin=12 ErrMin= 5.11D-09
 ErrMax= 5.11D-09  0.00D+00 EMaxC= 1.00D-01 BMatC= 1.04D-14 BMatP= 3.32D-13
 IDIUse=1 WtCom= 1.00D+00 WtEn= 0.00D+00
 Coeff-Com:  0.101D-05-0.140D-04 0.333D-04 0.857D-04-0.208D-03-0.778D-04
 Coeff-Com:  0.540D-04 0.249D-03 0.371D-02-0.266D-02-0.181D+00 0.118D+01
 Coeff:      0.101D-05-0.140D-04 0.333D-04 0.857D-04-0.208D-03-0.778D-04
 Coeff:      0.540D-04 0.249D-03 0.371D-02-0.266D-02-0.181D+00 0.118D+01
 Gap=     0.164 Goal=   None    Shift=    0.000
 Gap=     0.164 Goal=   None    Shift=    0.000
 RMSDP=3.39D-09 MaxDP=5.49D-08 DE=-5.68D-13 OVMax= 7.97D-08

 SCF Done:  E(UM062X) =  -797.463555238     A.U. after   12 cycles
            NFock= 12  Conv=0.34D-08     -V/T= 2.0015
 <Sx>= 0.0000 <Sy>= 0.0000 <Sz>= 0.0000 <S**2>=-0.0000 S=-0.0000
 <L.S>=  0.00000000000    
 KE= 7.962644569613D+02 PE=-2.019449419181D+03 EE= 3.641940367370D+02
 Annihilation of the first spin contaminant:
 S**2 before annihilation    -0.0000,   after     0.0000
 Leave Link  502 at Mon Apr 21 21:15:36 2025, MaxMem=   536870912 cpu:              53.9 elap:               7.1
 (Enter /home/szhao/Apps/g16/l701.exe)
 ... and contract with generalized density number  0.
 Compute integral first derivatives.
 Leave Link  701 at Mon Apr 21 21:15:36 2025, MaxMem=   536870912 cpu:               2.2 elap:               0.3
 (Enter /home/szhao/Apps/g16/l702.exe)
 L702 exits ... SP integral derivatives will be done elsewhere.
 Leave Link  702 at Mon Apr 21 21:15:37 2025, MaxMem=   536870912 cpu:               0.3 elap:               0.1
 (Enter /home/szhao/Apps/g16/l703.exe)
 Integral derivatives from FoFJK, PRISM(SPDF).
 Compute integral first derivatives, UseDBF=F ICtDFT=           0.
 Calling FoFJK, ICntrl=      2127 FMM=F ISym2X=0 I1Cent= 0 IOpClX= 1 NMat=1 NMatS=1 NMatT=0.
 FoFJK:  IHMeth= 1 ICntrl=    2127 DoSepK=F KAlg= 0 I1Cent=           0 FoldK=F
 IRaf=         0 NMat=       1 IRICut=       1 DoRegI=T DoRafI=F ISym2E= 0 IDoP0=0 IntGTp=1.
 FoFCou: FMM=F IPFlag=           0 FMFlag=      100000 FMFlg1=         800
         NFxFlg=           0 DoJE=F BraDBF=F KetDBF=F FulRan=T
         wScrn=  0.000000 ICntrl=      2127 IOpCl=  1 I1Cent=           0 NGrid=           0
         NMat0=    1 NMatS0=      1 NMatT0=    0 NMatD0=    1 NMtDS0=    0 NMtDT0=    0
 Symmetry not used in FoFCou.
 Leave Link  703 at Mon Apr 21 21:15:38 2025, MaxMem=   536870912 cpu:               6.5 elap:               0.8
 (Enter /home/szhao/Apps/g16/l716.exe)
 Dipole        =-1.10406142D-04-4.18505576D-01 4.27983957D-01
 -------------------------------------------------------------------
 Center     Atomic                   Forces (Hartrees/Bohr)
 Number     Number              X              Y              Z
 -------------------------------------------------------------------
      1       16          -0.000000000   -0.000000000   -0.000000000
      2       16          -0.000000000   -0.000000000   -0.000000000
      3        1           0.002703326   -0.000032339   -0.000149246
      4        1          -0.002684646    0.000162864   -0.000052864
 -------------------------------------------------------------------
 Cartesian Forces:  Max     0.002703326 RMS     0.001101814
 Leave Link  716 at Mon Apr 21 21:15:38 2025, MaxMem=   536870912 cpu:               0.5 elap:               0.1
 (Enter /home/szhao/Apps/g16/l103.exe)

 GradGradGradGradGradGradGradGradGradGradGradGradGradGradGradGradGradGrad
 Berny optimization.
 Using GEDIIS/GDIIS optimizer.
 FormGI is forming the generalized inverse of G from B-inverse, IUseBI=4.
 Internal  Forces:  Max     0.006868124 RMS     0.003224295
 Search for a local minimum.
 Step number   2 out of a maximum of   21
 All quantities printed in internal units (Hartrees-Bohrs-Radians)
 RMS Force = .43300D-02 SwitMx=.10000D-02 MixMth= 1
 Mixed Optimization -- RFO/linear search
 Update second derivatives using D2CorX and points    1    2
 DE= -1.37D-03 DEPred=-8.92D-04 R= 1.53D+00
 TightC=F SS=  1.41D+00  RLast= 1.17D-01 DXNew= 5.0454D-01 3.5012D-01
 Trust test= 1.53D+00 RLast= 1.17D-01 DXMaxT set to 3.50D-01
 The second derivative matrix:
                          X1        Y1        Z1        X2        Y2
           X1           0.50428
           Y1          -0.00516   0.50621
           Z1          -0.00153   0.00185   0.50055
           X2          -0.00435   0.00523   0.00156   0.50441
           Y2           0.00160  -0.00193  -0.00057  -0.00163   0.50060
           Z2           0.00542  -0.00653  -0.00194  -0.00550   0.00203
           R1           0.00199  -0.00239  -0.00071  -0.00202   0.00074
           R2           0.00224  -0.00269  -0.00080  -0.00227   0.00084
           A1          -0.01172   0.01411   0.00420   0.01190  -0.00439
           A2          -0.01194   0.01438   0.00427   0.01212  -0.00447
           D1           0.00144  -0.00173  -0.00051  -0.00146   0.00054
                          Z2        R1        R2        A1        A2
           Z2           0.50686
           R1           0.00251   0.26102
           R2           0.00283   0.00075   0.26125
           A1          -0.01484  -0.00072  -0.00122   0.11278
           A2          -0.01511  -0.00081  -0.00132  -0.04685   0.11354
           D1           0.00182   0.00062   0.00070  -0.00311  -0.00318
                          D1
           D1           0.00277
 ITU=  1  0
 Use linear search instead of GDIIS.
     Eigenvalues ---    0.00246   0.06660   0.16001   0.26038   0.26191
     Eigenvalues --- 1000.000001000.000001000.000001000.000001000.00000
     Eigenvalues --- 1000.00000
 RFO step:  Lambda=-3.88847648D-04 EMin= 2.46163938D-03
 Quartic linear search produced a step of  1.33466.
 Iteration  1 RMS(Cart)=  0.16725431 RMS(Int)=  0.03106582
 Iteration  2 RMS(Cart)=  0.05304189 RMS(Int)=  0.00126210
 Iteration  3 RMS(Cart)=  0.00134912 RMS(Int)=  0.00000039
 Iteration  4 RMS(Cart)=  0.00000066 RMS(Int)=  0.00000000
 ITry= 1 IFail=0 DXMaxC= 3.65D-01 DCOld= 1.00D+10 DXMaxT= 3.50D-01 DXLimC= 3.00D+00 Rises=F
 Variable       Old X    -DE/DX   Delta X   Delta X   Delta X     New X
                                 (Linear)    (Quad)   (Total)
    X1       -2.91621   0.00270   0.00000   0.00000   0.00000  -2.91621
    Y1        0.00000  -0.00121   0.00000   0.00000   0.00000   0.00000
    Z1        0.00000  -0.00130   0.00000   0.00000   0.00000   0.00000
    X2        2.91621  -0.00268   0.00000   0.00000   0.00000   2.91621
    Y2        0.00000   0.00133   0.00000   0.00000   0.00000   0.00000
    Z2        0.00000   0.00109   0.00000   0.00000   0.00000   0.00000
    R1        2.54408  -0.00014   0.00358  -0.00410  -0.00052   2.54355
    R2        2.54418  -0.00022   0.00371  -0.00493  -0.00121   2.54296
    A1        1.63443  -0.00687  -0.09789  -0.02376  -0.12165   1.51278
    A2        1.63423  -0.00681  -0.09816  -0.02267  -0.12083   1.51340
    D1       -1.53905  -0.00040   0.07083  -0.35891  -0.28808  -1.82713
         Item               Value     Threshold  Converged?
 Maximum Force            0.006868     0.000450     NO 
 RMS     Force            0.004330     0.000300     NO 
 Maximum Displacement     0.365234     0.001800     NO 
 RMS     Displacement     0.203833     0.001200     NO 
 Predicted change in Energy=-9.024077D-04
 Lowest energy point so far.  Saving SCF results.
 GradGradGradGradGradGradGradGradGradGradGradGradGradGradGradGradGradGrad

 Leave Link  103 at Mon Apr 21 21:15:38 2025, MaxMem=   536870912 cpu:               1.0 elap:               0.2
 (Enter /home/szhao/Apps/g16/l202.exe)
                          Input orientation:                          
 ---------------------------------------------------------------------
 Center     Atomic      Atomic             Coordinates (Angstroms)
 Number     Number       Type             X           Y           Z
 ---------------------------------------------------------------------
      1         16           0       -1.543191    0.000000    0.000000
      2         16           0        1.543191    0.000000    0.000000
      3          1           0       -1.465145   -1.334527   -0.156951
      4          1           0        1.465992    0.186485    1.330455
 ---------------------------------------------------------------------
                    Distance matrix (angstroms):
                    1          2          3          4
     1  S    0.000000
     2  S    3.086383   0.000000
     3  H    1.345990   3.294796   0.000000
     4  H    3.295462   1.345677   3.621797   0.000000
 Symmetry turned off by external request.
 Stoichiometry    H2S2
 Framework group  C1[X(H2S2)]
 Deg. of freedom     6
 Full point group                 C1      NOp   1
 Rotational constants (GHZ):         143.0338809           3.1988231           3.1807022
 Leave Link  202 at Mon Apr 21 21:15:39 2025, MaxMem=   536870912 cpu:               0.1 elap:               0.2
 (Enter /home/szhao/Apps/g16/l301.exe)
 Standard basis: 6-311+G(d,p) (5D, 7F)
 Ernie: Thresh=  0.10000D-02 Tol=  0.10000D-05 Strict=F.
    72 basis functions,   116 primitive gaussians,    74 cartesian basis functions
    17 alpha electrons       17 beta electrons
       nuclear repulsion energy        61.7600062760 Hartrees.
 IExCor= 4336 DFT=T Ex+Corr=M062X ExCW=0 ScaHFX=  0.540000
 ScaDFX=  1.000000  1.000000  1.000000  1.000000 ScalE2=  1.000000  1.000000
 IRadAn=      7 IRanWt=     -1 IRanGd=            0 ICorTp=0 IEmpDi=  4
 NAtoms=    4 NActive=    4 NUniq=    4 SFac= 1.00D+00 NAtFMM=   60 NAOKFM=F Big=F
 Integral buffers will be    131072 words long.
 Raffenetti 2 integral format.
 Two-electron integral symmetry is turned off.
 Leave Link  301 at Mon Apr 21 21:15:39 2025, MaxMem=   536870912 cpu:               0.6 elap:               0.2
 (Enter /home/szhao/Apps/g16/l302.exe)
 NPDir=0 NMtPBC=     1 NCelOv=     1 NCel=       1 NClECP=     1 NCelD=      1
         NCelK=      1 NCelE2=     1 NClLst=     1 CellRange=     0.0.
 One-electron integrals computed using PRISM.
 NBasis=    72 RedAO= T EigKep=  7.92D-03  NBF=    72
 NBsUse=    72 1.00D-06 EigRej= -1.00D+00 NBFU=    72
 Precomputing XC quadrature grid using
 IXCGrd= 4 IRadAn=           7 IRanWt=          -1 IRanGd=           0 AccXCQ= 0.00D+00.
 Generated NRdTot=       0 NPtTot=           0 NUsed=           0 NTot=          32
 NSgBfM=    70    70    70    70    70 MxSgAt=     4 MxSgA2=     4.
 Leave Link  302 at Mon Apr 21 21:15:40 2025, MaxMem=   536870912 cpu:               3.2 elap:               0.5
 (Enter /home/szhao/Apps/g16/l303.exe)
 DipDrv:  MaxL=1.
 Leave Link  303 at Mon Apr 21 21:15:40 2025, MaxMem=   536870912 cpu:               0.7 elap:               0.2
 (Enter /home/szhao/Apps/g16/l401.exe)
 Initial guess from the checkpoint file:  "opt.chk"
 B after Tr=     0.000060    0.011198   -0.011466
         Rot=    0.999990   -0.000046    0.003047   -0.003128 Ang=  -0.50 deg.
 Guess basis will be translated and rotated to current coordinates.
 JPrj=2 DoOrth=T DoCkMO=T.
 Initial guess <Sx>= 0.0000 <Sy>= 0.0000 <Sz>= 0.0000 <S**2>=-0.0000 S=-0.0000
 Generating alternative initial guess.
 ExpMin= 4.05D-02 ExpMax= 9.34D+04 ExpMxC= 3.17D+03 IAcc=3 IRadAn=         5 AccDes= 0.00D+00
 Harris functional with IExCor= 1009 and IRadAn=       5 diagonalized for initial guess.
 HarFok:  IExCor= 1009 AccDes= 0.00D+00 IRadAn=         5 IDoV= 1 UseB2=F ITyADJ=14
 ICtDFT=  3500011 ScaDFX=  1.000000  1.000000  1.000000  1.000000
 FoFCou: FMM=F IPFlag=           0 FMFlag=      100000 FMFlg1=           0
         NFxFlg=           0 DoJE=T BraDBF=F KetDBF=T FulRan=T
         wScrn=  0.000000 ICntrl=       500 IOpCl=  0 I1Cent=   200000004 NGrid=           0
         NMat0=    1 NMatS0=      1 NMatT0=    0 NMatD0=    1 NMtDS0=    0 NMtDT0=    0
 Symmetry not used in FoFCou.
 Harris En= -797.103596913438    
 Leave Link  401 at Mon Apr 21 21:15:42 2025, MaxMem=   536870912 cpu:               4.8 elap:               1.0
 (Enter /home/szhao/Apps/g16/l502.exe)
 Keep R1 and R2 ints in memory in canonical form, NReq=14118010.
 FoFCou: FMM=F IPFlag=           0 FMFlag=           0 FMFlg1=           0
         NFxFlg=           0 DoJE=F BraDBF=F KetDBF=F FulRan=T
         wScrn=  0.000000 ICntrl=       600 IOpCl=  0 I1Cent=           0 NGrid=           0
         NMat0=    1 NMatS0=   2628 NMatT0=    0 NMatD0=    1 NMtDS0=    0 NMtDT0=    0
 Symmetry not used in FoFCou.
 Two-electron integral symmetry not used.
 UHF open shell SCF:
 Using DIIS extrapolation, IDIIS=  1040.
 NGot=   536870912 LenX=   529949706 LenY=   529943789
 Requested convergence on RMS density matrix=1.00D-08 within 128 cycles.
 Requested convergence on MAX density matrix=1.00D-06.
 Requested convergence on             energy=1.00D-06.
 No special actions if energy rises.

 Cycle   1  Pass 1  IDiag  1:
 E= -797.455032225351    
 DIIS: error= 7.31D-03 at cycle   1 NSaved=   1.
 NSaved= 1 IEnMin= 1 EnMin= -797.455032225351     IErMin= 1 ErrMin= 7.31D-03
 ErrMax= 7.31D-03  0.00D+00 EMaxC= 1.00D-01 BMatC= 1.64D-02 BMatP= 1.64D-02
 IDIUse=3 WtCom= 9.27D-01 WtEn= 7.31D-02
 Coeff-Com:  0.100D+01
 Coeff-En:   0.100D+01
 Coeff:      0.100D+01
 Gap=     0.487 Goal=   None    Shift=    0.000
 Gap=     0.487 Goal=   None    Shift=    0.000
 GapD=    0.487 DampG=2.000 DampE=1.000 DampFc=2.0000 IDamp=-1.
 RMSDP=1.46D-03 MaxDP=1.83D-02              OVMax= 3.88D-02

 Cycle   2  Pass 1  IDiag  1:
 E= -797.463582621011     Delta-E=       -0.008550395660 Rises=F Damp=F
 DIIS: error= 1.36D-03 at cycle   2 NSaved=   2.
 NSaved= 2 IEnMin= 2 EnMin= -797.463582621011     IErMin= 2 ErrMin= 1.36D-03
 ErrMax= 1.36D-03  0.00D+00 EMaxC= 1.00D-01 BMatC= 7.70D-04 BMatP= 1.64D-02
 IDIUse=3 WtCom= 9.86D-01 WtEn= 1.36D-02
 Coeff-Com: -0.128D+00 0.113D+01
 Coeff-En:   0.000D+00 0.100D+01
 Coeff:     -0.127D+00 0.113D+01
 Gap=     0.162 Goal=   None    Shift=    0.000
 Gap=     0.162 Goal=   None    Shift=    0.000
 RMSDP=4.78D-04 MaxDP=5.65D-03 DE=-8.55D-03 OVMax= 1.33D-02

 Cycle   3  Pass 1  IDiag  1:
 E= -797.464232885708     Delta-E=       -0.000650264697 Rises=F Damp=F
 DIIS: error= 4.49D-04 at cycle   3 NSaved=   3.
 NSaved= 3 IEnMin= 3 EnMin= -797.464232885708     IErMin= 3 ErrMin= 4.49D-04
 ErrMax= 4.49D-04  0.00D+00 EMaxC= 1.00D-01 BMatC= 4.97D-05 BMatP= 7.70D-04
 IDIUse=3 WtCom= 9.96D-01 WtEn= 4.49D-03
 Coeff-Com: -0.289D-01 0.709D-01 0.958D+00
 Coeff-En:   0.000D+00 0.000D+00 0.100D+01
 Coeff:     -0.288D-01 0.706D-01 0.958D+00
 Gap=     0.162 Goal=   None    Shift=    0.000
 Gap=     0.162 Goal=   None    Shift=    0.000
 RMSDP=1.81D-04 MaxDP=2.36D-03 DE=-6.50D-04 OVMax= 4.91D-03

 Cycle   4  Pass 1  IDiag  1:
 E= -797.464285055943     Delta-E=       -0.000052170234 Rises=F Damp=F
 DIIS: error= 1.83D-04 at cycle   4 NSaved=   4.
 NSaved= 4 IEnMin= 4 EnMin= -797.464285055943     IErMin= 4 ErrMin= 1.83D-04
 ErrMax= 1.83D-04  0.00D+00 EMaxC= 1.00D-01 BMatC= 1.35D-05 BMatP= 4.97D-05
 IDIUse=3 WtCom= 9.98D-01 WtEn= 1.83D-03
 Coeff-Com:  0.102D-01-0.132D+00 0.201D+00 0.920D+00
 Coeff-En:   0.000D+00 0.000D+00 0.000D+00 0.100D+01
 Coeff:      0.102D-01-0.131D+00 0.201D+00 0.921D+00
 Gap=     0.162 Goal=   None    Shift=    0.000
 Gap=     0.162 Goal=   None    Shift=    0.000
 RMSDP=6.46D-05 MaxDP=8.03D-04 DE=-5.22D-05 OVMax= 2.69D-03

 Cycle   5  Pass 1  IDiag  1:
 E= -797.464294580406     Delta-E=       -0.000009524464 Rises=F Damp=F
 DIIS: error= 4.91D-05 at cycle   5 NSaved=   5.
 NSaved= 5 IEnMin= 5 EnMin= -797.464294580406     IErMin= 5 ErrMin= 4.91D-05
 ErrMax= 4.91D-05  0.00D+00 EMaxC= 1.00D-01 BMatC= 7.62D-07 BMatP= 1.35D-05
 IDIUse=1 WtCom= 1.00D+00 WtEn= 0.00D+00
 Coeff-Com:  0.341D-02-0.286D-01-0.573D-02 0.105D+00 0.926D+00
 Coeff:      0.341D-02-0.286D-01-0.573D-02 0.105D+00 0.926D+00
 Gap=     0.162 Goal=   None    Shift=    0.000
 Gap=     0.162 Goal=   None    Shift=    0.000
 RMSDP=2.31D-05 MaxDP=2.84D-04 DE=-9.52D-06 OVMax= 1.53D-03

 Cycle   6  Pass 1  IDiag  1:
 E= -797.464296136104     Delta-E=       -0.000001555698 Rises=F Damp=F
 DIIS: error= 3.16D-05 at cycle   6 NSaved=   6.
 NSaved= 6 IEnMin= 6 EnMin= -797.464296136104     IErMin= 6 ErrMin= 3.16D-05
 ErrMax= 3.16D-05  0.00D+00 EMaxC= 1.00D-01 BMatC= 2.49D-07 BMatP= 7.62D-07
 IDIUse=1 WtCom= 1.00D+00 WtEn= 0.00D+00
 Coeff-Com: -0.161D-02 0.213D-01-0.262D-01-0.169D+00 0.156D-01 0.116D+01
 Coeff:     -0.161D-02 0.213D-01-0.262D-01-0.169D+00 0.156D-01 0.116D+01
 Gap=     0.162 Goal=   None    Shift=    0.000
 Gap=     0.162 Goal=   None    Shift=    0.000
 RMSDP=2.16D-05 MaxDP=2.82D-04 DE=-1.56D-06 OVMax= 1.52D-03

 Cycle   7  Pass 1  IDiag  1:
 E= -797.464297009459     Delta-E=       -0.000000873355 Rises=F Damp=F
 DIIS: error= 1.72D-05 at cycle   7 NSaved=   7.
 NSaved= 7 IEnMin= 7 EnMin= -797.464297009459     IErMin= 7 ErrMin= 1.72D-05
 ErrMax= 1.72D-05  0.00D+00 EMaxC= 1.00D-01 BMatC= 2.24D-07 BMatP= 2.49D-07
 IDIUse=1 WtCom= 1.00D+00 WtEn= 0.00D+00
 Coeff-Com: -0.173D-02 0.195D-01-0.144D-01-0.133D+00-0.184D+00 0.768D+00
 Coeff-Com:  0.545D+00
 Coeff:     -0.173D-02 0.195D-01-0.144D-01-0.133D+00-0.184D+00 0.768D+00
 Coeff:      0.545D+00
 Gap=     0.162 Goal=   None    Shift=    0.000
 Gap=     0.162 Goal=   None    Shift=    0.000
 RMSDP=1.02D-05 MaxDP=1.27D-04 DE=-8.73D-07 OVMax= 6.75D-04

 Cycle   8  Pass 1  IDiag  1:
 E= -797.464297317231     Delta-E=       -0.000000307772 Rises=F Damp=F
 DIIS: error= 1.18D-05 at cycle   8 NSaved=   8.
 NSaved= 8 IEnMin= 8 EnMin= -797.464297317231     IErMin= 8 ErrMin= 1.18D-05
 ErrMax= 1.18D-05  0.00D+00 EMaxC= 1.00D-01 BMatC= 7.05D-08 BMatP= 2.24D-07
 IDIUse=1 WtCom= 1.00D+00 WtEn= 0.00D+00
 Coeff-Com:  0.552D-03-0.102D-01 0.211D-01 0.925D-01-0.173D+00-0.735D+00
 Coeff-Com:  0.375D+00 0.143D+01
 Coeff:      0.552D-03-0.102D-01 0.211D-01 0.925D-01-0.173D+00-0.735D+00
 Coeff:      0.375D+00 0.143D+01
 Gap=     0.162 Goal=   None    Shift=    0.000
 Gap=     0.162 Goal=   None    Shift=    0.000
 RMSDP=2.06D-05 MaxDP=2.75D-04 DE=-3.08D-07 OVMax= 1.47D-03

 Cycle   9  Pass 1  IDiag  1:
 E= -797.464297605730     Delta-E=       -0.000000288499 Rises=F Damp=F
 DIIS: error= 2.08D-06 at cycle   9 NSaved=   9.
 NSaved= 9 IEnMin= 9 EnMin= -797.464297605730     IErMin= 9 ErrMin= 2.08D-06
 ErrMax= 2.08D-06  0.00D+00 EMaxC= 1.00D-01 BMatC= 2.12D-09 BMatP= 7.05D-08
 IDIUse=1 WtCom= 1.00D+00 WtEn= 0.00D+00
 Coeff-Com:  0.253D-03-0.345D-02 0.452D-02 0.259D-01-0.172D-01-0.132D+00
 Coeff-Com: -0.109D-01 0.127D+00 0.101D+01
 Coeff:      0.253D-03-0.345D-02 0.452D-02 0.259D-01-0.172D-01-0.132D+00
 Coeff:     -0.109D-01 0.127D+00 0.101D+01
 Gap=     0.162 Goal=   None    Shift=    0.000
 Gap=     0.162 Goal=   None    Shift=    0.000
 RMSDP=3.14D-06 MaxDP=4.29D-05 DE=-2.88D-07 OVMax= 2.23D-04

 Cycle  10  Pass 1  IDiag  1:
 E= -797.464297612481     Delta-E=       -0.000000006751 Rises=F Damp=F
 DIIS: error= 4.77D-07 at cycle  10 NSaved=  10.
 NSaved=10 IEnMin=10 EnMin= -797.464297612481     IErMin=10 ErrMin= 4.77D-07
 ErrMax= 4.77D-07  0.00D+00 EMaxC= 1.00D-01 BMatC= 1.06D-10 BMatP= 2.12D-09
 IDIUse=1 WtCom= 1.00D+00 WtEn= 0.00D+00
 Coeff-Com: -0.150D-04 0.475D-03-0.109D-02-0.530D-02 0.109D-01 0.542D-01
 Coeff-Com: -0.290D-01-0.109D+00 0.244D-01 0.105D+01
 Coeff:     -0.150D-04 0.475D-03-0.109D-02-0.530D-02 0.109D-01 0.542D-01
 Coeff:     -0.290D-01-0.109D+00 0.244D-01 0.105D+01
 Gap=     0.162 Goal=   None    Shift=    0.000
 Gap=     0.162 Goal=   None    Shift=    0.000
 RMSDP=4.34D-07 MaxDP=5.31D-06 DE=-6.75D-09 OVMax= 2.60D-05

 Cycle  11  Pass 1  IDiag  1:
 E= -797.464297612662     Delta-E=       -0.000000000182 Rises=F Damp=F
 DIIS: error= 9.02D-08 at cycle  11 NSaved=  11.
 NSaved=11 IEnMin=11 EnMin= -797.464297612662     IErMin=11 ErrMin= 9.02D-08
 ErrMax= 9.02D-08  0.00D+00 EMaxC= 1.00D-01 BMatC= 4.25D-12 BMatP= 1.06D-10
 IDIUse=1 WtCom= 1.00D+00 WtEn= 0.00D+00
 Coeff-Com: -0.211D-05 0.655D-05 0.295D-04 0.253D-03-0.168D-02-0.467D-02
 Coeff-Com:  0.574D-02 0.143D-01-0.500D-01-0.150D+00 0.119D+01
 Coeff:     -0.211D-05 0.655D-05 0.295D-04 0.253D-03-0.168D-02-0.467D-02
 Coeff:      0.574D-02 0.143D-01-0.500D-01-0.150D+00 0.119D+01
 Gap=     0.162 Goal=   None    Shift=    0.000
 Gap=     0.162 Goal=   None    Shift=    0.000
 RMSDP=7.58D-08 MaxDP=1.06D-06 DE=-1.82D-10 OVMax= 3.22D-06

 Cycle  12  Pass 1  IDiag  1:
 E= -797.464297612668     Delta-E=       -0.000000000005 Rises=F Damp=F
 DIIS: error= 2.63D-08 at cycle  12 NSaved=  12.
 NSaved=12 IEnMin=12 EnMin= -797.464297612668     IErMin=12 ErrMin= 2.63D-08
 ErrMax= 2.63D-08  0.00D+00 EMaxC= 1.00D-01 BMatC= 1.75D-13 BMatP= 4.25D-12
 IDIUse=1 WtCom= 1.00D+00 WtEn= 0.00D+00
 Coeff-Com:  0.320D-06-0.113D-04 0.247D-04 0.158D-03-0.568D-03-0.861D-03
 Coeff-Com:  0.819D-03 0.231D-02-0.105D-02-0.221D-01-0.761D-02 0.103D+01
 Coeff:      0.320D-06-0.113D-04 0.247D-04 0.158D-03-0.568D-03-0.861D-03
 Coeff:      0.819D-03 0.231D-02-0.105D-02-0.221D-01-0.761D-02 0.103D+01
 Gap=     0.162 Goal=   None    Shift=    0.000
 Gap=     0.162 Goal=   None    Shift=    0.000
 RMSDP=8.47D-09 MaxDP=1.03D-07 DE=-5.23D-12 OVMax= 2.67D-07

 SCF Done:  E(UM062X) =  -797.464297613     A.U. after   12 cycles
            NFock= 12  Conv=0.85D-08     -V/T= 2.0015
 <Sx>= 0.0000 <Sy>= 0.0000 <Sz>= 0.0000 <S**2>=-0.0000 S=-0.0000
 <L.S>=  0.00000000000    
 KE= 7.962671184028D+02 PE=-2.019907719871D+03 EE= 3.644162975791D+02
 Annihilation of the first spin contaminant:
 S**2 before annihilation    -0.0000,   after     0.0000
 Leave Link  502 at Mon Apr 21 21:15:50 2025, MaxMem=   536870912 cpu:              58.1 elap:               7.9
 (Enter /home/szhao/Apps/g16/l701.exe)
 ... and contract with generalized density number  0.
 Compute integral first derivatives.
 Leave Link  701 at Mon Apr 21 21:15:51 2025, MaxMem=   536870912 cpu:               1.4 elap:               0.3
 (Enter /home/szhao/Apps/g16/l702.exe)
 L702 exits ... SP integral derivatives will be done elsewhere.
 Leave Link  702 at Mon Apr 21 21:15:51 2025, MaxMem=   536870912 cpu:               0.7 elap:               0.1
 (Enter /home/szhao/Apps/g16/l703.exe)
 Integral derivatives from FoFJK, PRISM(SPDF).
 Compute integral first derivatives, UseDBF=F ICtDFT=           0.
 Calling FoFJK, ICntrl=      2127 FMM=F ISym2X=0 I1Cent= 0 IOpClX= 1 NMat=1 NMatS=1 NMatT=0.
 FoFJK:  IHMeth= 1 ICntrl=    2127 DoSepK=F KAlg= 0 I1Cent=           0 FoldK=F
 IRaf=         0 NMat=       1 IRICut=       1 DoRegI=T DoRafI=F ISym2E= 0 IDoP0=0 IntGTp=1.
 FoFCou: FMM=F IPFlag=           0 FMFlag=      100000 FMFlg1=         800
         NFxFlg=           0 DoJE=F BraDBF=F KetDBF=F FulRan=T
         wScrn=  0.000000 ICntrl=      2127 IOpCl=  1 I1Cent=           0 NGrid=           0
         NMat0=    1 NMatS0=      1 NMatT0=    0 NMatD0=    1 NMtDS0=    0 NMtDT0=    0
 Symmetry not used in FoFCou.
 Leave Link  703 at Mon Apr 21 21:15:52 2025, MaxMem=   536870912 cpu:               5.9 elap:               0.8
 (Enter /home/szhao/Apps/g16/l716.exe)
 Dipole        = 1.76720851D-04-3.63089417D-01 3.71184066D-01
 -------------------------------------------------------------------
 Center     Atomic                   Forces (Hartrees/Bohr)
 Number     Number              X              Y              Z
 -------------------------------------------------------------------
      1       16          -0.000000000   -0.000000000   -0.000000000
      2       16          -0.000000000   -0.000000000   -0.000000000
      3        1          -0.000542739    0.000233574    0.000052757
      4        1           0.000533555   -0.000030575   -0.000004447
 -------------------------------------------------------------------
 Cartesian Forces:  Max     0.000542739 RMS     0.000230496
 Leave Link  716 at Mon Apr 21 21:15:52 2025, MaxMem=   536870912 cpu:               0.5 elap:               0.1
 (Enter /home/szhao/Apps/g16/l103.exe)

 GradGradGradGradGradGradGradGradGradGradGradGradGradGradGradGradGradGrad
 Berny optimization.
 Using GEDIIS/GDIIS optimizer.
 FormGI is forming the generalized inverse of G from B-inverse, IUseBI=4.
 Internal  Forces:  Max     0.001353314 RMS     0.000659553
 Search for a local minimum.
 Step number   3 out of a maximum of   21
 All quantities printed in internal units (Hartrees-Bohrs-Radians)
 RMS Force = .86187D-03 SwitMx=.10000D-02 MixMth= 2
 Mixed Optimization -- En-DIIS/RFO-DIIS
 Update second derivatives using D2CorX and points    1    2    3
 DE= -7.42D-04 DEPred=-9.02D-04 R= 8.23D-01
 TightC=F SS=  1.41D+00  RLast= 3.35D-01 DXNew= 5.8883D-01 1.0057D+00
 Trust test= 8.23D-01 RLast= 3.35D-01 DXMaxT set to 5.89D-01
 The second derivative matrix:
                          X1        Y1        Z1        X2        Y2
           X1           0.50584
           Y1          -0.00350   0.50228
           Z1          -0.00280   0.00164   0.50135
           X2          -0.00580   0.00348   0.00278   0.50577
           Y2           0.00284  -0.00166  -0.00137  -0.00282   0.50138
           Z2           0.00297  -0.00201  -0.00138  -0.00296   0.00140
           R1           0.00242  -0.00239  -0.00097  -0.00244   0.00100
           R2           0.00230  -0.00251  -0.00088  -0.00233   0.00091
           A1          -0.01421   0.00827   0.00687   0.01411  -0.00694
           A2          -0.01444   0.00855   0.00695   0.01435  -0.00703
           D1           0.00077  -0.00115  -0.00023  -0.00079   0.00025
                          Z2        R1        R2        A1        A2
           Z2           0.50180
           R1           0.00241   0.26110
           R2           0.00258   0.00077   0.26124
           A1          -0.00693  -0.00168  -0.00126   0.11498
           A2          -0.00722  -0.00176  -0.00136  -0.04461   0.11582
           D1           0.00126   0.00053   0.00064  -0.00133  -0.00140
                          D1
           D1           0.00277
 ITU=  1  1  0
 Use linear search instead of GDIIS.
     Eigenvalues ---    0.00271   0.07079   0.16001   0.26040   0.26199
     Eigenvalues --- 1000.000001000.000001000.000001000.000001000.00000
     Eigenvalues --- 1000.00000
 RFO step:  Lambda=-1.61089046D-06 EMin= 2.70839913D-03
 Quartic linear search produced a step of -0.15274.
 Iteration  1 RMS(Cart)=  0.02415596 RMS(Int)=  0.00026917
 Iteration  2 RMS(Cart)=  0.00026956 RMS(Int)=  0.00000000
 Iteration  3 RMS(Cart)=  0.00000000 RMS(Int)=  0.00000000
 ITry= 1 IFail=0 DXMaxC= 4.86D-02 DCOld= 1.00D+10 DXMaxT= 5.89D-01 DXLimC= 3.00D+00 Rises=F
 Variable       Old X    -DE/DX   Delta X   Delta X   Delta X     New X
                                 (Linear)    (Quad)   (Total)
    X1       -2.91621  -0.00054   0.00000   0.00000   0.00000  -2.91621
    Y1        0.00000   0.00049   0.00000   0.00000   0.00000   0.00000
    Z1        0.00000   0.00031   0.00000   0.00000   0.00000   0.00000
    X2        2.91621   0.00053   0.00000   0.00000   0.00000   2.91621
    Y2        0.00000  -0.00029   0.00000   0.00000   0.00000   0.00000
    Z2        0.00000  -0.00026   0.00000   0.00000   0.00000   0.00000
    R1        2.54355  -0.00027   0.00008  -0.00091  -0.00083   2.54273
    R2        2.54296  -0.00004   0.00019  -0.00020  -0.00001   2.54295
    A1        1.51278   0.00134   0.01858   0.00055   0.01913   1.53191
    A2        1.51340   0.00135   0.01846   0.00065   0.01910   1.53250
    D1       -1.82713   0.00007   0.04400  -0.02112   0.02289  -1.80424
         Item               Value     Threshold  Converged?
 Maximum Force            0.001353     0.000450     NO 
 RMS     Force            0.000862     0.000300     NO 
 Maximum Displacement     0.048630     0.001800     NO 
 RMS     Displacement     0.024156     0.001200     NO 
 Predicted change in Energy=-2.782795D-05
 Lowest energy point so far.  Saving SCF results.
 GradGradGradGradGradGradGradGradGradGradGradGradGradGradGradGradGradGrad

 Leave Link  103 at Mon Apr 21 21:15:52 2025, MaxMem=   536870912 cpu:               0.3 elap:               0.1
 (Enter /home/szhao/Apps/g16/l202.exe)
                          Input orientation:                          
 ---------------------------------------------------------------------
 Center     Atomic      Atomic             Coordinates (Angstroms)
 Number     Number       Type             X           Y           Z
 ---------------------------------------------------------------------
      1         16           0       -1.543191    0.000000    0.000000
      2         16           0        1.543191    0.000000    0.000000
      3          1           0       -1.490879   -1.337099   -0.141209
      4          1           0        1.491669    0.171949    1.333645
 ---------------------------------------------------------------------
                    Distance matrix (angstroms):
                    1          2          3          4
     1  S    0.000000
     2  S    3.086383   0.000000
     3  H    1.345552   3.318638   0.000000
     4  H    3.319421   1.345670   3.653493   0.000000
 Symmetry turned off by external request.
 Stoichiometry    H2S2
 Framework group  C1[X(H2S2)]
 Deg. of freedom     6
 Full point group                 C1      NOp   1
 Rotational constants (GHZ):         142.9084933           3.1948691           3.1783778
 Leave Link  202 at Mon Apr 21 21:15:52 2025, MaxMem=   536870912 cpu:               0.1 elap:               0.1
 (Enter /home/szhao/Apps/g16/l301.exe)
 Standard basis: 6-311+G(d,p) (5D, 7F)
 Ernie: Thresh=  0.10000D-02 Tol=  0.10000D-05 Strict=F.
    72 basis functions,   116 primitive gaussians,    74 cartesian basis functions
    17 alpha electrons       17 beta electrons
       nuclear repulsion energy        61.7238096237 Hartrees.
 IExCor= 4336 DFT=T Ex+Corr=M062X ExCW=0 ScaHFX=  0.540000
 ScaDFX=  1.000000  1.000000  1.000000  1.000000 ScalE2=  1.000000  1.000000
 IRadAn=      7 IRanWt=     -1 IRanGd=            0 ICorTp=0 IEmpDi=  4
 NAtoms=    4 NActive=    4 NUniq=    4 SFac= 1.00D+00 NAtFMM=   60 NAOKFM=F Big=F
 Integral buffers will be    131072 words long.
 Raffenetti 2 integral format.
 Two-electron integral symmetry is turned off.
 Leave Link  301 at Mon Apr 21 21:15:53 2025, MaxMem=   536870912 cpu:               0.5 elap:               0.1
 (Enter /home/szhao/Apps/g16/l302.exe)
 NPDir=0 NMtPBC=     1 NCelOv=     1 NCel=       1 NClECP=     1 NCelD=      1
         NCelK=      1 NCelE2=     1 NClLst=     1 CellRange=     0.0.
 One-electron integrals computed using PRISM.
 NBasis=    72 RedAO= T EigKep=  7.90D-03  NBF=    72
 NBsUse=    72 1.00D-06 EigRej= -1.00D+00 NBFU=    72
 Precomputing XC quadrature grid using
[...]
 Coeff:     -0.337D-01-0.590D-01 0.292D+00 0.770D+00
 Gap=     0.162 Goal=   None    Shift=    0.000
 Gap=     0.162 Goal=   None    Shift=    0.000
 RMSDP=2.47D-09 MaxDP=3.04D-08 DE= 2.27D-13 OVMax= 1.59D-07

 SCF Done:  E(UM062X) =  -797.464323368     A.U. after   10 cycles
            NFock= 10  Conv=0.25D-08     -V/T= 2.0015
 <Sx>= 0.0000 <Sy>= 0.0000 <Sz>= 0.0000 <S**2>= 0.0000 S= 0.0000
 <L.S>=  0.00000000000    
 KE= 7.962671299754D+02 PE=-2.019842026035D+03 EE= 3.643839902066D+02
 Annihilation of the first spin contaminant:
 S**2 before annihilation     0.0000,   after    -0.0000
 Leave Link  502 at Mon Apr 21 21:16:35 2025, MaxMem=   536870912 cpu:              49.1 elap:               6.5
 (Enter /home/szhao/Apps/g16/l701.exe)
 ... and contract with generalized density number  0.
 Compute integral first derivatives.
 Leave Link  701 at Mon Apr 21 21:16:35 2025, MaxMem=   536870912 cpu:               1.3 elap:               0.2
 (Enter /home/szhao/Apps/g16/l702.exe)
 L702 exits ... SP integral derivatives will be done elsewhere.
 Leave Link  702 at Mon Apr 21 21:16:36 2025, MaxMem=   536870912 cpu:               0.5 elap:               0.1
 (Enter /home/szhao/Apps/g16/l703.exe)
 Integral derivatives from FoFJK, PRISM(SPDF).
 Compute integral first derivatives, UseDBF=F ICtDFT=           0.
 Calling FoFJK, ICntrl=      2127 FMM=F ISym2X=0 I1Cent= 0 IOpClX= 1 NMat=1 NMatS=1 NMatT=0.
 FoFJK:  IHMeth= 1 ICntrl=    2127 DoSepK=F KAlg= 0 I1Cent=           0 FoldK=F
 IRaf=         0 NMat=       1 IRICut=       1 DoRegI=T DoRafI=F ISym2E= 0 IDoP0=0 IntGTp=1.
 FoFCou: FMM=F IPFlag=           0 FMFlag=      100000 FMFlg1=         800
         NFxFlg=           0 DoJE=F BraDBF=F KetDBF=F FulRan=T
         wScrn=  0.000000 ICntrl=      2127 IOpCl=  1 I1Cent=           0 NGrid=           0
         NMat0=    1 NMatS0=      1 NMatT0=    0 NMatD0=    1 NMtDS0=    0 NMtDT0=    0
 Symmetry not used in FoFCou.
 Leave Link  703 at Mon Apr 21 21:16:37 2025, MaxMem=   536870912 cpu:               7.1 elap:               1.0
 (Enter /home/szhao/Apps/g16/l716.exe)
 Dipole        = 1.25790164D-04-3.71759862D-01 3.80570277D-01
 -------------------------------------------------------------------
 Center     Atomic                   Forces (Hartrees/Bohr)
 Number     Number              X              Y              Z
 -------------------------------------------------------------------
      1       16          -0.000000000   -0.000000000   -0.000000000
      2       16          -0.000000000   -0.000000000   -0.000000000
      3        1          -0.000001522   -0.000006869    0.000033013
      4        1          -0.000000182    0.000031182   -0.000003177
 -------------------------------------------------------------------
 Cartesian Forces:  Max     0.000033013 RMS     0.000013297
 Leave Link  716 at Mon Apr 21 21:16:37 2025, MaxMem=   536870912 cpu:               0.4 elap:               0.1
 (Enter /home/szhao/Apps/g16/l103.exe)

 GradGradGradGradGradGradGradGradGradGradGradGradGradGradGradGradGradGrad
 Berny optimization.
 Using GEDIIS/GDIIS optimizer.
 FormGI is forming the generalized inverse of G from B-inverse, IUseBI=4.
 Internal  Forces:  Max     0.000004238 RMS     0.000002238
 Search for a local minimum.
 Step number   7 out of a maximum of   21
 All quantities printed in internal units (Hartrees-Bohrs-Radians)
 RMS Force = .28041D-05 SwitMx=.10000D-02 MixMth= 2
 Mixed Optimization -- En-DIIS/RFO-DIIS
 Swapping is turned off.
 Update second derivatives using D2CorX and points    1    2    3    4    5
                                                      6    7
 DE= -4.02D-08 DEPred=-1.84D-08 R= 2.18D+00
 Trust test= 2.18D+00 RLast= 7.39D-03 DXMaxT set to 5.89D-01
 The second derivative matrix:
                          X1        Y1        Z1        X2        Y2
           X1           0.50652
           Y1          -0.00302   0.50582
           Z1          -0.00313   0.00203   0.50160
           X2          -0.00654   0.00287   0.00310   0.50657
           Y2           0.00292  -0.00187  -0.00149  -0.00288   0.50141
           Z2           0.00139  -0.00365  -0.00106  -0.00128   0.00098
           R1           0.00166  -0.02868  -0.00439  -0.00114   0.00347
           R2           0.00168  -0.01913  -0.00246  -0.00140   0.00221
           A1          -0.01644   0.00514   0.00734   0.01657  -0.00688
           A2          -0.01664   0.00780   0.00822   0.01669  -0.00762
           D1           0.00016   0.00017   0.00002  -0.00025  -0.00006
                          Z2        R1        R2        A1        A2
           Z2           0.50237
           R1           0.01809   0.26677
           R2           0.01446   0.00546   0.26515
           A1          -0.00213   0.00304   0.00220   0.12162
           A2          -0.00326   0.00166   0.00082  -0.03726   0.12203
           D1          -0.00015  -0.00023   0.00133  -0.00175   0.00072
                          D1
           D1           0.00032
 ITU=  0  0  0  1  1  1  0
     Eigenvalues ---    0.00029   0.08449   0.15909   0.26045   0.27159
     Eigenvalues --- 1000.000001000.000001000.000001000.000001000.00000
     Eigenvalues --- 1000.00000
 En-DIIS/RFO-DIIS/Sim-DIIS IScMMF=       -3 using points:     7    6    5    4    3
 RFO step:  Lambda=-2.79115383D-08.
 NNeg= 0 NGDIIS= 5 SimSw=  2.50D-01 Rises=F DC= -4.02D-08 SmlDif=  1.00D-05
 NRisDI= 0 DoIntr=F SqrtH=F CThrHd= 10.0 CDAdj=  3.0
 RMS Error=  0.2951810616D-02 NUsed= 5 OKEnD=F EnDIS=F
 InvSVX:  RCond= 2.40D-12 Info=           0 Equed=N FErr=  3.25D-08 BErr=  4.77D-17
 DIIS inversion failure, remove point   5.
 InvSVX:  RCond= 2.32D-11 Info=           0 Equed=N FErr=  4.37D-09 BErr=  4.65D-17
 DIIS inversion failure, remove point   4.
 InvSVX:  RCond= 1.77D-10 Info=           0 Equed=N FErr=  3.82D-10 BErr=  4.38D-17
 DIIS inversion failure, remove point   3.
 InvSVX:  RCond= 1.37D-05 Info=           0 Equed=N FErr=  6.50D-15 BErr=  2.95D-17
 RFO-DIIS uses    2 points instead of    5
 DidBck=F Rises=F RFO-DIIS coefs:    2.32418   -1.32418    0.00000    0.00000    0.00000
 Iteration  1 RMS(Cart)=  0.00530556 RMS(Int)=  0.00001300
 Iteration  2 RMS(Cart)=  0.00001301 RMS(Int)=  0.00000000
 Iteration  3 RMS(Cart)=  0.00000000 RMS(Int)=  0.00000000
 ITry= 1 IFail=0 DXMaxC= 1.26D-02 DCOld= 1.00D+10 DXMaxT= 5.89D-01 DXLimC= 3.00D+00 Rises=F
 Variable       Old X    -DE/DX   Delta X   Delta X   Delta X     New X
                                 (Linear)    (Quad)   (Total)
    X1       -2.91621  -0.00000   0.00000   0.00000   0.00000  -2.91621
    Y1        0.00000  -0.00000   0.00000   0.00000   0.00000   0.00000
    Z1        0.00000   0.00000   0.00000   0.00000   0.00000   0.00000
    X2        2.91621  -0.00000   0.00000   0.00000   0.00000   2.91621
    Y2        0.00000  -0.00000   0.00000   0.00000   0.00000   0.00000
    Z2        0.00000   0.00000   0.00000   0.00000   0.00000   0.00000
    R1        2.54258   0.00000  -0.00001   0.00003   0.00002   2.54260
    R2        2.54274   0.00000  -0.00006   0.00001  -0.00005   2.54269
    A1        1.53131   0.00000   0.00016   0.00002   0.00017   1.53148
    A2        1.53165  -0.00000  -0.00001  -0.00000  -0.00001   1.53164
    D1       -1.78474   0.00000   0.00979  -0.00000   0.00979  -1.77495
         Item               Value     Threshold  Converged?
 Maximum Force            0.000004     0.000450     YES
 RMS     Force            0.000003     0.000300     YES
 Maximum Displacement     0.012647     0.001800     NO 
 RMS     Displacement     0.005306     0.001200     NO 
 Predicted change in Energy=-1.395578D-08
 Optimization completed on the basis of negligible forces.
    -- Stationary point found.
                           ----------------------------
                           !   Optimized Parameters   !
                           ! (Angstroms and Degrees)  !
 --------------------------                            --------------------------
 ! Name  Definition              Value          Derivative Info.                !
 --------------------------------------------------------------------------------
 ! X1    R(1,-1)                -1.5432         -DE/DX =    0.0                 !
 ! Y1    R(1,-2)                 0.0            -DE/DX =    0.0                 !
 ! Z1    R(1,-3)                 0.0            -DE/DX =    0.0                 !
 ! X2    R(2,-1)                 1.5432         -DE/DX =    0.0                 !
 ! Y2    R(2,-2)                 0.0            -DE/DX =    0.0                 !
 ! Z2    R(2,-3)                 0.0            -DE/DX =    0.0                 !
 ! R1    R(1,3)                  1.3455         -DE/DX =    0.0                 !
 ! R2    R(2,4)                  1.3456         -DE/DX =    0.0                 !
 ! A1    A(2,1,3)               87.7376         -DE/DX =    0.0                 !
 ! A2    A(1,2,4)               87.7572         -DE/DX =    0.0                 !
 ! D1    D(3,1,2,4)           -102.2581         -DE/DX =    0.0                 !
 --------------------------------------------------------------------------------
 Lowest energy point so far.  Saving SCF results.
 Largest change from initial coordinates is atom    4       0.270 Angstoms.
 GradGradGradGradGradGradGradGradGradGradGradGradGradGradGradGradGradGrad

 Leave Link  103 at Mon Apr 21 21:16:37 2025, MaxMem=   536870912 cpu:               1.1 elap:               0.2
 (Enter /home/szhao/Apps/g16/l202.exe)
                          Input orientation:                          
 ---------------------------------------------------------------------
 Center     Atomic      Atomic             Coordinates (Angstroms)
 Number     Number       Type             X           Y           Z
 ---------------------------------------------------------------------
      1         16           0       -1.543191    0.000000    0.000000
      2         16           0        1.543191    0.000000    0.000000
      3          1           0       -1.490076   -1.338331   -0.127858
      4          1           0        1.490534    0.159218    1.335069
 ---------------------------------------------------------------------
                    Distance matrix (angstroms):
                    1          2          3          4
     1  S    0.000000
     2  S    3.086383   0.000000
     3  H    1.345473   3.317859   0.000000
     4  H    3.318320   1.345560   3.642368   0.000000
 Symmetry turned off by external request.
 Stoichiometry    H2S2
 Framework group  C1[X(H2S2)]
 Deg. of freedom     6
 Full point group                 C1      NOp   1
 Rotational constants (GHZ):         142.9350199           3.1943365           3.1791955
 Leave Link  202 at Mon Apr 21 21:16:38 2025, MaxMem=   536870912 cpu:               0.1 elap:               0.1
 (Enter /home/szhao/Apps/g16/l601.exe)
 Copying SCF densities to generalized density rwf, IOpCl= 1 IROHF=0.

 **********************************************************************

            Population analysis using the SCF density.

 **********************************************************************

 Alpha  occ. eigenvalues --  -89.94709 -89.94708  -8.30849  -8.30849  -6.23010
 Alpha  occ. eigenvalues --   -6.23010  -6.22741  -6.22741  -6.22188  -6.22188
 Alpha  occ. eigenvalues --   -0.82481  -0.80234  -0.47362  -0.47304  -0.35314
 Alpha  occ. eigenvalues --   -0.33496  -0.33065
 Alpha virt. eigenvalues --   -0.16833   0.01944   0.03182   0.04646   0.05043
 Alpha virt. eigenvalues --    0.06230   0.07261   0.07401   0.07530   0.11293
 Alpha virt. eigenvalues --    0.13197   0.30406   0.31095   0.32302   0.35818
 Alpha virt. eigenvalues --    0.36721   0.38422   0.40401   0.41546   0.56285
 Alpha virt. eigenvalues --    0.69429   0.72947   0.73072   0.74098   0.74099
 Alpha virt. eigenvalues --    0.81633   0.81779   0.82058   0.88439   1.00601
 Alpha virt. eigenvalues --    1.00680   1.46563   1.47507   1.48230   1.49080
 Alpha virt. eigenvalues --    1.64068   1.66605   1.67640   1.69163   1.69163
 Alpha virt. eigenvalues --    1.74221   2.10458   2.11813   2.55157   2.58500
 Alpha virt. eigenvalues --    7.82786   7.91571  17.43755  17.43889  17.44111
 Alpha virt. eigenvalues --   17.47210  17.48573  17.48777 189.08199 189.19276
  Beta  occ. eigenvalues --  -89.94709 -89.94708  -8.30849  -8.30849  -6.23010
  Beta  occ. eigenvalues --   -6.23010  -6.22741  -6.22741  -6.22188  -6.22188
  Beta  occ. eigenvalues --   -0.82481  -0.80234  -0.47362  -0.47304  -0.35314
  Beta  occ. eigenvalues --   -0.33496  -0.33065
  Beta virt. eigenvalues --   -0.16833   0.01944   0.03182   0.04646   0.05043
  Beta virt. eigenvalues --    0.06230   0.07261   0.07401   0.07530   0.11293
  Beta virt. eigenvalues --    0.13197   0.30406   0.31095   0.32302   0.35818
  Beta virt. eigenvalues --    0.36721   0.38422   0.40401   0.41546   0.56285
  Beta virt. eigenvalues --    0.69429   0.72947   0.73072   0.74098   0.74099
  Beta virt. eigenvalues --    0.81633   0.81779   0.82058   0.88439   1.00601
  Beta virt. eigenvalues --    1.00680   1.46563   1.47507   1.48230   1.49080
  Beta virt. eigenvalues --    1.64068   1.66605   1.67640   1.69163   1.69163
  Beta virt. eigenvalues --    1.74221   2.10458   2.11813   2.55157   2.58500
  Beta virt. eigenvalues --    7.82786   7.91571  17.43755  17.43889  17.44111
  Beta virt. eigenvalues --   17.47210  17.48573  17.48777 189.08199 189.19276
          Condensed to atoms (all electrons):
               1          2          3          4
     1  S   15.676856   0.161438   0.251640  -0.001519
     2  S    0.161438  15.676899  -0.001526   0.251636
     3  H    0.251640  -0.001526   0.661602  -0.000143
     4  H   -0.001519   0.251636  -0.000143   0.661590
          Atomic-Atomic Spin Densities.
               1          2          3          4
     1  S   -0.000000  -0.000000  -0.000000   0.000000
     2  S   -0.000000   0.000000  -0.000000   0.000000
     3  H   -0.000000  -0.000000   0.000000  -0.000000
     4  H    0.000000   0.000000  -0.000000  -0.000000
 Mulliken charges and spin densities:
               1          2
     1  S   -0.088415  -0.000000
     2  S   -0.088448   0.000000
     3  H    0.088427   0.000000
     4  H    0.088436  -0.000000
 Sum of Mulliken charges =   0.00000   0.00000
 Mulliken charges and spin densities with hydrogens summed into heavy atoms:
               1          2
     1  S    0.000012  -0.000000
     2  S   -0.000012   0.000000
 Electronic spatial extent (au):  <R**2>=            361.3282
 Charge=              0.0000 electrons
 Dipole moment (field-independent basis, Debye):
    X=              0.0003    Y=             -0.9449    Z=              0.9673  Tot=              1.3522
 Quadrupole moment (field-independent basis, Debye-Ang):
   XX=            -25.3424   YY=            -27.9408   ZZ=            -27.9817
   XY=              2.0874   XZ=              2.0396   YZ=              0.8725
 Traceless Quadrupole moment (field-independent basis, Debye-Ang):
   XX=              1.7459   YY=             -0.8525   ZZ=             -0.8934
   XY=              2.0874   XZ=              2.0396   YZ=              0.8725
 Octapole moment (field-independent basis, Debye-Ang**2):
  XXX=              0.0012  YYY=              0.5253  ZZZ=             -0.5881  XYY=             -6.1214
  XXY=             -2.0343  XXZ=              2.0838  XZZ=              6.1216  YZZ=              0.9054
  YYZ=             -0.8768  XYZ=              0.1437
 Hexadecapole moment (field-independent basis, Debye-Ang**3):
 XXXX=           -399.6143 YYYY=            -45.4970 ZZZZ=            -45.5367 XXXY=              1.9231
 XXXZ=              1.8814 YYYX=             -1.0615 YYYZ=              0.3669 ZZZX=             -0.9994
 ZZZY=              0.4496 XXYY=            -79.5824 XXZZ=            -79.6758 YYZZ=            -16.3446
 XXYZ=              2.0199 YYXZ=             -0.8849 ZZXY=             -0.8671
 N-N= 6.172658248485D+01 E-N=-2.019842026805D+03  KE= 7.962671299754D+02
                          Isotropic Fermi Contact Couplings
        Atom                 a.u.       MegaHertz       Gauss      10(-4) cm-1
     1  S(33)              0.00000       0.00000       0.00000       0.00000
     2  S(33)             -0.00000      -0.00000      -0.00000      -0.00000
     3  H(1)               0.00000       0.00000       0.00000       0.00000
     4  H(1)              -0.00000      -0.00000      -0.00000      -0.00000
 --------------------------------------------------------
       Center         ----  Spin Dipole Couplings  ----
                      3XX-RR        3YY-RR        3ZZ-RR
 --------------------------------------------------------
     1   Atom       -0.000000      0.000000      0.000000
     2   Atom        0.000000     -0.000000     -0.000000
     3   Atom        0.000000     -0.000000      0.000000
     4   Atom       -0.000000     -0.000000      0.000000
 --------------------------------------------------------
                        XY            XZ            YZ
 --------------------------------------------------------
     1   Atom       -0.000000      0.000000      0.000000
     2   Atom       -0.000000      0.000000     -0.000000
     3   Atom        0.000000      0.000000     -0.000000
     4   Atom       -0.000000     -0.000000      0.000000
 --------------------------------------------------------


 ---------------------------------------------------------------------------------
              Anisotropic Spin Dipole Couplings in Principal Axis System
 ---------------------------------------------------------------------------------

       Atom             a.u.   MegaHertz   Gauss  10(-4) cm-1        Axes

              Baa    -0.0000    -0.000    -0.000    -0.000  0.9979  0.0430 -0.0491
     1 S(33)  Bbb     0.0000     0.000     0.000     0.000  0.0584 -0.2514  0.9661
              Bcc     0.0000     0.000     0.000     0.000 -0.0292  0.9669  0.2534
 
              Baa    -0.0000    -0.000    -0.000    -0.000 -0.0286  0.2799  0.9596
     2 S(33)  Bbb    -0.0000    -0.000    -0.000    -0.000  0.0585  0.9588 -0.2779
              Bcc     0.0000     0.000     0.000     0.000  0.9979 -0.0482  0.0438
 
              Baa    -0.0000    -0.000    -0.000    -0.000 -0.1309  0.9869  0.0942
     3 H(1)   Bbb     0.0000     0.000     0.000     0.000  0.9894  0.1361 -0.0514
              Bcc     0.0000     0.000     0.000     0.000  0.0635 -0.0865  0.9942
 
              Baa    -0.0000    -0.000    -0.000    -0.000  0.0635  0.9919 -0.1099
     4 H(1)   Bbb    -0.0000    -0.000    -0.000    -0.000  0.9894 -0.0482  0.1370
              Bcc     0.0000     0.000     0.000     0.000 -0.1305  0.1174  0.9845
 

 ---------------------------------------------------------------------------------

 No NMR shielding tensors so no spin-rotation constants.
 Leave Link  601 at Mon Apr 21 21:16:38 2025, MaxMem=   536870912 cpu:               1.6 elap:               0.3
 (Enter /home/szhao/Apps/g16/l9999.exe)
 1\1\GINC-NODE05\FOpt\UM062X\6-311+G(d,p)\H2S2\SZHAO\21-Apr-2025\0\\#p 
 opt UM062X/6-311+G** nosymm int=superfine\\Title Card Required\\0,1\S,
 -1.54319129,0.,0.\S,1.54319129,0.,0.\H,-1.4900764557,-1.3383308897,-0.
 1278584697\H,1.4905340138,0.1592181869,1.3350686228\\Version=ES64L-G16
 RevA.03\HF=-797.4643234\S2=0.\S2-1=0.\S2A=0.\RMSD=2.467e-09\RMSF=1.330
 e-05\Dipole=0.0001258,-0.3717599,0.3805703\Quadrupole=1.2980239,-0.633
 8115,-0.6642124,1.5519482,1.5164256,0.648718\PG=C01 [X(H2S2)]\\@


     SCHOPENHAUER'S LAW OF ENTROPY
 IF YOU PUT A SPOONFUL OF WINE IN A BARREL FULL
 OF SEWAGE, YOU GET SEWAGE.
 IF YOU PUT A SPOONFUL OF SEWAGE IN A BARREL FULL
 OF WINE, YOU GET SEWAGE.
 Job cpu time:       0 days  0 hours  8 minutes 10.4 seconds.
 Elapsed time:       0 days  0 hours  1 minutes 10.9 seconds.
 File lengths (MBytes):  RWF=     22 Int=      0 D2E=      0 Chk=      2 Scr=      2
 Normal termination of Gaussian 16 at Mon Apr 21 21:16:39 2025.
