 running on   28 total cores
 distrk:  each k-point on   28 cores,    1 groups
 distr:  one band on   14 cores,    2 groups
 vasp.6.3.1 04May22 (build Aug 04 2022 13:02:54) complex                        
  
 POSCAR found type information on POSCAR C 
 POSCAR found :  1 types and       2 ions
 scaLAPACK will be used
 -----------------------------------------------------------------------------
|                                                                             |
|           W    W    AA    RRRRR   N    N  II  N    N   GGGG   !!!           |
|           W    W   A  A   R    R  NN   N  II  NN   N  G    G  !!!           |
|           W    W  A    A  R    R  N N  N  II  N N  N  G       !!!           |
|           W WW W  AAAAAA  RRRRR   N  N N  II  N  N N  G  GGG   !            |
|           WW  WW  A    A  R   R   N   NN  II  N   NN  G    G                |
|           W    W  A    A  R    R  N    N  II  N    N   GGGG   !!!           |
|                                                                             |
|     For optimal performance we recommend to set                             |
|       NCORE = 2 up to number-of-cores-per-socket                            |
|     NCORE specifies how many cores store one orbital (NPAR=cpu/NCORE).      |
|     This setting can greatly improve the performance of VASP for DFT.       |
|     The default, NCORE=1 might be grossly inefficient on modern             |
|     multi-core architectures or massively parallel machines. Do your        |
|     own testing! More info at https://www.vasp.at/wiki/index.php/NCORE      |
|     Unfortunately you need to use the default for GW and RPA                |
|     calculations (for HF NCORE is supported but not extensively tested      |
|     yet).                                                                   |
|                                                                             |
 -----------------------------------------------------------------------------

 LDA part: xc-table for Pade appr. of Perdew
 POSCAR, INCAR and KPOINTS ok, starting setup
 FFT: planning ... GRIDC
 FFT: planning ... GRID_SOFT
 FFT: planning ... GRID
 WAVECAR not read
 WARNING: random wavefunctions but no delay for mixing, default for NELMDL
 entering main loop
       N       E                     dE             d eps       ncg     rms          rms(c)
DAV:   1     0.432393668740E+02    0.43239E+02   -0.25228E+03  1184   0.655E+02
DAV:   2    -0.410082958757E+01   -0.47340E+02   -0.45890E+02  2128   0.920E+01
DAV:   3    -0.790998521498E+01   -0.38092E+01   -0.36830E+01  1624   0.395E+01
DAV:   4    -0.798301842715E+01   -0.73033E-01   -0.71230E-01  2016   0.566E+00
DAV:   5    -0.798344467276E+01   -0.42625E-03   -0.42596E-03  1784   0.359E-01    0.152E+00
DAV:   6    -0.798058889239E+01    0.28558E-02   -0.20277E-02  1816   0.106E+00    0.875E-01
DAV:   7    -0.798360447950E+01   -0.30156E-02   -0.22731E-02  1624   0.121E+00    0.179E-01
DAV:   8    -0.798388329570E+01   -0.27882E-03   -0.72481E-04  2120   0.205E-01    0.638E-02
DAV:   9    -0.798396677675E+01   -0.83481E-04   -0.10095E-04  1888   0.826E-02    0.963E-03
DAV:  10    -0.798398136815E+01   -0.14591E-04   -0.61303E-06  1808   0.194E-02    0.497E-03
DAV:  11    -0.798398627856E+01   -0.49104E-05   -0.45969E-06  1664   0.109E-02    0.347E-03
DAV:  12    -0.798398843005E+01   -0.21515E-05   -0.20038E-06  1368   0.864E-03    0.665E-04
DAV:  13    -0.798398980536E+01   -0.13753E-05   -0.84625E-08  2184   0.226E-03    0.448E-04
DAV:  14    -0.798399128858E+01   -0.14832E-05   -0.63553E-08  1624   0.132E-03    0.227E-04
DAV:  15    -0.798399247501E+01   -0.11864E-05   -0.90839E-08  1744   0.118E-03    0.245E-04
DAV:  16    -0.798399341510E+01   -0.94009E-06   -0.25884E-08  1704   0.950E-04    0.553E-05
DAV:  17    -0.798399359927E+01   -0.18417E-06   -0.23146E-09   632   0.149E-04    0.208E-05
DAV:  18    -0.798399374835E+01   -0.14908E-06   -0.34967E-09   816   0.157E-04    0.926E-06
DAV:  19    -0.798399377616E+01   -0.27811E-07   -0.43760E-10   592   0.782E-05    0.852E-06
DAV:  20    -0.798399377849E+01   -0.23273E-08   -0.84635E-11   592   0.464E-05
   1 F= -.81087285E+01 E0= -.81046492E+01  d E =-.815873E-02
