Title Card Required                                                     
Force     UM062X                                                      6-311+G(d,p)        
Number of atoms                            I                4
Info1-9                                    I   N=           9
          13          13           0           0           0         100
           5          18        -502
Full Title                                 C   N=           2
Title Card Required     
Route                                      C   N=           4
#p UM062X/6-311+G** force int=superfine         
Charge                                     I                1
Multiplicity                               I                2
Number of electrons                        I               13
Number of alpha electrons                  I                7
Number of beta electrons                   I                6
Number of basis functions                  I               56
Number of independent functions            I               56
Number of point charges in /Mol/           I                0
Number of translation vectors              I                0
Atomic numbers                             I   N=           4
           6           6           1           1
Nuclear charges                            R   N=           4
  6.00000000E+00  6.00000000E+00  1.00000000E+00  1.00000000E+00
Current cartesian coordinates              R   N=          12
  0.00000000E+00  0.00000000E+00 -1.66731535E+00  0.00000000E+00  0.00000000E+00
  1.66731805E+00  0.00000000E+00  0.00000000E+00 -3.93186676E+00  0.00000000E+00
  0.00000000E+00  3.93185056E+00
Number of symbols in /Mol/                 I                0
Force Field                                I                0
Atom Types                                 C   N=           4
                                                
Int Atom Types                             I   N=           4
           0           0           0           0
MM charges                                 R   N=           4
  0.00000000E+00  0.00000000E+00  0.00000000E+00  0.00000000E+00
Integer atomic weights                     I   N=           4
          12          12           1           1
Real atomic weights                        R   N=           4
  1.20000000E+01  1.20000000E+01  1.00782504E+00  1.00782504E+00
Atom fragment info                         I   N=           4
           0           0           0           0
Atom residue num                           I   N=           4
           0           0           0           0
Nuclear spins                              I   N=           4
           0           0           1           1
Nuclear ZEff                               R   N=           4
 -3.60000000E+00 -3.60000000E+00 -1.00000000E+00 -1.00000000E+00
Nuclear ZNuc                               R   N=           4
  6.00000000E+00  6.00000000E+00  1.00000000E+00  1.00000000E+00
Nuclear QMom                               R   N=           4
  0.00000000E+00  0.00000000E+00  0.00000000E+00  0.00000000E+00
Nuclear GFac                               R   N=           4
  0.00000000E+00  0.00000000E+00  2.79284600E+00  2.79284600E+00
MicOpt                                     I   N=           4
          -1          -1          -1          -1
Number of residues                         I                0
Number of secondary structures             I                0
SymInf integers                            I   N=          26
           1           4           1           1           1          -1
          -1           1          -1           1           1           1
          -1           1           0           0           0           0
           0           0           0           0           0           0
           0           0
RotTr to input orientation                 R   N=          12
  0.00000000E+00  0.00000000E+00 -1.00000000E+00  0.00000000E+00  1.00000000E+00
  0.00000000E+00  1.00000000E+00  0.00000000E+00  0.00000000E+00 -1.34980437E-06
  0.00000000E+00  0.00000000E+00
Number of contracted shells                I               20
Number of primitive shells                 I               38
Pure/Cartesian d shells                    I                0
Pure/Cartesian f shells                    I                0
Highest angular momentum                   I                2
Largest degree of contraction              I                6
Shell types                                I   N=          20
           0          -1          -1          -1          -1          -2
           0          -1          -1          -1          -1          -2
           0           0           0           1           0           0
           0           1
Number of primitives per shell             I   N=          20
           6           3           1           1           1           1
           6           3           1           1           1           1
           3           1           1           1           3           1
           1           1
Shell to atom map                          I   N=          20
           1           1           1           1           1           1
           2           2           2           2           2           2
           3           3           3           3           4           4
           4           4
Primitive exponents                        R   N=          38
  4.56324000E+03  6.82024000E+02  1.54973000E+02  4.44553000E+01  1.30290000E+01
  1.82773000E+00  2.09642000E+01  4.80331000E+00  1.45933000E+00  4.83456000E-01
  1.45585000E-01  4.38000000E-02  6.26000000E-01  4.56324000E+03  6.82024000E+02
  1.54973000E+02  4.44553000E+01  1.30290000E+01  1.82773000E+00  2.09642000E+01
  4.80331000E+00  1.45933000E+00  4.83456000E-01  1.45585000E-01  4.38000000E-02
  6.26000000E-01  3.38650000E+01  5.09479000E+00  1.15879000E+00  3.25840000E-01
  1.02741000E-01  7.50000000E-01  3.38650000E+01  5.09479000E+00  1.15879000E+00
  3.25840000E-01  1.02741000E-01  7.50000000E-01
Contraction coefficients                   R   N=          38
  1.96665025E-03  1.52306019E-02  7.61269097E-02  2.60801033E-01  6.16462078E-01
  2.21006028E-01  1.14660081E-01  9.19999648E-01 -3.03068213E-03  1.00000000E+00
  1.00000000E+00  1.00000000E+00  1.00000000E+00  1.96665025E-03  1.52306019E-02
  7.61269097E-02  2.60801033E-01  6.16462078E-01  2.21006028E-01  1.14660081E-01
  9.19999648E-01 -3.03068213E-03  1.00000000E+00  1.00000000E+00  1.00000000E+00
  1.00000000E+00  2.54938145E-02  1.90373109E-01  8.52161486E-01  1.00000000E+00
  1.00000000E+00  1.00000000E+00  2.54938145E-02  1.90373109E-01  8.52161486E-01
  1.00000000E+00  1.00000000E+00  1.00000000E+00
P(S=P) Contraction coefficients            R   N=          38
  0.00000000E+00  0.00000000E+00  0.00000000E+00  0.00000000E+00  0.00000000E+00
  0.00000000E+00  4.02486927E-02  2.37593957E-01  8.15853851E-01  1.00000000E+00
  1.00000000E+00  1.00000000E+00  0.00000000E+00  0.00000000E+00  0.00000000E+00
  0.00000000E+00  0.00000000E+00  0.00000000E+00  0.00000000E+00  4.02486927E-02
  2.37593957E-01  8.15853851E-01  1.00000000E+00  1.00000000E+00  1.00000000E+00
  0.00000000E+00  0.00000000E+00  0.00000000E+00  0.00000000E+00  0.00000000E+00
  0.00000000E+00  0.00000000E+00  0.00000000E+00  0.00000000E+00  0.00000000E+00
  0.00000000E+00  0.00000000E+00  0.00000000E+00
Coordinates of each shell                  R   N=          60
  0.00000000E+00  0.00000000E+00 -1.66731535E+00  0.00000000E+00  0.00000000E+00
 -1.66731535E+00  0.00000000E+00  0.00000000E+00 -1.66731535E+00  0.00000000E+00
  0.00000000E+00 -1.66731535E+00  0.00000000E+00  0.00000000E+00 -1.66731535E+00
  0.00000000E+00  0.00000000E+00 -1.66731535E+00  0.00000000E+00  0.00000000E+00
  1.66731805E+00  0.00000000E+00  0.00000000E+00  1.66731805E+00  0.00000000E+00
  0.00000000E+00  1.66731805E+00  0.00000000E+00  0.00000000E+00  1.66731805E+00
  0.00000000E+00  0.00000000E+00  1.66731805E+00  0.00000000E+00  0.00000000E+00
  1.66731805E+00  0.00000000E+00  0.00000000E+00 -3.93186676E+00  0.00000000E+00
  0.00000000E+00 -3.93186676E+00  0.00000000E+00  0.00000000E+00 -3.93186676E+00
  0.00000000E+00  0.00000000E+00 -3.93186676E+00  0.00000000E+00  0.00000000E+00
  3.93185056E+00  0.00000000E+00  0.00000000E+00  3.93185056E+00  0.00000000E+00
  0.00000000E+00  3.93185056E+00  0.00000000E+00  0.00000000E+00  3.93185056E+00
Num ILSW                                   I              100
ILSW                                       I   N=         100
           1           0           0           0           2           0
           0           0           0           0        4336          -1
           7           0           0           0           2           0
           0           0           0           0           1           0
           1           0           0           0           0           0
           0           0      100000           0          -1           0
           0           0           0           0           0           0
           0           0           0           1           0           0
           0 -2000000000           1           0           0           0
           0           0           4          52           0           0
           0           0          55           0           0           0
           0           0           0           4           0           1
           0           0           0           0           0           0
           0           0           0           0           0           0
           0           0           0           0           0           0
           0           0           0           0           0           0
           0           0           0           0
Num RLSW                                   I               52
RLSW                                       R   N=          52
  1.00000000E+00  1.00000000E+00  1.00000000E+00  1.00000000E+00  5.40000000E-01
  0.00000000E+00  0.00000000E+00  1.00000000E+00  0.00000000E+00  0.00000000E+00
  0.00000000E+00  0.00000000E+00  1.00000000E+00  0.00000000E+00  0.00000000E+00
  0.00000000E+00  0.00000000E+00  1.00000000E+00  0.00000000E+00  0.00000000E+00
  0.00000000E+00  0.00000000E+00  1.00000000E+00  0.00000000E+00  0.00000000E+00
  0.00000000E+00  0.00000000E+00  1.00000000E+00  0.00000000E+00  0.00000000E+00
  0.00000000E+00  0.00000000E+00  1.00000000E+00  0.00000000E+00  0.00000000E+00
  0.00000000E+00  0.00000000E+00  0.00000000E+00  1.00000000E+00  1.00000000E+00
  0.00000000E+00  1.00000000E+00  0.00000000E+00  0.00000000E+00  0.00000000E+00
  0.00000000E+00  0.00000000E+00  0.00000000E+00  0.00000000E+00  0.00000000E+00
  0.00000000E+00  0.00000000E+00
MxBond                                     I                2
NBond                                      I   N=           4
           2           2           1           1
IBond                                      I   N=           8
           2           3           1           4           1           0
           2           0
RBond                                      R   N=           8
  1.00000000E+00  1.00000000E+00  1.00000000E+00  1.00000000E+00  1.00000000E+00
  0.00000000E+00  1.00000000E+00  0.00000000E+00
Virial Ratio                               R      2.017160845769708E+00
SCF Energy                                 R     -7.668756516155857E+01
Total Energy                               R     -7.668756516155857E+01
S**2                                       R      7.529138559234978E-01
S**2 after annihilation                    R      7.500053250697707E-01
RMS Force                                  R      8.616736806817785E-02
RMS Density                                R      6.411570192159333E-09
Job Status                                 I                1
Nuclear derivative order                   I                1
External E-field                           R   N=          35
  0.00000000E+00  0.00000000E+00  0.00000000E+00  0.00000000E+00  0.00000000E+00
  0.00000000E+00  0.00000000E+00  0.00000000E+00  0.00000000E+00  0.00000000E+00
  0.00000000E+00  0.00000000E+00  0.00000000E+00  0.00000000E+00  0.00000000E+00
  0.00000000E+00  0.00000000E+00  0.00000000E+00  0.00000000E+00  0.00000000E+00
  0.00000000E+00  0.00000000E+00  0.00000000E+00  0.00000000E+00  0.00000000E+00
  0.00000000E+00  0.00000000E+00  0.00000000E+00  0.00000000E+00  0.00000000E+00
  0.00000000E+00  0.00000000E+00  0.00000000E+00  0.00000000E+00  0.00000000E+00
IOpCl                                      I                1
IROHF                                      I                0
Alpha Orbital Energies                     R   N=          56
 -1.10002865E+01 -1.09999802E+01 -1.07089570E+00 -9.59626398E-01 -8.03915943E-01
 -6.16809123E-01 -5.96097405E-01 -3.63367972E-01 -3.43617475E-01 -3.15241793E-01
 -1.47025662E-01 -1.16193096E-01 -1.13144364E-01 -8.75488490E-02 -8.53408072E-02
 -5.35586839E-02 -5.07221577E-02  9.04392235E-03  1.53874190E-02  5.63121379E-02
  2.27898995E-01  3.11172981E-01  3.17282662E-01  3.32389742E-01  3.58029932E-01
  3.65613461E-01  4.30801572E-01  5.15952380E-01  5.27998082E-01  7.06813672E-01
  7.13476361E-01  7.17606080E-01  9.75686234E-01  9.77078341E-01  1.02957749E+00
  1.03596847E+00  1.09896205E+00  1.10000301E+00  1.17677696E+00  1.38937889E+00
  1.39667203E+00  1.49761154E+00  1.70605891E+00  1.72079392E+00  1.94583507E+00
  2.27786743E+00  2.36039433E+00  2.38631023E+00  2.43756226E+00  2.44752707E+00
  2.46463111E+00  2.56090594E+00  2.89042187E+00  3.11288433E+00  2.31010412E+01
  2.32209483E+01
Beta Orbital Energies                      R   N=          56
 -1.09976108E+01 -1.09974030E+01 -1.03282043E+00 -9.40744272E-01 -7.95453406E-01
 -5.77121867E-01 -3.94154110E-01 -3.26385475E-01 -2.96941403E-01 -2.80954742E-01
 -1.50680014E-01 -1.24175281E-01 -1.15742034E-01 -9.19183293E-02 -8.97678747E-02
 -5.34638169E-02 -5.14503307E-02 -3.49982573E-04  1.41748162E-02  5.99735408E-02
  2.33073749E-01  3.17653673E-01  3.20036469E-01  3.32821139E-01  3.45310559E-01
  3.63053812E-01  4.21660046E-01  5.20400614E-01  5.39475234E-01  6.91167483E-01
  7.31385260E-01  7.37628263E-01  1.00570714E+00  1.02896942E+00  1.04178558E+00
  1.05111142E+00  1.12425144E+00  1.14755191E+00  1.19939171E+00  1.39816269E+00
  1.40774249E+00  1.50904907E+00  1.72585240E+00  1.73344862E+00  1.97189188E+00
  2.29523322E+00  2.39594355E+00  2.40522304E+00  2.46539026E+00  2.47464437E+00
  2.48663312E+00  2.60613165E+00  2.90738234E+00  3.12770922E+00  2.31111499E+01
  2.32314944E+01
Alpha MO coefficients                      R   N=        3136
  3.99533389E-01  3.28635603E-01  0.00000000E+00  0.00000000E+00  7.94631854E-04
  6.48624283E-03  0.00000000E+00  0.00000000E+00 -1.23910854E-03 -3.44800607E-03
  0.00000000E+00  0.00000000E+00  5.40016741E-04 -1.48657839E-04  0.00000000E+00
  0.00000000E+00  1.35775478E-03  4.40602224E-04  0.00000000E+00  0.00000000E+00
 -3.69826856E-05  0.00000000E+00  3.98697171E-01  3.27947846E-01  0.00000000E+00
  0.00000000E+00 -7.93490220E-04  6.47226144E-03  0.00000000E+00  0.00000000E+00
  1.23686063E-03 -3.43608942E-03  0.00000000E+00  0.00000000E+00 -5.47772176E-04
 -1.63770187E-04  0.00000000E+00  0.00000000E+00 -1.35198753E-03  4.38814008E-04
  0.00000000E+00  0.00000000E+00 -3.69022642E-05  0.00000000E+00  2.67552462E-04
 -1.51578183E-03  2.38272629E-03  0.00000000E+00  0.00000000E+00 -9.70942990E-04
  2.66807728E-04 -1.51023480E-03  2.38164981E-03  0.00000000E+00  0.00000000E+00
  9.68341117E-04 -3.98729033E-01 -3.27935673E-01  0.00000000E+00  0.00000000E+00
 -5.47468808E-04 -6.68620813E-03  0.00000000E+00  0.00000000E+00  1.10212250E-03
  5.67065593E-03  0.00000000E+00  0.00000000E+00  3.69967341E-03 -7.12546283E-03
  0.00000000E+00  0.00000000E+00 -2.72749261E-03 -8.70807269E-04  0.00000000E+00
  0.00000000E+00  3.82778565E-05  0.00000000E+00  3.99565183E-01  3.28623439E-01
  0.00000000E+00  0.00000000E+00 -5.49140726E-04  6.69982566E-03  0.00000000E+00
  0.00000000E+00  1.10479415E-03 -5.67781149E-03  0.00000000E+00  0.00000000E+00
  3.69854621E-03  7.12511956E-03  0.00000000E+00  0.00000000E+00 -2.73032709E-03
  8.71768201E-04  0.00000000E+00  0.00000000E+00 -3.83551076E-05  0.00000000E+00
 -3.51813517E-04  2.68754020E-03 -5.36620221E-04  0.00000000E+00  0.00000000E+00
  1.26587445E-03  3.52362669E-04 -2.69081056E-03  5.41625225E-04  0.00000000E+00
  0.00000000E+00  1.26796095E-03 -8.53504150E-02 -1.39760349E-01  0.00000000E+00
  0.00000000E+00  1.76303254E-02  4.02383463E-01  0.00000000E+00  0.00000000E+00
  3.43297942E-02  2.66756928E-01  0.00000000E+00  0.00000000E+00  6.82909805E-03
 -2.54590426E-03  0.00000000E+00  0.00000000E+00 -2.02623017E-02  1.83258374E-02
  0.00000000E+00  0.00000000E+00 -4.43872003E-03  0.00000000E+00 -8.53514005E-02
 -1.39761969E-01  0.00000000E+00  0.00000000E+00 -1.76290290E-02  4.02387966E-01
  0.00000000E+00  0.00000000E+00 -3.43281118E-02  2.66760123E-01  0.00000000E+00
  0.00000000E+00 -6.82904890E-03 -2.54636133E-03  0.00000000E+00  0.00000000E+00
  2.02625192E-02  1.83260530E-02  0.00000000E+00  0.00000000E+00 -4.43875945E-03
  0.00000000E+00  5.71162422E-02  7.43209765E-02 -2.08692467E-02  0.00000000E+00
  0.00000000E+00  1.06409472E-02  5.71183231E-02  7.43232486E-02 -2.08695034E-02
  0.00000000E+00  0.00000000E+00 -1.06412109E-02 -7.33983592E-02 -1.20566520E-01
  0.00000000E+00  0.00000000E+00 -7.66151966E-02  3.53233694E-01  0.00000000E+00
  0.00000000E+00 -1.12026073E-01  2.62500709E-01  0.00000000E+00  0.00000000E+00
 -5.27006635E-02 -1.63711462E-01  0.00000000E+00  0.00000000E+00 -6.38981242E-02
  7.91616311E-03  0.00000000E+00  0.00000000E+00 -3.76409587E-03  0.00000000E+00
  7.33971450E-02  1.20564514E-01  0.00000000E+00  0.00000000E+00 -7.66181128E-02
 -3.53227643E-01  0.00000000E+00  0.00000000E+00 -1.12030306E-01 -2.62495689E-01
  0.00000000E+00  0.00000000E+00 -5.27019013E-02  1.63711351E-01  0.00000000E+00
  0.00000000E+00 -6.38976574E-02 -7.91591899E-03  0.00000000E+00  0.00000000E+00
  3.76401477E-03  0.00000000E+00  1.06116940E-01  1.43705681E-01 -1.16340271E-02
  0.00000000E+00  0.00000000E+00  1.94715244E-02 -1.06118619E-01 -1.43706935E-01
  1.16337732E-02  0.00000000E+00  0.00000000E+00  1.94716101E-02 -3.55718869E-03
 -6.15330467E-03  0.00000000E+00  0.00000000E+00  1.76116370E-01  2.02681789E-02
  0.00000000E+00  0.00000000E+00  2.72310910E-01 -2.82401226E-03  0.00000000E+00
  0.00000000E+00  1.40079038E-01 -7.97996168E-03  0.00000000E+00  0.00000000E+00
  2.08562779E-03  5.57972075E-03  0.00000000E+00  0.00000000E+00 -4.29340917E-04
  0.00000000E+00 -3.55827480E-03 -6.15513141E-03  0.00000000E+00  0.00000000E+00
 -1.76115849E-01  2.02737800E-02  0.00000000E+00  0.00000000E+00 -2.72309707E-01
 -2.81856242E-03  0.00000000E+00  0.00000000E+00 -1.40077353E-01 -7.98446206E-03
  0.00000000E+00  0.00000000E+00 -2.08379545E-03  5.57966572E-03  0.00000000E+00
  0.00000000E+00 -4.29408542E-04  0.00000000E+00 -1.15372718E-01 -1.70142563E-01
 -1.06996912E-02  0.00000000E+00  0.00000000E+00 -1.86415323E-02 -1.15371994E-01
 -1.70140526E-01 -1.06997928E-02  0.00000000E+00  0.00000000E+00  1.86412348E-02
  0.00000000E+00  0.00000000E+00  0.00000000E+00  1.97717278E-01  0.00000000E+00
  0.00000000E+00  0.00000000E+00  3.18171533E-01  0.00000000E+00  0.00000000E+00
  0.00000000E+00  2.60682378E-01  0.00000000E+00  0.00000000E+00  0.00000000E+00
 -8.39193106E-04  0.00000000E+00  0.00000000E+00  0.00000000E+00  2.01383653E-02
  0.00000000E+00  0.00000000E+00  0.00000000E+00  0.00000000E+00  0.00000000E+00
  1.97717646E-01  0.00000000E+00  0.00000000E+00  0.00000000E+00  3.18172242E-01
  0.00000000E+00  0.00000000E+00  0.00000000E+00  2.60682781E-01  0.00000000E+00
  0.00000000E+00  0.00000000E+00 -8.39296351E-04  0.00000000E+00  0.00000000E+00
  0.00000000E+00 -2.01383046E-02  0.00000000E+00  0.00000000E+00  0.00000000E+00
  0.00000000E+00  0.00000000E+00  0.00000000E+00  1.29143861E-02  0.00000000E+00
  0.00000000E+00  0.00000000E+00  0.00000000E+00  0.00000000E+00  1.29145920E-02
  0.00000000E+00  0.00000000E+00  0.00000000E+00  1.95838028E-01  0.00000000E+00
  0.00000000E+00  0.00000000E+00  3.17326450E-01  0.00000000E+00  0.00000000E+00
  0.00000000E+00  2.59879962E-01  0.00000000E+00  0.00000000E+00  0.00000000E+00
  3.45934305E-03  0.00000000E+00  0.00000000E+00  0.00000000E+00  2.02698775E-02
  0.00000000E+00  0.00000000E+00  0.00000000E+00  0.00000000E+00  0.00000000E+00
  1.95838522E-01  0.00000000E+00  0.00000000E+00  0.00000000E+00  3.17327304E-01
  0.00000000E+00  0.00000000E+00  0.00000000E+00  2.59880545E-01  0.00000000E+00
  0.00000000E+00  0.00000000E+00  3.45922913E-03  0.00000000E+00  0.00000000E+00
  0.00000000E+00 -2.02698178E-02  0.00000000E+00  0.00000000E+00  0.00000000E+00
  0.00000000E+00  0.00000000E+00  0.00000000E+00  1.41007380E-02  0.00000000E+00
  0.00000000E+00  0.00000000E+00  0.00000000E+00  0.00000000E+00  1.41009682E-02
  0.00000000E+00  0.00000000E+00  0.00000000E+00  0.00000000E+00  0.00000000E+00
  2.20925904E-01  0.00000000E+00  0.00000000E+00  0.00000000E+00  3.44109166E-01
  0.00000000E+00  0.00000000E+00  0.00000000E+00  3.66328974E-01  0.00000000E+00
  0.00000000E+00  0.00000000E+00  6.45578540E-02  0.00000000E+00  0.00000000E+00
  0.00000000E+00 -2.03947180E-02  0.00000000E+00  0.00000000E+00  0.00000000E+00
  0.00000000E+00  0.00000000E+00 -2.20925564E-01  0.00000000E+00  0.00000000E+00
  0.00000000E+00 -3.44108760E-01  0.00000000E+00  0.00000000E+00  0.00000000E+00
 -3.66328350E-01  0.00000000E+00  0.00000000E+00  0.00000000E+00 -6.45576778E-02
  0.00000000E+00  0.00000000E+00  0.00000000E+00 -2.03947979E-02  0.00000000E+00
  0.00000000E+00  0.00000000E+00  0.00000000E+00  0.00000000E+00  0.00000000E+00
  2.15774357E-02  0.00000000E+00  0.00000000E+00  0.00000000E+00  0.00000000E+00
  0.00000000E+00 -2.15775285E-02  0.00000000E+00  0.00000000E+00  0.00000000E+00
  2.17917803E-01  0.00000000E+00  0.00000000E+00  0.00000000E+00  3.38735866E-01
  0.00000000E+00  0.00000000E+00  0.00000000E+00  3.71094771E-01  0.00000000E+00
  0.00000000E+00  0.00000000E+00  8.43428989E-02  0.00000000E+00  0.00000000E+00
  0.00000000E+00 -2.12992910E-02  0.00000000E+00  0.00000000E+00  0.00000000E+00
  0.00000000E+00  0.00000000E+00 -2.17917413E-01  0.00000000E+00  0.00000000E+00
  0.00000000E+00 -3.38735313E-01  0.00000000E+00  0.00000000E+00  0.00000000E+00
 -3.71094032E-01  0.00000000E+00  0.00000000E+00  0.00000000E+00 -8.43426468E-02
  0.00000000E+00  0.00000000E+00  0.00000000E+00 -2.12993786E-02  0.00000000E+00
  0.00000000E+00  0.00000000E+00  0.00000000E+00  0.00000000E+00  0.00000000E+00
  2.29854772E-02  0.00000000E+00  0.00000000E+00  0.00000000E+00  0.00000000E+00
  0.00000000E+00 -2.29855682E-02  0.00000000E+00  0.00000000E+00 -6.80917082E-02
 -1.15105378E-01  0.00000000E+00  0.00000000E+00  1.11550903E-01  3.57044475E-01
  0.00000000E+00  0.00000000E+00  1.63315738E-01  6.87451389E-01  0.00000000E+00
  0.00000000E+00  2.02839937E-01  7.11876543E-01  0.00000000E+00  0.00000000E+00
  2.68051583E-01 -4.07396494E-02  0.00000000E+00  0.00000000E+00 -5.13907313E-03
  0.00000000E+00  6.80912304E-02  1.15104607E-01  0.00000000E+00  0.00000000E+00
  1.11552995E-01 -3.57042108E-01  0.00000000E+00  0.00000000E+00  1.63318660E-01
 -6.87448195E-01  0.00000000E+00  0.00000000E+00  2.02842584E-01 -7.11877162E-01
  0.00000000E+00  0.00000000E+00  2.68050017E-01  4.07393274E-02  0.00000000E+00
  0.00000000E+00  5.13903981E-03  0.00000000E+00 -1.21496776E-01 -2.73502073E-01
 -2.59037256E-01  0.00000000E+00  0.00000000E+00  2.25789823E-03  1.21494869E-01
  2.73497299E-01  2.59031238E-01  0.00000000E+00  0.00000000E+00  2.25774236E-03
  2.85799888E-02  4.90081980E-02  0.00000000E+00  0.00000000E+00  8.58546816E-02
 -1.59243482E-01  0.00000000E+00  0.00000000E+00  1.37900178E-01 -4.67918238E-01
  0.00000000E+00  0.00000000E+00  2.26044190E-01  6.65404801E-01  0.00000000E+00
  0.00000000E+00 -6.00897836E-01  5.20275447E-03  0.00000000E+00  0.00000000E+00
  9.74126220E-04  0.00000000E+00  2.85808917E-02  4.90097487E-02  0.00000000E+00
  0.00000000E+00 -8.58494372E-02 -1.59248174E-01  0.00000000E+00  0.00000000E+00
 -1.37892779E-01 -4.67933872E-01  0.00000000E+00  0.00000000E+00 -2.26028362E-01
  6.65446282E-01  0.00000000E+00  0.00000000E+00  6.00874794E-01  5.20353381E-03
  0.00000000E+00  0.00000000E+00  9.74220536E-04  0.00000000E+00  2.97264285E-02
  1.78001650E-01  1.31650776E-01  0.00000000E+00  0.00000000E+00 -2.06085985E-02
  2.97269135E-02  1.78003450E-01  1.31649104E-01  0.00000000E+00  0.00000000E+00
  2.06079905E-02  4.49563537E-03  8.87654646E-03  0.00000000E+00  0.00000000E+00
 -8.24470842E-02 -5.61164913E-02  0.00000000E+00  0.00000000E+00 -1.26978786E-01
  3.86810574E-02  0.00000000E+00  0.00000000E+00 -2.77918027E-01  7.97158026E-01
  0.00000000E+00  0.00000000E+00  1.78011687E-01 -4.79472014E-02  0.00000000E+00
  0.00000000E+00 -2.92347781E-03  0.00000000E+00  4.49469681E-03  8.87508686E-03
  0.00000000E+00  0.00000000E+00  8.24258064E-02 -5.61156000E-02  0.00000000E+00
  0.00000000E+00  1.26945203E-01  3.87152306E-02  0.00000000E+00  0.00000000E+00
  2.77865995E-01  7.96599725E-01  0.00000000E+00  0.00000000E+00 -1.77662134E-01
 -4.79513348E-02  0.00000000E+00  0.00000000E+00 -2.92379381E-03  0.00000000E+00
 -7.49445378E-02 -1.87269068E-01 -7.60585463E-01  0.00000000E+00  0.00000000E+00
  1.38567594E-02 -7.49502961E-02 -1.87271580E-01 -7.60622227E-01  0.00000000E+00
  0.00000000E+00 -1.38532688E-02 -1.69253837E-03 -2.15937135E-03  0.00000000E+00
  0.00000000E+00  9.99893878E-02 -1.29490732E-02  0.00000000E+00  0.00000000E+00
  1.59123079E-01  1.18299115E-01  0.00000000E+00  0.00000000E+00  2.45979972E-01
 -3.33621145E+00  0.00000000E+00  0.00000000E+00 -2.08326941E+00 -2.00628279E-02
  0.00000000E+00  0.00000000E+00 -1.50297834E-03  0.00000000E+00  1.69299520E-03
  2.16035531E-03  0.00000000E+00  0.00000000E+00  1.00004927E-01  1.29413770E-02
  0.00000000E+00  0.00000000E+00  1.59147200E-01 -1.18289373E-01  0.00000000E+00
  0.00000000E+00  2.46030776E-01  3.33634416E+00  0.00000000E+00  0.00000000E+00
 -2.08331106E+00  2.00542804E-02  0.00000000E+00  0.00000000E+00  1.50244860E-03
  0.00000000E+00 -3.57955019E-02 -1.66693043E-02 -2.40831603E-01  0.00000000E+00
  0.00000000E+00 -1.98297341E-02  3.57823827E-02  1.66343875E-02  2.40694079E-01
  0.00000000E+00  0.00000000E+00 -1.98323286E-02  0.00000000E+00  0.00000000E+00
  0.00000000E+00 -7.84088862E-02  0.00000000E+00  0.00000000E+00  0.00000000E+00
 -8.93442469E-02  0.00000000E+00  0.00000000E+00  0.00000000E+00 -2.50655537E-01
  0.00000000E+00  0.00000000E+00  0.00000000E+00  6.46737969E-01  0.00000000E+00
  0.00000000E+00  0.00000000E+00 -9.56216156E-03  0.00000000E+00  0.00000000E+00
  0.00000000E+00  0.00000000E+00  0.00000000E+00 -7.84082520E-02  0.00000000E+00
  0.00000000E+00  0.00000000E+00 -8.93434482E-02  0.00000000E+00  0.00000000E+00
  0.00000000E+00 -2.50653784E-01  0.00000000E+00  0.00000000E+00  0.00000000E+00
  6.46727417E-01  0.00000000E+00  0.00000000E+00  0.00000000E+00  9.56207717E-03
  0.00000000E+00  0.00000000E+00  0.00000000E+00  0.00000000E+00  0.00000000E+00
  0.00000000E+00  7.02568612E-03  0.00000000E+00  0.00000000E+00  0.00000000E+00
  0.00000000E+00  0.00000000E+00  7.02544412E-03  0.00000000E+00  0.00000000E+00
  0.00000000E+00 -7.77077962E-02  0.00000000E+00  0.00000000E+00  0.00000000E+00
 -9.53102529E-02  0.00000000E+00  0.00000000E+00  0.00000000E+00 -2.49908813E-01
  0.00000000E+00  0.00000000E+00  0.00000000E+00  6.45785790E-01  0.00000000E+00
  0.00000000E+00  0.00000000E+00 -9.85074316E-03  0.00000000E+00  0.00000000E+00
  0.00000000E+00  0.00000000E+00  0.00000000E+00 -7.77071169E-02  0.00000000E+00
  0.00000000E+00  0.00000000E+00 -9.53093326E-02  0.00000000E+00  0.00000000E+00
  0.00000000E+00 -2.49906878E-01  0.00000000E+00  0.00000000E+00  0.00000000E+00
  6.45774719E-01  0.00000000E+00  0.00000000E+00  0.00000000E+00  9.85067349E-03
  0.00000000E+00  0.00000000E+00  0.00000000E+00  0.00000000E+00  0.00000000E+00
  0.00000000E+00  6.44933805E-03  0.00000000E+00  0.00000000E+00  0.00000000E+00
  0.00000000E+00  0.00000000E+00  6.44910348E-03  0.00000000E+00  0.00000000E+00
  0.00000000E+00  0.00000000E+00  0.00000000E+00  7.90039851E-02  0.00000000E+00
  0.00000000E+00  0.00000000E+00  9.26908773E-02  0.00000000E+00  0.00000000E+00
  0.00000000E+00  2.73503324E-01  0.00000000E+00  0.00000000E+00  0.00000000E+00
 -1.69866560E+00  0.00000000E+00  0.00000000E+00  0.00000000E+00  6.39190605E-03
  0.00000000E+00  0.00000000E+00  0.00000000E+00  0.00000000E+00  0.00000000E+00
 -7.90044037E-02  0.00000000E+00  0.00000000E+00  0.00000000E+00 -9.26913794E-02
  0.00000000E+00  0.00000000E+00  0.00000000E+00 -2.73504912E-01  0.00000000E+00
  0.00000000E+00  0.00000000E+00  1.69866974E+00  0.00000000E+00  0.00000000E+00
  0.00000000E+00  6.39184103E-03  0.00000000E+00  0.00000000E+00  0.00000000E+00
  0.00000000E+00  0.00000000E+00  0.00000000E+00 -1.44277855E-02  0.00000000E+00
  0.00000000E+00  0.00000000E+00  0.00000000E+00  0.00000000E+00  1.44275884E-02
  0.00000000E+00  0.00000000E+00  0.00000000E+00  8.10673959E-02  0.00000000E+00
  0.00000000E+00  0.00000000E+00  1.02358215E-01  0.00000000E+00  0.00000000E+00
  0.00000000E+00  2.72527323E-01  0.00000000E+00  0.00000000E+00  0.00000000E+00
 -1.69350164E+00  0.00000000E+00  0.00000000E+00  0.00000000E+00  4.95512281E-03
  0.00000000E+00  0.00000000E+00  0.00000000E+00  0.00000000E+00  0.00000000E+00
 -8.10678441E-02  0.00000000E+00  0.00000000E+00  0.00000000E+00 -1.02358792E-01
  0.00000000E+00  0.00000000E+00  0.00000000E+00 -2.72528902E-01  0.00000000E+00
  0.00000000E+00  0.00000000E+00  1.69350595E+00  0.00000000E+00  0.00000000E+00
  0.00000000E+00  4.95506708E-03  0.00000000E+00  0.00000000E+00  0.00000000E+00
  0.00000000E+00  0.00000000E+00  0.00000000E+00 -1.31896279E-02  0.00000000E+00