 running on   28 total cores
 distrk:  each k-point on   28 cores,    1 groups
 distr:  one band on   14 cores,    2 groups
 vasp.6.3.1 04May22 (build Aug 04 2022 13:02:54) complex                        
  
 POSCAR found type information on POSCAR C 
 POSCAR found :  1 types and       2 ions
 scaLAPACK will be used
 -----------------------------------------------------------------------------
|                                                                             |
|           W    W    AA    RRRRR   N    N  II  N    N   GGGG   !!!           |
|           W    W   A  A   R    R  NN   N  II  NN   N  G    G  !!!           |
|           W    W  A    A  R    R  N N  N  II  N N  N  G       !!!           |
|           W WW W  AAAAAA  RRRRR   N  N N  II  N  N N  G  GGG   !            |
|           WW  WW  A    A  R   R   N   NN  II  N   NN  G    G                |
|           W    W  A    A  R    R  N    N  II  N    N   GGGG   !!!           |
|                                                                             |
|     For optimal performance we recommend to set                             |
|       NCORE = 2 up to number-of-cores-per-socket                            |
|     NCORE specifies how many cores store one orbital (NPAR=cpu/NCORE).      |
|     This setting can greatly improve the performance of VASP for DFT.       |
|     The default, NCORE=1 might be grossly inefficient on modern             |
|     multi-core architectures or massively parallel machines. Do your        |
|     own testing! More info at https://www.vasp.at/wiki/index.php/NCORE      |
|     Unfortunately you need to use the default for GW and RPA                |
|     calculations (for HF NCORE is supported but not extensively tested      |
|     yet).                                                                   |
|                                                                             |
 -----------------------------------------------------------------------------

 LDA part: xc-table for Pade appr. of Perdew
 POSCAR, INCAR and KPOINTS ok, starting setup
 FFT: planning ... GRIDC
 FFT: planning ... GRID_SOFT
 FFT: planning ... GRID
 WAVECAR not read
 WARNING: random wavefunctions but no delay for mixing, default for NELMDL
 entering main loop
       N       E                     dE             d eps       ncg     rms          rms(c)
DAV:   1     0.462083881875E+02    0.46208E+02   -0.30810E+03  1816   0.711E+02
DAV:   2    -0.119165345647E+02   -0.58125E+02   -0.51109E+02  2728   0.116E+02
DAV:   3    -0.160054059551E+02   -0.40889E+01   -0.40643E+01  2624   0.477E+01
DAV:   4    -0.160470578217E+02   -0.41652E-01   -0.41651E-01  2912   0.499E+00
DAV:   5    -0.160471672741E+02   -0.10945E-03   -0.10945E-03  2584   0.239E-01    0.329E+00
DAV:   6    -0.159235316424E+02    0.12364E+00   -0.11830E-01  2480   0.226E+00    0.197E+00
DAV:   7    -0.158710711984E+02    0.52460E-01   -0.19060E-01  2704   0.287E+00    0.280E-01
DAV:   8    -0.158699115640E+02    0.11596E-02   -0.35737E-03  2600   0.487E-01    0.516E-02
DAV:   9    -0.158695042441E+02    0.40732E-03   -0.27375E-04  2888   0.129E-01    0.340E-02
DAV:  10    -0.158695263052E+02   -0.22061E-04   -0.22027E-04  2536   0.773E-02    0.190E-02
DAV:  11    -0.158697279032E+02   -0.20160E-03   -0.71029E-05  2040   0.509E-02    0.144E-02
DAV:  12    -0.158696854884E+02    0.42415E-04   -0.21818E-05  2168   0.236E-02    0.409E-03
DAV:  13    -0.158699394419E+02   -0.25395E-03   -0.35816E-05  2664   0.219E-02    0.234E-03
DAV:  14    -0.158699727652E+02   -0.33323E-04   -0.19241E-06  2456   0.582E-03    0.187E-03
DAV:  15    -0.158700213658E+02   -0.48601E-04   -0.62655E-06  2152   0.877E-03    0.203E-03
DAV:  16    -0.158700257176E+02   -0.43518E-05   -0.26185E-07  2800   0.282E-03    0.282E-04
DAV:  17    -0.158700287171E+02   -0.29995E-05   -0.10055E-07  2048   0.144E-03    0.104E-04
DAV:  18    -0.158700290263E+02   -0.30914E-06   -0.86390E-09  2528   0.376E-04    0.246E-05
DAV:  19    -0.158700290982E+02   -0.71880E-07   -0.10877E-09  2240   0.154E-04    0.739E-06
DAV:  20    -0.158700291105E+02   -0.12321E-07   -0.11750E-10  2584   0.508E-05    0.376E-06
DAV:  21    -0.158700291154E+02   -0.48891E-08   -0.49689E-11  2120   0.286E-05
   1 F= -.16006639E+02 E0= -.16006388E+02  d E =-.501501E-03
