 Entering Gaussian System, Link 0=g16
 Initial command:
 /home/szhao/Apps/g16/l1.exe "/home/szhao/tmp/Gau-14358.inp" -scrdir="/home/szhao/tmp/"
 Default is to use a total of  16 processors:
                               16 via shared-memory
                                1 via Linda
 Entering Link 1 = /home/szhao/Apps/g16/l1.exe PID=     14360.
  
 Copyright (c) 1988,1990,1992,1993,1995,1998,2003,2009,2016,
            Gaussian, Inc.  All Rights Reserved.
  
 This is part of the Gaussian(R) 16 program.  It is based on
 the Gaussian(R) 09 system (copyright 2009, Gaussian, Inc.),
 the Gaussian(R) 03 system (copyright 2003, Gaussian, Inc.),
 the Gaussian(R) 98 system (copyright 1998, Gaussian, Inc.),
 the Gaussian(R) 94 system (copyright 1995, Gaussian, Inc.),
 the Gaussian 92(TM) system (copyright 1992, Gaussian, Inc.),
 the Gaussian 90(TM) system (copyright 1990, Gaussian, Inc.),
 the Gaussian 88(TM) system (copyright 1988, Gaussian, Inc.),
 the Gaussian 86(TM) system (copyright 1986, Carnegie Mellon
 University), and the Gaussian 82(TM) system (copyright 1983,
 Carnegie Mellon University). Gaussian is a federally registered
 trademark of Gaussian, Inc.
  
 This software contains proprietary and confidential information,
 including trade secrets, belonging to Gaussian, Inc.
  
 This software is provided under written license and may be
 used, copied, transmitted, or stored only in accord with that
 written license.
  
 The following legend is applicable only to US Government
 contracts under FAR:
  
                    RESTRICTED RIGHTS LEGEND
  
 Use, reproduction and disclosure by the US Government is
 subject to restrictions as set forth in subparagraphs (a)
 and (c) of the Commercial Computer Software - Restricted
 Rights clause in FAR 52.227-19.
  
 Gaussian, Inc.
 340 Quinnipiac St., Bldg. 40, Wallingford CT 06492
  
  
 ---------------------------------------------------------------
 Warning -- This program may not be used in any manner that
 competes with the business of Gaussian, Inc. or will provide
 assistance to any competitor of Gaussian, Inc.  The licensee
 of this program is prohibited from giving any competitor of
 Gaussian, Inc. access to this program.  By using this program,
 the user acknowledges that Gaussian, Inc. is engaged in the
 business of creating and licensing software in the field of
 computational chemistry and represents and warrants to the
 licensee that it is not a competitor of Gaussian, Inc. and that
 it will not use this program in any manner prohibited above.
 ---------------------------------------------------------------
  

 Cite this work as:
 Gaussian 16, Revision A.03,
 M. J. Frisch, G. W. Trucks, H. B. Schlegel, G. E. Scuseria, 
 M. A. Robb, J. R. Cheeseman, G. Scalmani, V. Barone, 
 G. A. Petersson, H. Nakatsuji, X. Li, M. Caricato, A. V. Marenich, 
 J. Bloino, B. G. Janesko, R. Gomperts, B. Mennucci, H. P. Hratchian, 
 J. V. Ortiz, A. F. Izmaylov, J. L. Sonnenberg, D. Williams-Young, 
 F. Ding, F. Lipparini, F. Egidi, J. Goings, B. Peng, A. Petrone, 
 T. Henderson, D. Ranasinghe, V. G. Zakrzewski, J. Gao, N. Rega, 
 G. Zheng, W. Liang, M. Hada, M. Ehara, K. Toyota, R. Fukuda, 
 J. Hasegawa, M. Ishida, T. Nakajima, Y. Honda, O. Kitao, H. Nakai, 
 T. Vreven, K. Throssell, J. A. Montgomery, Jr., J. E. Peralta, 
 F. Ogliaro, M. J. Bearpark, J. J. Heyd, E. N. Brothers, K. N. Kudin, 
 V. N. Staroverov, T. A. Keith, R. Kobayashi, J. Normand, 
 K. Raghavachari, A. P. Rendell, J. C. Burant, S. S. Iyengar, 
 J. Tomasi, M. Cossi, J. M. Millam, M. Klene, C. Adamo, R. Cammi, 
 J. W. Ochterski, R. L. Martin, K. Morokuma, O. Farkas, 
 J. B. Foresman, and D. J. Fox, Gaussian, Inc., Wallingford CT, 2016.
 
 ******************************************
 Gaussian 16:  ES64L-G16RevA.03 25-Dec-2016
                19-Nov-2024 
 ******************************************
 %chk=opt.chk
 %mem=4GB
 %nprocshared=8
 Will use up to    8 processors via shared memory.
 --------------------------------------------
 #p opt UM062X/6-311+G** nosymm int=superfine
 --------------------------------------------
 1/18=20,19=15,26=5,38=1/1,3;
 2/9=110,12=2,15=1,17=6,18=5,40=1/2;
 3/5=4,6=6,7=111,11=2,25=1,30=1,71=1,74=-55,75=-7,116=2/1,2,3;
 4//1;
 5/5=2,38=5/2;
 6/7=2,8=2,9=2,10=2,28=1/1;
 7/30=1/1,2,3,16;
 1/18=20,19=15,26=5/3(2);
 2/9=110,15=1/2;
 99//99;
 2/9=110,15=1/2;
 3/5=4,6=6,7=111,11=2,25=1,30=1,71=1,74=-55,75=-7,116=2/1,2,3;
 4/5=5,16=3,69=1/1;
 5/5=2,38=5/2;
 7/30=1/1,2,3,16;
 1/18=20,19=15,26=5/3(-5);
 2/9=110,15=1/2;
 6/7=2,8=2,9=2,10=2,19=2,28=1/1;
 99/9=1/99;
 Leave Link    1 at Tue Nov 19 11:01:32 2024, MaxMem=   536870912 cpu:               0.3 elap:               0.0
 (Enter /home/szhao/Apps/g16/l101.exe)
 -------------------
 Title Card Required
 -------------------
 Symbolic Z-matrix:
 Charge =  1 Multiplicity = 2
 C                    -1   -0.74224   0.        0. 
 C                    -1    0.74224   0.        0. 
 H                    0    -1.32585  -0.9323    0. 
 H                    0    -1.3224    0.93666   0. 
 H                    0     1.32585   0.9323    0. 
 H                    0     1.3224   -0.93666   0. 
 
 ITRead=  2  2  0  0  0  0
 MicOpt= -2 -2 -1 -1 -1 -1
 NAtoms=      6 NQM=        4 NQMF=       2 NMMI=      0 NMMIF=      0
                NMic=       0 NMicF=      0.
                    Isotopes and Nuclear Properties:
 (Nuclear quadrupole moments (NQMom) in fm**2, nuclear magnetic moments (NMagM)
  in nuclear magnetons)

  Atom         1           2           3           4           5           6
 IAtWgt=          12          12           1           1           1           1
 AtmWgt=  12.0000000  12.0000000   1.0078250   1.0078250   1.0078250   1.0078250
 NucSpn=           0           0           1           1           1           1
 AtZEff=  -0.0000000  -0.0000000  -0.0000000  -0.0000000  -0.0000000  -0.0000000
 NQMom=    0.0000000   0.0000000   0.0000000   0.0000000   0.0000000   0.0000000
 NMagM=    0.0000000   0.0000000   2.7928460   2.7928460   2.7928460   2.7928460
 AtZNuc=   6.0000000   6.0000000   1.0000000   1.0000000   1.0000000   1.0000000
 Leave Link  101 at Tue Nov 19 11:01:33 2024, MaxMem=   536870912 cpu:               2.3 elap:               0.3
 (Enter /home/szhao/Apps/g16/l103.exe)

 GradGradGradGradGradGradGradGradGradGradGradGradGradGradGradGradGradGrad
 Berny optimization.
 Initialization pass.
                           ----------------------------
                           !    Initial Parameters    !
                           ! (Angstroms and Degrees)  !
 --------------------------                            --------------------------
 ! Name  Definition              Value          Derivative Info.                !
 --------------------------------------------------------------------------------
 ! X1    R(1,-1)                -0.7422         Frozen                          !
 ! Y1    R(1,-2)                 0.0            Frozen                          !
 ! Z1    R(1,-3)                 0.0            Frozen                          !
 ! X2    R(2,-1)                 0.7422         Frozen                          !
 ! Y2    R(2,-2)                 0.0            Frozen                          !
 ! Z2    R(2,-3)                 0.0            Frozen                          !
 ! R1    R(1,3)                  1.0999         estimate D2E/DX2                !
 ! R2    R(1,4)                  1.1018         estimate D2E/DX2                !
 ! R3    R(2,5)                  1.0999         estimate D2E/DX2                !
 ! R4    R(2,6)                  1.1018         estimate D2E/DX2                !
 ! A1    A(2,1,3)              122.0465         estimate D2E/DX2                !
 ! A2    A(2,1,4)              121.7741         estimate D2E/DX2                !
 ! A3    A(3,1,4)              116.1793         estimate D2E/DX2                !
 ! A4    A(1,2,5)              122.0465         estimate D2E/DX2                !
 ! A5    A(1,2,6)              121.7741         estimate D2E/DX2                !
 ! A6    A(5,2,6)              116.1793         estimate D2E/DX2                !
 ! D1    D(3,1,2,5)            180.0            estimate D2E/DX2                !
 ! D2    D(3,1,2,6)              0.0            estimate D2E/DX2                !
 ! D3    D(4,1,2,5)              0.0            estimate D2E/DX2                !
 ! D4    D(4,1,2,6)            180.0            estimate D2E/DX2                !
 --------------------------------------------------------------------------------
 Trust Radius=3.00D-01 FncErr=1.00D-07 GrdErr=1.00D-07 EigMax=2.50D+02 EigMin=1.00D-04
 Number of steps in this run=     30 maximum allowed number of steps=    100.
 GradGradGradGradGradGradGradGradGradGradGradGradGradGradGradGradGradGrad

 Leave Link  103 at Tue Nov 19 11:01:33 2024, MaxMem=   536870912 cpu:               0.1 elap:               0.0
 (Enter /home/szhao/Apps/g16/l202.exe)
                          Input orientation:                          
 ---------------------------------------------------------------------
 Center     Atomic      Atomic             Coordinates (Angstroms)
 Number     Number       Type             X           Y           Z
 ---------------------------------------------------------------------
      1          6           0       -0.742237    0.000000    0.000000
      2          6           0        0.742237    0.000000    0.000000
      3          1           0       -1.325854   -0.932297    0.000000
      4          1           0       -1.322404    0.936658    0.000000
      5          1           0        1.325854    0.932297    0.000000
      6          1           0        1.322404   -0.936658    0.000000
 ---------------------------------------------------------------------
                    Distance matrix (angstroms):
                    1          2          3          4          5
     1  C    0.000000
     2  C    1.484473   0.000000
     3  H    1.099903   2.268518   0.000000
     4  H    1.101781   2.267172   1.868958   0.000000
     5  H    2.268518   1.099903   3.241645   2.648261   0.000000
     6  H    2.267172   1.101781   2.648261   3.241037   1.868958
                    6
     6  H    0.000000
 Symmetry turned off by external request.
 Stoichiometry    C2H4(1+,2)
 Framework group  C2H[SGH(C2H4)]
 Deg. of freedom     5
 Full point group                 C2H     NOp   4
 Rotational constants (GHZ):         143.5595859          24.9076347          21.2250769
 Leave Link  202 at Tue Nov 19 11:01:33 2024, MaxMem=   536870912 cpu:               0.0 elap:               0.0
 (Enter /home/szhao/Apps/g16/l301.exe)
 Standard basis: 6-311+G(d,p) (5D, 7F)
 Ernie: Thresh=  0.10000D-02 Tol=  0.10000D-05 Strict=F.
    68 basis functions,   104 primitive gaussians,    70 cartesian basis functions
     8 alpha electrons        7 beta electrons
       nuclear repulsion energy        31.2625321062 Hartrees.
 IExCor= 4336 DFT=T Ex+Corr=M062X ExCW=0 ScaHFX=  0.540000
 ScaDFX=  1.000000  1.000000  1.000000  1.000000 ScalE2=  1.000000  1.000000
 IRadAn=      7 IRanWt=     -1 IRanGd=            0 ICorTp=0 IEmpDi=  4
 NAtoms=    6 NActive=    6 NUniq=    6 SFac= 1.00D+00 NAtFMM=   60 NAOKFM=F Big=F
 Integral buffers will be    131072 words long.
 Raffenetti 2 integral format.
 Two-electron integral symmetry is turned off.
 Leave Link  301 at Tue Nov 19 11:01:33 2024, MaxMem=   536870912 cpu:               0.3 elap:               0.0
 (Enter /home/szhao/Apps/g16/l302.exe)
 NPDir=0 NMtPBC=     1 NCelOv=     1 NCel=       1 NClECP=     1 NCelD=      1
         NCelK=      1 NCelE2=     1 NClLst=     1 CellRange=     0.0.
 One-electron integrals computed using PRISM.
 NBasis=    68 RedAO= T EigKep=  2.79D-04  NBF=    68
 NBsUse=    68 1.00D-06 EigRej= -1.00D+00 NBFU=    68
 Precomputing XC quadrature grid using
 IXCGrd= 4 IRadAn=           7 IRanWt=          -1 IRanGd=           0 AccXCQ= 0.00D+00.
 Generated NRdTot=       0 NPtTot=           0 NUsed=           0 NTot=          32
 NSgBfM=    70    70    70    70    70 MxSgAt=     6 MxSgA2=     6.
 Leave Link  302 at Tue Nov 19 11:01:33 2024, MaxMem=   536870912 cpu:               1.1 elap:               0.1
 (Enter /home/szhao/Apps/g16/l303.exe)
 DipDrv:  MaxL=1.
 Leave Link  303 at Tue Nov 19 11:01:33 2024, MaxMem=   536870912 cpu:               0.3 elap:               0.0
 (Enter /home/szhao/Apps/g16/l401.exe)
 ExpMin= 4.38D-02 ExpMax= 4.56D+03 ExpMxC= 6.82D+02 IAcc=3 IRadAn=         7 AccDes= 0.00D+00
 Harris functional with IExCor= 1009 and IRadAn=       7 diagonalized for initial guess.
 HarFok:  IExCor= 1009 AccDes= 0.00D+00 IRadAn=         7 IDoV= 1 UseB2=F ITyADJ=14
 ICtDFT=  3500011 ScaDFX=  1.000000  1.000000  1.000000  1.000000
 FoFCou: FMM=F IPFlag=           0 FMFlag=      100000 FMFlg1=           0
         NFxFlg=           0 DoJE=T BraDBF=F KetDBF=T FulRan=T
         wScrn=  0.000000 ICntrl=       500 IOpCl=  0 I1Cent=   200000004 NGrid=           0
         NMat0=    1 NMatS0=      1 NMatT0=    0 NMatD0=    1 NMtDS0=    0 NMtDT0=    0
 Symmetry not used in FoFCou.
 Harris En= -78.1877067425357    
 JPrj=0 DoOrth=F DoCkMO=F.
 Initial guess <Sx>= 0.0000 <Sy>= 0.0000 <Sz>= 0.5000 <S**2>= 0.7500 S= 0.5000
 Leave Link  401 at Tue Nov 19 11:01:33 2024, MaxMem=   536870912 cpu:               2.7 elap:               0.3
 (Enter /home/szhao/Apps/g16/l502.exe)
 Keep R1 and R2 ints in memory in canonical form, NReq=12681614.
 FoFCou: FMM=F IPFlag=           0 FMFlag=           0 FMFlg1=           0
         NFxFlg=           0 DoJE=F BraDBF=F KetDBF=F FulRan=T
         wScrn=  0.000000 ICntrl=       600 IOpCl=  0 I1Cent=           0 NGrid=           0
         NMat0=    1 NMatS0=   2346 NMatT0=    0 NMatD0=    1 NMtDS0=    0 NMtDT0=    0
 Symmetry not used in FoFCou.
 Two-electron integral symmetry not used.
 UHF open shell SCF:
 Using DIIS extrapolation, IDIIS=  1040.
 NGot=   536870912 LenX=   531353794 LenY=   531348453
 Requested convergence on RMS density matrix=1.00D-08 within 128 cycles.
 Requested convergence on MAX density matrix=1.00D-06.
 Requested convergence on             energy=1.00D-06.
 No special actions if energy rises.

 Cycle   1  Pass 1  IDiag  1:
 E= -78.1715194434439    
 DIIS: error= 2.29D-02 at cycle   1 NSaved=   1.
 NSaved= 1 IEnMin= 1 EnMin= -78.1715194434439     IErMin= 1 ErrMin= 2.29D-02
 ErrMax= 2.29D-02  0.00D+00 EMaxC= 1.00D-01 BMatC= 6.24D-02 BMatP= 6.24D-02
 IDIUse=3 WtCom= 7.71D-01 WtEn= 2.29D-01
 Coeff-Com:  0.100D+01
 Coeff-En:   0.100D+01
 Coeff:      0.100D+01
 Gap=     0.344 Goal=   None    Shift=    0.000
 Gap=     0.316 Goal=   None    Shift=    0.000
 GapD=    0.316 DampG=1.000 DampE=0.500 DampFc=0.5000 IDamp=-1.
 Damping current iteration by 5.00D-01
 RMSDP=1.87D-03 MaxDP=2.78D-02              OVMax= 3.31D-02

 Cycle   2  Pass 1  IDiag  1:
 E= -78.1753272930067     Delta-E=       -0.003807849563 Rises=F Damp=T
 DIIS: error= 1.08D-02 at cycle   2 NSaved=   2.
 NSaved= 2 IEnMin= 2 EnMin= -78.1753272930067     IErMin= 2 ErrMin= 1.08D-02
 ErrMax= 1.08D-02  0.00D+00 EMaxC= 1.00D-01 BMatC= 1.48D-02 BMatP= 6.24D-02
 IDIUse=3 WtCom= 8.92D-01 WtEn= 1.08D-01
 Coeff-Com: -0.902D+00 0.190D+01
 Coeff-En:   0.000D+00 0.100D+01
 Coeff:     -0.805D+00 0.181D+01
 Gap=     0.343 Goal=   None    Shift=    0.000
 Gap=     0.312 Goal=   None    Shift=    0.000
 RMSDP=9.49D-04 MaxDP=1.44D-02 DE=-3.81D-03 OVMax= 6.74D-03

 Cycle   3  Pass 1  IDiag  1:
 E= -78.1791592829393     Delta-E=       -0.003831989933 Rises=F Damp=F
 DIIS: error= 1.21D-03 at cycle   3 NSaved=   3.
 NSaved= 3 IEnMin= 3 EnMin= -78.1791592829393     IErMin= 3 ErrMin= 1.21D-03
 ErrMax= 1.21D-03  0.00D+00 EMaxC= 1.00D-01 BMatC= 1.18D-04 BMatP= 1.48D-02
 IDIUse=3 WtCom= 9.88D-01 WtEn= 1.21D-02
 Coeff-Com: -0.173D+00 0.335D+00 0.838D+00
 Coeff-En:   0.000D+00 0.000D+00 0.100D+01
 Coeff:     -0.171D+00 0.331D+00 0.840D+00
 Gap=     0.343 Goal=   None    Shift=    0.000
 Gap=     0.314 Goal=   None    Shift=    0.000
 RMSDP=7.30D-05 MaxDP=2.34D-03 DE=-3.83D-03 OVMax= 2.95D-03

 Cycle   4  Pass 1  IDiag  1:
 E= -78.1791955255241     Delta-E=       -0.000036242585 Rises=F Damp=F
 DIIS: error= 5.15D-04 at cycle   4 NSaved=   4.
 NSaved= 4 IEnMin= 4 EnMin= -78.1791955255241     IErMin= 4 ErrMin= 5.15D-04
 ErrMax= 5.15D-04  0.00D+00 EMaxC= 1.00D-01 BMatC= 1.38D-05 BMatP= 1.18D-04
 IDIUse=3 WtCom= 9.95D-01 WtEn= 5.15D-03
 Coeff-Com:  0.339D-01-0.737D-01 0.112D+00 0.927D+00
 Coeff-En:   0.000D+00 0.000D+00 0.000D+00 0.100D+01
 Coeff:      0.337D-01-0.733D-01 0.112D+00 0.928D+00
 Gap=     0.343 Goal=   None    Shift=    0.000
 Gap=     0.313 Goal=   None    Shift=    0.000
 RMSDP=2.79D-05 MaxDP=6.41D-04 DE=-3.62D-05 OVMax= 1.08D-03

 Cycle   5  Pass 1  IDiag  1:
 E= -78.1792015196279     Delta-E=       -0.000005994104 Rises=F Damp=F
 DIIS: error= 1.67D-04 at cycle   5 NSaved=   5.
 NSaved= 5 IEnMin= 5 EnMin= -78.1792015196279     IErMin= 5 ErrMin= 1.67D-04
 ErrMax= 1.67D-04  0.00D+00 EMaxC= 1.00D-01 BMatC= 1.68D-06 BMatP= 1.38D-05
 IDIUse=3 WtCom= 9.98D-01 WtEn= 1.67D-03
 Coeff-Com:  0.251D-01-0.486D-01-0.131D+00-0.335D-01 0.119D+01
 Coeff-En:   0.000D+00 0.000D+00 0.000D+00 0.000D+00 0.100D+01
 Coeff:      0.251D-01-0.485D-01-0.130D+00-0.335D-01 0.119D+01
 Gap=     0.343 Goal=   None    Shift=    0.000
 Gap=     0.314 Goal=   None    Shift=    0.000
 RMSDP=1.51D-05 MaxDP=3.23D-04 DE=-5.99D-06 OVMax= 5.82D-04

 Cycle   6  Pass 1  IDiag  1:
 E= -78.1792025796489     Delta-E=       -0.000001060021 Rises=F Damp=F
 DIIS: error= 2.52D-05 at cycle   6 NSaved=   6.
 NSaved= 6 IEnMin= 6 EnMin= -78.1792025796489     IErMin= 6 ErrMin= 2.52D-05
 ErrMax= 2.52D-05  0.00D+00 EMaxC= 1.00D-01 BMatC= 4.12D-08 BMatP= 1.68D-06
 IDIUse=1 WtCom= 1.00D+00 WtEn= 0.00D+00
 Coeff-Com: -0.657D-02 0.133D-01 0.201D-01-0.385D-01-0.237D+00 0.125D+01
 Coeff:     -0.657D-02 0.133D-01 0.201D-01-0.385D-01-0.237D+00 0.125D+01
 Gap=     0.343 Goal=   None    Shift=    0.000
 Gap=     0.314 Goal=   None    Shift=    0.000
 RMSDP=2.63D-06 MaxDP=4.14D-05 DE=-1.06D-06 OVMax= 8.87D-05

 Cycle   7  Pass 1  IDiag  1:
 E= -78.1792026061357     Delta-E=       -0.000000026487 Rises=F Damp=F
 DIIS: error= 2.20D-06 at cycle   7 NSaved=   7.
 NSaved= 7 IEnMin= 7 EnMin= -78.1792026061357     IErMin= 7 ErrMin= 2.20D-06
 ErrMax= 2.20D-06  0.00D+00 EMaxC= 1.00D-01 BMatC= 1.98D-10 BMatP= 4.12D-08
 IDIUse=1 WtCom= 1.00D+00 WtEn= 0.00D+00
 Coeff-Com:  0.308D-03-0.631D-03-0.897D-03 0.406D-02 0.109D-01-0.127D+00
 Coeff-Com:  0.111D+01
 Coeff:      0.308D-03-0.631D-03-0.897D-03 0.406D-02 0.109D-01-0.127D+00
 Coeff:      0.111D+01
 Gap=     0.343 Goal=   None    Shift=    0.000
 Gap=     0.314 Goal=   None    Shift=    0.000
 RMSDP=1.31D-07 MaxDP=2.17D-06 DE=-2.65D-08 OVMax= 6.20D-06

 Cycle   8  Pass 1  IDiag  1:
 E= -78.1792026062438     Delta-E=       -0.000000000108 Rises=F Damp=F
 DIIS: error= 1.56D-07 at cycle   8 NSaved=   8.
 NSaved= 8 IEnMin= 8 EnMin= -78.1792026062438     IErMin= 8 ErrMin= 1.56D-07
 ErrMax= 1.56D-07  0.00D+00 EMaxC= 1.00D-01 BMatC= 2.13D-12 BMatP= 1.98D-10
 IDIUse=1 WtCom= 1.00D+00 WtEn= 0.00D+00
 Coeff-Com:  0.141D-04-0.275D-04-0.152D-04-0.290D-03 0.470D-03 0.610D-02
 Coeff-Com: -0.160D+00 0.115D+01
 Coeff:      0.141D-04-0.275D-04-0.152D-04-0.290D-03 0.470D-03 0.610D-02
 Coeff:     -0.160D+00 0.115D+01
 Gap=     0.343 Goal=   None    Shift=    0.000
 Gap=     0.314 Goal=   None    Shift=    0.000
 RMSDP=1.96D-08 MaxDP=2.41D-07 DE=-1.08D-10 OVMax= 5.23D-07

 Cycle   9  Pass 1  IDiag  1:
 E= -78.1792026062450     Delta-E=       -0.000000000001 Rises=F Damp=F
 DIIS: error= 1.24D-08 at cycle   9 NSaved=   9.
 NSaved= 9 IEnMin= 9 EnMin= -78.1792026062450     IErMin= 9 ErrMin= 1.24D-08
 ErrMax= 1.24D-08  0.00D+00 EMaxC= 1.00D-01 BMatC= 1.55D-14 BMatP= 2.13D-12
 IDIUse=1 WtCom= 1.00D+00 WtEn= 0.00D+00
 Coeff-Com: -0.486D-05 0.964D-05 0.708D-05 0.361D-05-0.160D-03 0.273D-03
 Coeff-Com:  0.960D-02-0.130D+00 0.112D+01
 Coeff:     -0.486D-05 0.964D-05 0.708D-05 0.361D-05-0.160D-03 0.273D-03
 Coeff:      0.960D-02-0.130D+00 0.112D+01
 Gap=     0.343 Goal=   None    Shift=    0.000
 Gap=     0.314 Goal=   None    Shift=    0.000
 RMSDP=1.77D-09 MaxDP=2.46D-08 DE=-1.25D-12 OVMax= 4.85D-08

 SCF Done:  E(UM062X) =  -78.1792026062     A.U. after    9 cycles
            NFock=  9  Conv=0.18D-08     -V/T= 2.0070
 <Sx>= 0.0000 <Sy>= 0.0000 <Sz>= 0.5000 <S**2>= 0.7526 S= 0.5013
 <L.S>=  0.00000000000    
 KE= 7.763271021538D+01 PE=-2.386925755927D+02 EE= 5.161813066487D+01
 Annihilation of the first spin contaminant:
 S**2 before annihilation     0.7526,   after     0.7500
 Leave Link  502 at Tue Nov 19 11:01:39 2024, MaxMem=   536870912 cpu:              43.0 elap:               5.5
 (Enter /home/szhao/Apps/g16/l601.exe)
 Copying SCF densities to generalized density rwf, IOpCl= 1 IROHF=0.

 **********************************************************************

            Population analysis using the SCF density.

 **********************************************************************

 Alpha  occ. eigenvalues --  -10.90342 -10.90284  -1.15929  -0.97832  -0.82793
 Alpha  occ. eigenvalues --   -0.78569  -0.72649  -0.64912
 Alpha virt. eigenvalues --   -0.30611  -0.14595  -0.13191  -0.12135  -0.09454
 Alpha virt. eigenvalues --   -0.07638  -0.07025  -0.04562  -0.04406  -0.03543
 Alpha virt. eigenvalues --   -0.00706  -0.00059   0.05441   0.10102   0.19997
 Alpha virt. eigenvalues --    0.23606   0.27796   0.29183   0.32057   0.37507
 Alpha virt. eigenvalues --    0.39829   0.44184   0.46094   0.46424   0.54541
 Alpha virt. eigenvalues --    0.58916   0.76093   0.77755   0.85664   1.14071
 Alpha virt. eigenvalues --    1.15847   1.22999   1.23934   1.29094   1.33120
 Alpha virt. eigenvalues --    1.33505   1.49122   1.54561   1.67123   1.71229
 Alpha virt. eigenvalues --    1.73507   1.80049   1.86715   1.94510   2.10830
 Alpha virt. eigenvalues --    2.14321   2.26596   2.32286   2.38669   2.39909
 Alpha virt. eigenvalues --    2.42679   2.48047   2.55389   2.69527   2.86732
 Alpha virt. eigenvalues --    3.38347   3.49627   3.80969  23.50688  23.58690
  Beta  occ. eigenvalues --  -10.90112 -10.90068  -1.12077  -0.95887  -0.81750
  Beta  occ. eigenvalues --   -0.77612  -0.72314
  Beta virt. eigenvalues --   -0.40941  -0.23281  -0.16310  -0.12975  -0.12261
  Beta virt. eigenvalues --   -0.09895  -0.08616  -0.07066  -0.04256  -0.03868
  Beta virt. eigenvalues --   -0.03099  -0.01170   0.01045   0.06487   0.10619
  Beta virt. eigenvalues --    0.19496   0.22978   0.28621   0.30827   0.31039
  Beta virt. eigenvalues --    0.36475   0.40983   0.45798   0.46937   0.47236
  Beta virt. eigenvalues --    0.52534   0.57899   0.79498   0.81596   0.88122
  Beta virt. eigenvalues --    1.17653   1.17859   1.23796   1.27572   1.32050
  Beta virt. eigenvalues --    1.34456   1.34493   1.50637   1.56694   1.70120
  Beta virt. eigenvalues --    1.72719   1.76529   1.82144   1.88429   1.97924
  Beta virt. eigenvalues --    2.14124   2.17558   2.27567   2.32954   2.41528
  Beta virt. eigenvalues --    2.41835   2.46491   2.48878   2.60037   2.73320
  Beta virt. eigenvalues --    2.89091   3.42941   3.54351   3.86290  23.51980
  Beta virt. eigenvalues --   23.60133
          Condensed to atoms (all electrons):
               1          2          3          4          5          6
     1  C    4.895757   0.444221   0.378992   0.378859  -0.019068  -0.019403
     2  C    0.444221   4.895757  -0.019068  -0.019403   0.378992   0.378859
     3  H    0.378992  -0.019068   0.367565  -0.007614   0.001180  -0.000855
     4  H    0.378859  -0.019403  -0.007614   0.368244  -0.000855   0.001211
     5  H   -0.019068   0.378992   0.001180  -0.000855   0.367565  -0.007614
     6  H   -0.019403   0.378859  -0.000855   0.001211  -0.007614   0.368244
          Atomic-Atomic Spin Densities.
               1          2          3          4          5          6
     1  C    0.431496   0.118733  -0.006514  -0.006531   0.001086   0.001094
     2  C    0.118733   0.431496   0.001086   0.001094  -0.006514  -0.006531
     3  H   -0.006514   0.001086  -0.013721  -0.000317   0.000013  -0.000182
     4  H   -0.006531   0.001094  -0.000317  -0.013801  -0.000182   0.000011
     5  H    0.001086  -0.006514   0.000013  -0.000182  -0.013721  -0.000317
     6  H    0.001094  -0.006531  -0.000182   0.000011  -0.000317  -0.013801
 Mulliken charges and spin densities:
               1          2
     1  C   -0.059357   0.539363
     2  C   -0.059357   0.539363
     3  H    0.279800  -0.019636
     4  H    0.279557  -0.019727
     5  H    0.279800  -0.019636
     6  H    0.279557  -0.019727
 Sum of Mulliken charges =   1.00000   1.00000
 Mulliken charges and spin densities with hydrogens summed into heavy atoms:
               1          2
     1  C    0.500000   0.500000
     2  C    0.500000   0.500000
 Electronic spatial extent (au):  <R**2>=             79.7658
 Charge=              1.0000 electrons
 Dipole moment (field-independent basis, Debye):
    X=             -0.0000    Y=             -0.0000    Z=              0.0000  Tot=              0.0000
 Quadrupole moment (field-independent basis, Debye-Ang):
   XX=             -4.7173   YY=             -8.6445   ZZ=            -11.7081
   XY=              0.0021   XZ=             -0.0000   YZ=             -0.0000
 Traceless Quadrupole moment (field-independent basis, Debye-Ang):
   XX=              3.6393   YY=             -0.2879   ZZ=             -3.3515
   XY=              0.0021   XZ=             -0.0000   YZ=             -0.0000
 Octapole moment (field-independent basis, Debye-Ang**2):
  XXX=             -0.0000  YYY=             -0.0000  ZZZ=              0.0000  XYY=              0.0000
  XXY=             -0.0000  XXZ=              0.0000  XZZ=              0.0000  YZZ=              0.0000
  YYZ=              0.0000  XYZ=              0.0000
 Hexadecapole moment (field-independent basis, Debye-Ang**3):
 XXXX=            -54.5328 YYYY=            -18.5200 ZZZZ=            -10.8275 XXXY=              0.0628
 XXXZ=             -0.0000 YYYX=             -0.0168 YYYZ=             -0.0000 ZZZX=             -0.0000
 ZZZY=             -0.0000 XXYY=             -6.5246 XXZZ=            -12.9552 YYZZ=             -5.9803
 XXYZ=              0.0000 YYXZ=             -0.0000 ZZXY=              0.0084
 N-N= 3.126253210622D+01 E-N=-2.386925753895D+02  KE= 7.763271021538D+01
                          Isotropic Fermi Contact Couplings
        Atom                 a.u.       MegaHertz       Gauss      10(-4) cm-1
     1  C(13)              0.08884      99.87174      35.63672      33.31363
     2  C(13)              0.08884      99.87174      35.63672      33.31363
     3  H(1)              -0.00912     -40.76059     -14.54439     -13.59627
     4  H(1)              -0.00913     -40.81522     -14.56388     -13.61449
     5  H(1)              -0.00912     -40.76059     -14.54439     -13.59627
     6  H(1)              -0.00913     -40.81522     -14.56388     -13.61449
 --------------------------------------------------------
       Center         ----  Spin Dipole Couplings  ----
                      3XX-RR        3YY-RR        3ZZ-RR
 --------------------------------------------------------
     1   Atom       -0.279313     -0.293229      0.572542
     2   Atom       -0.279313     -0.293229      0.572542
     3   Atom       -0.000858      0.011668     -0.010810
     4   Atom       -0.001164      0.012019     -0.010855
     5   Atom       -0.000858      0.011668     -0.010810
     6   Atom       -0.001164      0.012019     -0.010855
 --------------------------------------------------------
                        XY            XZ            YZ
 --------------------------------------------------------
     1   Atom       -0.000064     -0.000000     -0.000000
     2   Atom       -0.000064     -0.000000      0.000000
     3   Atom        0.042585      0.000000      0.000000
     4   Atom       -0.042435      0.000000     -0.000000
     5   Atom        0.042585      0.000000      0.000000
     6   Atom       -0.042435      0.000000     -0.000000
 --------------------------------------------------------


 ---------------------------------------------------------------------------------
              Anisotropic Spin Dipole Couplings in Principal Axis System
 ---------------------------------------------------------------------------------

       Atom             a.u.   MegaHertz   Gauss  10(-4) cm-1        Axes

              Baa    -0.2932   -39.349   -14.041   -13.125  0.0046  1.0000  0.0000
     1 C(13)  Bbb    -0.2793   -37.481   -13.374   -12.502  1.0000 -0.0046  0.0000
              Bcc     0.5725    76.830    27.415    25.628 -0.0000 -0.0000  1.0000
 
              Baa    -0.2932   -39.349   -14.041   -13.125  0.0046  1.0000 -0.0000
     2 C(13)  Bbb    -0.2793   -37.481   -13.374   -12.502  1.0000 -0.0046  0.0000
              Bcc     0.5725    76.830    27.415    25.628 -0.0000  0.0000  1.0000
 
              Baa    -0.0376   -20.082    -7.166    -6.699  0.7568 -0.6536  0.0000
     3 H(1)   Bbb    -0.0108    -5.767    -2.058    -1.924 -0.0000 -0.0000  1.0000
              Bcc     0.0484    25.849     9.224     8.622  0.6536  0.7568  0.0000
 
              Baa    -0.0375   -20.017    -7.143    -6.677  0.7594  0.6506  0.0000
     4 H(1)   Bbb    -0.0109    -5.792    -2.067    -1.932 -0.0000  0.0000  1.0000
              Bcc     0.0484    25.808     9.209     8.609 -0.6506  0.7594 -0.0000
 
              Baa    -0.0376   -20.082    -7.166    -6.699  0.7568 -0.6536  0.0000
     5 H(1)   Bbb    -0.0108    -5.767    -2.058    -1.924 -0.0000 -0.0000  1.0000
              Bcc     0.0484    25.849     9.224     8.622  0.6536  0.7568  0.0000
 
              Baa    -0.0375   -20.017    -7.143    -6.677  0.7594  0.6506  0.0000
     6 H(1)   Bbb    -0.0109    -5.792    -2.067    -1.932 -0.0000  0.0000  1.0000
              Bcc     0.0484    25.808     9.209     8.609 -0.6506  0.7594 -0.0000
 

 ---------------------------------------------------------------------------------

 No NMR shielding tensors so no spin-rotation constants.
 Leave Link  601 at Tue Nov 19 11:01:39 2024, MaxMem=   536870912 cpu:               1.2 elap:               0.1
 (Enter /home/szhao/Apps/g16/l701.exe)
 ... and contract with generalized density number  0.
 Compute integral first derivatives.
 Leave Link  701 at Tue Nov 19 11:01:39 2024, MaxMem=   536870912 cpu:               0.7 elap:               0.1
 (Enter /home/szhao/Apps/g16/l702.exe)
 L702 exits ... SP integral derivatives will be done elsewhere.
 Leave Link  702 at Tue Nov 19 11:01:39 2024, MaxMem=   536870912 cpu:               0.3 elap:               0.0
 (Enter /home/szhao/Apps/g16/l703.exe)
 Integral derivatives from FoFJK, PRISM(SPDF).
 Compute integral first derivatives, UseDBF=F ICtDFT=           0.
 Calling FoFJK, ICntrl=      2127 FMM=F ISym2X=0 I1Cent= 0 IOpClX= 1 NMat=1 NMatS=1 NMatT=0.
 FoFJK:  IHMeth= 1 ICntrl=    2127 DoSepK=F KAlg= 0 I1Cent=           0 FoldK=F
 IRaf=         0 NMat=       1 IRICut=       1 DoRegI=T DoRafI=F ISym2E= 0 IDoP0=0 IntGTp=1.
 FoFCou: FMM=F IPFlag=           0 FMFlag=      100000 FMFlg1=         800
         NFxFlg=           0 DoJE=F BraDBF=F KetDBF=F FulRan=T
         wScrn=  0.000000 ICntrl=      2127 IOpCl=  1 I1Cent=           0 NGrid=           0
         NMat0=    1 NMatS0=      1 NMatT0=    0 NMatD0=    1 NMtDS0=    0 NMtDT0=    0
 Symmetry not used in FoFCou.
 Leave Link  703 at Tue Nov 19 11:01:40 2024, MaxMem=   536870912 cpu:               8.8 elap:               1.1
 (Enter /home/szhao/Apps/g16/l716.exe)
 Dipole        =-6.83897383D-14-1.97619698D-14 4.90822378D-16
 -------------------------------------------------------------------
 Center     Atomic                   Forces (Hartrees/Bohr)
 Number     Number              X              Y              Z
 -------------------------------------------------------------------
      1        6          -0.000000000   -0.000000000   -0.000000000
      2        6          -0.000000000   -0.000000000   -0.000000000
      3        1           0.009426376    0.004544754   -0.000000000
      4        1           0.009743097   -0.005732615   -0.000000000
      5        1          -0.009426376   -0.004544754    0.000000000
      6        1          -0.009743097    0.005732615    0.000000000
 -------------------------------------------------------------------
 Cartesian Forces:  Max     0.009743097 RMS     0.005134872
 Leave Link  716 at Tue Nov 19 11:01:40 2024, MaxMem=   536870912 cpu:               0.3 elap:               0.1
 (Enter /home/szhao/Apps/g16/l103.exe)

 GradGradGradGradGradGradGradGradGradGradGradGradGradGradGradGradGradGrad
 Berny optimization.
 FormGI is forming the generalized inverse of G from B-inverse, IUseBI=4.
 Internal  Forces:  Max     0.019169473 RMS     0.007960038
 Search for a local minimum.
 Step number   1 out of a maximum of   30
 All quantities printed in internal units (Hartrees-Bohrs-Radians)
 RMS Force = .61349D-02 SwitMx=.10000D-02 MixMth= 1
 Mixed Optimization -- RFO/linear search
 Second derivative matrix not updated -- first step.
 The second derivative matrix:
                          X1        Y1        Z1        X2        Y2
           X1           0.50000
           Y1           0.00000   0.50000
           Z1           0.00000   0.00000   0.50000
           X2           0.00000   0.00000   0.00000   0.50000
           Y2           0.00000   0.00000   0.00000   0.00000   0.50000
           Z2           0.00000   0.00000   0.00000   0.00000   0.00000
           R1           0.00000   0.00000   0.00000   0.00000   0.00000
           R2           0.00000   0.00000   0.00000   0.00000   0.00000
           R3           0.00000   0.00000   0.00000   0.00000   0.00000
           R4           0.00000   0.00000   0.00000   0.00000   0.00000
           A1           0.00000   0.00000   0.00000   0.00000   0.00000
           A2           0.00000   0.00000   0.00000   0.00000   0.00000
           A3           0.00000   0.00000   0.00000   0.00000   0.00000
           A4           0.00000   0.00000   0.00000   0.00000   0.00000
           A5           0.00000   0.00000   0.00000   0.00000   0.00000
           A6           0.00000   0.00000   0.00000   0.00000   0.00000
           D1           0.00000   0.00000   0.00000   0.00000   0.00000
           D2           0.00000   0.00000   0.00000   0.00000   0.00000
           D3           0.00000   0.00000   0.00000   0.00000   0.00000
           D4           0.00000   0.00000   0.00000   0.00000   0.00000
                          Z2        R1        R2        R3        R4
           Z2           0.50000
           R1           0.00000   0.33693
           R2           0.00000   0.00000   0.33486
           R3           0.00000   0.00000   0.00000   0.33693
           R4           0.00000   0.00000   0.00000   0.00000   0.33486
           A1           0.00000   0.00000   0.00000   0.00000   0.00000
           A2           0.00000   0.00000   0.00000   0.00000   0.00000
           A3           0.00000   0.00000   0.00000   0.00000   0.00000
           A4           0.00000   0.00000   0.00000   0.00000   0.00000
           A5           0.00000   0.00000   0.00000   0.00000   0.00000
           A6           0.00000   0.00000   0.00000   0.00000   0.00000
           D1           0.00000   0.00000   0.00000   0.00000   0.00000
           D2           0.00000   0.00000   0.00000   0.00000   0.00000
           D3           0.00000   0.00000   0.00000   0.00000   0.00000
           D4           0.00000   0.00000   0.00000   0.00000   0.00000
                          A1        A2        A3        A4        A5
           A1           0.16000
           A2           0.00000   0.16000
           A3           0.00000   0.00000   0.16000
           A4           0.00000   0.00000   0.00000   0.16000
           A5           0.00000   0.00000   0.00000   0.00000   0.16000
           A6           0.00000   0.00000   0.00000   0.00000   0.00000
           D1           0.00000   0.00000   0.00000   0.00000   0.00000
           D2           0.00000   0.00000   0.00000   0.00000   0.00000
           D3           0.00000   0.00000   0.00000   0.00000   0.00000
           D4           0.00000   0.00000   0.00000   0.00000   0.00000
                          A6        D1        D2        D3        D4
           A6           0.16000
           D1           0.00000   0.00971
           D2           0.00000   0.00000   0.00971
           D3           0.00000   0.00000   0.00000   0.00971
           D4           0.00000   0.00000   0.00000   0.00000   0.00971
 ITU=  0
     Eigenvalues ---    0.00971   0.00971   0.00971   0.16000   0.16000
     Eigenvalues ---    0.16000   0.16000   0.33486   0.33486   0.33693
     Eigenvalues ---    0.336931000.000001000.000001000.000001000.00000
     Eigenvalues --- 1000.000001000.000001000.000001000.000001000.00000
 RFO step:  Lambda=-2.10506219D-03 EMin= 9.71337323D-03
 Linear search not attempted -- first point.
 Iteration  1 RMS(Cart)=  0.02493354 RMS(Int)=  0.00034681
 Iteration  2 RMS(Cart)=  0.00036740 RMS(Int)=  0.00000007
 Iteration  3 RMS(Cart)=  0.00000007 RMS(Int)=  0.00000000
 ITry= 1 IFail=0 DXMaxC= 5.79D-02 DCOld= 1.00D+10 DXMaxT= 3.00D-01 DXLimC= 3.00D+00 Rises=F
 Variable       Old X    -DE/DX   Delta X   Delta X   Delta X     New X
                                 (Linear)    (Quad)   (Total)
    X1       -1.40262   0.01917   0.00000   0.00000   0.00000  -1.40262
    Y1        0.00000  -0.00164   0.00000   0.00000   0.00000   0.00000
    Z1        0.00000  -0.00000   0.00000   0.00000   0.00000   0.00000
    X2        1.40262  -0.01917   0.00000   0.00000   0.00000   1.40262
    Y2        0.00000   0.00164   0.00000   0.00000   0.00000   0.00000
    Z2        0.00000   0.00000   0.00000   0.00000   0.00000   0.00000
    R1        2.07852  -0.00885   0.00000  -0.02612  -0.02612   2.05240
    R2        2.08206  -0.01000   0.00000  -0.02969  -0.02969   2.05238
    R3        2.07852  -0.00885   0.00000  -0.02612  -0.02612   2.05240
    R4        2.08206  -0.01000   0.00000  -0.02969  -0.02969   2.05238
    A1        2.13011  -0.00408   0.00000  -0.02515  -0.02515   2.10497
    A2        2.12536  -0.00344   0.00000  -0.02123  -0.02123   2.10413
    A3        2.02771   0.00752   0.00000   0.04638   0.04638   2.07409
    A4        2.13011  -0.00408   0.00000  -0.02515  -0.02515   2.10497
    A5        2.12536  -0.00344   0.00000  -0.02123  -0.02123   2.10413
    A6        2.02771   0.00752   0.00000   0.04638   0.04638   2.07409
    D1        3.14159  -0.00000   0.00000  -0.00000   0.00000   3.14159
    D2        0.00000  -0.00000   0.00000  -0.00000  -0.00000   0.00000
    D3        0.00000   0.00000   0.00000   0.00000   0.00000   0.00000
    D4        3.14159  -0.00000   0.00000  -0.00000   0.00000   3.14159
         Item               Value     Threshold  Converged?
 Maximum Force            0.010004     0.000450     NO 
 RMS     Force            0.006135     0.000300     NO 
 Maximum Displacement     0.057944     0.001800     NO 
 RMS     Displacement     0.024875     0.001200     NO 
 Predicted change in Energy=-1.062630D-03
 Lowest energy point so far.  Saving SCF results.
 GradGradGradGradGradGradGradGradGradGradGradGradGradGradGradGradGradGrad

 Leave Link  103 at Tue Nov 19 11:01:40 2024, MaxMem=   536870912 cpu:               0.0 elap:               0.0
 (Enter /home/szhao/Apps/g16/l202.exe)
                          Input orientation:                          
 ---------------------------------------------------------------------
 Center     Atomic      Atomic             Coordinates (Angstroms)
 Number     Number       Type             X           Y           Z
 ---------------------------------------------------------------------
      1          6           0       -0.742237    0.000000    0.000000
      2          6           0        0.742237    0.000000    0.000000
      3          1           0       -1.295191   -0.934783   -0.000000
      4          1           0       -1.294399    0.935236   -0.000000
      5          1           0        1.295191    0.934783    0.000000
      6          1           0        1.294399   -0.935236    0.000000
 ---------------------------------------------------------------------
                    Distance matrix (angstroms):
                    1          2          3          4          5
     1  C    0.000000
     2  C    1.484473   0.000000
     3  H    1.086084   2.241636   0.000000
     4  H    1.086071   2.241105   1.870019   0.000000
     5  H    2.241636   1.086084   3.194583   2.589590   0.000000
     6  H    2.241105   1.086071   2.589590   3.193828   1.870019
                    6
     6  H    0.000000
 Symmetry turned off by external request.
 Stoichiometry    C2H4(1+,2)
 Framework group  C2H[SGH(C2H4)]
 Deg. of freedom     5
 Full point group                 C2H     NOp   4
 Rotational constants (GHZ):         143.3969957          25.2937180          21.5011431
 Leave Link  202 at Tue Nov 19 11:01:40 2024, MaxMem=   536870912 cpu:               0.0 elap:               0.0
 (Enter /home/szhao/Apps/g16/l301.exe)
 Standard basis: 6-311+G(d,p) (5D, 7F)
 Ernie: Thresh=  0.10000D-02 Tol=  0.10000D-05 Strict=F.
    68 basis functions,   104 primitive gaussians,    70 cartesian basis functions
     8 alpha electrons        7 beta electrons
       nuclear repulsion energy        31.4990639992 Hartrees.
 IExCor= 4336 DFT=T Ex+Corr=M062X ExCW=0 ScaHFX=  0.540000
 ScaDFX=  1.000000  1.000000  1.000000  1.000000 ScalE2=  1.000000  1.000000
 IRadAn=      7 IRanWt=     -1 IRanGd=            0 ICorTp=0 IEmpDi=  4
 NAtoms=    6 NActive=    6 NUniq=    6 SFac= 1.00D+00 NAtFMM=   60 NAOKFM=F Big=F
 Integral buffers will be    131072 words long.
 Raffenetti 2 integral format.
 Two-electron integral symmetry is turned off.
 Leave Link  301 at Tue Nov 19 11:01:40 2024, MaxMem=   536870912 cpu:               0.4 elap:               0.0
 (Enter /home/szhao/Apps/g16/l302.exe)
 NPDir=0 NMtPBC=     1 NCelOv=     1 NCel=       1 NClECP=     1 NCelD=      1
         NCelK=      1 NCelE2=     1 NClLst=     1 CellRange=     0.0.
 One-electron integrals computed using PRISM.
 NBasis=    68 RedAO= T EigKep=  2.72D-04  NBF=    68
 NBsUse=    68 1.00D-06 EigRej= -1.00D+00 NBFU=    68
 Precomputing XC quadrature grid using
 IXCGrd= 4 IRadAn=           7 IRanWt=          -1 IRanGd=           0 AccXCQ= 0.00D+00.
 Generated NRdTot=       0 NPtTot=           0 NUsed=           0 NTot=          32
 NSgBfM=    70    70    70    70    70 MxSgAt=     6 MxSgA2=     6.
 Leave Link  302 at Tue Nov 19 11:01:40 2024, MaxMem=   536870912 cpu:               1.1 elap:               0.1
 (Enter /home/szhao/Apps/g16/l303.exe)
 DipDrv:  MaxL=1.
 Leave Link  303 at Tue Nov 19 11:01:41 2024, MaxMem=   536870912 cpu:               0.3 elap:               0.0
 (Enter /home/szhao/Apps/g16/l401.exe)
 Initial guess from the checkpoint file:  "opt.chk"
 B after Tr=     0.000000    0.000000   -0.000000
         Rot=    1.000000    0.000000    0.000000   -0.000444 Ang=  -0.05 deg.
 Guess basis will be translated and rotated to current coordinates.
 JPrj=2 DoOrth=T DoCkMO=T.
 Initial guess <Sx>= 0.0000 <Sy>= 0.0000 <Sz>= 0.5000 <S**2>= 0.7525 S= 0.5013
 Generating alternative initial guess.
 ExpMin= 4.38D-02 ExpMax= 4.56D+03 ExpMxC= 6.82D+02 IAcc=3 IRadAn=         5 AccDes= 0.00D+00
 Harris functional with IExCor= 1009 and IRadAn=       5 diagonalized for initial guess.
 HarFok:  IExCor= 1009 AccDes= 0.00D+00 IRadAn=         5 IDoV= 1 UseB2=F ITyADJ=14
 ICtDFT=  3500011 ScaDFX=  1.000000  1.000000  1.000000  1.000000
 FoFCou: FMM=F IPFlag=           0 FMFlag=      100000 FMFlg1=           0
         NFxFlg=           0 DoJE=T BraDBF=F KetDBF=T FulRan=T
         wScrn=  0.000000 ICntrl=       500 IOpCl=  0 I1Cent=   200000004 NGrid=           0
         NMat0=    1 NMatS0=      1 NMatT0=    0 NMatD0=    1 NMtDS0=    0 NMtDT0=    0
 Symmetry not used in FoFCou.
 Harris En= -78.1902307905005    
 Leave Link  401 at Tue Nov 19 11:01:41 2024, MaxMem=   536870912 cpu:               2.0 elap:               0.3
 (Enter /home/szhao/Apps/g16/l502.exe)
 Keep R1 and R2 ints in memory in canonical form, NReq=12681614.
 FoFCou: FMM=F IPFlag=           0 FMFlag=           0 FMFlg1=           0
         NFxFlg=           0 DoJE=F BraDBF=F KetDBF=F FulRan=T
         wScrn=  0.000000 ICntrl=       600 IOpCl=  0 I1Cent=           0 NGrid=           0
         NMat0=    1 NMatS0=   2346 NMatT0=    0 NMatD0=    1 NMtDS0=    0 NMtDT0=    0
 Symmetry not used in FoFCou.
 Two-electron integral symmetry not used.
 UHF open shell SCF:
 Using DIIS extrapolation, IDIIS=  1040.
 NGot=   536870912 LenX=   531353794 LenY=   531348453
 Requested convergence on RMS density matrix=1.00D-08 within 128 cycles.
 Requested convergence on MAX density matrix=1.00D-06.
 Requested convergence on             energy=1.00D-06.
 No special actions if energy rises.

 Cycle   1  Pass 1  IDiag  1:
 E= -78.1802420449979    
 DIIS: error= 2.67D-03 at cycle   1 NSaved=   1.
 NSaved= 1 IEnMin= 1 EnMin= -78.1802420449979     IErMin= 1 ErrMin= 2.67D-03
 ErrMax= 2.67D-03  0.00D+00 EMaxC= 1.00D-01 BMatC= 8.28D-04 BMatP= 8.28D-04
 IDIUse=3 WtCom= 9.73D-01 WtEn= 2.67D-02
 Coeff-Com:  0.100D+01
 Coeff-En:   0.100D+01
 Coeff:      0.100D+01
 Gap=     0.630 Goal=   None    Shift=    0.000
 Gap=     0.696 Goal=   None    Shift=    0.000
 GapD=    0.630 DampG=2.000 DampE=1.000 DampFc=2.0000 IDamp=-1.
 RMSDP=1.76D-04 MaxDP=1.40D-03              OVMax= 5.96D-03

 Cycle   2  Pass 1  IDiag  1:
 E= -78.1804319967941     Delta-E=       -0.000189951796 Rises=F Damp=F
 DIIS: error= 5.08D-04 at cycle   2 NSaved=   2.
 NSaved= 2 IEnMin= 2 EnMin= -78.1804319967941     IErMin= 2 ErrMin= 5.08D-04
 ErrMax= 5.08D-04  0.00D+00 EMaxC= 1.00D-01 BMatC= 4.21D-05 BMatP= 8.28D-04
 IDIUse=3 WtCom= 9.95D-01 WtEn= 5.08D-03
 Coeff-Com:  0.611D-01 0.939D+00
 Coeff-En:   0.000D+00 0.100D+01
 Coeff:      0.608D-01 0.939D+00
 Gap=     0.343 Goal=   None    Shift=    0.000
 Gap=     0.322 Goal=   None    Shift=    0.000
 RMSDP=4.98D-05 MaxDP=1.37D-03 DE=-1.90D-04 OVMax= 1.60D-03

 Cycle   3  Pass 1  IDiag  1:
 E= -78.1804406796293     Delta-E=       -0.000008682835 Rises=F Damp=F
 DIIS: error= 3.49D-04 at cycle   3 NSaved=   3.
 NSaved= 3 IEnMin= 3 EnMin= -78.1804406796293     IErMin= 3 ErrMin= 3.49D-04
 ErrMax= 3.49D-04  0.00D+00 EMaxC= 1.00D-01 BMatC= 9.66D-06 BMatP= 4.21D-05
 IDIUse=3 WtCom= 9.97D-01 WtEn= 3.49D-03
 Coeff-Com: -0.190D-01 0.310D+00 0.709D+00
 Coeff-En:   0.000D+00 0.000D+00 0.100D+01
 Coeff:     -0.190D-01 0.309D+00 0.710D+00
 Gap=     0.343 Goal=   None    Shift=    0.000
 Gap=     0.321 Goal=   None    Shift=    0.000
 RMSDP=1.50D-05 MaxDP=3.58D-04 DE=-8.68D-06 OVMax= 5.43D-04

 Cycle   4  Pass 1  IDiag  1:
 E= -78.1804431749586     Delta-E=       -0.000002495329 Rises=F Damp=F
 DIIS: error= 2.35D-05 at cycle   4 NSaved=   4.
 NSaved= 4 IEnMin= 4 EnMin= -78.1804431749586     IErMin= 4 ErrMin= 2.35D-05
 ErrMax= 2.35D-05  0.00D+00 EMaxC= 1.00D-01 BMatC= 3.44D-08 BMatP= 9.66D-06
 IDIUse=1 WtCom= 1.00D+00 WtEn= 0.00D+00
 Coeff-Com: -0.291D-03-0.308D-01-0.272D-01 0.106D+01
 Coeff:     -0.291D-03-0.308D-01-0.272D-01 0.106D+01
 Gap=     0.343 Goal=   None    Shift=    0.000
 Gap=     0.321 Goal=   None    Shift=    0.000
 RMSDP=1.66D-06 MaxDP=3.04D-05 DE=-2.50D-06 OVMax= 7.05D-05

 Cycle   5  Pass 1  IDiag  1:
 E= -78.1804431904292     Delta-E=       -0.000000015471 Rises=F Damp=F
 DIIS: error= 5.03D-06 at cycle   5 NSaved=   5.
 NSaved= 5 IEnMin= 5 EnMin= -78.1804431904292     IErMin= 5 ErrMin= 5.03D-06
 ErrMax= 5.03D-06  0.00D+00 EMaxC= 1.00D-01 BMatC= 1.48D-09 BMatP= 3.44D-08
 IDIUse=1 WtCom= 1.00D+00 WtEn= 0.00D+00
 Coeff-Com:  0.360D-03-0.883D-02-0.174D-01 0.635D-01 0.962D+00
 Coeff:      0.360D-03-0.883D-02-0.174D-01 0.635D-01 0.962D+00
 Gap=     0.343 Goal=   None    Shift=    0.000
 Gap=     0.321 Goal=   None    Shift=    0.000
 RMSDP=3.05D-07 MaxDP=5.34D-06 DE=-1.55D-08 OVMax= 1.22D-05

 Cycle   6  Pass 1  IDiag  1:
 E= -78.1804431910995     Delta-E=       -0.000000000670 Rises=F Damp=F
 DIIS: error= 1.42D-06 at cycle   6 NSaved=   6.
 NSaved= 6 IEnMin= 6 EnMin= -78.1804431910995     IErMin= 6 ErrMin= 1.42D-06
 ErrMax= 1.42D-06  0.00D+00 EMaxC= 1.00D-01 BMatC= 1.29D-10 BMatP= 1.48D-09
 IDIUse=1 WtCom= 1.00D+00 WtEn= 0.00D+00
 Coeff-Com: -0.465D-04 0.339D-02 0.488D-02-0.694D-01-0.212D+00 0.127D+01
 Coeff:     -0.465D-04 0.339D-02 0.488D-02-0.694D-01-0.212D+00 0.127D+01
 Gap=     0.343 Goal=   None    Shift=    0.000
 Gap=     0.321 Goal=   None    Shift=    0.000
 RMSDP=1.28D-07 MaxDP=2.23D-06 DE=-6.70D-10 OVMax= 4.50D-06

 Cycle   7  Pass 1  IDiag  1:
 E= -78.1804431911880     Delta-E=       -0.000000000089 Rises=F Damp=F
 DIIS: error= 2.90D-07 at cycle   7 NSaved=   7.
 NSaved= 7 IEnMin= 7 EnMin= -78.1804431911880     IErMin= 7 ErrMin= 2.90D-07
 ErrMax= 2.90D-07  0.00D+00 EMaxC= 1.00D-01 BMatC= 6.13D-12 BMatP= 1.29D-10
 IDIUse=1 WtCom= 1.00D+00 WtEn= 0.00D+00
 Coeff-Com: -0.912D-05-0.330D-03-0.277D-03 0.145D-01 0.513D-02-0.352D+00
 Coeff-Com:  0.133D+01
 Coeff:     -0.912D-05-0.330D-03-0.277D-03 0.145D-01 0.513D-02-0.352D+00
 Coeff:      0.133D+01
 Gap=     0.343 Goal=   None    Shift=    0.000
 Gap=     0.321 Goal=   None    Shift=    0.000
 RMSDP=3.41D-08 MaxDP=6.59D-07 DE=-8.85D-11 OVMax= 1.07D-06

 Cycle   8  Pass 1  IDiag  1:
 E= -78.1804431911925     Delta-E=       -0.000000000004 Rises=F Damp=F
 DIIS: error= 2.28D-08 at cycle   8 NSaved=   8.
 NSaved= 8 IEnMin= 8 EnMin= -78.1804431911925     IErMin= 8 ErrMin= 2.28D-08
 ErrMax= 2.28D-08  0.00D+00 EMaxC= 1.00D-01 BMatC= 5.37D-14 BMatP= 6.13D-12
 IDIUse=1 WtCom= 1.00D+00 WtEn= 0.00D+00
 Coeff-Com:  0.280D-05-0.124D-04-0.322D-04-0.111D-02 0.213D-02 0.371D-01
 Coeff-Com: -0.222D+00 0.118D+01
 Coeff:      0.280D-05-0.124D-04-0.322D-04-0.111D-02 0.213D-02 0.371D-01
 Coeff:     -0.222D+00 0.118D+01
 Gap=     0.343 Goal=   None    Shift=    0.000
 Gap=     0.321 Goal=   None    Shift=    0.000
 RMSDP=3.49D-09 MaxDP=3.76D-08 DE=-4.48D-12 OVMax= 1.05D-07

 SCF Done:  E(UM062X) =  -78.1804431912     A.U. after    8 cycles
            NFock=  8  Conv=0.35D-08     -V/T= 2.0060
 <Sx>= 0.0000 <Sy>= 0.0000 <Sz>= 0.5000 <S**2>= 0.7525 S= 0.5012
 <L.S>=  0.00000000000    
 KE= 7.771714110302D+01 PE=-2.392057534226D+02 EE= 5.180910512924D+01
 Annihilation of the first spin contaminant:
 S**2 before annihilation     0.7525,   after     0.7500
 Leave Link  502 at Tue Nov 19 11:01:46 2024, MaxMem=   536870912 cpu:              38.3 elap:               4.9
 (Enter /home/szhao/Apps/g16/l701.exe)
 ... and contract with generalized density number  0.
 Compute integral first derivatives.
 Leave Link  701 at Tue Nov 19 11:01:46 2024, MaxMem=   536870912 cpu:               0.7 elap:               0.1
 (Enter /home/szhao/Apps/g16/l702.exe)
 L702 exits ... SP integral derivatives will be done elsewhere.
 Leave Link  702 at Tue Nov 19 11:01:46 2024, MaxMem=   536870912 cpu:               0.3 elap:               0.0
 (Enter /home/szhao/Apps/g16/l703.exe)
 Integral derivatives from FoFJK, PRISM(SPDF).
 Compute integral first derivatives, UseDBF=F ICtDFT=           0.
 Calling FoFJK, ICntrl=      2127 FMM=F ISym2X=0 I1Cent= 0 IOpClX= 1 NMat=1 NMatS=1 NMatT=0.
 FoFJK:  IHMeth= 1 ICntrl=    2127 DoSepK=F KAlg= 0 I1Cent=           0 FoldK=F
 IRaf=         0 NMat=       1 IRICut=       1 DoRegI=T DoRafI=F ISym2E= 0 IDoP0=0 IntGTp=1.
 FoFCou: FMM=F IPFlag=           0 FMFlag=      100000 FMFlg1=         800
         NFxFlg=           0 DoJE=F BraDBF=F KetDBF=F FulRan=T
         wScrn=  0.000000 ICntrl=      2127 IOpCl=  1 I1Cent=           0 NGrid=           0
         NMat0=    1 NMatS0=      1 NMatT0=    0 NMatD0=    1 NMtDS0=    0 NMtDT0=    0
 Symmetry not used in FoFCou.
 Leave Link  703 at Tue Nov 19 11:01:47 2024, MaxMem=   536870912 cpu:               8.9 elap:               1.1
 (Enter /home/szhao/Apps/g16/l716.exe)
 Dipole        = 4.39648318D-14-1.90958360D-14-5.32281310D-14
 -------------------------------------------------------------------
 Center     Atomic                   Forces (Hartrees/Bohr)
 Number     Number              X              Y              Z
 -------------------------------------------------------------------
      1        6          -0.000000000   -0.000000000   -0.000000000
      2        6          -0.000000000   -0.000000000   -0.000000000
      3        1           0.001655391   -0.000971322   -0.000000000
      4        1           0.001596921    0.000953151   -0.000000000
      5        1          -0.001655391    0.000971322    0.000000000
      6        1          -0.001596921   -0.000953151    0.000000000
 -------------------------------------------------------------------
 Cartesian Forces:  Max     0.001655391 RMS     0.000890845
 Leave Link  716 at Tue Nov 19 11:01:47 2024, MaxMem=   536870912 cpu:               0.3 elap:               0.0
 (Enter /home/szhao/Apps/g16/l103.exe)

 GradGradGradGradGradGradGradGradGradGradGradGradGradGradGradGradGradGrad
 Berny optimization.
 Using GEDIIS/GDIIS optimizer.
 FormGI is forming the generalized inverse of G from B-inverse, IUseBI=4.
 Internal  Forces:  Max     0.003252311 RMS     0.001436046
 Search for a local minimum.
 Step number   2 out of a maximum of   30
 All quantities printed in internal units (Hartrees-Bohrs-Radians)
 RMS Force = .11972D-02 SwitMx=.10000D-02 MixMth= 1
 Mixed Optimization -- RFO/linear search
 Update second derivatives using D2CorX and points    1    2
 DE= -1.24D-03 DEPred=-1.06D-03 R= 1.17D+00
 TightC=F SS=  1.41D+00  RLast= 9.80D-02 DXNew= 5.0454D-01 2.9387D-01
 Trust test= 1.17D+00 RLast= 9.80D-02 DXMaxT set to 3.00D-01
 The second derivative matrix:
                          X1        Y1        Z1        X2        Y2
           X1           0.64519
           Y1          -0.01400   0.50135
           Z1           0.00000  -0.00000   0.50000
           X2          -0.14519   0.01400  -0.00000   0.64519
           Y2           0.01400  -0.00135   0.00000  -0.01400   0.50135
           Z2          -0.00000   0.00000  -0.00000   0.00000  -0.00000
           R1          -0.08070   0.00778  -0.00000   0.08070  -0.00778
           R2          -0.09133   0.00881  -0.00000   0.09133  -0.00881
           R3          -0.08070   0.00778  -0.00000   0.08070  -0.00778
           R4          -0.09133   0.00881  -0.00000   0.09133  -0.00881
           A1          -0.02483   0.00239  -0.00000   0.02483  -0.00239
           A2          -0.02016   0.00194  -0.00000   0.02016  -0.00194
           A3           0.04500  -0.00434   0.00000  -0.04500   0.00434
           A4          -0.02483   0.00239  -0.00000   0.02483  -0.00239
           A5          -0.02016   0.00194  -0.00000   0.02016  -0.00194
           A6           0.04500  -0.00434   0.00000  -0.04500   0.00434
           D1           0.00000  -0.00000   0.00000  -0.00000   0.00000
           D2           0.00000  -0.00000   0.00000  -0.00000   0.00000
           D3          -0.00000   0.00000  -0.00000   0.00000  -0.00000
           D4          -0.00000   0.00000  -0.00000   0.00000  -0.00000
                          Z2        R1        R2        R3        R4
           Z2           0.50000
           R1           0.00000   0.34465
           R2           0.00000   0.00881   0.34491
           R3           0.00000   0.00772   0.00881   0.34465
           R4           0.00000   0.00881   0.01005   0.00881   0.34491
           A1           0.00000  -0.00318  -0.00356  -0.00318  -0.00356
           A2           0.00000  -0.00313  -0.00352  -0.00313  -0.00352
           A3          -0.00000   0.00631   0.00708   0.00631   0.00708
           A4           0.00000  -0.00318  -0.00356  -0.00318  -0.00356
           A5           0.00000  -0.00313  -0.00352  -0.00313  -0.00352
           A6          -0.00000   0.00631   0.00708   0.00631   0.00708
           D1          -0.00000  -0.00000  -0.00000  -0.00000  -0.00000
           D2          -0.00000  -0.00000  -0.00000  -0.00000  -0.00000
           D3           0.00000   0.00000   0.00000   0.00000   0.00000
           D4           0.00000   0.00000   0.00000   0.00000   0.00000
                          A1        A2        A3        A4        A5
           A1           0.15648
           A2          -0.00311   0.15726
           A3           0.00662   0.00584   0.14753
           A4          -0.00352  -0.00311   0.00662   0.15648
           A5          -0.00311  -0.00274   0.00584  -0.00311   0.15726
           A6           0.00662   0.00584  -0.01247   0.00662   0.00584
           D1          -0.00000  -0.00000   0.00000  -0.00000  -0.00000
           D2          -0.00000  -0.00000   0.00000  -0.00000  -0.00000
           D3           0.00000   0.00000  -0.00000   0.00000   0.00000
           D4           0.00000   0.00000  -0.00000   0.00000   0.00000
                          A6        D1        D2        D3        D4
           A6           0.14753
           D1           0.00000   0.00971
           D2           0.00000   0.00000   0.00971
           D3          -0.00000  -0.00000  -0.00000   0.00971
           D4          -0.00000  -0.00000  -0.00000   0.00000   0.00971
 ITU=  1  0
 Use linear search instead of GDIIS.
     Eigenvalues ---    0.00971   0.00971   0.00971   0.12040   0.16000
     Eigenvalues ---    0.16000   0.16001   0.33486   0.33600   0.33693
     Eigenvalues ---    0.373471000.000001000.000001000.000001000.00000
     Eigenvalues --- 1000.000001000.000001000.000001000.000001000.00000
 RFO step:  Lambda=-8.86889939D-05 EMin= 9.71337323D-03
 Quartic linear search produced a step of  0.19966.
 Iteration  1 RMS(Cart)=  0.00959252 RMS(Int)=  0.00005041
 Iteration  2 RMS(Cart)=  0.00005044 RMS(Int)=  0.00000000
 Iteration  3 RMS(Cart)=  0.00000000 RMS(Int)=  0.00000000
 ITry= 1 IFail=0 DXMaxC= 1.99D-02 DCOld= 1.00D+10 DXMaxT= 3.00D-01 DXLimC= 3.00D+00 Rises=F
 Variable       Old X    -DE/DX   Delta X   Delta X   Delta X     New X
                                 (Linear)    (Quad)   (Total)
    X1       -1.40262   0.00325   0.00000   0.00000   0.00000  -1.40262
    Y1        0.00000  -0.00011   0.00000   0.00000   0.00000   0.00000
    Z1        0.00000  -0.00000   0.00000   0.00000   0.00000   0.00000
    X2        1.40262  -0.00325   0.00000   0.00000   0.00000   1.40262
    Y2        0.00000   0.00011   0.00000   0.00000   0.00000   0.00000
    Z2        0.00000   0.00000   0.00000   0.00000   0.00000   0.00000
    R1        2.05240  -0.00001  -0.00521   0.00422  -0.00100   2.05140
    R2        2.05238   0.00001  -0.00593   0.00485  -0.00107   2.05130
    R3        2.05240  -0.00001  -0.00521   0.00422  -0.00100   2.05140
    R4        2.05238   0.00001  -0.00593   0.00485  -0.00107   2.05130
    A1        2.10497  -0.00135  -0.00502  -0.00593  -0.01095   2.09402
    A2        2.10413  -0.00123  -0.00424  -0.00567  -0.00991   2.09422
    A3        2.07409   0.00259   0.00926   0.01159   0.02085   2.09495
    A4        2.10497  -0.00135  -0.00502  -0.00593  -0.01095   2.09402
    A5        2.10413  -0.00123  -0.00424  -0.00567  -0.00991   2.09422
    A6        2.07409   0.00259   0.00926   0.01159   0.02085   2.09495
    D1        3.14159  -0.00000   0.00000  -0.00000   0.00000   3.14159
    D2       -0.00000  -0.00000   0.00000  -0.00000   0.00000   0.00000
    D3        0.00000   0.00000   0.00000   0.00000   0.00000   0.00000
    D4        3.14159  -0.00000   0.00000  -0.00000   0.00000   3.14159
         Item               Value     Threshold  Converged?
 Maximum Force            0.002585     0.000450     NO 
 RMS     Force            0.001197     0.000300     NO 
 Maximum Displacement     0.019900     0.001800     NO 
 RMS     Displacement     0.009592     0.001200     NO 
 Predicted change in Energy=-8.279805D-05
 Lowest energy point so far.  Saving SCF results.
 GradGradGradGradGradGradGradGradGradGradGradGradGradGradGradGradGradGrad

 Leave Link  103 at Tue Nov 19 11:01:47 2024, MaxMem=   536870912 cpu:               0.1 elap:               0.0
 (Enter /home/szhao/Apps/g16/l202.exe)
                          Input orientation:                          
 ---------------------------------------------------------------------
 Center     Atomic      Atomic             Coordinates (Angstroms)
 Number     Number       Type             X           Y           Z
 ---------------------------------------------------------------------
      1          6           0       -0.742237    0.000000    0.000000
      2          6           0        0.742237    0.000000    0.000000
      3          1           0       -1.284661   -0.940323   -0.000000
      4          1           0       -1.284823    0.940168   -0.000000
      5          1           0        1.284661    0.940323    0.000000
      6          1           0        1.284823   -0.940168    0.000000
 ---------------------------------------------------------------------
                    Distance matrix (angstroms):
                    1          2          3          4          5
     1  C    0.000000
     2  C    1.484473   0.000000
     3  H    1.085556   2.234395   0.000000
     4  H    1.085503   2.234477   1.880492   0.000000
     5  H    2.234395   1.085556   3.184061   2.569483   0.000000
     6  H    2.234477   1.085503   2.569483   3.184140   1.880492
                    6
     6  H    0.000000
 Symmetry turned off by external request.
 Stoichiometry    C2H4(1+,2)
 Framework group  C2H[SGH(C2H4)]
 Deg. of freedom     5
 Full point group                 C2H     NOp   4
 Rotational constants (GHZ):         141.8042443          25.4267588          21.5607289
 Leave Link  202 at Tue Nov 19 11:01:47 2024, MaxMem=   536870912 cpu:               0.0 elap:               0.0
 (Enter /home/szhao/Apps/g16/l301.exe)
 Standard basis: 6-311+G(d,p) (5D, 7F)
 Ernie: Thresh=  0.10000D-02 Tol=  0.10000D-05 Strict=F.
    68 basis functions,   104 primitive gaussians,    70 cartesian basis functions
     8 alpha electrons        7 beta electrons
       nuclear repulsion energy        31.5236479494 Hartrees.
 IExCor= 4336 DFT=T Ex+Corr=M062X ExCW=0 ScaHFX=  0.540000
 ScaDFX=  1.000000  1.000000  1.000000  1.000000 ScalE2=  1.000000  1.000000
 IRadAn=      7 IRanWt=     -1 IRanGd=            0 ICorTp=0 IEmpDi=  4
 NAtoms=    6 NActive=    6 NUniq=    6 SFac= 1.00D+00 NAtFMM=   60 NAOKFM=F Big=F
 Integral buffers will be    131072 words long.
 Raffenetti 2 integral format.
 Two-electron integral symmetry is turned off.
 Leave Link  301 at Tue Nov 19 11:01:47 2024, MaxMem=   536870912 cpu:               0.3 elap:               0.0
 (Enter /home/szhao/Apps/g16/l302.exe)
 NPDir=0 NMtPBC=     1 NCelOv=     1 NCel=       1 NClECP=     1 NCelD=      1
         NCelK=      1 NCelE2=     1 NClLst=     1 CellRange=     0.0.
 One-electron integrals computed using PRISM.
 NBasis=    68 RedAO= T EigKep=  2.69D-04  NBF=    68
 NBsUse=    68 1.00D-06 EigRej= -1.00D+00 NBFU=    68
 Precomputing XC quadrature grid using
 IXCGrd= 4 IRadAn=           7 IRanWt=          -1 IRanGd=           0 AccXCQ= 0.00D+00.
 Generated NRdTot=       0 NPtTot=           0 NUsed=           0 NTot=          32
 NSgBfM=    70    70    70    70    70 MxSgAt=     6 MxSgA2=     6.
 Leave Link  302 at Tue Nov 19 11:01:47 2024, MaxMem=   536870912 cpu:               1.0 elap:               0.1
 (Enter /home/szhao/Apps/g16/l303.exe)
 DipDrv:  MaxL=1.
 Leave Link  303 at Tue Nov 19 11:01:47 2024, MaxMem=   536870912 cpu:               0.3 elap:               0.0
 (Enter /home/szhao/Apps/g16/l401.exe)
 Initial guess from the checkpoint file:  "opt.chk"
 B after Tr=    -0.000000    0.000000   -0.000000
         Rot=    1.000000    0.000000    0.000000   -0.000100 Ang=  -0.01 deg.
 Guess basis will be translated and rotated to current coordinates.
 JPrj=2 DoOrth=T DoCkMO=T.
 Initial guess <Sx>= 0.0000 <Sy>= 0.0000 <Sz>= 0.5000 <S**2>= 0.7525 S= 0.5012
 Leave Link  401 at Tue Nov 19 11:01:47 2024, MaxMem=   536870912 cpu:               0.6 elap:               0.1
 (Enter /home/szhao/Apps/g16/l502.exe)
 Keep R1 and R2 ints in memory in canonical form, NReq=12681614.
 FoFCou: FMM=F IPFlag=           0 FMFlag=           0 FMFlg1=           0
         NFxFlg=           0 DoJE=F BraDBF=F KetDBF=F FulRan=T
         wScrn=  0.000000 ICntrl=       600 IOpCl=  0 I1Cent=           0 NGrid=           0
         NMat0=    1 NMatS0=   2346 NMatT0=    0 NMatD0=    1 NMtDS0=    0 NMtDT0=    0
 Symmetry not used in FoFCou.
 Two-electron integral symmetry not used.
 UHF open shell SCF:
 Using DIIS extrapolation, IDIIS=  1040.
 NGot=   536870912 LenX=   531353794 LenY=   531348453
 Requested convergence on RMS density matrix=1.00D-08 within 128 cycles.
 Requested convergence on MAX density matrix=1.00D-06.
 Requested convergence on             energy=1.00D-06.
 No special actions if energy rises.

 Cycle   1  Pass 1  IDiag  1:
 E= -78.1805192437737    
 DIIS: error= 6.22D-04 at cycle   1 NSaved=   1.
 NSaved= 1 IEnMin= 1 EnMin= -78.1805192437737     IErMin= 1 ErrMin= 6.22D-04
 ErrMax= 6.22D-04  0.00D+00 EMaxC= 1.00D-01 BMatC= 5.26D-05 BMatP= 5.26D-05
 IDIUse=3 WtCom= 9.94D-01 WtEn= 6.22D-03
 Coeff-Com:  0.100D+01
 Coeff-En:   0.100D+01
 Coeff:      0.100D+01
 Gap=     0.630 Goal=   None    Shift=    0.000
 Gap=     0.698 Goal=   None    Shift=    0.000
 RMSDP=5.14D-05 MaxDP=7.52D-04              OVMax= 1.17D-03

 Cycle   2  Pass 1  IDiag  1:
 E= -78.1805315061733     Delta-E=       -0.000012262400 Rises=F Damp=F
 DIIS: error= 1.28D-04 at cycle   2 NSaved=   2.
 NSaved= 2 IEnMin= 2 EnMin= -78.1805315061733     IErMin= 2 ErrMin= 1.28D-04
 ErrMax= 1.28D-04  0.00D+00 EMaxC= 1.00D-01 BMatC= 1.27D-06 BMatP= 5.26D-05
 IDIUse=3 WtCom= 9.99D-01 WtEn= 1.28D-03
 Coeff-Com: -0.255D-01 0.103D+01
 Coeff-En:   0.000D+00 0.100D+01
 Coeff:     -0.255D-01 0.103D+01
 Gap=     0.343 Goal=   None    Shift=    0.000
 Gap=     0.323 Goal=   None    Shift=    0.000
 RMSDP=7.33D-06 MaxDP=1.04D-04 DE=-1.23D-05 OVMax= 2.59D-04

 Cycle   3  Pass 1  IDiag  1:
 E= -78.1805318063238     Delta-E=       -0.000000300150 Rises=F Damp=F
 DIIS: error= 4.71D-05 at cycle   3 NSaved=   3.
 NSaved= 3 IEnMin= 3 EnMin= -78.1805318063238     IErMin= 3 ErrMin= 4.71D-05
 ErrMax= 4.71D-05  0.00D+00 EMaxC= 1.00D-01 BMatC= 2.03D-07 BMatP= 1.27D-06
 IDIUse=1 WtCom= 1.00D+00 WtEn= 0.00D+00
 Coeff-Com: -0.256D-01 0.269D+00 0.757D+00
 Coeff:     -0.256D-01 0.269D+00 0.757D+00
 Gap=     0.343 Goal=   None    Shift=    0.000
 Gap=     0.323 Goal=   None    Shift=    0.000
 RMSDP=2.60D-06 MaxDP=5.86D-05 DE=-3.00D-07 OVMax= 8.31D-05

 Cycle   4  Pass 1  IDiag  1:
 E= -78.1805318585680     Delta-E=       -0.000000052244 Rises=F Damp=F
 DIIS: error= 7.22D-06 at cycle   4 NSaved=   4.
 NSaved= 4 IEnMin= 4 EnMin= -78.1805318585680     IErMin= 4 ErrMin= 7.22D-06
 ErrMax= 7.22D-06  0.00D+00 EMaxC= 1.00D-01 BMatC= 6.71D-09 BMatP= 2.03D-07
 IDIUse=1 WtCom= 1.00D+00 WtEn= 0.00D+00
 Coeff-Com: -0.408D-02 0.129D-01 0.157D+00 0.834D+00
 Coeff:     -0.408D-02 0.129D-01 0.157D+00 0.834D+00
 Gap=     0.343 Goal=   None    Shift=    0.000
 Gap=     0.323 Goal=   None    Shift=    0.000
 RMSDP=4.77D-07 MaxDP=1.18D-05 DE=-5.22D-08 OVMax= 1.82D-05

 Cycle   5  Pass 1  IDiag  1:
 E= -78.1805318604240     Delta-E=       -0.000000001856 Rises=F Damp=F
 DIIS: error= 1.55D-06 at cycle   5 NSaved=   5.
 NSaved= 5 IEnMin= 5 EnMin= -78.1805318604240     IErMin= 5 ErrMin= 1.55D-06
 ErrMax= 1.55D-06  0.00D+00 EMaxC= 1.00D-01 BMatC= 1.19D-10 BMatP= 6.71D-09
 IDIUse=1 WtCom= 1.00D+00 WtEn= 0.00D+00
 Coeff-Com:  0.110D-02-0.129D-01-0.303D-01 0.177D-01 0.102D+01
 Coeff:      0.110D-02-0.129D-01-0.303D-01 0.177D-01 0.102D+01
 Gap=     0.343 Goal=   None    Shift=    0.000
 Gap=     0.323 Goal=   None    Shift=    0.000
 RMSDP=1.05D-07 MaxDP=2.16D-06 DE=-1.86D-09 OVMax= 3.58D-06

 Cycle   6  Pass 1  IDiag  1:
 E= -78.1805318604726     Delta-E=       -0.000000000049 Rises=F Damp=F
 DIIS: error= 2.43D-07 at cycle   6 NSaved=   6.
 NSaved= 6 IEnMin= 6 EnMin= -78.1805318604726     IErMin= 6 ErrMin= 2.43D-07
 ErrMax= 2.43D-07  0.00D+00 EMaxC= 1.00D-01 BMatC= 3.27D-12 BMatP= 1.19D-10
 IDIUse=1 WtCom= 1.00D+00 WtEn= 0.00D+00
 Coeff-Com: -0.357D-03 0.472D-02 0.877D-02-0.181D-01-0.379D+00 0.138D+01
 Coeff:     -0.357D-03 0.472D-02 0.877D-02-0.181D-01-0.379D+00 0.138D+01
 Gap=     0.343 Goal=   None    Shift=    0.000
 Gap=     0.323 Goal=   None    Shift=    0.000
 RMSDP=2.31D-08 MaxDP=4.46D-07 DE=-4.86D-11 OVMax= 7.53D-07

 Cycle   7  Pass 1  IDiag  1:
 E= -78.1805318604749     Delta-E=       -0.000000000002 Rises=F Damp=F
 DIIS: error= 4.03D-08 at cycle   7 NSaved=   7.
 NSaved= 7 IEnMin= 7 EnMin= -78.1805318604749     IErMin= 7 ErrMin= 4.03D-08
 ErrMax= 4.03D-08  0.00D+00 EMaxC= 1.00D-01 BMatC= 1.24D-13 BMatP= 3.27D-12
 IDIUse=1 WtCom= 1.00D+00 WtEn= 0.00D+00
 Coeff-Com:  0.640D-04-0.912D-03-0.139D-02 0.493D-02 0.730D-01-0.422D+00
 Coeff-Com:  0.135D+01
 Coeff:      0.640D-04-0.912D-03-0.139D-02 0.493D-02 0.730D-01-0.422D+00
 Coeff:      0.135D+01
 Gap=     0.343 Goal=   None    Shift=    0.000
 Gap=     0.323 Goal=   None    Shift=    0.000
 RMSDP=4.84D-09 MaxDP=7.33D-08 DE=-2.34D-12 OVMax= 1.41D-07

 SCF Done:  E(UM062X) =  -78.1805318605     A.U. after    7 cycles
            NFock=  7  Conv=0.48D-08     -V/T= 2.0059
 <Sx>= 0.0000 <Sy>= 0.0000 <Sz>= 0.5000 <S**2>= 0.7525 S= 0.5012
 <L.S>=  0.00000000000    
 KE= 7.772264809868D+01 PE=-2.392593084933D+02 EE= 5.183248058476D+01
 Annihilation of the first spin contaminant:
 S**2 before annihilation     0.7525,   after     0.7500
 Leave Link  502 at Tue Nov 19 11:01:52 2024, MaxMem=   536870912 cpu:              34.3 elap:               4.4
 (Enter /home/szhao/Apps/g16/l701.exe)
 ... and contract with generalized density number  0.
 Compute integral first derivatives.
 Leave Link  701 at Tue Nov 19 11:01:52 2024, MaxMem=   536870912 cpu:               0.7 elap:               0.1
 (Enter /home/szhao/Apps/g16/l702.exe)
 L702 exits ... SP integral derivatives will be done elsewhere.
 Leave Link  702 at Tue Nov 19 11:01:52 2024, MaxMem=   536870912 cpu:               0.3 elap:               0.0
 (Enter /home/szhao/Apps/g16/l703.exe)
 Integral derivatives from FoFJK, PRISM(SPDF).
 Compute integral first derivatives, UseDBF=F ICtDFT=           0.
 Calling FoFJK, ICntrl=      2127 FMM=F ISym2X=0 I1Cent= 0 IOpClX= 1 NMat=1 NMatS=1 NMatT=0.
 FoFJK:  IHMeth= 1 ICntrl=    2127 DoSepK=F KAlg= 0 I1Cent=           0 FoldK=F
 IRaf=         0 NMat=       1 IRICut=       1 DoRegI=T DoRafI=F ISym2E= 0 IDoP0=0 IntGTp=1.
 FoFCou: FMM=F IPFlag=           0 FMFlag=      100000 FMFlg1=         800
         NFxFlg=           0 DoJE=F BraDBF=F KetDBF=F FulRan=T
         wScrn=  0.000000 ICntrl=      2127 IOpCl=  1 I1Cent=           0 NGrid=           0
         NMat0=    1 NMatS0=      1 NMatT0=    0 NMatD0=    1 NMtDS0=    0 NMtDT0=    0
 Symmetry not used in FoFCou.
 Leave Link  703 at Tue Nov 19 11:01:53 2024, MaxMem=   536870912 cpu:               8.6 elap:               1.1
 (Enter /home/szhao/Apps/g16/l716.exe)
 Dipole        = 2.04725126D-13 1.82076576D-14-3.87556855D-12
 -------------------------------------------------------------------
 Center     Atomic                   Forces (Hartrees/Bohr)
 Number     Number              X              Y              Z
 -------------------------------------------------------------------
      1        6          -0.000000000   -0.000000000   -0.000000000
      2        6          -0.000000000   -0.000000000   -0.000000000
      3        1           0.000050567   -0.000286900    0.000000000
      4        1           0.000045187    0.000324199    0.000000000
      5        1          -0.000050567    0.000286900   -0.000000000
      6        1          -0.000045187   -0.000324199   -0.000000000
 -------------------------------------------------------------------
 Cartesian Forces:  Max     0.000324199 RMS     0.000146065
 Leave Link  716 at Tue Nov 19 11:01:53 2024, MaxMem=   536870912 cpu:               0.3 elap:               0.0
 (Enter /home/szhao/Apps/g16/l103.exe)

 GradGradGradGradGradGradGradGradGradGradGradGradGradGradGradGradGradGrad
 Berny optimization.
 Using GEDIIS/GDIIS optimizer.
 FormGI is forming the generalized inverse of G from B-inverse, IUseBI=4.
 Internal  Forces:  Max     0.000265545 RMS     0.000153364
 Search for a local minimum.
 Step number   3 out of a maximum of   30
 All quantities printed in internal units (Hartrees-Bohrs-Radians)
 RMS Force = .17836D-03 SwitMx=.10000D-02 MixMth= 2
 Mixed Optimization -- En-DIIS/RFO-DIIS
 Update second derivatives using D2CorX and points    1    2    3
 DE= -8.87D-05 DEPred=-8.28D-05 R= 1.07D+00
 TightC=F SS=  1.41D+00  RLast= 3.62D-02 DXNew= 5.0454D-01 1.0859D-01
 Trust test= 1.07D+00 RLast= 3.62D-02 DXMaxT set to 3.00D-01
 The second derivative matrix:
                          X1        Y1        Z1        X2        Y2
           X1           0.65111
           Y1          -0.01103   0.50086
           Z1          -0.00000   0.00000   0.50000
           X2          -0.15111   0.01103   0.00000   0.65111
           Y2           0.01103  -0.00086  -0.00000  -0.01103   0.50086
           Z2           0.00000  -0.00000  -0.00000  -0.00000   0.00000
           R1          -0.08791   0.00776   0.00000   0.08791  -0.00776
           R2          -0.09961   0.00880   0.00000   0.09961  -0.00880
           R3          -0.08791   0.00776   0.00000   0.08791  -0.00776
           R4          -0.09961   0.00880   0.00000   0.09961  -0.00880
           A1          -0.02494   0.00122   0.00000   0.02494  -0.00122
           A2          -0.01920   0.00083   0.00000   0.01920  -0.00083
           A3           0.04414  -0.00205  -0.00000  -0.04414   0.00205
           A4          -0.02494   0.00122   0.00000   0.02494  -0.00122
           A5          -0.01920   0.00083   0.00000   0.01920  -0.00083
           A6           0.04414  -0.00205  -0.00000  -0.04414   0.00205
           D1          -0.00000   0.00000   0.00000   0.00000  -0.00000
           D2          -0.00000   0.00000   0.00000   0.00000  -0.00000
           D3           0.00000  -0.00000  -0.00000  -0.00000   0.00000
           D4           0.00000  -0.00000  -0.00000  -0.00000   0.00000
                          Z2        R1        R2        R3        R4
           Z2           0.50000
           R1          -0.00000   0.34688
           R2          -0.00000   0.01134   0.34777
           R3          -0.00000   0.00995   0.01134   0.34688
           R4          -0.00000   0.01134   0.01291   0.01134   0.34777
           A1          -0.00000  -0.00101  -0.00106  -0.00101  -0.00106
           A2          -0.00000  -0.00140  -0.00151  -0.00140  -0.00151
           A3           0.00000   0.00241   0.00257   0.00241   0.00257
           A4          -0.00000  -0.00101  -0.00106  -0.00101  -0.00106
           A5          -0.00000  -0.00140  -0.00151  -0.00140  -0.00151
           A6           0.00000   0.00241   0.00257   0.00241   0.00257
           D1          -0.00000   0.00000   0.00000   0.00000   0.00000
           D2          -0.00000   0.00000   0.00000   0.00000   0.00000
           D3           0.00000  -0.00000  -0.00000  -0.00000  -0.00000
           D4           0.00000  -0.00000  -0.00000  -0.00000  -0.00000
                          A1        A2        A3        A4        A5
           A1           0.15585
           A2          -0.00403   0.15613
           A3           0.00818   0.00790   0.14391
           A4          -0.00415  -0.00403   0.00818   0.15585
           A5          -0.00403  -0.00387   0.00790  -0.00403   0.15613
           A6           0.00818   0.00790  -0.01609   0.00818   0.00790
           D1           0.00000   0.00000  -0.00000   0.00000   0.00000
           D2           0.00000   0.00000  -0.00000   0.00000   0.00000
           D3          -0.00000  -0.00000   0.00000  -0.00000  -0.00000
           D4          -0.00000  -0.00000   0.00000  -0.00000  -0.00000
                          A6        D1        D2        D3        D4
           A6           0.14391
           D1          -0.00000   0.00971
           D2          -0.00000   0.00000   0.00971
           D3           0.00000  -0.00000  -0.00000   0.00971
           D4           0.00000  -0.00000  -0.00000   0.00000   0.00971
 ITU=  1  1  0
 Use linear search instead of GDIIS.
     Eigenvalues ---    0.00971   0.00971   0.00971   0.11146   0.16000
     Eigenvalues ---    0.16000   0.16004   0.33486   0.33600   0.33693
     Eigenvalues ---    0.381791000.000001000.000001000.000001000.00000
     Eigenvalues --- 1000.000001000.000001000.000001000.000001000.00000
 RFO step:  Lambda=-7.62806455D-07 EMin= 9.71337323D-03
 Quartic linear search produced a step of  0.10682.
 Iteration  1 RMS(Cart)=  0.00110285 RMS(Int)=  0.00000068
 Iteration  2 RMS(Cart)=  0.00000070 RMS(Int)=  0.00000000
 ITry= 1 IFail=0 DXMaxC= 1.90D-03 DCOld= 1.00D+10 DXMaxT= 3.00D-01 DXLimC= 3.00D+00 Rises=F
 Variable       Old X    -DE/DX   Delta X   Delta X   Delta X     New X
                                 (Linear)    (Quad)   (Total)
    X1       -1.40262   0.00010   0.00000   0.00000   0.00000  -1.40262
    Y1        0.00000   0.00006   0.00000   0.00000   0.00000   0.00000
    Z1        0.00000   0.00000   0.00000   0.00000   0.00000   0.00000
    X2        1.40262  -0.00010   0.00000   0.00000   0.00000   1.40262
    Y2        0.00000  -0.00006   0.00000   0.00000   0.00000   0.00000
    Z2        0.00000  -0.00000   0.00000   0.00000   0.00000   0.00000
    R1        2.05140   0.00022  -0.00011   0.00064   0.00054   2.05194
    R2        2.05130   0.00026  -0.00011   0.00075   0.00063   2.05194
    R3        2.05140   0.00022  -0.00011   0.00064   0.00054   2.05194
    R4        2.05130   0.00026  -0.00011   0.00075   0.00063   2.05194
    A1        2.09402  -0.00012  -0.00117   0.00009  -0.00108   2.09293
    A2        2.09422  -0.00015  -0.00106  -0.00019  -0.00125   2.09297
    A3        2.09495   0.00027   0.00223   0.00010   0.00233   2.09728
    A4        2.09402  -0.00012  -0.00117   0.00009  -0.00108   2.09293
    A5        2.09422  -0.00015  -0.00106  -0.00019  -0.00125   2.09297
    A6        2.09495   0.00027   0.00223   0.00010   0.00233   2.09728
    D1        3.14159   0.00000   0.00000   0.00000   0.00000   3.14159
    D2       -0.00000   0.00000   0.00000   0.00000   0.00000   0.00000
    D3        0.00000  -0.00000   0.00000  -0.00000  -0.00000   0.00000
    D4        3.14159  -0.00000   0.00000  -0.00000   0.00000   3.14159
         Item               Value     Threshold  Converged?
 Maximum Force            0.000266     0.000450     YES
 RMS     Force            0.000178     0.000300     YES
 Maximum Displacement     0.001898     0.001800     NO 
 RMS     Displacement     0.001103     0.001200     YES
 Predicted change in Energy=-1.211279D-06
 Lowest energy point so far.  Saving SCF results.
 GradGradGradGradGradGradGradGradGradGradGradGradGradGradGradGradGradGrad

 Leave Link  103 at Tue Nov 19 11:01:53 2024, MaxMem=   536870912 cpu:               0.0 elap:               0.0
 (Enter /home/szhao/Apps/g16/l202.exe)
                          Input orientation:                          
 ---------------------------------------------------------------------
 Center     Atomic      Atomic             Coordinates (Angstroms)
 Number     Number       Type             X           Y           Z
 ---------------------------------------------------------------------
      1          6           0       -0.742237    0.000000    0.000000
      2          6           0        0.742237    0.000000    0.000000
      3          1           0       -1.283783   -0.941158    0.000000
      4          1           0       -1.283818    0.941133    0.000000
      5          1           0        1.283783    0.941158   -0.000000
      6          1           0        1.283818   -0.941133   -0.000000
 ---------------------------------------------------------------------
[...]
                          Z2        R1        R2        R3        R4
           Z2           0.50000
           R1          -0.00000   0.34282
           R2          -0.00000   0.00666   0.34240
           R3          -0.00000   0.00589   0.00666   0.34282
           R4          -0.00000   0.00666   0.00754   0.00666   0.34240
           A1           0.00000  -0.00134  -0.00143  -0.00134  -0.00143
           A2           0.00000  -0.00095  -0.00097  -0.00095  -0.00097
           A3          -0.00000   0.00229   0.00239   0.00229   0.00239
           A4           0.00000  -0.00134  -0.00143  -0.00134  -0.00143
           A5           0.00000  -0.00095  -0.00097  -0.00095  -0.00097
           A6          -0.00000   0.00229   0.00239   0.00229   0.00239
           D1          -0.00000   0.00000   0.00000   0.00000   0.00000
           D2          -0.00000   0.00000   0.00000   0.00000   0.00000
           D3           0.00000  -0.00000  -0.00000  -0.00000  -0.00000
           D4           0.00000  -0.00000  -0.00000  -0.00000  -0.00000
                          A1        A2        A3        A4        A5
           A1           0.15604
           A2          -0.00406   0.15578
           A3           0.00802   0.00828   0.14370
           A4          -0.00396  -0.00406   0.00802   0.15604
           A5          -0.00406  -0.00422   0.00828  -0.00406   0.15578
           A6           0.00802   0.00828  -0.01630   0.00802   0.00828
           D1          -0.00000  -0.00000   0.00000  -0.00000  -0.00000
           D2          -0.00000  -0.00000   0.00000  -0.00000  -0.00000
           D3           0.00000   0.00000  -0.00000   0.00000   0.00000
           D4           0.00000   0.00000  -0.00000   0.00000   0.00000
                          A6        D1        D2        D3        D4
           A6           0.14370
           D1           0.00000   0.00971
           D2           0.00000   0.00000   0.00971
           D3          -0.00000  -0.00000  -0.00000   0.00971
           D4          -0.00000  -0.00000  -0.00000   0.00000   0.00971
 ITU=  1  1  1  0
     Eigenvalues ---    0.00971   0.00971   0.00971   0.11084   0.15994
     Eigenvalues ---    0.16000   0.16000   0.33486   0.33598   0.33693
     Eigenvalues ---    0.362931000.000001000.000001000.000001000.00000
     Eigenvalues --- 1000.000001000.000001000.000001000.000001000.00000
 En-DIIS/RFO-DIIS/Sim-DIIS IScMMF=       -3 using points:     4    3
 RFO step:  Lambda=-1.68696471D-09.
 NNeg= 0 NGDIIS= 2 SimSw=  2.50D-01 Rises=F DC= -1.23D-06 SmlDif=  1.00D-05
 NRisDI= 0 DoIntr=F SqrtH=F CThrHd= 10.0 CDAdj=  3.0
 RMS Error=  0.1747297843D-04 NUsed= 2 OKEnD=F EnDIS=F
 InvSVX:  RCond= 4.42D-06 Info=           0 Equed=N FErr=  9.04D-16 BErr=  4.44D-17
 DidBck=F Rises=F RFO-DIIS coefs:    1.00819   -0.00819
 Iteration  1 RMS(Cart)=  0.00002286 RMS(Int)=  0.00000000
 Iteration  2 RMS(Cart)=  0.00000000 RMS(Int)=  0.00000000
 ITry= 1 IFail=0 DXMaxC= 5.47D-05 DCOld= 1.00D+10 DXMaxT= 3.00D-01 DXLimC= 3.00D+00 Rises=F
 Variable       Old X    -DE/DX   Delta X   Delta X   Delta X     New X
                                 (Linear)    (Quad)   (Total)
    X1       -1.40262  -0.00001   0.00000   0.00000   0.00000  -1.40262
    Y1        0.00000   0.00001   0.00000   0.00000   0.00000   0.00000
    Z1        0.00000  -0.00000   0.00000   0.00000   0.00000   0.00000
    X2        1.40262   0.00001   0.00000   0.00000   0.00000   1.40262
    Y2        0.00000  -0.00001   0.00000   0.00000   0.00000   0.00000
    Z2        0.00000   0.00000   0.00000   0.00000   0.00000   0.00000
    R1        2.05194   0.00001   0.00000   0.00003   0.00003   2.05197
    R2        2.05194   0.00001   0.00001   0.00003   0.00004   2.05197
    R3        2.05194   0.00001   0.00000   0.00003   0.00003   2.05197
    R4        2.05194   0.00001   0.00001   0.00003   0.00004   2.05197
    A1        2.09293   0.00000  -0.00001   0.00002   0.00001   2.09295
    A2        2.09297  -0.00000  -0.00001  -0.00001  -0.00002   2.09295
    A3        2.09728   0.00000   0.00002  -0.00001   0.00001   2.09729
    A4        2.09293   0.00000  -0.00001   0.00002   0.00001   2.09295
    A5        2.09297  -0.00000  -0.00001  -0.00001  -0.00002   2.09295
    A6        2.09728   0.00000   0.00002  -0.00001   0.00001   2.09729
    D1        3.14159  -0.00000   0.00000  -0.00000   0.00000   3.14159
    D2        0.00000  -0.00000   0.00000  -0.00000  -0.00000   0.00000
    D3       -0.00000   0.00000   0.00000   0.00000   0.00000   0.00000
    D4        3.14159   0.00000   0.00000   0.00000   0.00000   3.14159
         Item               Value     Threshold  Converged?
 Maximum Force            0.000013     0.000450     YES
 RMS     Force            0.000007     0.000300     YES
 Maximum Displacement     0.000055     0.001800     YES
 RMS     Displacement     0.000023     0.001200     YES
 Predicted change in Energy=-9.507279D-10
 Optimization completed.
    -- Stationary point found.
                           ----------------------------
                           !   Optimized Parameters   !
                           ! (Angstroms and Degrees)  !
 --------------------------                            --------------------------
 ! Name  Definition              Value          Derivative Info.                !
 --------------------------------------------------------------------------------
 ! X1    R(1,-1)                -0.7422         -DE/DX =    0.0                 !
 ! Y1    R(1,-2)                 0.0            -DE/DX =    0.0                 !
 ! Z1    R(1,-3)                 0.0            -DE/DX =    0.0                 !
 ! X2    R(2,-1)                 0.7422         -DE/DX =    0.0                 !
 ! Y2    R(2,-2)                 0.0            -DE/DX =    0.0                 !
 ! Z2    R(2,-3)                 0.0            -DE/DX =    0.0                 !
 ! R1    R(1,3)                  1.0858         -DE/DX =    0.0                 !
 ! R2    R(1,4)                  1.0858         -DE/DX =    0.0                 !
 ! R3    R(2,5)                  1.0858         -DE/DX =    0.0                 !
 ! R4    R(2,6)                  1.0858         -DE/DX =    0.0                 !
 ! A1    A(2,1,3)              119.9163         -DE/DX =    0.0                 !
 ! A2    A(2,1,4)              119.9186         -DE/DX =    0.0                 !
 ! A3    A(3,1,4)              120.1651         -DE/DX =    0.0                 !
 ! A4    A(1,2,5)              119.9163         -DE/DX =    0.0                 !
 ! A5    A(1,2,6)              119.9186         -DE/DX =    0.0                 !
 ! A6    A(5,2,6)              120.1651         -DE/DX =    0.0                 !
 ! D1    D(3,1,2,5)            180.0            -DE/DX =    0.0                 !
 ! D2    D(3,1,2,6)              0.0            -DE/DX =    0.0                 !
 ! D3    D(4,1,2,5)              0.0            -DE/DX =    0.0                 !
 ! D4    D(4,1,2,6)            180.0            -DE/DX =    0.0                 !
 --------------------------------------------------------------------------------
 Lowest energy point so far.  Saving SCF results.
 Largest change from initial coordinates is atom    5       0.039 Angstoms.
 GradGradGradGradGradGradGradGradGradGradGradGradGradGradGradGradGradGrad

 Leave Link  103 at Tue Nov 19 11:01:59 2024, MaxMem=   536870912 cpu:               0.0 elap:               0.0
 (Enter /home/szhao/Apps/g16/l202.exe)
                          Input orientation:                          
 ---------------------------------------------------------------------
 Center     Atomic      Atomic             Coordinates (Angstroms)
 Number     Number       Type             X           Y           Z
 ---------------------------------------------------------------------
      1          6           0       -0.742237    0.000000    0.000000
      2          6           0        0.742237    0.000000    0.000000
      3          1           0       -1.283783   -0.941158    0.000000
      4          1           0       -1.283818    0.941133    0.000000
      5          1           0        1.283783    0.941158   -0.000000
      6          1           0        1.283818   -0.941133   -0.000000
 ---------------------------------------------------------------------
                    Distance matrix (angstroms):
                    1          2          3          4          5
     1  C    0.000000
     2  C    1.484473   0.000000
     3  H    1.085841   2.233950   0.000000
     4  H    1.085837   2.233972   1.882291   0.000000
     5  H    2.233950   1.085841   3.183631   2.567601   0.000000
     6  H    2.233972   1.085837   2.567601   3.183659   1.882291
                    6
     6  H    0.000000
 Symmetry turned off by external request.
 Stoichiometry    C2H4(1+,2)
 Framework group  C2H[SGH(C2H4)]
 Deg. of freedom     5
 Full point group                 C2H     NOp   4
 Rotational constants (GHZ):         141.5332804          25.4392323          21.5634175
 Leave Link  202 at Tue Nov 19 11:01:59 2024, MaxMem=   536870912 cpu:               0.0 elap:               0.0
 (Enter /home/szhao/Apps/g16/l601.exe)
 Copying SCF densities to generalized density rwf, IOpCl= 1 IROHF=0.

 **********************************************************************

            Population analysis using the SCF density.

 **********************************************************************

 Alpha  occ. eigenvalues --  -10.90093 -10.90035  -1.16377  -0.98072  -0.83963
 Alpha  occ. eigenvalues --   -0.78060  -0.73677  -0.65002
 Alpha virt. eigenvalues --   -0.30651  -0.14637  -0.12845  -0.12131  -0.09487
 Alpha virt. eigenvalues --   -0.07691  -0.06983  -0.04748  -0.04522  -0.02298
 Alpha virt. eigenvalues --   -0.00803   0.00640   0.05074   0.10512   0.19903
 Alpha virt. eigenvalues --    0.23082   0.27990   0.29490   0.32024   0.37599
 Alpha virt. eigenvalues --    0.41058   0.44042   0.46029   0.48159   0.55815
 Alpha virt. eigenvalues --    0.58771   0.75547   0.78422   0.85256   1.14885
 Alpha virt. eigenvalues --    1.15481   1.18514   1.25811   1.30120   1.34215
 Alpha virt. eigenvalues --    1.34900   1.48630   1.57235   1.67645   1.71156
 Alpha virt. eigenvalues --    1.74372   1.83347   1.84692   1.89922   2.15385
 Alpha virt. eigenvalues --    2.16069   2.27428   2.32191   2.39543   2.40938
 Alpha virt. eigenvalues --    2.42607   2.51552   2.55745   2.70872   2.86766
 Alpha virt. eigenvalues --    3.41455   3.52670   3.83256  23.54082  23.60344
  Beta  occ. eigenvalues --  -10.89865 -10.89820  -1.12552  -0.96113  -0.82946
  Beta  occ. eigenvalues --   -0.77076  -0.73344
  Beta virt. eigenvalues --   -0.41039  -0.23312  -0.16384  -0.12718  -0.12336
  Beta virt. eigenvalues --   -0.09895  -0.08523  -0.07041  -0.04743  -0.03815
  Beta virt. eigenvalues --   -0.01770  -0.01184   0.01603   0.06206   0.10978
  Beta virt. eigenvalues --    0.19313   0.22549   0.28872   0.30975   0.31088
  Beta virt. eigenvalues --    0.36497   0.42300   0.45523   0.47089   0.49189
  Beta virt. eigenvalues --    0.53068   0.57689   0.78986   0.82296   0.87752
  Beta virt. eigenvalues --    1.17314   1.18559   1.19415   1.29372   1.32989
  Beta virt. eigenvalues --    1.35682   1.35919   1.50137   1.59387   1.70356
  Beta virt. eigenvalues --    1.74194   1.75890   1.85450   1.86307   1.93436
  Beta virt. eigenvalues --    2.18618   2.19549   2.28404   2.32826   2.41155
  Beta virt. eigenvalues --    2.42899   2.46393   2.53806   2.60387   2.74844
  Beta virt. eigenvalues --    2.89262   3.46255   3.57458   3.89009  23.55397
  Beta virt. eigenvalues --   23.61778
          Condensed to atoms (all electrons):
               1          2          3          4          5          6
     1  C    4.890677   0.441007   0.382659   0.382658  -0.021133  -0.021129
     2  C    0.441007   4.890677  -0.021133  -0.021129   0.382659   0.382658
     3  H    0.382659  -0.021133   0.366539  -0.005838   0.001341  -0.000936
     4  H    0.382658  -0.021129  -0.005838   0.366534  -0.000936   0.001341
     5  H   -0.021133   0.382659   0.001341  -0.000936   0.366539  -0.005838
     6  H   -0.021129   0.382658  -0.000936   0.001341  -0.005838   0.366534
          Atomic-Atomic Spin Densities.
               1          2          3          4          5          6
     1  C    0.430020   0.118521  -0.006282  -0.006282   0.001098   0.001098
     2  C    0.118521   0.430020   0.001098   0.001098  -0.006282  -0.006282
     3  H   -0.006282   0.001098  -0.013215  -0.000478   0.000020  -0.000229
     4  H   -0.006282   0.001098  -0.000478  -0.013214  -0.000229   0.000020
     5  H    0.001098  -0.006282   0.000020  -0.000229  -0.013215  -0.000478
     6  H    0.001098  -0.006282  -0.000229   0.000020  -0.000478  -0.013214
 Mulliken charges and spin densities:
               1          2
     1  C   -0.054739   0.538173
     2  C   -0.054739   0.538173
     3  H    0.277368  -0.019087
     4  H    0.277371  -0.019086
     5  H    0.277368  -0.019087
     6  H    0.277371  -0.019086
 Sum of Mulliken charges =   1.00000   1.00000
 Mulliken charges and spin densities with hydrogens summed into heavy atoms:
               1          2
     1  C    0.500000   0.500000
     2  C    0.500000   0.500000
 Electronic spatial extent (au):  <R**2>=             78.6154
 Charge=              1.0000 electrons
 Dipole moment (field-independent basis, Debye):
    X=              0.0000    Y=              0.0000    Z=              0.0000  Tot=              0.0000
 Quadrupole moment (field-independent basis, Debye-Ang):
   XX=             -5.2210   YY=             -8.4380   ZZ=            -11.6442
   XY=             -0.0001   XZ=             -0.0000   YZ=             -0.0000
 Traceless Quadrupole moment (field-independent basis, Debye-Ang):
   XX=              3.2134   YY=             -0.0036   ZZ=             -3.2098
   XY=             -0.0001   XZ=             -0.0000   YZ=             -0.0000
 Octapole moment (field-independent basis, Debye-Ang**2):
  XXX=             -0.0000  YYY=              0.0000  ZZZ=             -0.0000  XYY=             -0.0000
  XXY=              0.0000  XXZ=              0.0000  XZZ=             -0.0000  YZZ=             -0.0000
  YYZ=              0.0000  XYZ=              0.0000
 Hexadecapole moment (field-independent basis, Debye-Ang**3):
 XXXX=            -55.0905 YYYY=            -18.0133 ZZZZ=            -10.7339 XXXY=             -0.0006
 XXXZ=             -0.0000 YYYX=              0.0001 YYYZ=             -0.0000 ZZZX=              0.0000
 ZZZY=              0.0000 XXYY=             -6.6965 XXZZ=            -12.6179 YYZZ=             -5.9210
 XXYZ=             -0.0000 YYXZ=             -0.0000 ZZXY=             -0.0000
 N-N= 3.152133222368D+01 E-N=-2.392543356817D+02  KE= 7.772123688467D+01
                          Isotropic Fermi Contact Couplings
        Atom                 a.u.       MegaHertz       Gauss      10(-4) cm-1
     1  C(13)              0.08771      98.60653      35.18526      32.89160
     2  C(13)              0.08771      98.60653      35.18526      32.89160
     3  H(1)              -0.00893     -39.92474     -14.24614     -13.31746
     4  H(1)              -0.00893     -39.92475     -14.24614     -13.31746
     5  H(1)              -0.00893     -39.92474     -14.24614     -13.31746
     6  H(1)              -0.00893     -39.92475     -14.24614     -13.31746
 --------------------------------------------------------
       Center         ----  Spin Dipole Couplings  ----
                      3XX-RR        3YY-RR        3ZZ-RR
 --------------------------------------------------------
     1   Atom       -0.277582     -0.294578      0.572160
     2   Atom       -0.277582     -0.294578      0.572160
     3   Atom       -0.003791      0.014204     -0.010414
     4   Atom       -0.003788      0.014202     -0.010413
     5   Atom       -0.003791      0.014204     -0.010414
     6   Atom       -0.003788      0.014202     -0.010413
 --------------------------------------------------------
                        XY            XZ            YZ
 --------------------------------------------------------
     1   Atom        0.000000      0.000000      0.000000
     2   Atom        0.000000      0.000000     -0.000000
     3   Atom        0.042673     -0.000000     -0.000000
     4   Atom       -0.042674     -0.000000      0.000000
     5   Atom        0.042673     -0.000000     -0.000000
     6   Atom       -0.042674     -0.000000      0.000000
 --------------------------------------------------------


 ---------------------------------------------------------------------------------
              Anisotropic Spin Dipole Couplings in Principal Axis System
 ---------------------------------------------------------------------------------

       Atom             a.u.   MegaHertz   Gauss  10(-4) cm-1        Axes

              Baa    -0.2946   -39.530   -14.105   -13.186 -0.0000  1.0000 -0.0000
     1 C(13)  Bbb    -0.2776   -37.249   -13.291   -12.425  1.0000  0.0000 -0.0000
              Bcc     0.5722    76.778    27.396    25.611  0.0000  0.0000  1.0000
 
              Baa    -0.2946   -39.530   -14.105   -13.186 -0.0000  1.0000  0.0000
     2 C(13)  Bbb    -0.2776   -37.249   -13.291   -12.425  1.0000  0.0000 -0.0000
              Bcc     0.5722    76.778    27.396    25.611  0.0000 -0.0000  1.0000
 
              Baa    -0.0384   -20.491    -7.312    -6.835  0.7766 -0.6300 -0.0000
     3 H(1)   Bbb    -0.0104    -5.556    -1.983    -1.853  0.0000  0.0000  1.0000
              Bcc     0.0488    26.047     9.294     8.688  0.6300  0.7766 -0.0000
 
              Baa    -0.0384   -20.491    -7.312    -6.835  0.7766  0.6300 -0.0000
     4 H(1)   Bbb    -0.0104    -5.556    -1.983    -1.853  0.0000 -0.0000  1.0000
              Bcc     0.0488    26.047     9.294     8.688 -0.6300  0.7766  0.0000
 
              Baa    -0.0384   -20.491    -7.312    -6.835  0.7766 -0.6300 -0.0000
     5 H(1)   Bbb    -0.0104    -5.556    -1.983    -1.853  0.0000  0.0000  1.0000
              Bcc     0.0488    26.047     9.294     8.688  0.6300  0.7766 -0.0000
 
              Baa    -0.0384   -20.491    -7.312    -6.835  0.7766  0.6300 -0.0000
     6 H(1)   Bbb    -0.0104    -5.556    -1.983    -1.853  0.0000 -0.0000  1.0000
              Bcc     0.0488    26.047     9.294     8.688 -0.6300  0.7766  0.0000
 

 ---------------------------------------------------------------------------------

 No NMR shielding tensors so no spin-rotation constants.
 Leave Link  601 at Tue Nov 19 11:01:59 2024, MaxMem=   536870912 cpu:               1.4 elap:               0.2
 (Enter /home/szhao/Apps/g16/l9999.exe)
 1\1\GINC-NODE01\FOpt\UM062X\6-311+G(d,p)\C2H4(1+,2)\SZHAO\19-Nov-2024\
 0\\#p opt UM062X/6-311+G** nosymm int=superfine\\Title Card Required\\
 1,2\C,-0.7422366,0.,0.\C,0.7422366,0.,0.\H,-1.283782865,-0.9411575505,
 0.0000000007\H,-1.2838182275,0.9411333461,0.0000000007\H,1.283782865,0
 .9411575505,-0.0000000005\H,1.2838182275,-0.9411333461,-0.0000000005\\
 Version=ES64L-G16RevA.03\HF=-78.1805331\S2=0.752473\S2-1=0.\S2A=0.7500
 05\RMSD=1.618e-09\RMSF=5.846e-06\Dipole=0.,0.,0.\Quadrupole=2.3890543,
 -0.0026596,-2.3863947,-0.000056,0.,0.\PG=C02H [SGH(C2H4)]\\@


 THERE IS AN OLD, OLD RECIPE IN MAINE FOR STEWING COOT. PLACE THE
 BIRD IN A KETTLE OF WATER WITH A RED BUILDING BRICK FREE OF MORTAR AND
 BLEMISHES. PARBOIL THE COOT AND BRICK TOGETHER FOR THREE HOURS.
 POUR OFF THE WATER, REFILL THE KETTLE, AND AGAIN PARBOIL FOR THREE HOURS.
 ONCE AGAIN POUR OFF THE WATER, FOR THE LAST TIME ADD FRESH WATER,
 AND LET THE COOT AND BRICK SIMMER TOGETHER OVERNIGHT. IN THE MORNING,
 THROW AWAY THE COOT AND EAT THE BRICK.
 Job cpu time:       0 days  0 hours  3 minutes 24.6 seconds.
 Elapsed time:       0 days  0 hours  0 minutes 26.0 seconds.
 File lengths (MBytes):  RWF=     10 Int=      0 D2E=      0 Chk=      2 Scr=      1
 Normal termination of Gaussian 16 at Tue Nov 19 11:01:59 2024.
