Title Card Required                                                     
FOpt      UM062X                                                      6-311+G(d,p)        
Number of atoms                            I                4
Info1-9                                    I   N=           9
          13          13           0           0           0         110
           2          18        -502
Full Title                                 C   N=           2
Title Card Required     
Route                                      C   N=           4
#p opt UM062X/6-311+G** nosymm int=superfine    
Charge                                     I                0
Multiplicity                               I                1
Number of electrons                        I               14
Number of alpha electrons                  I                7
Number of beta electrons                   I                7
Number of basis functions                  I               56
Number of independent functions            I               56
Number of point charges in /Mol/           I                0
Number of translation vectors              I                0
Atomic numbers                             I   N=           4
           6           6           1           1
Nuclear charges                            R   N=           4
  6.00000000E+00  6.00000000E+00  1.00000000E+00  1.00000000E+00
Current cartesian coordinates              R   N=          12
 -3.60488880E+00  0.00000000E+00  0.00000000E+00  3.60488880E+00  0.00000000E+00
  0.00000000E+00 -3.27360017E+00 -1.23223337E+00  1.68447490E+00  3.27424161E+00
  1.23540266E+00 -1.68227002E+00
Number of symbols in /Mol/                 I                0
Force Field                                I                0
Atom Types                                 C   N=           4
                                                
Int Atom Types                             I   N=           4
           0           0           0           0
MM charges                                 R   N=           4
  0.00000000E+00  0.00000000E+00  0.00000000E+00  0.00000000E+00
Integer atomic weights                     I   N=           4
          12          12           1           1
Real atomic weights                        R   N=           4
  1.20000000E+01  1.20000000E+01  1.00782504E+00  1.00782504E+00
Atom fragment info                         I   N=           4
           0           0           0           0
Atom residue num                           I   N=           4
           0           0           0           0
Nuclear spins                              I   N=           4
           0           0           1           1
Nuclear ZEff                               R   N=           4
 -3.60000000E+00 -3.60000000E+00 -1.00000000E+00 -1.00000000E+00
Nuclear ZNuc                               R   N=           4
  6.00000000E+00  6.00000000E+00  1.00000000E+00  1.00000000E+00
Nuclear QMom                               R   N=           4
  0.00000000E+00  0.00000000E+00  0.00000000E+00  0.00000000E+00
Nuclear GFac                               R   N=           4
  0.00000000E+00  0.00000000E+00  2.79284600E+00  2.79284600E+00
MicOpt                                     I   N=           4
          -2          -2          -1          -1
Number of residues                         I                0
Number of secondary structures             I                0
Redundant internal dimensions              I   N=           4
          11           8           2           1
Redundant internal coordinate indices      I   N=          44
           1          -1           0           0           1          -2
           0           0           1          -3           0           0
           2          -1           0           0           2          -2
           0           0           2          -3           0           0
           1           3           0           0           2           4
           0           0           2           1           3           0
           1           2           4           0           3           1
           2           4
Redundant internal coordinates             R   N=          11
 -3.60488880E+00  0.00000000E+00  0.00000000E+00  3.60488880E+00  0.00000000E+00
  0.00000000E+00  2.11319827E+00  2.11319184E+00  1.41337575E+00  1.41368260E+00
 -3.13974338E+00
ZRed-IntVec                                I   N=          11
          -1          -1          -1          -1          -1          -1
           0           0           0           0           0
ZRed-FPVec                                 R   N=          11
  0.00000000E+00  0.00000000E+00  0.00000000E+00  0.00000000E+00  0.00000000E+00
  0.00000000E+00  0.00000000E+00  0.00000000E+00  0.00000000E+00  0.00000000E+00
  0.00000000E+00
ZRed-Constraint1                           R   N=          11
 -3.60488880E+00  0.00000000E+00  0.00000000E+00  3.60488880E+00  0.00000000E+00
  0.00000000E+00  2.11079913E+00  2.11070705E+00  1.67217611E+00  1.67276462E+00
 -1.65242814E+00
ZRed-Constraint2                           R   N=          11
 -3.60488880E+00  0.00000000E+00  0.00000000E+00  3.60488880E+00  0.00000000E+00
  0.00000000E+00  0.00000000E+00  0.00000000E+00  0.00000000E+00  0.00000000E+00
  0.00000000E+00
Number of contracted shells                I               20
Number of primitive shells                 I               38
Pure/Cartesian d shells                    I                0
Pure/Cartesian f shells                    I                0
Highest angular momentum                   I                2
Largest degree of contraction              I                6
Shell types                                I   N=          20
           0          -1          -1          -1          -1          -2
           0          -1          -1          -1          -1          -2
           0           0           0           1           0           0
           0           1
Number of primitives per shell             I   N=          20
           6           3           1           1           1           1
           6           3           1           1           1           1
           3           1           1           1           3           1
           1           1
Shell to atom map                          I   N=          20
           1           1           1           1           1           1
           2           2           2           2           2           2
           3           3           3           3           4           4
           4           4
Primitive exponents                        R   N=          38
  4.56324000E+03  6.82024000E+02  1.54973000E+02  4.44553000E+01  1.30290000E+01
  1.82773000E+00  2.09642000E+01  4.80331000E+00  1.45933000E+00  4.83456000E-01
  1.45585000E-01  4.38000000E-02  6.26000000E-01  4.56324000E+03  6.82024000E+02
  1.54973000E+02  4.44553000E+01  1.30290000E+01  1.82773000E+00  2.09642000E+01
  4.80331000E+00  1.45933000E+00  4.83456000E-01  1.45585000E-01  4.38000000E-02
  6.26000000E-01  3.38650000E+01  5.09479000E+00  1.15879000E+00  3.25840000E-01
  1.02741000E-01  7.50000000E-01  3.38650000E+01  5.09479000E+00  1.15879000E+00
  3.25840000E-01  1.02741000E-01  7.50000000E-01
Contraction coefficients                   R   N=          38
  1.96665025E-03  1.52306019E-02  7.61269097E-02  2.60801033E-01  6.16462078E-01
  2.21006028E-01  1.14660081E-01  9.19999648E-01 -3.03068213E-03  1.00000000E+00
  1.00000000E+00  1.00000000E+00  1.00000000E+00  1.96665025E-03  1.52306019E-02
  7.61269097E-02  2.60801033E-01  6.16462078E-01  2.21006028E-01  1.14660081E-01
  9.19999648E-01 -3.03068213E-03  1.00000000E+00  1.00000000E+00  1.00000000E+00
  1.00000000E+00  2.54938145E-02  1.90373109E-01  8.52161486E-01  1.00000000E+00
  1.00000000E+00  1.00000000E+00  2.54938145E-02  1.90373109E-01  8.52161486E-01
  1.00000000E+00  1.00000000E+00  1.00000000E+00
P(S=P) Contraction coefficients            R   N=          38
  0.00000000E+00  0.00000000E+00  0.00000000E+00  0.00000000E+00  0.00000000E+00
  0.00000000E+00  4.02486927E-02  2.37593957E-01  8.15853851E-01  1.00000000E+00
  1.00000000E+00  1.00000000E+00  0.00000000E+00  0.00000000E+00  0.00000000E+00
  0.00000000E+00  0.00000000E+00  0.00000000E+00  0.00000000E+00  4.02486927E-02
  2.37593957E-01  8.15853851E-01  1.00000000E+00  1.00000000E+00  1.00000000E+00
  0.00000000E+00  0.00000000E+00  0.00000000E+00  0.00000000E+00  0.00000000E+00
  0.00000000E+00  0.00000000E+00  0.00000000E+00  0.00000000E+00  0.00000000E+00
  0.00000000E+00  0.00000000E+00  0.00000000E+00
Coordinates of each shell                  R   N=          60
 -3.60488880E+00  0.00000000E+00  0.00000000E+00 -3.60488880E+00  0.00000000E+00
  0.00000000E+00 -3.60488880E+00  0.00000000E+00  0.00000000E+00 -3.60488880E+00
  0.00000000E+00  0.00000000E+00 -3.60488880E+00  0.00000000E+00  0.00000000E+00
 -3.60488880E+00  0.00000000E+00  0.00000000E+00  3.60488880E+00  0.00000000E+00
  0.00000000E+00  3.60488880E+00  0.00000000E+00  0.00000000E+00  3.60488880E+00
  0.00000000E+00  0.00000000E+00  3.60488880E+00  0.00000000E+00  0.00000000E+00
  3.60488880E+00  0.00000000E+00  0.00000000E+00  3.60488880E+00  0.00000000E+00
  0.00000000E+00 -3.27360017E+00 -1.23223337E+00  1.68447490E+00 -3.27360017E+00
 -1.23223337E+00  1.68447490E+00 -3.27360017E+00 -1.23223337E+00  1.68447490E+00
 -3.27360017E+00 -1.23223337E+00  1.68447490E+00  3.27424161E+00  1.23540266E+00
 -1.68227002E+00  3.27424161E+00  1.23540266E+00 -1.68227002E+00  3.27424161E+00
  1.23540266E+00 -1.68227002E+00  3.27424161E+00  1.23540266E+00 -1.68227002E+00
Num ILSW                                   I              100
ILSW                                       I   N=         100
           1           0           0           1           2           0
           0           0           0           0        4336          -1
           7           0           0           0           2           0
           0           0           0           0           1           0
           1           1           0           0           0           0
           0           0      100000           0          -1           0
           0           0           0           0           0           0
           0           0           0           1           0           0
           0 -2000000000           1           0           0           0
           0           0           4          52           0           0
           0           0          55           0           0           0
           0           0           0           4           0           1
           0           0           0           0           0           0
           0           0           0           0           0           0
           0           0           0           0           0           0
           0           0           0           0           0           0
           0           0           0           0
Num RLSW                                   I               52
RLSW                                       R   N=          52
  1.00000000E+00  1.00000000E+00  1.00000000E+00  1.00000000E+00  5.40000000E-01
  0.00000000E+00  0.00000000E+00  1.00000000E+00  0.00000000E+00  0.00000000E+00
  0.00000000E+00  0.00000000E+00  1.00000000E+00  0.00000000E+00  0.00000000E+00
  0.00000000E+00  0.00000000E+00  1.00000000E+00  0.00000000E+00  0.00000000E+00
  0.00000000E+00  0.00000000E+00  1.00000000E+00  0.00000000E+00  0.00000000E+00
  0.00000000E+00  0.00000000E+00  1.00000000E+00  0.00000000E+00  0.00000000E+00
  0.00000000E+00  0.00000000E+00  1.00000000E+00  0.00000000E+00  0.00000000E+00
  0.00000000E+00  0.00000000E+00  0.00000000E+00  1.00000000E+00  1.00000000E+00
  0.00000000E+00  1.00000000E+00  0.00000000E+00  0.00000000E+00  0.00000000E+00
  0.00000000E+00  0.00000000E+00  0.00000000E+00  0.00000000E+00  0.00000000E+00
  0.00000000E+00  0.00000000E+00
MxBond                                     I                2
NBond                                      I   N=           4
           2           2           1           1
IBond                                      I   N=           8
           2           3           1           4           1           0
           2           0
RBond                                      R   N=           8
  1.00000000E-01  1.00000000E+00  1.00000000E-01  1.00000000E+00  1.00000000E+00
  0.00000000E+00  1.00000000E+00  0.00000000E+00
Virial Ratio                               R      2.004919289765730E+00
SCF Energy                                 R     -7.687008616476822E+01
Total Energy                               R     -7.687008616476822E+01
S**2                                       R      4.571365508354575E-11
S**2 after annihilation                    R      2.042810365357002E-14
RMS Force                                  R      1.299623241666126E-05
RMS Density                                R      3.398359549883347E-09
Job Status                                 I                1
Nuclear derivative order                   I                1
External E-field                           R   N=          35
  0.00000000E+00  0.00000000E+00  0.00000000E+00  0.00000000E+00  0.00000000E+00
  0.00000000E+00  0.00000000E+00  0.00000000E+00  0.00000000E+00  0.00000000E+00
  0.00000000E+00  0.00000000E+00  0.00000000E+00  0.00000000E+00  0.00000000E+00
  0.00000000E+00  0.00000000E+00  0.00000000E+00  0.00000000E+00  0.00000000E+00
  0.00000000E+00  0.00000000E+00  0.00000000E+00  0.00000000E+00  0.00000000E+00
  0.00000000E+00  0.00000000E+00  0.00000000E+00  0.00000000E+00  0.00000000E+00
  0.00000000E+00  0.00000000E+00  0.00000000E+00  0.00000000E+00  0.00000000E+00
IOpCl                                      I                1
IROHF                                      I                0
Alpha Orbital Energies                     R   N=          56
 -1.06768157E+01 -1.06768023E+01 -7.30062437E-01 -7.25555892E-01 -3.91634970E-01
 -3.89645445E-01 -2.36025061E-01 -1.30035030E-01 -1.03758623E-01 -9.61832816E-02
  3.23677195E-02  4.53961387E-02  7.23353779E-02  7.28890616E-02  9.25363626E-02
  9.66117375E-02  1.08941197E-01  1.38809598E-01  1.81173877E-01  1.92312613E-01
  4.45922253E-01  4.53506803E-01  5.46392218E-01  5.64003910E-01  5.80060138E-01
  6.14203814E-01  6.18001431E-01  6.39374603E-01  6.73155072E-01  7.18796826E-01
  1.12513607E+00  1.12582515E+00  1.13853195E+00  1.13966522E+00  1.33051332E+00
  1.33185694E+00  1.34350358E+00  1.35729143E+00  1.58151851E+00  1.58422132E+00
  1.84801507E+00  1.85085303E+00  1.85190420E+00  1.87369522E+00  2.38247015E+00
  2.40678790E+00  2.47432627E+00  2.51180872E+00  2.68722027E+00  2.69387463E+00
  2.70844114E+00  2.76362300E+00  3.17101915E+00  3.18044598E+00  2.35038363E+01
  2.35046073E+01
Beta Orbital Energies                      R   N=          56
 -1.06768158E+01 -1.06768023E+01 -7.30062437E-01 -7.25555892E-01 -3.91634970E-01
 -3.89645445E-01 -2.36025061E-01 -1.30035030E-01 -1.03758623E-01 -9.61832816E-02
  3.23677196E-02  4.53961387E-02  7.23353779E-02  7.28890616E-02  9.25363626E-02
  9.66117376E-02  1.08941197E-01  1.38809598E-01  1.81173877E-01  1.92312613E-01
  4.45922253E-01  4.53506803E-01  5.46392218E-01  5.64003910E-01  5.80060138E-01
  6.14203814E-01  6.18001431E-01  6.39374603E-01  6.73155072E-01  7.18796826E-01
  1.12513607E+00  1.12582515E+00  1.13853195E+00  1.13966522E+00  1.33051332E+00
  1.33185694E+00  1.34350358E+00  1.35729143E+00  1.58151851E+00  1.58422132E+00
  1.84801507E+00  1.85085303E+00  1.85190420E+00  1.87369522E+00  2.38247015E+00
  2.40678790E+00  2.47432627E+00  2.51180872E+00  2.68722027E+00  2.69387463E+00
  2.70844114E+00  2.76362300E+00  3.17101915E+00  3.18044598E+00  2.35038363E+01
  2.35046073E+01
Alpha MO coefficients                      R   N=        3136
  4.37863564E-01  3.60725797E-01  5.13070340E-04 -7.62177933E-04  1.04201918E-03
  7.31657479E-03  4.24952026E-05 -6.54295891E-04  8.94368839E-04 -3.00200350E-03
  8.53568180E-05 -5.63390633E-05  7.70189221E-05  3.70392953E-04 -6.63880099E-05
  3.07262402E-04 -4.19955796E-04  3.99588111E-04  1.90238710E-04 -6.68534999E-04
 -2.67260718E-04 -1.39157073E-04  3.55523859E-01  2.92891999E-01 -4.22135638E-04
  6.19560889E-04 -8.43785090E-04  5.93442106E-03 -2.81769178E-05  5.37938936E-04
 -7.32406594E-04 -2.39222202E-03 -9.13994257E-05  5.25136702E-05 -7.15825816E-05
  2.19469422E-04  1.07084865E-04 -2.60180664E-04  3.54412836E-04  3.26935994E-04
  1.56931898E-04 -5.50151514E-04 -2.21145000E-04 -1.15222986E-04  2.61566773E-04
 -2.21773023E-03  1.66940200E-03  2.37435154E-04 -8.89640183E-04  1.21616392E-03
  2.17076206E-04 -1.83716563E-03  1.37492990E-03 -1.90496616E-04  7.30068387E-04
 -9.94145852E-04 -3.55524149E-01 -2.92890776E-01 -3.88230253E-04  6.23330424E-04
 -8.52200071E-04 -5.97142710E-03 -6.39192117E-05  5.05545489E-04 -6.90994796E-04
  2.65797578E-03  3.84976843E-05  1.32268162E-05 -1.81415248E-05 -6.96574176E-04
 -2.05636534E-04 -2.00028813E-04  2.73547218E-04 -3.04060226E-04 -1.40012707E-04
  5.10519465E-04  2.02222746E-04  1.02417384E-04  4.37863800E-01  3.60724793E-01
 -4.84976639E-04  7.68587787E-04 -1.04673329E-03  7.34667386E-03 -7.09404015E-05
  6.30744865E-04 -8.58806541E-04 -3.21776751E-03  2.01394511E-05  2.46343987E-05
 -3.35612519E-05  7.57742776E-04 -1.87754035E-04 -2.59656795E-04  3.53515437E-04
  3.77682653E-04  1.75526099E-04 -6.37764421E-04 -2.54075049E-04 -1.28871958E-04
 -1.89403316E-04  1.62281683E-03 -1.26060816E-03 -2.02151012E-04  6.93932684E-04
 -9.48608977E-04  2.39090019E-04 -2.04379095E-03  1.57664984E-03 -2.46155114E-04
  8.64067779E-04 -1.17663671E-03 -7.69091397E-02 -1.24423709E-01  9.89072254E-03
 -3.13369916E-02  4.28388870E-02  3.54914865E-01  1.49319611E-02 -4.73494491E-02
  6.47282879E-02  2.46347732E-01  7.35978913E-03 -1.83214186E-02  2.50494477E-02
 -4.46190010E-04  2.63282769E-04 -2.76565849E-04  3.78974809E-04  5.37856747E-03
  2.55137016E-03 -6.71252195E-03 -5.04960605E-03 -1.86684572E-03 -7.69104033E-02
 -1.24425720E-01 -9.87522005E-03  3.14197574E-02 -4.27832995E-02  3.54919888E-01
 -1.49084874E-02  4.74746207E-02 -6.46442993E-02  2.46351742E-01 -7.35169322E-03
  1.83725997E-02 -2.50148826E-02 -4.46048624E-04 -2.62984885E-04  2.78208355E-04
 -3.77777677E-04  5.35780906E-03  2.54360778E-03 -6.72183397E-03 -5.06388544E-03
 -1.86749990E-03  1.01590036E-01  1.27083366E-01  1.49495290E-02 -2.76466152E-03
  9.12861872E-03 -1.24782939E-02  1.01592577E-01  1.27086117E-01  1.49504859E-02
  2.75993201E-03 -9.15181164E-03  1.24625767E-02 -7.71487927E-02 -1.24850850E-01
  6.13272286E-03 -3.23721095E-02  4.42528763E-02  3.56888458E-01  8.40434379E-03
 -4.90389180E-02  6.70362956E-02  2.46418505E-01  5.72779174E-04 -1.90657105E-02
  2.60653371E-02 -6.53753924E-03 -3.66283143E-03 -2.73656098E-04  3.73720367E-04
  6.09045404E-03  2.45423091E-03 -6.92050851E-03 -6.15053982E-03 -1.79603044E-03
  7.71470076E-02  1.24847926E-01  6.11628628E-03 -3.24551840E-02  4.41939947E-02
 -3.56879492E-01  8.37938203E-03 -4.91647510E-02  6.69468746E-02 -2.46411565E-01
  5.63652501E-04 -1.91156219E-02  2.60277921E-02  6.53727961E-03 -3.66297624E-03
 -2.74265086E-04  3.73773911E-04 -6.06883205E-03 -2.44635643E-03  6.92971570E-03
  6.16496186E-03  1.79583847E-03  1.02879123E-01  1.29108735E-01  1.63177702E-02
 -3.28180128E-03  9.07543398E-03 -1.24056704E-02 -1.02878219E-01 -1.29108598E-01
 -1.63183043E-02 -3.27670711E-03  9.09839710E-03 -1.23897804E-02 -4.28820010E-02
 -7.08118211E-02 -2.84470543E-02  8.97430283E-02 -1.22677142E-01  2.09681857E-01
 -4.11365564E-02  1.29055702E-01 -1.76416352E-01  2.91202058E-01 -3.09992800E-02
  8.60554057E-02 -1.17632178E-01  4.22001509E-02 -1.75975365E-03  5.94137601E-03
 -8.11709624E-03 -9.96882538E-03 -5.87588218E-03  2.11267880E-02  3.83995158E-03
  4.29806001E-03  4.28615102E-02  7.07779983E-02 -2.83884489E-02  8.99282153E-02
 -1.22460682E-01 -2.09581694E-01 -4.10518356E-02  1.29321393E-01 -1.76104835E-01
 -2.91062091E-01 -3.09424774E-02  8.62307276E-02 -1.17429355E-01 -4.21799186E-02
 -1.75721959E-03  5.95111654E-03 -8.10840813E-03  9.89863639E-03  5.85682919E-03
 -2.11434036E-02 -3.87982936E-03 -4.30070820E-03 -9.40219241E-02 -1.70119630E-01
 -1.09421881E-01  1.04121915E-03 -4.20068971E-03  5.74178704E-03  9.39765594E-02
  1.70037197E-01  1.09366592E-01  1.03828328E-03 -4.20887423E-03  5.73175528E-03
 -4.18644401E-02 -6.90897738E-02 -2.16683505E-02  9.16182429E-02 -1.25244170E-01
  2.03239652E-01 -3.20457417E-02  1.31579145E-01 -1.79871076E-01  2.91468804E-01
 -1.63573554E-02  8.66965423E-02 -1.18516301E-01  4.20593423E-02 -2.04131322E-04
  5.13349280E-03 -7.02046689E-03 -1.04400101E-02 -4.93801787E-03  2.10584131E-02
  4.69946691E-03  3.61054673E-03 -4.18857710E-02 -6.91249957E-02  2.16375219E-02
 -9.18961376E-02  1.25136378E-01  2.03343676E-01  3.20017213E-02 -1.31977615E-01
  1.79715962E-01  2.91614553E-01  1.63316630E-02 -8.69591140E-02  1.18412913E-01
  4.20836237E-02  2.01390565E-04 -5.15189436E-03  7.01230723E-03 -1.03789357E-02
 -4.92398337E-03  2.10947584E-02  4.74238614E-03  3.61709836E-03 -9.59703251E-02
 -1.77014541E-01 -1.09935665E-01  2.28870150E-03 -4.59521511E-03  6.28074165E-03
 -9.60142862E-02 -1.77095459E-01 -1.09993207E-01 -2.28589629E-03  4.60834031E-03
 -6.27612074E-03 -4.69723221E-03 -8.03276745E-03 -1.78729742E-01 -1.54916810E-02
  2.11343353E-02  2.90346975E-02 -2.70691078E-01 -2.38956222E-02  3.25982210E-02
  1.88408096E-02 -3.07797606E-01 -1.95388149E-02  2.66460353E-02 -1.69035394E-02
 -8.02242091E-02 -1.04805470E-02  1.42798443E-02  4.14376721E-03 -1.18708411E-02
 -7.25399158E-04 -6.72105077E-03  8.68249879E-03 -4.69804395E-03 -8.03409668E-03
  1.78741240E-01  1.54622193E-02 -2.10827887E-02  2.90381269E-02  2.70707408E-01
  2.38502356E-02 -3.25212992E-02  1.88515000E-02  3.07814385E-01  1.94788893E-02
 -2.65659511E-02 -1.69385761E-02  8.02522070E-02  1.04483280E-02 -1.42684580E-02
  4.13918202E-03 -1.18565238E-02 -7.20338960E-04 -6.71494862E-03  8.70848021E-03
  1.23195939E-03  1.05689269E-02  4.18585502E-03 -1.70325321E-02 -4.12068868E-04
  5.59310960E-04  1.22980024E-03  1.05649642E-02  4.19662276E-03  1.70318677E-02
  4.07051261E-04 -5.57068922E-04 -5.57727338E-03 -9.29044550E-03  1.92970666E-01
  1.89207339E-02 -2.57859259E-02  3.16128566E-02  2.93912506E-01  2.76118496E-02
 -3.76268592E-02  2.43524609E-02  3.22598259E-01  3.69146384E-02 -5.03185426E-02
 -5.93660788E-03  1.16175262E-01  1.27167303E-02 -1.73602913E-02 -1.26532519E-03
  1.26893659E-02  2.79726703E-03  4.22460979E-04 -9.28136617E-03  5.57770306E-03
  9.29110878E-03  1.92976399E-01  1.88764288E-02 -2.57507325E-02 -3.16140921E-02
  2.93920260E-01  2.75432347E-02 -3.75745496E-02 -2.43598876E-02  3.22610043E-01
  3.68389129E-02 -5.02560993E-02  5.92852870E-03  1.16183935E-01  1.27146605E-02
 -1.73170601E-02  1.25677274E-03 -1.26726934E-02 -2.79513092E-03 -4.18856311E-04
  9.30768218E-03  2.68019520E-03  3.66751926E-03  8.71931652E-03  1.67327988E-02
  1.99453194E-03 -2.71953311E-03 -2.67625841E-03 -3.66597819E-03 -8.70339438E-03
  1.67351642E-02  1.99116743E-03 -2.71552827E-03  2.77466935E-07  5.86218081E-07
 -3.12334025E-05  1.38215683E-01  1.01104032E-01 -2.90115899E-06 -4.89486467E-05
  2.17886192E-01  1.59380357E-01  1.98074439E-06 -5.54226255E-05  2.39946463E-01
  1.75533109E-01  4.21025536E-05 -1.34089426E-05  1.15395829E-01  8.44381464E-02
  1.14698050E-02  1.88644347E-03  4.20992744E-03  6.62150718E-03  2.58067632E-03
 -2.14036314E-07 -4.67698909E-07  1.21104274E-05  1.38003268E-01  1.01352488E-01
  1.31205666E-06  1.91929627E-05  2.17549981E-01  1.59774070E-01  4.48389008E-06
  2.12728870E-05  2.39589358E-01  1.75948083E-01  3.52250774E-05  5.77997293E-07
  1.15248560E-01  8.46151675E-02 -1.14830225E-02 -1.88973522E-03 -4.15713800E-03
 -6.62979036E-03 -2.57331188E-03 -5.41166881E-06 -2.55681070E-06 -3.47647860E-05
 -1.13207837E-06  1.33571134E-02  9.77226746E-03 -5.17354926E-06 -2.98716351E-06
 -3.17628954E-05 -6.57600385E-07  1.33382359E-02  9.79418077E-03  2.63601085E-06
  4.48776260E-06 -4.03825351E-05  1.44101105E-01  1.05432512E-01 -1.49038335E-05
 -6.26739734E-05  2.27349800E-01  1.66340321E-01 -1.74292526E-05 -6.96465047E-05
  2.50670526E-01  1.83405584E-01  1.03886945E-05 -3.04555099E-05  1.21921564E-01
  8.91956243E-02  1.19640533E-02  9.19688941E-04  4.38753335E-03  6.90556166E-03
  1.26408072E-03 -2.83231813E-06 -4.57767563E-06 -3.35210261E-05 -1.43941462E-01
 -1.05687649E-01  1.45685674E-05 -5.17166264E-05 -2.27096380E-01 -1.66743984E-01
  1.88288095E-05 -5.55611321E-05 -2.50394673E-01 -1.83849706E-01 -6.52164773E-06
 -2.46519085E-05 -1.21778340E-01 -8.94252716E-02  1.19780580E-02  9.26386050E-04
  4.34035428E-03  6.91673260E-03  1.25485775E-03  3.98244181E-06  2.02823180E-06
  3.84648097E-06 -5.54986865E-06  1.36105185E-02  9.95701026E-03 -3.85642195E-06
 -8.73987177E-07 -5.49525935E-06 -4.73626721E-06 -1.35948611E-02 -9.98288527E-03
  2.63631541E-02  4.29885397E-02 -9.53022078E-03  1.31028800E-02 -1.79865951E-02
 -1.05828149E-01 -2.21443308E-02  3.96903276E-02 -5.43499427E-02 -5.14730226E-01
 -6.21641397E-03  2.62799810E-02 -3.61587297E-02  1.03731798E+00 -8.93825761E-02
 -2.45166471E-01  3.35384677E-01 -7.58485732E-03 -4.71655293E-03  1.11497854E-02
  6.04470247E-03  3.45259767E-03  2.63664700E-02  4.29939506E-02  9.52151095E-03
 -1.32097834E-02  1.79153938E-02 -1.05841049E-01  2.21234334E-02 -3.98880254E-02
  5.42262200E-02 -5.14799321E-01  6.19724503E-03 -2.65683207E-02  3.59504513E-02
  1.03743193E+00  8.95168726E-02  2.46029901E-01 -3.34789196E-01 -7.54604422E-03
 -4.70585053E-03  1.11674962E-02  6.07109168E-03  3.45347665E-03 -1.26451453E-02
  1.14954651E-01 -3.12511952E-01 -1.35434027E-03  7.95847454E-04 -1.08878553E-03
 -1.26457659E-02  1.14969224E-01 -3.12545670E-01  1.35394676E-03 -7.98932882E-04
  1.08729730E-03  1.24232962E-02  2.03428518E-02  3.59977735E-02  3.34814800E-02
 -4.57089294E-02 -4.64094040E-02  3.34963688E-02  5.79073212E-02 -7.90870377E-02
 -2.90766531E-01  1.22960528E-01  8.79386465E-02 -1.20024153E-01  1.10753643E+00
  1.64741444E-02 -4.19282293E-01  5.73039637E-01 -8.31344640E-03 -1.65774929E-04
  1.53844939E-02  4.62748284E-03  1.18523609E-04 -1.24176659E-02 -2.03338902E-02
  3.60092992E-02  3.35039880E-02 -4.56841164E-02  4.63902354E-02  3.35193769E-02
  5.79737964E-02 -7.90172480E-02  2.90641898E-01  1.22993892E-01  8.79787074E-02
 -1.19993000E-01 -1.10741902E+00  1.63215508E-02 -4.20270184E-01  5.72409848E-01
  8.26903898E-03  1.55700456E-04 -1.54023773E-02 -4.65474720E-03 -1.16859723E-04
 -2.19405957E-02  1.21600289E-01 -5.13467918E-01  1.59405821E-03 -1.61150341E-03
  2.20239500E-03  2.19461447E-02 -1.21586409E-01  5.13480629E-01  1.59417915E-03
 -1.61573181E-03  2.20053570E-03 -1.77058712E-02 -2.85860422E-02 -5.05874658E-02
  1.81559220E-02 -2.46752258E-02  6.88431931E-02 -4.52506095E-02  8.72880423E-03
 -1.17795917E-02  3.72338611E-01 -2.12742917E-01  7.59326245E-02 -1.03237303E-01
 -9.66373647E-02  7.67812817E-01 -3.05934361E-01  4.17141812E-01 -2.15135816E-03
 -3.21448864E-03  6.32685022E-03 -2.80918243E-04  2.35114310E-03  1.77022950E-02
  2.85802509E-02 -5.05887055E-02  1.80792499E-02 -2.47323596E-02 -6.88279319E-02
 -4.52598948E-02  8.62208010E-03 -1.18604015E-02 -3.72271540E-01 -2.12730246E-01
  7.56389794E-02 -1.03445256E-01  9.65175244E-02  7.67700394E-01 -3.05771842E-01
  4.17239524E-01  2.14145812E-03  3.20819217E-03 -6.32990495E-03  2.72953075E-04
 -2.35606100E-03 -1.91202232E-02  2.74318655E-03 -2.56790272E-01  2.38192594E-03
 -3.04592047E-03  4.16334816E-03  1.91166559E-02 -2.73268844E-03  2.56768836E-01
  2.37996958E-03 -3.05259592E-03  4.15734583E-03 -2.38393902E-05 -3.83621155E-05
 -1.23630842E-05 -8.55795115E-02 -6.26705593E-02  9.10601869E-05  1.51086750E-06
 -9.18707550E-02 -6.72482808E-02  5.35549200E-04 -9.52698879E-05 -3.25992566E-01
 -2.38759348E-01 -4.99461548E-04  3.18366882E-04  5.98383161E-01  4.38770059E-01
 -6.99025336E-03  6.18429928E-04 -2.55162708E-03 -4.03250371E-03  8.47793249E-04
 -2.09738523E-05 -3.36169366E-05  4.74546518E-06 -8.55262212E-02 -6.27465662E-02
  7.92472260E-05 -8.14331427E-06 -9.17867426E-02 -6.73647913E-02  4.74503874E-04
  6.40808143E-05 -3.25822358E-01 -2.39010363E-01 -4.88908931E-04 -1.91213154E-04
  5.98528614E-01  4.38608265E-01  6.99032950E-03 -6.22887358E-04  2.54362184E-03
  4.03885148E-03 -8.47284269E-04 -2.93890694E-05  2.49542976E-05 -3.77811914E-04
  4.15075236E-06  9.22565374E-05  7.60276533E-05 -2.60310185E-05  2.44836335E-05
 -3.30192184E-04 -3.66230093E-06  9.90130642E-05  6.52813267E-05  1.32313259E-02
  2.08423557E-02 -6.43643858E-03 -2.77630209E-02  3.77747363E-02 -4.25592049E-02
 -1.53378230E-02 -1.90325263E-02  2.58461846E-02 -3.62278308E-01  1.40375898E-03
 -1.28747724E-01  1.75227958E-01  9.84041774E-02 -8.91771632E-02  6.71943579E-01
 -9.16689754E-01  5.73630219E-03  5.13465691E-03 -1.19588148E-02 -2.35426733E-03
 -3.76133512E-03  1.32333158E-02  2.08456526E-02  6.41975634E-03  2.76679929E-02
 -3.78500634E-02 -4.25671786E-02  1.53186166E-02  1.89187841E-02 -2.59301069E-02
 -3.62312365E-01 -1.47099267E-03  1.28366141E-01 -1.75554065E-01  9.86822131E-02
  8.90842996E-02 -6.71849842E-01  9.16695564E-01  5.71257704E-03  5.12833940E-03
 -1.19671424E-02 -2.36856498E-03 -3.76075682E-03  2.80968239E-02 -3.95810593E-02
  4.89027972E-01  3.15070400E-03  3.54819835E-03 -4.85018703E-03  2.80926233E-02
 -3.95825799E-02  4.88879108E-01 -3.15081961E-03 -3.55841921E-03  4.84578004E-03
 -7.44737772E-06 -1.21156944E-05 -2.56196168E-05 -7.61498245E-02 -5.57393587E-02
  3.37052063E-05 -1.65262811E-05 -7.07913417E-02 -5.18202055E-02  1.36382958E-04
 -1.39225026E-04 -3.43732212E-01 -2.51569227E-01  7.14002049E-04  8.44550194E-04
  8.54817545E-01  6.26445733E-01 -6.07269591E-03 -3.34044059E-03 -2.21748723E-03
 -3.50435693E-03 -4.55008849E-03  7.03735227E-06  1.13548367E-05 -2.75342817E-05
  7.60779391E-02  5.58355901E-02 -3.17205574E-05 -1.83890880E-05  7.07286082E-02