 Entering Gaussian System, Link 0=g16
 Initial command:
 /home/szhao/Apps/g16/l1.exe "/home/szhao/tmp/Gau-15671.inp" -scrdir="/home/szhao/tmp/"
 Default is to use a total of  16 processors:
                               16 via shared-memory
                                1 via Linda
 Entering Link 1 = /home/szhao/Apps/g16/l1.exe PID=     15683.
  
 Copyright (c) 1988,1990,1992,1993,1995,1998,2003,2009,2016,
            Gaussian, Inc.  All Rights Reserved.
  
 This is part of the Gaussian(R) 16 program.  It is based on
 the Gaussian(R) 09 system (copyright 2009, Gaussian, Inc.),
 the Gaussian(R) 03 system (copyright 2003, Gaussian, Inc.),
 the Gaussian(R) 98 system (copyright 1998, Gaussian, Inc.),
 the Gaussian(R) 94 system (copyright 1995, Gaussian, Inc.),
 the Gaussian 92(TM) system (copyright 1992, Gaussian, Inc.),
 the Gaussian 90(TM) system (copyright 1990, Gaussian, Inc.),
 the Gaussian 88(TM) system (copyright 1988, Gaussian, Inc.),
 the Gaussian 86(TM) system (copyright 1986, Carnegie Mellon
 University), and the Gaussian 82(TM) system (copyright 1983,
 Carnegie Mellon University). Gaussian is a federally registered
 trademark of Gaussian, Inc.
  
 This software contains proprietary and confidential information,
 including trade secrets, belonging to Gaussian, Inc.
  
 This software is provided under written license and may be
 used, copied, transmitted, or stored only in accord with that
 written license.
  
 The following legend is applicable only to US Government
 contracts under FAR:
  
                    RESTRICTED RIGHTS LEGEND
  
 Use, reproduction and disclosure by the US Government is
 subject to restrictions as set forth in subparagraphs (a)
 and (c) of the Commercial Computer Software - Restricted
 Rights clause in FAR 52.227-19.
  
 Gaussian, Inc.
 340 Quinnipiac St., Bldg. 40, Wallingford CT 06492
  
  
 ---------------------------------------------------------------
 Warning -- This program may not be used in any manner that
 competes with the business of Gaussian, Inc. or will provide
 assistance to any competitor of Gaussian, Inc.  The licensee
 of this program is prohibited from giving any competitor of
 Gaussian, Inc. access to this program.  By using this program,
 the user acknowledges that Gaussian, Inc. is engaged in the
 business of creating and licensing software in the field of
 computational chemistry and represents and warrants to the
 licensee that it is not a competitor of Gaussian, Inc. and that
 it will not use this program in any manner prohibited above.
 ---------------------------------------------------------------
  

 Cite this work as:
 Gaussian 16, Revision A.03,
 M. J. Frisch, G. W. Trucks, H. B. Schlegel, G. E. Scuseria, 
 M. A. Robb, J. R. Cheeseman, G. Scalmani, V. Barone, 
 G. A. Petersson, H. Nakatsuji, X. Li, M. Caricato, A. V. Marenich, 
 J. Bloino, B. G. Janesko, R. Gomperts, B. Mennucci, H. P. Hratchian, 
 J. V. Ortiz, A. F. Izmaylov, J. L. Sonnenberg, D. Williams-Young, 
 F. Ding, F. Lipparini, F. Egidi, J. Goings, B. Peng, A. Petrone, 
 T. Henderson, D. Ranasinghe, V. G. Zakrzewski, J. Gao, N. Rega, 
 G. Zheng, W. Liang, M. Hada, M. Ehara, K. Toyota, R. Fukuda, 
 J. Hasegawa, M. Ishida, T. Nakajima, Y. Honda, O. Kitao, H. Nakai, 
 T. Vreven, K. Throssell, J. A. Montgomery, Jr., J. E. Peralta, 
 F. Ogliaro, M. J. Bearpark, J. J. Heyd, E. N. Brothers, K. N. Kudin, 
 V. N. Staroverov, T. A. Keith, R. Kobayashi, J. Normand, 
 K. Raghavachari, A. P. Rendell, J. C. Burant, S. S. Iyengar, 
 J. Tomasi, M. Cossi, J. M. Millam, M. Klene, C. Adamo, R. Cammi, 
 J. W. Ochterski, R. L. Martin, K. Morokuma, O. Farkas, 
 J. B. Foresman, and D. J. Fox, Gaussian, Inc., Wallingford CT, 2016.
 
 ******************************************
 Gaussian 16:  ES64L-G16RevA.03 25-Dec-2016
                21-Apr-2025 
 ******************************************
 %chk=opt.chk
 %mem=4GB
 %nprocshared=8
 Will use up to    8 processors via shared memory.
 --------------------------------------------
 #p opt UM062X/6-311+G** nosymm int=superfine
 --------------------------------------------
 1/18=20,19=15,26=5,38=1/1,3;
 2/9=110,12=2,15=1,17=6,18=5,40=1/2;
 3/5=4,6=6,7=111,11=2,25=1,30=1,71=1,74=-55,75=-7,116=2/1,2,3;
 4//1;
 5/5=2,38=5/2;
 6/7=2,8=2,9=2,10=2,28=1/1;
 7/30=1/1,2,3,16;
 1/18=20,19=15,26=5/3(2);
 2/9=110,15=1/2;
 99//99;
 2/9=110,15=1/2;
 3/5=4,6=6,7=111,11=2,25=1,30=1,71=1,74=-55,75=-7,116=2/1,2,3;
 4/5=5,16=3,69=1/1;
 5/5=2,38=5/2;
 7/30=1/1,2,3,16;
 1/18=20,19=15,26=5/3(-5);
 2/9=110,15=1/2;
 6/7=2,8=2,9=2,10=2,19=2,28=1/1;
 99/9=1/99;
 Leave Link    1 at Mon Apr 21 22:33:33 2025, MaxMem=   536870912 cpu:               0.4 elap:               0.1
 (Enter /home/szhao/Apps/g16/l101.exe)
 -------------------
 Title Card Required
 -------------------
 Symbolic Z-matrix:
 Charge =  0 Multiplicity = 1
 B                    -1   -1.66815  -0.00346   0. 
 N                    -1    1.66639   0.00156   0. 
 H                    0    -2.89102  -0.00531   0. 
 H                    0     1.26641   0.94025  -0.00001 
 
 Add virtual bond connecting atoms H4         and B1         Dist= 5.83D+00.
 ITRead=  2  2  0  0
 MicOpt= -2 -2 -1 -1
 NAtoms=      4 NQM=        2 NQMF=       2 NMMI=      0 NMMIF=      0
                NMic=       0 NMicF=      0.
                    Isotopes and Nuclear Properties:
 (Nuclear quadrupole moments (NQMom) in fm**2, nuclear magnetic moments (NMagM)
  in nuclear magnetons)

  Atom         1           2           3           4
 IAtWgt=          11          14           1           1
 AtmWgt=  11.0093053  14.0030740   1.0078250   1.0078250
 NucSpn=           3           2           1           1
 AtZEff=  -0.0000000  -0.0000000  -0.0000000  -0.0000000
 NQMom=    4.0590000   2.0440000   0.0000000   0.0000000
 NMagM=    2.6886370   0.4037610   2.7928460   2.7928460
 AtZNuc=   5.0000000   7.0000000   1.0000000   1.0000000
 Leave Link  101 at Mon Apr 21 22:33:34 2025, MaxMem=   536870912 cpu:               2.4 elap:               0.3
 (Enter /home/szhao/Apps/g16/l103.exe)

 GradGradGradGradGradGradGradGradGradGradGradGradGradGradGradGradGradGrad
 Berny optimization.
 Initialization pass.
                           ----------------------------
                           !    Initial Parameters    !
                           ! (Angstroms and Degrees)  !
 --------------------------                            --------------------------
 ! Name  Definition              Value          Derivative Info.                !
 --------------------------------------------------------------------------------
 ! X1    R(1,-1)                -1.6682         Frozen                          !
 ! Y1    R(1,-2)                -0.0035         Frozen                          !
 ! Z1    R(1,-3)                 0.0            Frozen                          !
 ! X2    R(2,-1)                 1.6664         Frozen                          !
 ! Y2    R(2,-2)                 0.0016         Frozen                          !
 ! Z2    R(2,-3)                 0.0            Frozen                          !
 ! R1    R(1,3)                  1.2229         estimate D2E/DX2                !
 ! R2    R(1,4)                  3.0826         estimate D2E/DX2                !
 ! R3    R(2,4)                  1.0204         estimate D2E/DX2                !
 ! A1    A(3,1,4)              162.2592         estimate D2E/DX2                !
 ! A2    A(1,4,2)               95.2518         estimate D2E/DX2                !
 ! D1    D(3,1,4,2)            180.0            estimate D2E/DX2                !
 --------------------------------------------------------------------------------
 Trust Radius=3.00D-01 FncErr=1.00D-07 GrdErr=1.00D-07 EigMax=2.50D+02 EigMin=1.00D-04
 Number of steps in this run=     22 maximum allowed number of steps=    100.
 GradGradGradGradGradGradGradGradGradGradGradGradGradGradGradGradGradGrad

 Leave Link  103 at Mon Apr 21 22:33:34 2025, MaxMem=   536870912 cpu:               0.1 elap:               0.1
 (Enter /home/szhao/Apps/g16/l202.exe)
                          Input orientation:                          
 ---------------------------------------------------------------------
 Center     Atomic      Atomic             Coordinates (Angstroms)
 Number     Number       Type             X           Y           Z
 ---------------------------------------------------------------------
      1          5           0       -1.668152   -0.003464    0.000000
      2          7           0        1.666391    0.001560    0.000000
      3          1           0       -2.891017   -0.005306    0.000000
      4          1           0        1.266414    0.940252   -0.000006
 ---------------------------------------------------------------------
                    Distance matrix (angstroms):
                    1          2          3          4
     1  B    0.000000
     2  N    3.334547   0.000000
     3  H    1.222866   4.557413   0.000000
     4  H    3.082576   1.020355   4.263603   0.000000
 Symmetry turned off by external request.
 Stoichiometry    BH2N
 Framework group  C1[X(BH2N)]
 Deg. of freedom     6
 Full point group                 C1      NOp   1
 Rotational constants (GHZ):         600.9038110           6.3836373           6.3165343
 Leave Link  202 at Mon Apr 21 22:33:34 2025, MaxMem=   536870912 cpu:               0.0 elap:               0.0
 (Enter /home/szhao/Apps/g16/l301.exe)
 Standard basis: 6-311+G(d,p) (5D, 7F)
 Ernie: Thresh=  0.10000D-02 Tol=  0.10000D-05 Strict=F.
    56 basis functions,    88 primitive gaussians,    58 cartesian basis functions
     7 alpha electrons        7 beta electrons
       nuclear repulsion energy        13.1436046110 Hartrees.
 IExCor= 4336 DFT=T Ex+Corr=M062X ExCW=0 ScaHFX=  0.540000
 ScaDFX=  1.000000  1.000000  1.000000  1.000000 ScalE2=  1.000000  1.000000
 IRadAn=      7 IRanWt=     -1 IRanGd=            0 ICorTp=0 IEmpDi=  4
 NAtoms=    4 NActive=    4 NUniq=    4 SFac= 1.00D+00 NAtFMM=   60 NAOKFM=F Big=F
 Integral buffers will be    131072 words long.
 Raffenetti 2 integral format.
 Two-electron integral symmetry is turned off.
 Leave Link  301 at Mon Apr 21 22:33:35 2025, MaxMem=   536870912 cpu:               0.7 elap:               0.1
 (Enter /home/szhao/Apps/g16/l302.exe)
 NPDir=0 NMtPBC=     1 NCelOv=     1 NCel=       1 NClECP=     1 NCelD=      1
         NCelK=      1 NCelE2=     1 NClLst=     1 CellRange=     0.0.
 One-electron integrals computed using PRISM.
 NBasis=    56 RedAO= T EigKep=  8.00D-03  NBF=    56
 NBsUse=    56 1.00D-06 EigRej= -1.00D+00 NBFU=    56
 Precomputing XC quadrature grid using
 IXCGrd= 4 IRadAn=           7 IRanWt=          -1 IRanGd=           0 AccXCQ= 0.00D+00.
 Generated NRdTot=       0 NPtTot=           0 NUsed=           0 NTot=          32
 NSgBfM=    58    58    58    58    58 MxSgAt=     4 MxSgA2=     4.
 Leave Link  302 at Mon Apr 21 22:33:35 2025, MaxMem=   536870912 cpu:               1.8 elap:               0.3
 (Enter /home/szhao/Apps/g16/l303.exe)
 DipDrv:  MaxL=1.
 Leave Link  303 at Mon Apr 21 22:33:35 2025, MaxMem=   536870912 cpu:               0.5 elap:               0.1
 (Enter /home/szhao/Apps/g16/l401.exe)
 ExpMin= 3.15D-02 ExpMax= 6.29D+03 ExpMxC= 9.49D+02 IAcc=3 IRadAn=         7 AccDes= 0.00D+00
 Harris functional with IExCor= 1009 and IRadAn=       7 diagonalized for initial guess.
 HarFok:  IExCor= 1009 AccDes= 0.00D+00 IRadAn=         7 IDoV= 1 UseB2=F ITyADJ=14
 ICtDFT=  3500011 ScaDFX=  1.000000  1.000000  1.000000  1.000000
 FoFCou: FMM=F IPFlag=           0 FMFlag=      100000 FMFlg1=           0
         NFxFlg=           0 DoJE=T BraDBF=F KetDBF=T FulRan=T
         wScrn=  0.000000 ICntrl=       500 IOpCl=  0 I1Cent=   200000004 NGrid=           0
         NMat0=    1 NMatS0=      1 NMatT0=    0 NMatD0=    1 NMtDS0=    0 NMtDT0=    0
 Symmetry not used in FoFCou.
 Harris En= -80.4113473657920    
 JPrj=0 DoOrth=F DoCkMO=F.
 Initial guess <Sx>= 0.0000 <Sy>= 0.0000 <Sz>= 0.0000 <S**2>= 0.0000 S= 0.0000
 Leave Link  401 at Mon Apr 21 22:33:36 2025, MaxMem=   536870912 cpu:               2.3 elap:               0.4
 (Enter /home/szhao/Apps/g16/l502.exe)
 Keep R1 and R2 ints in memory in canonical form, NReq=9624198.
 FoFCou: FMM=F IPFlag=           0 FMFlag=           0 FMFlg1=           0
         NFxFlg=           0 DoJE=F BraDBF=F KetDBF=F FulRan=T
         wScrn=  0.000000 ICntrl=       600 IOpCl=  0 I1Cent=           0 NGrid=           0
         NMat0=    1 NMatS0=   1596 NMatT0=    0 NMatD0=    1 NMtDS0=    0 NMtDT0=    0
 Symmetry not used in FoFCou.
 Two-electron integral symmetry not used.
 UHF open shell SCF:
 Using DIIS extrapolation, IDIIS=  1040.
 NGot=   536870912 LenX=   534314338 LenY=   534310533
 Requested convergence on RMS density matrix=1.00D-08 within 128 cycles.
 Requested convergence on MAX density matrix=1.00D-06.
 Requested convergence on             energy=1.00D-06.
 No special actions if energy rises.

 Cycle   1  Pass 1  IDiag  1:
 E= -79.6400959542671    
 DIIS: error= 1.18D-01 at cycle   1 NSaved=   1.
 NSaved= 1 IEnMin= 1 EnMin= -79.6400959542671     IErMin= 1 ErrMin= 1.18D-01
 ErrMax= 1.18D-01  0.00D+00 EMaxC= 1.00D-01 BMatC= 1.73D+00 BMatP= 1.73D+00
 IDIUse=3 WtCom= 0.00D+00 WtEn= 1.00D+00
 Coeff-Com:  0.100D+01
 Coeff-En:   0.100D+01
 Coeff:      0.100D+01
 Gap=    -0.588 Goal=   None    Shift=    0.000
 Gap=    -0.588 Goal=   None    Shift=    0.000
 GapD=   -0.588 DampG=0.250 DampE=0.250 DampFc=0.2500 IDamp=-1.
 Damping current iteration by 2.50D-01
 RMSDP=2.39D-02 MaxDP=4.18D-01              OVMax= 9.99D-01

 Cycle   2  Pass 1  IDiag  1:
 E= -79.9773826035059     Delta-E=       -0.337286649239 Rises=F Damp=T
 DIIS: error= 1.66D-02 at cycle   2 NSaved=   2.
 NSaved= 2 IEnMin= 2 EnMin= -79.9773826035059     IErMin= 2 ErrMin= 1.66D-02
 ErrMax= 1.66D-02  0.00D+00 EMaxC= 1.00D-01 BMatC= 8.47D-02 BMatP= 1.73D+00
 IDIUse=3 WtCom= 8.34D-01 WtEn= 1.66D-01
 Coeff-Com: -0.194D-01 0.102D+01
 Coeff-En:   0.256D+00 0.744D+00
 Coeff:      0.264D-01 0.974D+00
 Gap=     0.849 Goal=   None    Shift=    0.000
 Gap=     0.849 Goal=   None    Shift=    0.000
 RMSDP=6.52D-03 MaxDP=8.54D-02 DE=-3.37D-01 OVMax= 9.98D-01

 Cycle   3  Pass 1  IDiag  1:
 E= -80.2121917199702     Delta-E=       -0.234809116464 Rises=F Damp=F
 DIIS: error= 6.76D-02 at cycle   3 NSaved=   3.
 NSaved= 3 IEnMin= 3 EnMin= -80.2121917199702     IErMin= 2 ErrMin= 1.66D-02
 ErrMax= 6.76D-02  0.00D+00 EMaxC= 1.00D-01 BMatC= 3.03D-01 BMatP= 8.47D-02
 IDIUse=2 WtCom= 0.00D+00 WtEn= 1.00D+00
 Coeff-En:   0.000D+00 0.000D+00 0.100D+01
 Coeff:      0.000D+00 0.000D+00 0.100D+01
 Gap=    -0.047 Goal=   None    Shift=    0.000
 Gap=    -0.047 Goal=   None    Shift=    0.000
 RMSDP=1.99D-02 MaxDP=2.69D-01 DE=-2.35D-01 OVMax= 9.95D-01

 Cycle   4  Pass 1  IDiag  1:
 E= -73.9130096828526     Delta-E=        6.299182037118 Rises=F Damp=F
 DIIS: error= 1.31D-01 at cycle   4 NSaved=   4.
 NSaved= 4 IEnMin= 3 EnMin= -80.2121917199702     IErMin= 2 ErrMin= 1.66D-02
 ErrMax= 1.31D-01  0.00D+00 EMaxC= 1.00D-01 BMatC= 6.54D+00 BMatP= 8.47D-02
 IDIUse=2 WtCom= 0.00D+00 WtEn= 1.00D+00
 Coeff-En:   0.000D+00 0.000D+00 0.936D+00 0.640D-01
 Coeff:      0.000D+00 0.000D+00 0.936D+00 0.640D-01
 Gap=    -0.099 Goal=   None    Shift=    0.000
 Gap=    -0.099 Goal=   None    Shift=    0.000
 RMSDP=1.40D-02 MaxDP=2.49D-01 DE= 6.30D+00 OVMax= 9.84D-01

 Cycle   5  Pass 1  IDiag  1:
 E= -79.0206327110739     Delta-E=       -5.107623028221 Rises=F Damp=F
 DIIS: error= 1.76D-01 at cycle   5 NSaved=   5.
 NSaved= 5 IEnMin= 3 EnMin= -80.2121917199702     IErMin= 2 ErrMin= 1.66D-02
 ErrMax= 1.76D-01  0.00D+00 EMaxC= 1.00D-01 BMatC= 2.28D+00 BMatP= 8.47D-02
 IDIUse=2 WtCom= 0.00D+00 WtEn= 1.00D+00
 Coeff-En:   0.000D+00 0.000D+00 0.807D+00 0.000D+00 0.193D+00
 Coeff:      0.000D+00 0.000D+00 0.807D+00 0.000D+00 0.193D+00
 Gap=     0.040 Goal=   None    Shift=    0.000
 Gap=     0.040 Goal=   None    Shift=    0.000
 RMSDP=1.02D-02 MaxDP=1.81D-01 DE=-5.11D+00 OVMax= 8.56D-01

 Cycle   6  Pass 1  IDiag  1:
 E= -80.4028368675551     Delta-E=       -1.382204156481 Rises=F Damp=F
 DIIS: error= 2.10D-02 at cycle   6 NSaved=   6.
 NSaved= 6 IEnMin= 6 EnMin= -80.4028368675551     IErMin= 2 ErrMin= 1.66D-02
 ErrMax= 2.10D-02  0.00D+00 EMaxC= 1.00D-01 BMatC= 2.99D-02 BMatP= 8.47D-02
 IDIUse=3 WtCom= 7.90D-01 WtEn= 2.10D-01
 Coeff-Com: -0.530D-01 0.293D+00 0.119D+00-0.166D-01-0.552D-01 0.713D+00
 Coeff-En:   0.000D+00 0.000D+00 0.000D+00 0.000D+00 0.000D+00 0.100D+01
 Coeff:     -0.418D-01 0.231D+00 0.941D-01-0.131D-01-0.435D-01 0.773D+00
 Gap=     0.189 Goal=   None    Shift=    0.000
 Gap=     0.189 Goal=   None    Shift=    0.000
 RMSDP=2.22D-03 MaxDP=5.03D-02 DE=-1.38D+00 OVMax= 1.25D-01

 Cycle   7  Pass 1  IDiag  1:
 E= -80.4213365723866     Delta-E=       -0.018499704831 Rises=F Damp=F
 DIIS: error= 5.87D-03 at cycle   7 NSaved=   7.
 NSaved= 7 IEnMin= 7 EnMin= -80.4213365723866     IErMin= 7 ErrMin= 5.87D-03
 ErrMax= 5.87D-03  0.00D+00 EMaxC= 1.00D-01 BMatC= 4.35D-03 BMatP= 2.99D-02
 IDIUse=3 WtCom= 9.41D-01 WtEn= 5.87D-02
 Coeff-Com:  0.422D-01 0.230D-01-0.125D+00 0.284D-02-0.195D-01-0.153D+00
 Coeff-Com:  0.123D+01
 Coeff-En:   0.000D+00 0.000D+00 0.000D+00 0.000D+00 0.000D+00 0.000D+00
 Coeff-En:   0.100D+01
 Coeff:      0.397D-01 0.217D-01-0.118D+00 0.268D-02-0.183D-01-0.144D+00
 Coeff:      0.122D+01
 Gap=     0.206 Goal=   None    Shift=    0.000
 Gap=     0.206 Goal=   None    Shift=    0.000
 RMSDP=1.17D-03 MaxDP=1.09D-02 DE=-1.85D-02 OVMax= 5.79D-02

 Cycle   8  Pass 1  IDiag  1:
 E= -80.4252302806387     Delta-E=       -0.003893708252 Rises=F Damp=F
 DIIS: error= 1.42D-03 at cycle   8 NSaved=   8.
 NSaved= 8 IEnMin= 8 EnMin= -80.4252302806387     IErMin= 8 ErrMin= 1.42D-03
 ErrMax= 1.42D-03  0.00D+00 EMaxC= 1.00D-01 BMatC= 1.62D-04 BMatP= 4.35D-03
 IDIUse=3 WtCom= 9.86D-01 WtEn= 1.42D-02
 Coeff-Com: -0.493D-02 0.776D-02-0.180D-02-0.696D-03 0.197D-02-0.104D+00
 Coeff-Com:  0.554D-01 0.105D+01
 Coeff-En:   0.000D+00 0.000D+00 0.000D+00 0.000D+00 0.000D+00 0.000D+00
 Coeff-En:   0.000D+00 0.100D+01
 Coeff:     -0.486D-02 0.765D-02-0.177D-02-0.686D-03 0.194D-02-0.103D+00
 Coeff:      0.546D-01 0.105D+01
 Gap=     0.211 Goal=   None    Shift=    0.000
 Gap=     0.211 Goal=   None    Shift=    0.000
 RMSDP=3.56D-04 MaxDP=5.40D-03 DE=-3.89D-03 OVMax= 1.69D-02

 Cycle   9  Pass 1  IDiag  1:
 E= -80.4254665565416     Delta-E=       -0.000236275903 Rises=F Damp=F
 DIIS: error= 3.11D-04 at cycle   9 NSaved=   9.
 NSaved= 9 IEnMin= 9 EnMin= -80.4254665565416     IErMin= 9 ErrMin= 3.11D-04
 ErrMax= 3.11D-04  0.00D+00 EMaxC= 1.00D-01 BMatC= 6.13D-06 BMatP= 1.62D-04
 IDIUse=3 WtCom= 9.97D-01 WtEn= 3.11D-03
 Coeff-Com: -0.560D-03 0.666D-03-0.869D-03 0.227D-04-0.959D-04 0.120D-01
 Coeff-Com: -0.336D-01-0.601D-01 0.108D+01
 Coeff-En:   0.000D+00 0.000D+00 0.000D+00 0.000D+00 0.000D+00 0.000D+00
 Coeff-En:   0.000D+00 0.000D+00 0.100D+01
 Coeff:     -0.558D-03 0.664D-03-0.866D-03 0.226D-04-0.956D-04 0.120D-01
 Coeff:     -0.334D-01-0.599D-01 0.108D+01
 Gap=     0.210 Goal=   None    Shift=    0.000
 Gap=     0.210 Goal=   None    Shift=    0.000
 RMSDP=6.74D-05 MaxDP=8.37D-04 DE=-2.36D-04 OVMax= 3.92D-03

 Cycle  10  Pass 1  IDiag  1:
 E= -80.4254768478685     Delta-E=       -0.000010291327 Rises=F Damp=F
 DIIS: error= 9.73D-05 at cycle  10 NSaved=  10.
 NSaved=10 IEnMin=10 EnMin= -80.4254768478685     IErMin=10 ErrMin= 9.73D-05
 ErrMax= 9.73D-05  0.00D+00 EMaxC= 1.00D-01 BMatC= 5.93D-07 BMatP= 6.13D-06
 IDIUse=1 WtCom= 1.00D+00 WtEn= 0.00D+00
 Coeff-Com:  0.951D-04-0.670D-04-0.925D-03 0.265D-04 0.410D-04-0.581D-03
 Coeff-Com:  0.646D-02-0.118D-01-0.166D+00 0.117D+01
 Coeff:      0.951D-04-0.670D-04-0.925D-03 0.265D-04 0.410D-04-0.581D-03
 Coeff:      0.646D-02-0.118D-01-0.166D+00 0.117D+01
 Gap=     0.210 Goal=   None    Shift=    0.000
 Gap=     0.210 Goal=   None    Shift=    0.000
 RMSDP=1.93D-05 MaxDP=2.47D-04 DE=-1.03D-05 OVMax= 1.17D-03

 Cycle  11  Pass 1  IDiag  1:
 E= -80.4254778007232     Delta-E=       -0.000000952855 Rises=F Damp=F
 DIIS: error= 3.16D-05 at cycle  11 NSaved=  11.
 NSaved=11 IEnMin=11 EnMin= -80.4254778007232     IErMin=11 ErrMin= 3.16D-05
 ErrMax= 3.16D-05  0.00D+00 EMaxC= 1.00D-01 BMatC= 8.93D-08 BMatP= 5.93D-07
 IDIUse=1 WtCom= 1.00D+00 WtEn= 0.00D+00
 Coeff-Com:  0.986D-05-0.101D-04-0.734D-04-0.367D-05 0.251D-04-0.228D-02
 Coeff-Com:  0.693D-02 0.131D-01-0.199D+00 0.128D+00 0.105D+01
 Coeff:      0.986D-05-0.101D-04-0.734D-04-0.367D-05 0.251D-04-0.228D-02
 Coeff:      0.693D-02 0.131D-01-0.199D+00 0.128D+00 0.105D+01
 Gap=     0.210 Goal=   None    Shift=    0.000
 Gap=     0.210 Goal=   None    Shift=    0.000
 RMSDP=7.02D-06 MaxDP=9.49D-05 DE=-9.53D-07 OVMax= 3.67D-04

 Cycle  12  Pass 1  IDiag  1:
 E= -80.4254779051199     Delta-E=       -0.000000104397 Rises=F Damp=F
 DIIS: error= 6.86D-06 at cycle  12 NSaved=  12.
 NSaved=12 IEnMin=12 EnMin= -80.4254779051199     IErMin=12 ErrMin= 6.86D-06
 ErrMax= 6.86D-06  0.00D+00 EMaxC= 1.00D-01 BMatC= 6.50D-09 BMatP= 8.93D-08
 IDIUse=1 WtCom= 1.00D+00 WtEn= 0.00D+00
 Coeff-Com:  0.730D-05-0.276D-04 0.122D-03 0.111D-05-0.123D-04 0.313D-03
 Coeff-Com: -0.175D-02-0.615D-03 0.323D-01-0.435D-01-0.364D+00 0.138D+01
 Coeff:      0.730D-05-0.276D-04 0.122D-03 0.111D-05-0.123D-04 0.313D-03
 Coeff:     -0.175D-02-0.615D-03 0.323D-01-0.435D-01-0.364D+00 0.138D+01
 Gap=     0.210 Goal=   None    Shift=    0.000
 Gap=     0.210 Goal=   None    Shift=    0.000
 RMSDP=2.01D-06 MaxDP=2.57D-05 DE=-1.04D-07 OVMax= 1.37D-04

 Cycle  13  Pass 1  IDiag  1:
 E= -80.4254779159826     Delta-E=       -0.000000010863 Rises=F Damp=F
 DIIS: error= 3.08D-06 at cycle  13 NSaved=  13.
 NSaved=13 IEnMin=13 EnMin= -80.4254779159826     IErMin=13 ErrMin= 3.08D-06
 ErrMax= 3.08D-06  0.00D+00 EMaxC= 1.00D-01 BMatC= 1.27D-09 BMatP= 6.50D-09
 IDIUse=1 WtCom= 1.00D+00 WtEn= 0.00D+00
 Coeff-Com: -0.508D-05 0.150D-04 0.251D-04-0.246D-05 0.267D-05 0.339D-04
 Coeff-Com: -0.125D-05-0.210D-03-0.183D-02 0.418D-01-0.542D-01-0.406D+00
 Coeff-Com:  0.142D+01
 Coeff:     -0.508D-05 0.150D-04 0.251D-04-0.246D-05 0.267D-05 0.339D-04
 Coeff:     -0.125D-05-0.210D-03-0.183D-02 0.418D-01-0.542D-01-0.406D+00
 Coeff:      0.142D+01
 Gap=     0.210 Goal=   None    Shift=    0.000
 Gap=     0.210 Goal=   None    Shift=    0.000
 RMSDP=9.90D-07 MaxDP=8.72D-06 DE=-1.09D-08 OVMax= 4.70D-05

 Cycle  14  Pass 1  IDiag  1:
 E= -80.4254779178753     Delta-E=       -0.000000001893 Rises=F Damp=F
 DIIS: error= 3.75D-07 at cycle  14 NSaved=  14.
 NSaved=14 IEnMin=14 EnMin= -80.4254779178753     IErMin=14 ErrMin= 3.75D-07
 ErrMax= 3.75D-07  0.00D+00 EMaxC= 1.00D-01 BMatC= 5.88D-11 BMatP= 1.27D-09
 IDIUse=1 WtCom= 1.00D+00 WtEn= 0.00D+00
 Coeff-Com:  0.276D-05-0.330D-05-0.412D-05 0.835D-08 0.710D-06 0.139D-04
 Coeff-Com: -0.122D-03 0.141D-03 0.751D-03-0.123D-02 0.446D-03 0.345D-01
 Coeff-Com: -0.208D+00 0.117D+01
 Coeff:      0.276D-05-0.330D-05-0.412D-05 0.835D-08 0.710D-06 0.139D-04
 Coeff:     -0.122D-03 0.141D-03 0.751D-03-0.123D-02 0.446D-03 0.345D-01
 Coeff:     -0.208D+00 0.117D+01
 Gap=     0.210 Goal=   None    Shift=    0.000
 Gap=     0.210 Goal=   None    Shift=    0.000
 RMSDP=1.64D-07 MaxDP=4.33D-06 DE=-1.89D-09 OVMax= 5.11D-06

 Cycle  15  Pass 1  IDiag  1:
 E= -80.4254779179070     Delta-E=       -0.000000000032 Rises=F Damp=F
 DIIS: error= 1.25D-07 at cycle  15 NSaved=  15.
 NSaved=15 IEnMin=15 EnMin= -80.4254779179070     IErMin=15 ErrMin= 1.25D-07
 ErrMax= 1.25D-07  0.00D+00 EMaxC= 1.00D-01 BMatC= 1.79D-12 BMatP= 5.88D-11
 IDIUse=1 WtCom= 1.00D+00 WtEn= 0.00D+00
 Coeff-Com: -0.886D-07-0.548D-06 0.715D-06-0.276D-07 0.798D-07 0.573D-05
 Coeff-Com: -0.111D-04-0.263D-04 0.346D-03-0.138D-02-0.218D-02 0.205D-01
 Coeff-Com: -0.514D-01 0.179D-01 0.102D+01
 Coeff:     -0.886D-07-0.548D-06 0.715D-06-0.276D-07 0.798D-07 0.573D-05
 Coeff:     -0.111D-04-0.263D-04 0.346D-03-0.138D-02-0.218D-02 0.205D-01
 Coeff:     -0.514D-01 0.179D-01 0.102D+01
 Gap=     0.210 Goal=   None    Shift=    0.000
 Gap=     0.210 Goal=   None    Shift=    0.000
 RMSDP=2.67D-08 MaxDP=3.83D-07 DE=-3.17D-11 OVMax= 1.27D-06

 Cycle  16  Pass 1  IDiag  1:
 E= -80.4254779179087     Delta-E=       -0.000000000002 Rises=F Damp=F
 DIIS: error= 1.87D-08 at cycle  16 NSaved=  16.
 NSaved=16 IEnMin=16 EnMin= -80.4254779179087     IErMin=16 ErrMin= 1.87D-08
 ErrMax= 1.87D-08  0.00D+00 EMaxC= 1.00D-01 BMatC= 7.21D-14 BMatP= 1.79D-12
 IDIUse=1 WtCom= 1.00D+00 WtEn= 0.00D+00
 Coeff-Com: -0.448D-07 0.764D-07 0.119D-06-0.632D-10 0.365D-08-0.799D-06
 Coeff-Com:  0.552D-05-0.974D-05-0.321D-04 0.168D-03-0.131D-03-0.232D-02
 Coeff-Com:  0.122D-01-0.500D-01-0.161D+00 0.120D+01
 Coeff:     -0.448D-07 0.764D-07 0.119D-06-0.632D-10 0.365D-08-0.799D-06
 Coeff:      0.552D-05-0.974D-05-0.321D-04 0.168D-03-0.131D-03-0.232D-02
 Coeff:      0.122D-01-0.500D-01-0.161D+00 0.120D+01
 Gap=     0.210 Goal=   None    Shift=    0.000
 Gap=     0.210 Goal=   None    Shift=    0.000
 RMSDP=7.53D-09 MaxDP=1.07D-07 DE=-1.66D-12 OVMax= 4.06D-07

 SCF Done:  E(UM062X) =  -80.4254779179     A.U. after   16 cycles
            NFock= 16  Conv=0.75D-08     -V/T= 2.0035
 <Sx>= 0.0000 <Sy>= 0.0000 <Sz>= 0.0000 <S**2>=-0.0000 S=-0.0000
 <L.S>=  0.00000000000    
 KE= 8.014803752655D+01 PE=-2.138572080098D+02 EE= 4.014008795433D+01
 Annihilation of the first spin contaminant:
 S**2 before annihilation    -0.0000,   after     0.0000
 Leave Link  502 at Mon Apr 21 22:33:42 2025, MaxMem=   536870912 cpu:              48.0 elap:               6.2
 (Enter /home/szhao/Apps/g16/l601.exe)
 Copying SCF densities to generalized density rwf, IOpCl= 1 IROHF=0.

 **********************************************************************

            Population analysis using the SCF density.

 **********************************************************************

 Alpha  occ. eigenvalues --  -14.80164  -7.16068  -0.87187  -0.57617  -0.43785
 Alpha  occ. eigenvalues --   -0.31081  -0.30941
 Alpha virt. eigenvalues --   -0.09938  -0.06707  -0.06595   0.01251   0.04354
 Alpha virt. eigenvalues --    0.05479   0.05531   0.11546   0.14603   0.16300
 Alpha virt. eigenvalues --    0.17103   0.20810   0.24847   0.36209   0.39936
 Alpha virt. eigenvalues --    0.40134   0.44782   0.57155   0.58578   0.78874
 Alpha virt. eigenvalues --    0.80500   0.82730   0.83167   0.83938   0.84914
 Alpha virt. eigenvalues --    0.85728   1.05703   1.12020   1.34370   1.34393
 Alpha virt. eigenvalues --    1.63749   1.63752   1.81720   1.82047   1.88971
 Alpha virt. eigenvalues --    1.97730   2.02206   2.07094   2.33160   2.38535
 Alpha virt. eigenvalues --    2.42423   2.51655   2.59556   3.02012   3.85554
 Alpha virt. eigenvalues --    3.87595   4.40213  14.16979  35.42560
  Beta  occ. eigenvalues --  -14.80164  -7.16068  -0.87187  -0.57617  -0.43785
  Beta  occ. eigenvalues --   -0.31081  -0.30941
  Beta virt. eigenvalues --   -0.09938  -0.06707  -0.06595   0.01251   0.04354
  Beta virt. eigenvalues --    0.05479   0.05531   0.11546   0.14603   0.16300
  Beta virt. eigenvalues --    0.17103   0.20810   0.24847   0.36209   0.39936
  Beta virt. eigenvalues --    0.40134   0.44782   0.57155   0.58578   0.78874
  Beta virt. eigenvalues --    0.80500   0.82730   0.83167   0.83938   0.84914
  Beta virt. eigenvalues --    0.85728   1.05703   1.12020   1.34370   1.34393
  Beta virt. eigenvalues --    1.63749   1.63752   1.81720   1.82047   1.88971
  Beta virt. eigenvalues --    1.97730   2.02206   2.07094   2.33160   2.38535
  Beta virt. eigenvalues --    2.42423   2.51655   2.59556   3.02012   3.85554
  Beta virt. eigenvalues --    3.87595   4.40213  14.16979  35.42560
          Condensed to atoms (all electrons):
               1          2          3          4
     1  B    4.725798  -0.011008   0.259544   0.012872
     2  N   -0.011008   7.026096   0.001820   0.209409
     3  H    0.259544   0.001820   0.716840  -0.000316
     4  H    0.012872   0.209409  -0.000316   0.586625
          Atomic-Atomic Spin Densities.
               1          2          3          4
     1  B   -0.000000  -0.000000   0.000000   0.000000
     2  N   -0.000000   0.000000   0.000000  -0.000000
     3  H    0.000000   0.000000  -0.000000  -0.000000
     4  H    0.000000  -0.000000  -0.000000  -0.000000
 Mulliken charges and spin densities:
               1          2
     1  B    0.012794  -0.000000
     2  N   -0.226316   0.000000
     3  H    0.022112  -0.000000
     4  H    0.191410  -0.000000
 Sum of Mulliken charges =  -0.00000  -0.00000
 Mulliken charges and spin densities with hydrogens summed into heavy atoms:
               1          2
     1  B    0.034906  -0.000000
     2  N   -0.034906   0.000000
 Electronic spatial extent (au):  <R**2>=            186.2982
 Charge=             -0.0000 electrons
 Dipole moment (field-independent basis, Debye):
    X=             -3.4655    Y=              1.4910    Z=             -0.0000  Tot=              3.7727
 Quadrupole moment (field-independent basis, Debye-Ang):
   XX=            -10.8486   YY=            -12.3186   ZZ=            -15.1201
   XY=              2.9262   XZ=             -0.0000   YZ=             -0.0000
 Traceless Quadrupole moment (field-independent basis, Debye-Ang):
   XX=              1.9139   YY=              0.4438   ZZ=             -2.3577
   XY=              2.9262   XZ=             -0.0000   YZ=             -0.0000
 Octapole moment (field-independent basis, Debye-Ang**2):
  XXX=             -3.1793  YYY=             -0.1186  ZZZ=              0.0000  XYY=              0.8157
  XXY=              4.6813  XXZ=             -0.0000  XZZ=             -3.4657  YZZ=             -0.3757
  YYZ=             -0.0000  XYZ=             -0.0000
 Hexadecapole moment (field-independent basis, Debye-Ang**3):
 XXXX=           -253.6465 YYYY=            -18.3110 ZZZZ=            -20.5748 XXXY=              8.9370
 XXXZ=             -0.0001 YYYX=              0.7081 YYYZ=             -0.0000 ZZZX=              0.0000
 ZZZY=             -0.0000 XXYY=            -42.4725 XXZZ=            -49.3423 YYZZ=             -6.6975
 XXYZ=             -0.0000 YYXZ=             -0.0000 ZZXY=             -0.1516
 N-N= 1.314360461098D+01 E-N=-2.138572076952D+02  KE= 8.014803752655D+01
                          Isotropic Fermi Contact Couplings
        Atom                 a.u.       MegaHertz       Gauss      10(-4) cm-1
     1  B(11)             -0.00000      -0.00000      -0.00000      -0.00000
     2  N(14)             -0.00000      -0.00000      -0.00000      -0.00000
     3  H(1)               0.00000       0.00000       0.00000       0.00000
     4  H(1)               0.00000       0.00000       0.00000       0.00000
 --------------------------------------------------------
       Center         ----  Spin Dipole Couplings  ----
                      3XX-RR        3YY-RR        3ZZ-RR
 --------------------------------------------------------
     1   Atom        0.000000      0.000000      0.000000
     2   Atom        0.000000      0.000000      0.000000
     3   Atom        0.000000      0.000000      0.000000
     4   Atom        0.000000      0.000000      0.000000
 --------------------------------------------------------
                        XY            XZ            YZ
 --------------------------------------------------------
     1   Atom        0.000000      0.000000      0.000000
     2   Atom        0.000000      0.000000      0.000000
     3   Atom        0.000000      0.000000      0.000000
     4   Atom        0.000000      0.000000      0.000000
 --------------------------------------------------------


 ---------------------------------------------------------------------------------
              Anisotropic Spin Dipole Couplings in Principal Axis System
 ---------------------------------------------------------------------------------

       Atom             a.u.   MegaHertz   Gauss  10(-4) cm-1        Axes

              Baa     0.0000     0.000     0.000     0.000  1.0000  0.0000  0.0000
     1 B(11)  Bbb     0.0000     0.000     0.000     0.000 -0.0000  1.0000  0.0000
              Bcc     0.0000     0.000     0.000     0.000  0.0000  0.0000  1.0000
 
              Baa     0.0000     0.000     0.000     0.000  1.0000  0.0000  0.0000
     2 N(14)  Bbb     0.0000     0.000     0.000     0.000 -0.0000  1.0000  0.0000
              Bcc     0.0000     0.000     0.000     0.000  0.0000  0.0000  1.0000
 
              Baa     0.0000     0.000     0.000     0.000  1.0000  0.0000  0.0000
     3 H(1)   Bbb     0.0000     0.000     0.000     0.000 -0.0000  1.0000  0.0000
              Bcc     0.0000     0.000     0.000     0.000  0.0000  0.0000  1.0000
 
              Baa     0.0000     0.000     0.000     0.000  1.0000  0.0000  0.0000
     4 H(1)   Bbb     0.0000     0.000     0.000     0.000 -0.0000  1.0000  0.0000
              Bcc     0.0000     0.000     0.000     0.000  0.0000  0.0000  1.0000
 

 ---------------------------------------------------------------------------------

 No NMR shielding tensors so no spin-rotation constants.
 Leave Link  601 at Mon Apr 21 22:33:42 2025, MaxMem=   536870912 cpu:               1.9 elap:               0.3
 (Enter /home/szhao/Apps/g16/l701.exe)
 ... and contract with generalized density number  0.
 Compute integral first derivatives.
 Leave Link  701 at Mon Apr 21 22:33:43 2025, MaxMem=   536870912 cpu:               1.2 elap:               0.2
 (Enter /home/szhao/Apps/g16/l702.exe)
 L702 exits ... SP integral derivatives will be done elsewhere.
 Leave Link  702 at Mon Apr 21 22:33:43 2025, MaxMem=   536870912 cpu:               0.4 elap:               0.1
 (Enter /home/szhao/Apps/g16/l703.exe)
 Integral derivatives from FoFJK, PRISM(SPDF).
 Compute integral first derivatives, UseDBF=F ICtDFT=           0.
 Calling FoFJK, ICntrl=      2127 FMM=F ISym2X=0 I1Cent= 0 IOpClX= 1 NMat=1 NMatS=1 NMatT=0.
 FoFJK:  IHMeth= 1 ICntrl=    2127 DoSepK=F KAlg= 0 I1Cent=           0 FoldK=F
 IRaf=         0 NMat=       1 IRICut=       1 DoRegI=T DoRafI=F ISym2E= 0 IDoP0=0 IntGTp=1.
 FoFCou: FMM=F IPFlag=           0 FMFlag=      100000 FMFlg1=         800
         NFxFlg=           0 DoJE=F BraDBF=F KetDBF=F FulRan=T
         wScrn=  0.000000 ICntrl=      2127 IOpCl=  1 I1Cent=           0 NGrid=           0
         NMat0=    1 NMatS0=      1 NMatT0=    0 NMatD0=    1 NMtDS0=    0 NMtDT0=    0
 Symmetry not used in FoFCou.
 Leave Link  703 at Mon Apr 21 22:33:44 2025, MaxMem=   536870912 cpu:               4.9 elap:               0.6
 (Enter /home/szhao/Apps/g16/l716.exe)
 Dipole        =-1.36345217D+00 5.86600195D-01-3.76072516D-06
 -------------------------------------------------------------------
 Center     Atomic                   Forces (Hartrees/Bohr)
 Number     Number              X              Y              Z
 -------------------------------------------------------------------
      1        5          -0.000000000   -0.000000000   -0.000000000
      2        7          -0.000000000   -0.000000000   -0.000000000
      3        1           0.000636692   -0.001049827    0.000000007
      4        1          -0.003956116    0.012044750   -0.000000077
 -------------------------------------------------------------------
 Cartesian Forces:  Max     0.012044750 RMS     0.003676891
 Leave Link  716 at Mon Apr 21 22:33:44 2025, MaxMem=   536870912 cpu:               0.3 elap:               0.1
 (Enter /home/szhao/Apps/g16/l103.exe)

 GradGradGradGradGradGradGradGradGradGradGradGradGradGradGradGradGradGrad
 Berny optimization.
 FormGI is forming the generalized inverse of G from B-inverse, IUseBI=4.
 Internal  Forces:  Max     0.012320782 RMS     0.005244133
 Search for a local minimum.
 Step number   1 out of a maximum of   22
 All quantities printed in internal units (Hartrees-Bohrs-Radians)
 RMS Force = .53436D-02 SwitMx=.10000D-02 MixMth= 1
 Mixed Optimization -- RFO/linear search
 Second derivative matrix not updated -- first step.
 The second derivative matrix:
                          X1        Y1        Z1        X2        Y2
           X1           0.50000
           Y1           0.00000   0.50000
           Z1           0.00000   0.00000   0.50000
           X2           0.00000   0.00000   0.00000   0.50000
           Y2           0.00000   0.00000   0.00000   0.00000   0.50000
           Z2           0.00000   0.00000   0.00000   0.00000   0.00000
           R1           0.00000   0.00000   0.00000   0.00000   0.00000
           R2           0.00000   0.00000   0.00000   0.00000   0.00000
           R3           0.00000   0.00000   0.00000   0.00000   0.00000
           A1           0.00000   0.00000   0.00000   0.00000   0.00000
           A2           0.00000   0.00000   0.00000   0.00000   0.00000
           D1           0.00000   0.00000   0.00000   0.00000   0.00000
                          Z2        R1        R2        R3        A1
           Z2           0.50000
           R1           0.00000   0.23069
           R2           0.00000   0.00000   0.01058
           R3           0.00000   0.00000   0.00000   0.44281
           A1           0.00000   0.00000   0.00000   0.00000   0.16000
           A2           0.00000   0.00000   0.00000   0.00000   0.00000
           D1           0.00000   0.00000   0.00000   0.00000   0.00000
                          A2        D1
           A2           0.25000
           D1           0.00000   0.00230
 ITU=  0
     Eigenvalues ---    0.00230   0.06313   0.16000   0.23069   0.43486
     Eigenvalues --- 1000.000001000.000001000.000001000.000001000.00000
     Eigenvalues --- 1000.000001000.00000
 RFO step:  Lambda=-4.19131255D-04 EMin= 2.30000000D-03
 Linear search not attempted -- first point.
 Iteration  1 RMS(Cart)= 58.93059087 RMS(Int)= 81.77589009
 Iteration  2 RMS(Cart)=  0.14354092 RMS(Int)= 81.69507687
 Iteration  3 RMS(Cart)=  0.14779721 RMS(Int)= 81.61346177
 Iteration  4 RMS(Cart)=  0.14806387 RMS(Int)= 81.53182022
 Iteration  5 RMS(Cart)=  0.14803353 RMS(Int)= 81.45020547
 Iteration  6 RMS(Cart)=  0.14798953 RMS(Int)= 81.36862186
 Iteration  7 RMS(Cart)=  0.14795126 RMS(Int)= 81.28707148
 Iteration  8 RMS(Cart)=  0.06856636 RMS(Int)= 81.20541197
 Iteration  9 RMS(Cart)=  0.05776179 RMS(Int)= 81.12376061
 Iteration 10 RMS(Cart)=  0.05775009 RMS(Int)= 81.04210982
 Iteration 11 RMS(Cart)=  0.05775011 RMS(Int)= 80.96045903
 Iteration 12 RMS(Cart)=  0.05775013 RMS(Int)= 80.87880823
 Iteration 13 RMS(Cart)=  0.05775015 RMS(Int)= 80.79715744
 Iteration 14 RMS(Cart)=  0.05775016 RMS(Int)= 80.71550664
 Iteration 15 RMS(Cart)=  0.05775018 RMS(Int)= 80.63385584
 Iteration 16 RMS(Cart)=  0.05775020 RMS(Int)= 80.55220504
 Iteration 17 RMS(Cart)=  0.05775022 RMS(Int)= 80.47055424
 Iteration 18 RMS(Cart)=  0.05775024 RMS(Int)= 80.38890343
 Iteration 19 RMS(Cart)=  0.05775026 RMS(Int)= 80.30725262
 Iteration 20 RMS(Cart)=  0.05775028 RMS(Int)= 80.22560181
 Iteration 21 RMS(Cart)=  0.05775030 RMS(Int)= 80.14395100
 Iteration 22 RMS(Cart)=  0.05775032 RMS(Int)= 80.06230018
 Iteration 23 RMS(Cart)=  0.05775034 RMS(Int)= 79.98064937
 Iteration 24 RMS(Cart)=  0.05775036 RMS(Int)= 79.89899855
 Iteration 25 RMS(Cart)=  0.05775037 RMS(Int)= 79.81734773
 Iteration 26 RMS(Cart)=  0.05775039 RMS(Int)= 79.73569690
 Iteration 27 RMS(Cart)=  0.05775041 RMS(Int)= 79.65404608
 Iteration 28 RMS(Cart)=  0.05775043 RMS(Int)= 79.57239525
 Iteration 29 RMS(Cart)=  0.05775045 RMS(Int)= 79.49074442
 Iteration 30 RMS(Cart)=  0.05775047 RMS(Int)= 79.40909359
 Iteration 31 RMS(Cart)=  0.05775049 RMS(Int)= 79.32744275
 Iteration 32 RMS(Cart)=  0.05775051 RMS(Int)= 79.24579192
 Iteration 33 RMS(Cart)=  0.05775053 RMS(Int)= 79.16414108
 Iteration 34 RMS(Cart)=  0.05775055 RMS(Int)= 79.08249024
 Iteration 35 RMS(Cart)=  0.05775057 RMS(Int)= 79.00083939
 Iteration 36 RMS(Cart)=  0.05775059 RMS(Int)= 78.91918855
 Iteration 37 RMS(Cart)=  0.05775061 RMS(Int)= 78.83753770
 Iteration 38 RMS(Cart)=  0.05775063 RMS(Int)= 78.75588685
 Iteration 39 RMS(Cart)=  0.05775066 RMS(Int)= 78.67423600
 Iteration 40 RMS(Cart)=  0.05775068 RMS(Int)= 78.59258514
 Iteration 41 RMS(Cart)=  0.05775070 RMS(Int)= 78.51093428
 Iteration 42 RMS(Cart)=  0.05775072 RMS(Int)= 78.42928342
 Iteration 43 RMS(Cart)=  0.05775074 RMS(Int)= 78.34763256
 Iteration 44 RMS(Cart)=  0.05775076 RMS(Int)= 78.26598170
 Iteration 45 RMS(Cart)=  0.05775078 RMS(Int)= 78.18433083
 Iteration 46 RMS(Cart)=  0.05775080 RMS(Int)= 78.10267996
 Iteration 47 RMS(Cart)=  0.05775082 RMS(Int)= 78.02102909
 Iteration 48 RMS(Cart)=  0.05775084 RMS(Int)= 77.93937822
 Iteration 49 RMS(Cart)=  0.05775086 RMS(Int)= 77.85772734
 Iteration 50 RMS(Cart)=  0.05775089 RMS(Int)= 77.77607647
 Iteration 51 RMS(Cart)=  0.05775091 RMS(Int)= 77.69442559
 Iteration 52 RMS(Cart)=  0.05775093 RMS(Int)= 77.61277470
 Iteration 53 RMS(Cart)=  0.05775095 RMS(Int)= 77.53112382
 Iteration 54 RMS(Cart)=  0.05775097 RMS(Int)= 77.44947293
 Iteration 55 RMS(Cart)=  0.05775099 RMS(Int)= 77.36782204
 Iteration 56 RMS(Cart)=  0.05775101 RMS(Int)= 77.28617115
 Iteration 57 RMS(Cart)=  0.05775104 RMS(Int)= 77.20452025
 Iteration 58 RMS(Cart)=  0.05775106 RMS(Int)= 77.12286936
 Iteration 59 RMS(Cart)=  0.05775108 RMS(Int)= 77.04121846
 Iteration 60 RMS(Cart)=  0.05775110 RMS(Int)= 76.95956756
 Iteration 61 RMS(Cart)=  0.05775113 RMS(Int)= 76.87791665
 Iteration 62 RMS(Cart)=  0.05775115 RMS(Int)= 76.79626574
 Iteration 63 RMS(Cart)=  0.05775117 RMS(Int)= 76.71461484
 Iteration 64 RMS(Cart)=  0.05775119 RMS(Int)= 76.63296392
 Iteration 65 RMS(Cart)=  0.05775121 RMS(Int)= 76.55131301
 Iteration 66 RMS(Cart)=  0.05775124 RMS(Int)= 76.46966209
 Iteration 67 RMS(Cart)=  0.05775126 RMS(Int)= 76.38801117
 Iteration 68 RMS(Cart)=  0.05775128 RMS(Int)= 76.30636025
 Iteration 69 RMS(Cart)=  0.05775131 RMS(Int)= 76.22470933
 Iteration 70 RMS(Cart)=  0.05775133 RMS(Int)= 76.14305840
 Iteration 71 RMS(Cart)=  0.05775135 RMS(Int)= 76.06140747
 Iteration 72 RMS(Cart)=  0.05775138 RMS(Int)= 75.97975654
 Iteration 73 RMS(Cart)=  0.05775140 RMS(Int)= 75.89810561
 Iteration 74 RMS(Cart)=  0.05775142 RMS(Int)= 75.81645467
 Iteration 75 RMS(Cart)=  0.05775144 RMS(Int)= 75.73480373
 Iteration 76 RMS(Cart)=  0.05775147 RMS(Int)= 75.65315279
 Iteration 77 RMS(Cart)=  0.05775149 RMS(Int)= 75.57150185
 Iteration 78 RMS(Cart)=  0.05775152 RMS(Int)= 75.48985090
 Iteration 79 RMS(Cart)=  0.05775154 RMS(Int)= 75.40819995
 Iteration 80 RMS(Cart)=  0.05775156 RMS(Int)= 75.32654900
 Iteration 81 RMS(Cart)=  0.05775159 RMS(Int)= 75.24489805
 Iteration 82 RMS(Cart)=  0.05775161 RMS(Int)= 75.16324709
 Iteration 83 RMS(Cart)=  0.05775164 RMS(Int)= 75.08159613
 Iteration 84 RMS(Cart)=  0.05775166 RMS(Int)= 74.99994517
 Iteration 85 RMS(Cart)=  0.05775168 RMS(Int)= 74.91829420
 Iteration 86 RMS(Cart)=  0.05775171 RMS(Int)= 74.83664324
 Iteration 87 RMS(Cart)=  0.05775173 RMS(Int)= 74.75499227
 Iteration 88 RMS(Cart)=  0.05775176 RMS(Int)= 74.67334129
 Iteration 89 RMS(Cart)=  0.05775162 RMS(Int)= 74.59169023
 Iteration 90 RMS(Cart)=  0.05775175 RMS(Int)= 74.51003922
 Iteration 91 RMS(Cart)=  0.05775174 RMS(Int)= 74.42838819
 Iteration 92 RMS(Cart)=  0.05775179 RMS(Int)= 74.34673716
 Iteration 93 RMS(Cart)=  0.05775181 RMS(Int)= 74.26508613
 Iteration 94 RMS(Cart)=  0.05775184 RMS(Int)= 74.18343509
 Iteration 95 RMS(Cart)=  0.05775186 RMS(Int)= 74.10178406
 Iteration 96 RMS(Cart)=  0.05775189 RMS(Int)= 74.02013302
 Iteration 97 RMS(Cart)=  0.05775192 RMS(Int)= 73.93848198
 Iteration 98 RMS(Cart)=  0.05775194 RMS(Int)= 73.85683093
 Iteration 99 RMS(Cart)=  0.05775197 RMS(Int)= 73.77517989
 Iteration100 RMS(Cart)=  0.05775200 RMS(Int)= 73.69352884
 New curvilinear step not converged.
 ITry= 1 IFail=1 DXMaxC= 1.84D+02 DCOld= 1.00D+10 DXMaxT= 3.00D-01 DXLimC= 3.00D+00 Rises=F
 Iteration  1 RMS(Cart)= 53.03753178 RMS(Int)= 73.44522533
 Iteration  2 RMS(Cart)=  0.14351574 RMS(Int)= 73.36439591
 Iteration  3 RMS(Cart)=  0.14780723 RMS(Int)= 73.28275842
 Iteration  4 RMS(Cart)=  0.14807475 RMS(Int)= 73.20109685
 Iteration  5 RMS(Cart)=  0.14804157 RMS(Int)= 73.11946539
 Iteration  6 RMS(Cart)=  0.14799471 RMS(Int)= 73.03786864
 Iteration  7 RMS(Cart)=  0.14795386 RMS(Int)= 72.95630890
 Iteration  8 RMS(Cart)=  0.06711666 RMS(Int)= 72.87464762
 Iteration  9 RMS(Cart)=  0.05776257 RMS(Int)= 72.79299608
 Iteration 10 RMS(Cart)=  0.05775364 RMS(Int)= 72.71134503
 Iteration 11 RMS(Cart)=  0.05775367 RMS(Int)= 72.62969399
 Iteration 12 RMS(Cart)=  0.05775370 RMS(Int)= 72.54804294
 Iteration 13 RMS(Cart)=  0.05775372 RMS(Int)= 72.46639189
 Iteration 14 RMS(Cart)=  0.05775375 RMS(Int)= 72.38474084
 Iteration 15 RMS(Cart)=  0.05775377 RMS(Int)= 72.30308978
 Iteration 16 RMS(Cart)=  0.05775380 RMS(Int)= 72.22143872
 Iteration 17 RMS(Cart)=  0.05775383 RMS(Int)= 72.13978766
 Iteration 18 RMS(Cart)=  0.05775385 RMS(Int)= 72.05813659
 Iteration 19 RMS(Cart)=  0.05775388 RMS(Int)= 71.97648553
 Iteration 20 RMS(Cart)=  0.05775390 RMS(Int)= 71.89483446
 Iteration 21 RMS(Cart)=  0.05775393 RMS(Int)= 71.81318338
 Iteration 22 RMS(Cart)=  0.05775396 RMS(Int)= 71.73153231
 Iteration 23 RMS(Cart)=  0.05775398 RMS(Int)= 71.64988123
 Iteration 24 RMS(Cart)=  0.05775401 RMS(Int)= 71.56823014
 Iteration 25 RMS(Cart)=  0.05775404 RMS(Int)= 71.48657906
 Iteration 26 RMS(Cart)=  0.05775407 RMS(Int)= 71.40492797
 Iteration 27 RMS(Cart)=  0.05775409 RMS(Int)= 71.32327688
 Iteration 28 RMS(Cart)=  0.05775412 RMS(Int)= 71.24162578
 Iteration 29 RMS(Cart)=  0.05775415 RMS(Int)= 71.15997469
 Iteration 30 RMS(Cart)=  0.05775417 RMS(Int)= 71.07832359
 Iteration 31 RMS(Cart)=  0.05775420 RMS(Int)= 70.99667248
 Iteration 32 RMS(Cart)=  0.05775423 RMS(Int)= 70.91502138
 Iteration 33 RMS(Cart)=  0.05775426 RMS(Int)= 70.83337027
 Iteration 34 RMS(Cart)=  0.05775429 RMS(Int)= 70.75171915
 Iteration 35 RMS(Cart)=  0.05775431 RMS(Int)= 70.67006804
 Iteration 36 RMS(Cart)=  0.05775434 RMS(Int)= 70.58841692
 Iteration 37 RMS(Cart)=  0.05775437 RMS(Int)= 70.50676580
 Iteration 38 RMS(Cart)=  0.05775440 RMS(Int)= 70.42511467
 Iteration 39 RMS(Cart)=  0.05775443 RMS(Int)= 70.34346354
 Iteration 40 RMS(Cart)=  0.05775446 RMS(Int)= 70.26181241
 Iteration 41 RMS(Cart)=  0.05775448 RMS(Int)= 70.18016128
 Iteration 42 RMS(Cart)=  0.05775451 RMS(Int)= 70.09851014
 Iteration 43 RMS(Cart)=  0.05775454 RMS(Int)= 70.01685900
 Iteration 44 RMS(Cart)=  0.05775457 RMS(Int)= 69.93520786
 Iteration 45 RMS(Cart)=  0.05775460 RMS(Int)= 69.85355671
 Iteration 46 RMS(Cart)=  0.05775463 RMS(Int)= 69.77190556
 Iteration 47 RMS(Cart)=  0.05775466 RMS(Int)= 69.69025441
 Iteration 48 RMS(Cart)=  0.05775469 RMS(Int)= 69.60860325
 Iteration 49 RMS(Cart)=  0.05775472 RMS(Int)= 69.52695209
 Iteration 50 RMS(Cart)=  0.05775475 RMS(Int)= 69.44530093
 Iteration 51 RMS(Cart)=  0.05775478 RMS(Int)= 69.36364976
 Iteration 52 RMS(Cart)=  0.05775481 RMS(Int)= 69.28199860
 Iteration 53 RMS(Cart)=  0.05775484 RMS(Int)= 69.20034742
 Iteration 54 RMS(Cart)=  0.05775487 RMS(Int)= 69.11869625
 Iteration 55 RMS(Cart)=  0.05775490 RMS(Int)= 69.03704507
 Iteration 56 RMS(Cart)=  0.05775493 RMS(Int)= 68.95539389
 Iteration 57 RMS(Cart)=  0.05775496 RMS(Int)= 68.87374270
 Iteration 58 RMS(Cart)=  0.05775499 RMS(Int)= 68.79209151
 Iteration 59 RMS(Cart)=  0.05775502 RMS(Int)= 68.71044032
 Iteration 60 RMS(Cart)=  0.05775505 RMS(Int)= 68.62878913
 Iteration 61 RMS(Cart)=  0.05775509 RMS(Int)= 68.54713793
 Iteration 62 RMS(Cart)=  0.05775512 RMS(Int)= 68.46548673
 Iteration 63 RMS(Cart)=  0.05775515 RMS(Int)= 68.38383552
 Iteration 64 RMS(Cart)=  0.05775518 RMS(Int)= 68.30218431
 Iteration 65 RMS(Cart)=  0.05775521 RMS(Int)= 68.22053310
 Iteration 66 RMS(Cart)=  0.05775524 RMS(Int)= 68.13888189
 Iteration 67 RMS(Cart)=  0.05775527 RMS(Int)= 68.05723067
 Iteration 68 RMS(Cart)=  0.05775519 RMS(Int)= 67.97557937
 Iteration 69 RMS(Cart)=  0.05775527 RMS(Int)= 67.89392810
 Iteration 70 RMS(Cart)=  0.05775530 RMS(Int)= 67.81227683
 Iteration 71 RMS(Cart)=  0.05775533 RMS(Int)= 67.73062555
 Iteration 72 RMS(Cart)=  0.05775536 RMS(Int)= 67.64897426
 Iteration 73 RMS(Cart)=  0.05775540 RMS(Int)= 67.56732298
 Iteration 74 RMS(Cart)=  0.05775543 RMS(Int)= 67.48567169
 Iteration 75 RMS(Cart)=  0.05775547 RMS(Int)= 67.40402040
 Iteration 76 RMS(Cart)=  0.05775550 RMS(Int)= 67.32236911
 Iteration 77 RMS(Cart)=  0.05775554 RMS(Int)= 67.24071781
 Iteration 78 RMS(Cart)=  0.05775557 RMS(Int)= 67.15906651
 Iteration 79 RMS(Cart)=  0.05775561 RMS(Int)= 67.07741521
 Iteration 80 RMS(Cart)=  0.05775564 RMS(Int)= 66.99576391
 Iteration 81 RMS(Cart)=  0.05775568 RMS(Int)= 66.91411260
 Iteration 82 RMS(Cart)=  0.05775571 RMS(Int)= 66.83246129
 Iteration 83 RMS(Cart)=  0.05775575 RMS(Int)= 66.75080998
 Iteration 84 RMS(Cart)=  0.05775578 RMS(Int)= 66.66915866
 Iteration 85 RMS(Cart)=  0.05775582 RMS(Int)= 66.58750734
 Iteration 86 RMS(Cart)=  0.05775585 RMS(Int)= 66.50585602
 Iteration 87 RMS(Cart)=  0.05775589 RMS(Int)= 66.42420469
 Iteration 88 RMS(Cart)=  0.05775592 RMS(Int)= 66.34255337
 Iteration 89 RMS(Cart)=  0.05775596 RMS(Int)= 66.26090204
 Iteration 90 RMS(Cart)=  0.05775600 RMS(Int)= 66.17925070
 Iteration 91 RMS(Cart)=  0.05775603 RMS(Int)= 66.09759937
 Iteration 92 RMS(Cart)=  0.05775607 RMS(Int)= 66.01594803
 Iteration 93 RMS(Cart)=  0.05775610 RMS(Int)= 65.93429668
 Iteration 94 RMS(Cart)=  0.05775614 RMS(Int)= 65.85264534
 Iteration 95 RMS(Cart)=  0.05775618 RMS(Int)= 65.77099399
 Iteration 96 RMS(Cart)=  0.05775621 RMS(Int)= 65.68934263
 Iteration 97 RMS(Cart)=  0.05775625 RMS(Int)= 65.60769128
 Iteration 98 RMS(Cart)=  0.05775629 RMS(Int)= 65.52603992
 Iteration 99 RMS(Cart)=  0.05775633 RMS(Int)= 65.44438856
 Iteration100 RMS(Cart)=  0.05775636 RMS(Int)= 65.36273719
 New curvilinear step not converged.
 ITry= 2 IFail=1 DXMaxC= 1.64D+02 DCOld= 1.00D+10 DXMaxT= 3.00D-01 DXLimC= 3.00D+00 Rises=F
 Iteration  1 RMS(Cart)= 47.14447269 RMS(Int)= 65.11523749
 Iteration  2 RMS(Cart)=  0.14349381 RMS(Int)= 65.03438788
 Iteration  3 RMS(Cart)=  0.14781695 RMS(Int)= 64.95272219
 Iteration  4 RMS(Cart)=  0.14808444 RMS(Int)= 64.87103553
 Iteration  5 RMS(Cart)=  0.14804764 RMS(Int)= 64.78938318
 Iteration  6 RMS(Cart)=  0.14799718 RMS(Int)= 64.70777001
 Iteration  7 RMS(Cart)=  0.14795309 RMS(Int)= 64.62619859
 Iteration  8 RMS(Cart)=  0.06556022 RMS(Int)= 64.54453487
 Iteration  9 RMS(Cart)=  0.05776499 RMS(Int)= 64.46288307
 Iteration 10 RMS(Cart)=  0.05775862 RMS(Int)= 64.38123168
 Iteration 11 RMS(Cart)=  0.05775865 RMS(Int)= 64.29958029
 Iteration 12 RMS(Cart)=  0.05775869 RMS(Int)= 64.21792889
 Iteration 13 RMS(Cart)=  0.05775873 RMS(Int)= 64.13627748
 Iteration 14 RMS(Cart)=  0.05775877 RMS(Int)= 64.05462607
 Iteration 15 RMS(Cart)=  0.05775880 RMS(Int)= 63.97297466
 Iteration 16 RMS(Cart)=  0.05775884 RMS(Int)= 63.89132325
 Iteration 17 RMS(Cart)=  0.05775888 RMS(Int)= 63.80967183
 Iteration 18 RMS(Cart)=  0.05775891 RMS(Int)= 63.72802040
 Iteration 19 RMS(Cart)=  0.05775895 RMS(Int)= 63.64636897
 Iteration 20 RMS(Cart)=  0.05775899 RMS(Int)= 63.56471754
 Iteration 21 RMS(Cart)=  0.05775903 RMS(Int)= 63.48306610
 Iteration 22 RMS(Cart)=  0.05775907 RMS(Int)= 63.40141466
 Iteration 23 RMS(Cart)=  0.05775911 RMS(Int)= 63.31976322
 Iteration 24 RMS(Cart)=  0.05775914 RMS(Int)= 63.23811177
 Iteration 25 RMS(Cart)=  0.05775918 RMS(Int)= 63.15646032
 Iteration 26 RMS(Cart)=  0.05775922 RMS(Int)= 63.07480886
 Iteration 27 RMS(Cart)=  0.05775926 RMS(Int)= 62.99315740
 Iteration 28 RMS(Cart)=  0.05775930 RMS(Int)= 62.91150593
 Iteration 29 RMS(Cart)=  0.05775934 RMS(Int)= 62.82985446
 Iteration 30 RMS(Cart)=  0.05775938 RMS(Int)= 62.74820299
 Iteration 31 RMS(Cart)=  0.05775942 RMS(Int)= 62.66655151
 Iteration 32 RMS(Cart)=  0.05775946 RMS(Int)= 62.58490003
 Iteration 33 RMS(Cart)=  0.05775950 RMS(Int)= 62.50324854
 Iteration 34 RMS(Cart)=  0.05775954 RMS(Int)= 62.42159705
 Iteration 35 RMS(Cart)=  0.05775958 RMS(Int)= 62.33994556
 Iteration 36 RMS(Cart)=  0.05775962 RMS(Int)= 62.25829406
 Iteration 37 RMS(Cart)=  0.05775966 RMS(Int)= 62.17664255
 Iteration 38 RMS(Cart)=  0.05775970 RMS(Int)= 62.09499105
 Iteration 39 RMS(Cart)=  0.05775975 RMS(Int)= 62.01333953
 Iteration 40 RMS(Cart)=  0.05775979 RMS(Int)= 61.93168802
 Iteration 41 RMS(Cart)=  0.05775983 RMS(Int)= 61.85003649
 Iteration 42 RMS(Cart)=  0.05775987 RMS(Int)= 61.76838497
 Iteration 43 RMS(Cart)=  0.05775991 RMS(Int)= 61.68673344
 Iteration 44 RMS(Cart)=  0.05775995 RMS(Int)= 61.60508190
 Iteration 45 RMS(Cart)=  0.05776000 RMS(Int)= 61.52343036
 Iteration 46 RMS(Cart)=  0.05776004 RMS(Int)= 61.44177882
 Iteration 47 RMS(Cart)=  0.05776008 RMS(Int)= 61.36012727
 Iteration 48 RMS(Cart)=  0.05776013 RMS(Int)= 61.27847572
 Iteration 49 RMS(Cart)=  0.05776017 RMS(Int)= 61.19682416
 Iteration 50 RMS(Cart)=  0.05776021 RMS(Int)= 61.11517260
 Iteration 51 RMS(Cart)=  0.05776026 RMS(Int)= 61.03352104
 Iteration 52 RMS(Cart)=  0.05776030 RMS(Int)= 60.95186947
 Iteration 53 RMS(Cart)=  0.05776034 RMS(Int)= 60.87021789
 Iteration 54 RMS(Cart)=  0.05776039 RMS(Int)= 60.78856631
 Iteration 55 RMS(Cart)=  0.05776043 RMS(Int)= 60.70691473
 Iteration 56 RMS(Cart)=  0.05776048 RMS(Int)= 60.62526314
 Iteration 57 RMS(Cart)=  0.05776052 RMS(Int)= 60.54361154
 Iteration 58 RMS(Cart)=  0.05776057 RMS(Int)= 60.46195994
 Iteration 59 RMS(Cart)=  0.05776061 RMS(Int)= 60.38030834
 Iteration 60 RMS(Cart)=  0.05776066 RMS(Int)= 60.29865673
 Iteration 61 RMS(Cart)=  0.05776071 RMS(Int)= 60.21700512
 Iteration 62 RMS(Cart)=  0.05776075 RMS(Int)= 60.13535350
 Iteration 63 RMS(Cart)=  0.05776080 RMS(Int)= 60.05370188
 Iteration 64 RMS(Cart)=  0.05776084 RMS(Int)= 59.97205025
 Iteration 65 RMS(Cart)=  0.05776089 RMS(Int)= 59.89039862
 Iteration 66 RMS(Cart)=  0.05776086 RMS(Int)= 59.80874694
 Iteration 67 RMS(Cart)=  0.05776091 RMS(Int)= 59.72709526
 Iteration 68 RMS(Cart)=  0.05776097 RMS(Int)= 59.64544358
 Iteration 69 RMS(Cart)=  0.05776102 RMS(Int)= 59.56379190
 Iteration 70 RMS(Cart)=  0.05776106 RMS(Int)= 59.48214020
 Iteration 71 RMS(Cart)=  0.05776111 RMS(Int)= 59.40048851
 Iteration 72 RMS(Cart)=  0.05776116 RMS(Int)= 59.31883681
 Iteration 73 RMS(Cart)=  0.05776121 RMS(Int)= 59.23718511
 Iteration 74 RMS(Cart)=  0.05776126 RMS(Int)= 59.15553340
 Iteration 75 RMS(Cart)=  0.05776131 RMS(Int)= 59.07388169
 Iteration 76 RMS(Cart)=  0.05776136 RMS(Int)= 58.99222997
 Iteration 77 RMS(Cart)=  0.05776141 RMS(Int)= 58.91057825
 Iteration 78 RMS(Cart)=  0.05776146 RMS(Int)= 58.82892652
 Iteration 79 RMS(Cart)=  0.05776151 RMS(Int)= 58.74727479
 Iteration 80 RMS(Cart)=  0.05776156 RMS(Int)= 58.66562306
 Iteration 81 RMS(Cart)=  0.05776161 RMS(Int)= 58.58397132
 Iteration 82 RMS(Cart)=  0.05776166 RMS(Int)= 58.50231957
 Iteration 83 RMS(Cart)=  0.05776172 RMS(Int)= 58.42066782
 Iteration 84 RMS(Cart)=  0.05776177 RMS(Int)= 58.33901607
 Iteration 85 RMS(Cart)=  0.05776182 RMS(Int)= 58.25736431
 Iteration 86 RMS(Cart)=  0.05776187 RMS(Int)= 58.17571255
 Iteration 87 RMS(Cart)=  0.05776192 RMS(Int)= 58.09406078
 Iteration 88 RMS(Cart)=  0.05776198 RMS(Int)= 58.01240901
 Iteration 89 RMS(Cart)=  0.05776203 RMS(Int)= 57.93075723
 Iteration 90 RMS(Cart)=  0.05776208 RMS(Int)= 57.84910545
 Iteration 91 RMS(Cart)=  0.05776214 RMS(Int)= 57.76745366
 Iteration 92 RMS(Cart)=  0.05776219 RMS(Int)= 57.68580187
 Iteration 93 RMS(Cart)=  0.05776224 RMS(Int)= 57.60415008
 Iteration 94 RMS(Cart)=  0.05776230 RMS(Int)= 57.52249827
 Iteration 95 RMS(Cart)=  0.05776235 RMS(Int)= 57.44084647
 Iteration 96 RMS(Cart)=  0.05776241 RMS(Int)= 57.35919466
 Iteration 97 RMS(Cart)=  0.05776246 RMS(Int)= 57.27754284
 Iteration 98 RMS(Cart)=  0.05776252 RMS(Int)= 57.19589102
 Iteration 99 RMS(Cart)=  0.05776257 RMS(Int)= 57.11423919
 Iteration100 RMS(Cart)=  0.05776263 RMS(Int)= 57.03258736
 New curvilinear step not converged.
 ITry= 3 IFail=1 DXMaxC= 1.44D+02 DCOld= 1.00D+10 DXMaxT= 3.00D-01 DXLimC= 3.00D+00 Rises=F
 Iteration  1 RMS(Cart)= 41.25141361 RMS(Int)= 56.78621433
 Iteration  2 RMS(Cart)=  0.14346422 RMS(Int)= 56.70533679
 Iteration  3 RMS(Cart)=  0.14782506 RMS(Int)= 56.62363468
 Iteration  4 RMS(Cart)=  0.14809220 RMS(Int)= 56.54191572
 Iteration  5 RMS(Cart)=  0.14805074 RMS(Int)= 56.46023649
 Iteration  6 RMS(Cart)=  0.14799564 RMS(Int)= 56.37860221
 Iteration  7 RMS(Cart)=  0.14794737 RMS(Int)= 56.29701584
 Iteration  8 RMS(Cart)=  0.06389520 RMS(Int)= 56.21534858
 Iteration  9 RMS(Cart)=  0.05776998 RMS(Int)= 56.13369641
 Iteration 10 RMS(Cart)=  0.05776589 RMS(Int)= 56.05204451
 Iteration 11 RMS(Cart)=  0.05776595 RMS(Int)= 55.97039261
 Iteration 12 RMS(Cart)=  0.05776600 RMS(Int)= 55.88874070
 Iteration 13 RMS(Cart)=  0.05776606 RMS(Int)= 55.80708878
 Iteration 14 RMS(Cart)=  0.05776611 RMS(Int)= 55.72543686
 Iteration 15 RMS(Cart)=  0.05776617 RMS(Int)= 55.64378494
 Iteration 16 RMS(Cart)=  0.05776622 RMS(Int)= 55.56213301
 Iteration 17 RMS(Cart)=  0.05776628 RMS(Int)= 55.48048107
 Iteration 18 RMS(Cart)=  0.05776634 RMS(Int)= 55.39882913
 Iteration 19 RMS(Cart)=  0.05776639 RMS(Int)= 55.31717718
 Iteration 20 RMS(Cart)=  0.05776645 RMS(Int)= 55.23552522
 Iteration 21 RMS(Cart)=  0.05776651 RMS(Int)= 55.15387326
 Iteration 22 RMS(Cart)=  0.05776657 RMS(Int)= 55.07222129
 Iteration 23 RMS(Cart)=  0.05776662 RMS(Int)= 54.99056932
 Iteration 24 RMS(Cart)=  0.05776668 RMS(Int)= 54.90891734
 Iteration 25 RMS(Cart)=  0.05776674 RMS(Int)= 54.82726535
 Iteration 26 RMS(Cart)=  0.05776680 RMS(Int)= 54.74561336
 Iteration 27 RMS(Cart)=  0.05776686 RMS(Int)= 54.66396136
 Iteration 28 RMS(Cart)=  0.05776692 RMS(Int)= 54.58230936
 Iteration 29 RMS(Cart)=  0.05776698 RMS(Int)= 54.50065735
 Iteration 30 RMS(Cart)=  0.05776704 RMS(Int)= 54.41900533
 Iteration 31 RMS(Cart)=  0.05776710 RMS(Int)= 54.33735331
 Iteration 32 RMS(Cart)=  0.05776716 RMS(Int)= 54.25570128
 Iteration 33 RMS(Cart)=  0.05776722 RMS(Int)= 54.17404925
 Iteration 34 RMS(Cart)=  0.05776729 RMS(Int)= 54.09239721
 Iteration 35 RMS(Cart)=  0.05776735 RMS(Int)= 54.01074516
 Iteration 36 RMS(Cart)=  0.05776741 RMS(Int)= 53.92909310
 Iteration 37 RMS(Cart)=  0.05776747 RMS(Int)= 53.84744104
 Iteration 38 RMS(Cart)=  0.05776754 RMS(Int)= 53.76578898
 Iteration 39 RMS(Cart)=  0.05776760 RMS(Int)= 53.68413690
 Iteration 40 RMS(Cart)=  0.05776766 RMS(Int)= 53.60248482
 Iteration 41 RMS(Cart)=  0.05776773 RMS(Int)= 53.52083274
 Iteration 42 RMS(Cart)=  0.05776779 RMS(Int)= 53.43918065
 Iteration 43 RMS(Cart)=  0.05776785 RMS(Int)= 53.35752855
 Iteration 44 RMS(Cart)=  0.05776792 RMS(Int)= 53.27587644
 Iteration 45 RMS(Cart)=  0.05776799 RMS(Int)= 53.19422433
 Iteration 46 RMS(Cart)=  0.05776805 RMS(Int)= 53.11257221
 Iteration 47 RMS(Cart)=  0.05776812 RMS(Int)= 53.03092008
 Iteration 48 RMS(Cart)=  0.05776818 RMS(Int)= 52.94926795
 Iteration 49 RMS(Cart)=  0.05776825 RMS(Int)= 52.86761581
 Iteration 50 RMS(Cart)=  0.05776832 RMS(Int)= 52.78596367
 Iteration 51 RMS(Cart)=  0.05776838 RMS(Int)= 52.70431152
 Iteration 52 RMS(Cart)=  0.05776845 RMS(Int)= 52.62265936
 Iteration 53 RMS(Cart)=  0.05776852 RMS(Int)= 52.54100719
 Iteration 54 RMS(Cart)=  0.05776859 RMS(Int)= 52.45935502
 Iteration 55 RMS(Cart)=  0.05776866 RMS(Int)= 52.37770284
 Iteration 56 RMS(Cart)=  0.05776873 RMS(Int)= 52.29605065
 Iteration 57 RMS(Cart)=  0.05776880 RMS(Int)= 52.21439846
 Iteration 58 RMS(Cart)=  0.05776887 RMS(Int)= 52.13274626
 Iteration 59 RMS(Cart)=  0.05776894 RMS(Int)= 52.05109405
 Iteration 60 RMS(Cart)=  0.05776901 RMS(Int)= 51.96944184
 Iteration 61 RMS(Cart)=  0.05776908 RMS(Int)= 51.88778961
 Iteration 62 RMS(Cart)=  0.05776915 RMS(Int)= 51.80613739
 Iteration 63 RMS(Cart)=  0.05776922 RMS(Int)= 51.72448515
 Iteration 64 RMS(Cart)=  0.05776929 RMS(Int)= 51.64283291
 Iteration 65 RMS(Cart)=  0.05776937 RMS(Int)= 51.56118066
 Iteration 66 RMS(Cart)=  0.05776944 RMS(Int)= 51.47952840
 Iteration 67 RMS(Cart)=  0.05776951 RMS(Int)= 51.39787614
 Iteration 68 RMS(Cart)=  0.05776959 RMS(Int)= 51.31622387
 Iteration 69 RMS(Cart)=  0.05776966 RMS(Int)= 51.23457159
 Iteration 70 RMS(Cart)=  0.05776973 RMS(Int)= 51.15291930
 Iteration 71 RMS(Cart)=  0.05776981 RMS(Int)= 51.07126701
 Iteration 72 RMS(Cart)=  0.05776989 RMS(Int)= 50.98961471
 Iteration 73 RMS(Cart)=  0.05776996 RMS(Int)= 50.90796240
 Iteration 74 RMS(Cart)=  0.05777004 RMS(Int)= 50.82631009
 Iteration 75 RMS(Cart)=  0.05777011 RMS(Int)= 50.74465776
 Iteration 76 RMS(Cart)=  0.05777019 RMS(Int)= 50.66300543
 Iteration 77 RMS(Cart)=  0.05777027 RMS(Int)= 50.58135309
 Iteration 78 RMS(Cart)=  0.05777035 RMS(Int)= 50.49970075
 Iteration 79 RMS(Cart)=  0.05777042 RMS(Int)= 50.41804840
 Iteration 80 RMS(Cart)=  0.05777050 RMS(Int)= 50.33639604
 Iteration 81 RMS(Cart)=  0.05777058 RMS(Int)= 50.25474367
 Iteration 82 RMS(Cart)=  0.05777066 RMS(Int)= 50.17309129
 Iteration 83 RMS(Cart)=  0.05777074 RMS(Int)= 50.09143891
 Iteration 84 RMS(Cart)=  0.05777082 RMS(Int)= 50.00978652
 Iteration 85 RMS(Cart)=  0.05777090 RMS(Int)= 49.92813412
 Iteration 86 RMS(Cart)=  0.05777098 RMS(Int)= 49.84648171
 Iteration 87 RMS(Cart)=  0.05777107 RMS(Int)= 49.76482930
 Iteration 88 RMS(Cart)=  0.05777115 RMS(Int)= 49.68317687
 Iteration 89 RMS(Cart)=  0.05777123 RMS(Int)= 49.60152444
 Iteration 90 RMS(Cart)=  0.05777131 RMS(Int)= 49.51987201
 Iteration 91 RMS(Cart)=  0.05777140 RMS(Int)= 49.43821956
 Iteration 92 RMS(Cart)=  0.05777148 RMS(Int)= 49.35656711
 Iteration 93 RMS(Cart)=  0.05777157 RMS(Int)= 49.27491464
 Iteration 94 RMS(Cart)=  0.05777165 RMS(Int)= 49.19326217
 Iteration 95 RMS(Cart)=  0.05777174 RMS(Int)= 49.11160970
 Iteration 96 RMS(Cart)=  0.05777182 RMS(Int)= 49.02995721
 Iteration 97 RMS(Cart)=  0.05777191 RMS(Int)= 48.94830471
 Iteration 98 RMS(Cart)=  0.05777199 RMS(Int)= 48.86665221
 Iteration 99 RMS(Cart)=  0.05777208 RMS(Int)= 48.78499970
 Iteration100 RMS(Cart)=  0.05777217 RMS(Int)= 48.70334718
 New curvilinear step not converged.
 ITry= 4 IFail=1 DXMaxC= 1.23D+02 DCOld= 1.00D+10 DXMaxT= 3.00D-01 DXLimC= 3.00D+00 Rises=F
 Iteration  1 RMS(Cart)= 34.92398916 RMS(Int)= 47.84485273
 Iteration  2 RMS(Cart)=  0.14341638 RMS(Int)= 47.76393242
 Iteration  3 RMS(Cart)=  0.14782128 RMS(Int)= 47.68217719
 Iteration  4 RMS(Cart)=  0.14808781 RMS(Int)= 47.60041124
 Iteration  5 RMS(Cart)=  0.14804117 RMS(Int)= 47.51869296
 Iteration  6 RMS(Cart)=  0.14798156 RMS(Int)= 47.43702809
 Iteration  7 RMS(Cart)=  0.14792965 RMS(Int)= 47.35542014
 Iteration  8 RMS(Cart)=  0.06204823 RMS(Int)= 47.27374692
 Iteration  9 RMS(Cart)=  0.05778019 RMS(Int)= 47.19209406
 Iteration 10 RMS(Cart)=  0.05777830 RMS(Int)= 47.11044132
 Iteration 11 RMS(Cart)=  0.05777836 RMS(Int)= 47.02878858
 Iteration 12 RMS(Cart)=  0.05777845 RMS(Int)= 46.94713583
 Iteration 13 RMS(Cart)=  0.05777854 RMS(Int)= 46.86548306
 Iteration 14 RMS(Cart)=  0.05777863 RMS(Int)= 46.78383029
 Iteration 15 RMS(Cart)=  0.05777872 RMS(Int)= 46.70217751
 Iteration 16 RMS(Cart)=  0.05777882 RMS(Int)= 46.62052472
 Iteration 17 RMS(Cart)=  0.05777891 RMS(Int)= 46.53887192
 Iteration 18 RMS(Cart)=  0.05777900 RMS(Int)= 46.45721911
 Iteration 19 RMS(Cart)=  0.05777910 RMS(Int)= 46.37556629
 Iteration 20 RMS(Cart)=  0.05777919 RMS(Int)= 46.29391346
 Iteration 21 RMS(Cart)=  0.05777929 RMS(Int)= 46.21226062
 Iteration 22 RMS(Cart)=  0.05777939 RMS(Int)= 46.13060777
 Iteration 23 RMS(Cart)=  0.05777948 RMS(Int)= 46.04895492
 Iteration 24 RMS(Cart)=  0.05777958 RMS(Int)= 45.96730205
 Iteration 25 RMS(Cart)=  0.05777968 RMS(Int)= 45.88564917
 Iteration 26 RMS(Cart)=  0.05777978 RMS(Int)= 45.80399629
 Iteration 27 RMS(Cart)=  0.05777988 RMS(Int)= 45.72234339
 Iteration 28 RMS(Cart)=  0.05777998 RMS(Int)= 45.64069048
 Iteration 29 RMS(Cart)=  0.05778008 RMS(Int)= 45.55903757
 Iteration 30 RMS(Cart)=  0.05778018 RMS(Int)= 45.47738464
 Iteration 31 RMS(Cart)=  0.05778028 RMS(Int)= 45.39573170
 Iteration 32 RMS(Cart)=  0.05778039 RMS(Int)= 45.31407876
 Iteration 33 RMS(Cart)=  0.05778049 RMS(Int)= 45.23242580
 Iteration 34 RMS(Cart)=  0.05778059 RMS(Int)= 45.15077283
 Iteration 35 RMS(Cart)=  0.05778070 RMS(Int)= 45.06911986
 Iteration 36 RMS(Cart)=  0.05778080 RMS(Int)= 44.98746687
 Iteration 37 RMS(Cart)=  0.05778091 RMS(Int)= 44.90581387
 Iteration 38 RMS(Cart)=  0.05778102 RMS(Int)= 44.82416086
 Iteration 39 RMS(Cart)=  0.05778112 RMS(Int)= 44.74250785
 Iteration 40 RMS(Cart)=  0.05778123 RMS(Int)= 44.66085482
 Iteration 41 RMS(Cart)=  0.05778134 RMS(Int)= 44.57920178
 Iteration 42 RMS(Cart)=  0.05778145 RMS(Int)= 44.49754873
 Iteration 43 RMS(Cart)=  0.05778156 RMS(Int)= 44.41589567
 Iteration 44 RMS(Cart)=  0.05778167 RMS(Int)= 44.33424260
 Iteration 45 RMS(Cart)=  0.05778178 RMS(Int)= 44.25258952
 Iteration 46 RMS(Cart)=  0.05778189 RMS(Int)= 44.17093642
 Iteration 47 RMS(Cart)=  0.05778201 RMS(Int)= 44.08928332
 Iteration 48 RMS(Cart)=  0.05778212 RMS(Int)= 44.00763021
 Iteration 49 RMS(Cart)=  0.05778223 RMS(Int)= 43.92597708
 Iteration 50 RMS(Cart)=  0.05778235 RMS(Int)= 43.84432395
 Iteration 51 RMS(Cart)=  0.05778246 RMS(Int)= 43.76267080
 Iteration 52 RMS(Cart)=  0.05778258 RMS(Int)= 43.68101764
 Iteration 53 RMS(Cart)=  0.05778270 RMS(Int)= 43.59936447
 Iteration 54 RMS(Cart)=  0.05778282 RMS(Int)= 43.51771129
 Iteration 55 RMS(Cart)=  0.05778293 RMS(Int)= 43.43605810
 Iteration 56 RMS(Cart)=  0.05778305 RMS(Int)= 43.35440490
 Iteration 57 RMS(Cart)=  0.05778317 RMS(Int)= 43.27275169
 Iteration 58 RMS(Cart)=  0.05778330 RMS(Int)= 43.19109846
 Iteration 59 RMS(Cart)=  0.05778342 RMS(Int)= 43.10944522
 Iteration 60 RMS(Cart)=  0.05778354 RMS(Int)= 43.02779198
 Iteration 61 RMS(Cart)=  0.05778366 RMS(Int)= 42.94613872
 Iteration 62 RMS(Cart)=  0.05778379 RMS(Int)= 42.86448545
 Iteration 63 RMS(Cart)=  0.05778391 RMS(Int)= 42.78283216
 Iteration 64 RMS(Cart)=  0.05778404 RMS(Int)= 42.70117887
 Iteration 65 RMS(Cart)=  0.05778416 RMS(Int)= 42.61952556
 Iteration 66 RMS(Cart)=  0.05778429 RMS(Int)= 42.53787224
 Iteration 67 RMS(Cart)=  0.05778442 RMS(Int)= 42.45621891
 Iteration 68 RMS(Cart)=  0.05778455 RMS(Int)= 42.37456557
 Iteration 69 RMS(Cart)=  0.05778468 RMS(Int)= 42.29291222
 Iteration 70 RMS(Cart)=  0.05778481 RMS(Int)= 42.21125885
 Iteration 71 RMS(Cart)=  0.05778494 RMS(Int)= 42.12960548
 Iteration 72 RMS(Cart)=  0.05778507 RMS(Int)= 42.04795209
 Iteration 73 RMS(Cart)=  0.05778521 RMS(Int)= 41.96629868
 Iteration 74 RMS(Cart)=  0.05778534 RMS(Int)= 41.88464527
 Iteration 75 RMS(Cart)=  0.05778547 RMS(Int)= 41.80299184
 Iteration 76 RMS(Cart)=  0.05778561 RMS(Int)= 41.72133840
 Iteration 77 RMS(Cart)=  0.05778575 RMS(Int)= 41.63968495
 Iteration 78 RMS(Cart)=  0.05778588 RMS(Int)= 41.55803149
 Iteration 79 RMS(Cart)=  0.05778602 RMS(Int)= 41.47637801
 Iteration 80 RMS(Cart)=  0.05778616 RMS(Int)= 41.39472452
 Iteration 81 RMS(Cart)=  0.05778630 RMS(Int)= 41.31307102
 Iteration 82 RMS(Cart)=  0.05778644 RMS(Int)= 41.23141751
 Iteration 83 RMS(Cart)=  0.05778659 RMS(Int)= 41.14976398
 Iteration 84 RMS(Cart)=  0.05778673 RMS(Int)= 41.06811044
 Iteration 85 RMS(Cart)=  0.05778687 RMS(Int)= 40.98645688
 Iteration 86 RMS(Cart)=  0.05778702 RMS(Int)= 40.90480332
 Iteration 87 RMS(Cart)=  0.05778716 RMS(Int)= 40.82314974
 Iteration 88 RMS(Cart)=  0.05778731 RMS(Int)= 40.74149615
 Iteration 89 RMS(Cart)=  0.05778746 RMS(Int)= 40.65984254
 Iteration 90 RMS(Cart)=  0.05778761 RMS(Int)= 40.57818892
 Iteration 91 RMS(Cart)=  0.05778776 RMS(Int)= 40.49653529
 Iteration 92 RMS(Cart)=  0.05778791 RMS(Int)= 40.41488164
 Iteration 93 RMS(Cart)=  0.05778806 RMS(Int)= 40.33322798
 Iteration 94 RMS(Cart)=  0.05778821 RMS(Int)= 40.25157431
 Iteration 95 RMS(Cart)=  0.05778837 RMS(Int)= 40.16992063
 Iteration 96 RMS(Cart)=  0.05778852 RMS(Int)= 40.08826693
 Iteration 97 RMS(Cart)=  0.05778868 RMS(Int)= 40.00661321
 Iteration 98 RMS(Cart)=  0.05778883 RMS(Int)= 39.92495948
 Iteration 99 RMS(Cart)=  0.05778899 RMS(Int)= 39.84330574
 Iteration100 RMS(Cart)=  0.05778915 RMS(Int)= 39.76165199
 New curvilinear step not converged.
 ITry= 5 IFail=1 DXMaxC= 1.01D+02 DCOld= 1.00D+10 DXMaxT= 3.00D-01 DXLimC= 3.00D+00 Rises=F
 Iteration  1 RMS(Cart)= 29.10332430 RMS(Int)= 39.62204857
 Iteration  2 RMS(Cart)=  0.14336630 RMS(Int)= 39.54107100
 Iteration  3 RMS(Cart)=  0.14782298 RMS(Int)= 39.45924624
 Iteration  4 RMS(Cart)=  0.14808711 RMS(Int)= 39.37741896
 Iteration  5 RMS(Cart)=  0.14803151 RMS(Int)= 39.29564979
 Iteration  6 RMS(Cart)=  0.14796302 RMS(Int)= 39.21394519
 Iteration  7 RMS(Cart)=  0.14790306 RMS(Int)= 39.13230940
 Iteration  8 RMS(Cart)=  0.06041600 RMS(Int)= 39.05062692
 Iteration  9 RMS(Cart)=  0.05779805 RMS(Int)= 38.96897299
 Iteration 10 RMS(Cart)=  0.05779708 RMS(Int)= 38.88731896
 Iteration 11 RMS(Cart)=  0.05779764 RMS(Int)= 38.80566494
 Iteration 12 RMS(Cart)=  0.05779779 RMS(Int)= 38.72401090
 Iteration 13 RMS(Cart)=  0.05779795 RMS(Int)= 38.64235685
 Iteration 14 RMS(Cart)=  0.05779812 RMS(Int)= 38.56070278
 Iteration 15 RMS(Cart)=  0.05779828 RMS(Int)= 38.47904870
 Iteration 16 RMS(Cart)=  0.05779844 RMS(Int)= 38.39739460
 Iteration 17 RMS(Cart)=  0.05779861 RMS(Int)= 38.31574049
 Iteration 18 RMS(Cart)=  0.05779877 RMS(Int)= 38.23408636
 Iteration 19 RMS(Cart)=  0.05779894 RMS(Int)= 38.15243221
 Iteration 20 RMS(Cart)=  0.05779911 RMS(Int)= 38.07077805
 Iteration 21 RMS(Cart)=  0.05779928 RMS(Int)= 37.98912387
 Iteration 22 RMS(Cart)=  0.05779945 RMS(Int)= 37.90746968
 Iteration 23 RMS(Cart)=  0.05779962 RMS(Int)= 37.82581547
 Iteration 24 RMS(Cart)=  0.05779979 RMS(Int)= 37.74416125
 Iteration 25 RMS(Cart)=  0.05779997 RMS(Int)= 37.66250700
 Iteration 26 RMS(Cart)=  0.05780015 RMS(Int)= 37.58085275
 Iteration 27 RMS(Cart)=  0.05780032 RMS(Int)= 37.49919847
 Iteration 28 RMS(Cart)=  0.05780050 RMS(Int)= 37.41754418
 Iteration 29 RMS(Cart)=  0.05780068 RMS(Int)= 37.33588988
 Iteration 30 RMS(Cart)=  0.05780086 RMS(Int)= 37.25423555
 Iteration 31 RMS(Cart)=  0.05780105 RMS(Int)= 37.17258121
 Iteration 32 RMS(Cart)=  0.05780123 RMS(Int)= 37.09092685
 Iteration 33 RMS(Cart)=  0.05780142 RMS(Int)= 37.00927248
 Iteration 34 RMS(Cart)=  0.05780160 RMS(Int)= 36.92761809
 Iteration 35 RMS(Cart)=  0.05780179 RMS(Int)= 36.84596368
 Iteration 36 RMS(Cart)=  0.05780198 RMS(Int)= 36.76430926
 Iteration 37 RMS(Cart)=  0.05780217 RMS(Int)= 36.68265481
 Iteration 38 RMS(Cart)=  0.05780237 RMS(Int)= 36.60100035
 Iteration 39 RMS(Cart)=  0.05780256 RMS(Int)= 36.51934588
 Iteration 40 RMS(Cart)=  0.05780275 RMS(Int)= 36.43769138
 Iteration 41 RMS(Cart)=  0.05780295 RMS(Int)= 36.35603687
 Iteration 42 RMS(Cart)=  0.05780315 RMS(Int)= 36.27438234
 Iteration 43 RMS(Cart)=  0.05780335 RMS(Int)= 36.19272779
 Iteration 44 RMS(Cart)=  0.05780355 RMS(Int)= 36.11107322
 Iteration 45 RMS(Cart)=  0.05780376 RMS(Int)= 36.02941864
 Iteration 46 RMS(Cart)=  0.05780396 RMS(Int)= 35.94776404
 Iteration 47 RMS(Cart)=  0.05780417 RMS(Int)= 35.86610942
 Iteration 48 RMS(Cart)=  0.05780437 RMS(Int)= 35.78445478
 Iteration 49 RMS(Cart)=  0.05780458 RMS(Int)= 35.70280012
 Iteration 50 RMS(Cart)=  0.05780480 RMS(Int)= 35.62114545
 Iteration 51 RMS(Cart)=  0.05780501 RMS(Int)= 35.53949075
 Iteration 52 RMS(Cart)=  0.05780522 RMS(Int)= 35.45783604
 Iteration 53 RMS(Cart)=  0.05780544 RMS(Int)= 35.37618131
 Iteration 54 RMS(Cart)=  0.05780566 RMS(Int)= 35.29452656
 Iteration 55 RMS(Cart)=  0.05780588 RMS(Int)= 35.21287179
 Iteration 56 RMS(Cart)=  0.05780610 RMS(Int)= 35.13121700
 Iteration 57 RMS(Cart)=  0.05780632 RMS(Int)= 35.04956219
 Iteration 58 RMS(Cart)=  0.05780654 RMS(Int)= 34.96790736
 Iteration 59 RMS(Cart)=  0.05780677 RMS(Int)= 34.88625252
 Iteration 60 RMS(Cart)=  0.05780700 RMS(Int)= 34.80459765
 Iteration 61 RMS(Cart)=  0.05780723 RMS(Int)= 34.72294276
 Iteration 62 RMS(Cart)=  0.05780746 RMS(Int)= 34.64128786
 Iteration 63 RMS(Cart)=  0.05780769 RMS(Int)= 34.55963293
 Iteration 64 RMS(Cart)=  0.05780793 RMS(Int)= 34.47797799
 Iteration 65 RMS(Cart)=  0.05780816 RMS(Int)= 34.39632302
 Iteration 66 RMS(Cart)=  0.05780840 RMS(Int)= 34.31466804
 Iteration 67 RMS(Cart)=  0.05780864 RMS(Int)= 34.23301303
 Iteration 68 RMS(Cart)=  0.05780889 RMS(Int)= 34.15135800
 Iteration 69 RMS(Cart)=  0.05780913 RMS(Int)= 34.06970296
 Iteration 70 RMS(Cart)=  0.05780938 RMS(Int)= 33.98804789
 Iteration 71 RMS(Cart)=  0.05780963 RMS(Int)= 33.90639280
 Iteration 72 RMS(Cart)=  0.05780988 RMS(Int)= 33.82473769
 Iteration 73 RMS(Cart)=  0.05781013 RMS(Int)= 33.74308256
 Iteration 74 RMS(Cart)=  0.05781038 RMS(Int)= 33.66142741
 Iteration 75 RMS(Cart)=  0.05781064 RMS(Int)= 33.57977224
 Iteration 76 RMS(Cart)=  0.05781090 RMS(Int)= 33.49811704
 Iteration 77 RMS(Cart)=  0.05781116 RMS(Int)= 33.41646183
 Iteration 78 RMS(Cart)=  0.05781142 RMS(Int)= 33.33480659
 Iteration 79 RMS(Cart)=  0.05781168 RMS(Int)= 33.25315133
 Iteration 80 RMS(Cart)=  0.05781195 RMS(Int)= 33.17149605
 Iteration 81 RMS(Cart)=  0.05781222 RMS(Int)= 33.08984075
 Iteration 82 RMS(Cart)=  0.05781249 RMS(Int)= 33.00818542
 Iteration 83 RMS(Cart)=  0.05781276 RMS(Int)= 32.92653008
 Iteration 84 RMS(Cart)=  0.05781304 RMS(Int)= 32.84487471
 Iteration 85 RMS(Cart)=  0.05781332 RMS(Int)= 32.76321932
 Iteration 86 RMS(Cart)=  0.05781360 RMS(Int)= 32.68156390
 Iteration 87 RMS(Cart)=  0.05781388 RMS(Int)= 32.59990847
 Iteration 88 RMS(Cart)=  0.05781416 RMS(Int)= 32.51825301
 Iteration 89 RMS(Cart)=  0.05781445 RMS(Int)= 32.43659752
 Iteration 90 RMS(Cart)=  0.05781474 RMS(Int)= 32.35494202
 Iteration 91 RMS(Cart)=  0.05781503 RMS(Int)= 32.27328649
 Iteration 92 RMS(Cart)=  0.05781532 RMS(Int)= 32.19163094
 Iteration 93 RMS(Cart)=  0.05781562 RMS(Int)= 32.10997536
 Iteration 94 RMS(Cart)=  0.05781592 RMS(Int)= 32.02831976
 Iteration 95 RMS(Cart)=  0.05781622 RMS(Int)= 31.94666414
 Iteration 96 RMS(Cart)=  0.05781652 RMS(Int)= 31.86500849
 Iteration 97 RMS(Cart)=  0.05781683 RMS(Int)= 31.78335282
 Iteration 98 RMS(Cart)=  0.05781714 RMS(Int)= 31.70169712
 Iteration 99 RMS(Cart)=  0.05781745 RMS(Int)= 31.62004140
 Iteration100 RMS(Cart)=  0.05781776 RMS(Int)= 31.53838566
 New curvilinear step not converged.
 ITry= 6 IFail=1 DXMaxC= 8.10D+01 DCOld= 1.00D+10 DXMaxT= 3.00D-01 DXLimC= 3.00D+00 Rises=F
 Iteration  1 RMS(Cart)= 23.20391483 RMS(Int)= 31.29213027
 Iteration  2 RMS(Cart)=  0.14329584 RMS(Int)= 31.21106251
 Iteration  3 RMS(Cart)=  0.14782627 RMS(Int)= 31.12913104
 Iteration  4 RMS(Cart)=  0.14808819 RMS(Int)= 31.04721000
 Iteration  5 RMS(Cart)=  0.14801852 RMS(Int)= 30.96536325
 Iteration  6 RMS(Cart)=  0.14793342 RMS(Int)= 30.88359834
 Iteration  7 RMS(Cart)=  0.14785561 RMS(Int)= 30.80192070
 Iteration  8 RMS(Cart)=  0.05948513 RMS(Int)= 30.72022068
 Iteration  9 RMS(Cart)=  0.05783283 RMS(Int)= 30.63856443
 Iteration 10 RMS(Cart)=  0.05783311 RMS(Int)= 30.55690812
 Iteration 11 RMS(Cart)=  0.05783344 RMS(Int)= 30.47525178
 Iteration 12 RMS(Cart)=  0.05783376 RMS(Int)= 30.39359541
 Iteration 13 RMS(Cart)=  0.05783408 RMS(Int)= 30.31193901
 Iteration 14 RMS(Cart)=  0.05783440 RMS(Int)= 30.23028259
 Iteration 15 RMS(Cart)=  0.05783473 RMS(Int)= 30.14862614
 Iteration 16 RMS(Cart)=  0.05783507 RMS(Int)= 30.06696966
 Iteration 17 RMS(Cart)=  0.05783540 RMS(Int)= 29.98531315
 Iteration 18 RMS(Cart)=  0.05783574 RMS(Int)= 29.90365661
 Iteration 19 RMS(Cart)=  0.05783608 RMS(Int)= 29.82200005
 Iteration 20 RMS(Cart)=  0.05783642 RMS(Int)= 29.74034345
 Iteration 21 RMS(Cart)=  0.05783677 RMS(Int)= 29.65868683
 Iteration 22 RMS(Cart)=  0.05783712 RMS(Int)= 29.57703018
 Iteration 23 RMS(Cart)=  0.05783748 RMS(Int)= 29.49537349
 Iteration 24 RMS(Cart)=  0.05783784 RMS(Int)= 29.41371678
 Iteration 25 RMS(Cart)=  0.05783820 RMS(Int)= 29.33206004
 Iteration 26 RMS(Cart)=  0.05783856 RMS(Int)= 29.25040327
 Iteration 27 RMS(Cart)=  0.05783893 RMS(Int)= 29.16874646
 Iteration 28 RMS(Cart)=  0.05783930 RMS(Int)= 29.08708963
 Iteration 29 RMS(Cart)=  0.05783967 RMS(Int)= 29.00543277
 Iteration 30 RMS(Cart)=  0.05784005 RMS(Int)= 28.92377587
 Iteration 31 RMS(Cart)=  0.05784044 RMS(Int)= 28.84211895
 Iteration 32 RMS(Cart)=  0.05784082 RMS(Int)= 28.76046199
 Iteration 33 RMS(Cart)=  0.05784121 RMS(Int)= 28.67880501
 Iteration 34 RMS(Cart)=  0.05784160 RMS(Int)= 28.59714799
 Iteration 35 RMS(Cart)=  0.05784200 RMS(Int)= 28.51549094
 Iteration 36 RMS(Cart)=  0.05784240 RMS(Int)= 28.43383385
 Iteration 37 RMS(Cart)=  0.05784280 RMS(Int)= 28.35217674
 Iteration 38 RMS(Cart)=  0.05784321 RMS(Int)= 28.27051959
 Iteration 39 RMS(Cart)=  0.05784362 RMS(Int)= 28.18886241
 Iteration 40 RMS(Cart)=  0.05784404 RMS(Int)= 28.10720520
 Iteration 41 RMS(Cart)=  0.05784446 RMS(Int)= 28.02554796
 Iteration 42 RMS(Cart)=  0.05784489 RMS(Int)= 27.94389068
 Iteration 43 RMS(Cart)=  0.05784531 RMS(Int)= 27.86223337
 Iteration 44 RMS(Cart)=  0.05784575 RMS(Int)= 27.78057603
 Iteration 45 RMS(Cart)=  0.05784618 RMS(Int)= 27.69891865
 Iteration 46 RMS(Cart)=  0.05784662 RMS(Int)= 27.61726124
 Iteration 47 RMS(Cart)=  0.05784707 RMS(Int)= 27.53560379
 Iteration 48 RMS(Cart)=  0.05784752 RMS(Int)= 27.45394631
 Iteration 49 RMS(Cart)=  0.05784797 RMS(Int)= 27.37228879
 Iteration 50 RMS(Cart)=  0.05784843 RMS(Int)= 27.29063124
 Iteration 51 RMS(Cart)=  0.05784889 RMS(Int)= 27.20897366
 Iteration 52 RMS(Cart)=  0.05784936 RMS(Int)= 27.12731604
 Iteration 53 RMS(Cart)=  0.05784983 RMS(Int)= 27.04565839
 Iteration 54 RMS(Cart)=  0.05785031 RMS(Int)= 26.96400069
 Iteration 55 RMS(Cart)=  0.05785079 RMS(Int)= 26.88234297
 Iteration 56 RMS(Cart)=  0.05785127 RMS(Int)= 26.80068521
 Iteration 57 RMS(Cart)=  0.05785177 RMS(Int)= 26.71902741
 Iteration 58 RMS(Cart)=  0.05785226 RMS(Int)= 26.63736957
 Iteration 59 RMS(Cart)=  0.05785276 RMS(Int)= 26.55571170
 Iteration 60 RMS(Cart)=  0.05785327 RMS(Int)= 26.47405379
 Iteration 61 RMS(Cart)=  0.05785378 RMS(Int)= 26.39239585
 Iteration 62 RMS(Cart)=  0.05785429 RMS(Int)= 26.31073786
 Iteration 63 RMS(Cart)=  0.05785481 RMS(Int)= 26.22907984
 Iteration 64 RMS(Cart)=  0.05785534 RMS(Int)= 26.14742178
 Iteration 65 RMS(Cart)=  0.05785587 RMS(Int)= 26.06576369
 Iteration 66 RMS(Cart)=  0.05785641 RMS(Int)= 25.98410555
 Iteration 67 RMS(Cart)=  0.05785695 RMS(Int)= 25.90244738
 Iteration 68 RMS(Cart)=  0.05785750 RMS(Int)= 25.82078916
 Iteration 69 RMS(Cart)=  0.05785805 RMS(Int)= 25.73913091
 Iteration 70 RMS(Cart)=  0.05785861 RMS(Int)= 25.65747262
 Iteration 71 RMS(Cart)=  0.05785917 RMS(Int)= 25.57581429
 Iteration 72 RMS(Cart)=  0.05785974 RMS(Int)= 25.49415592
 Iteration 73 RMS(Cart)=  0.05786032 RMS(Int)= 25.41249751
 Iteration 74 RMS(Cart)=  0.05786090 RMS(Int)= 25.33083906
 Iteration 75 RMS(Cart)=  0.05786148 RMS(Int)= 25.24918057
 Iteration 76 RMS(Cart)=  0.05786208 RMS(Int)= 25.16752204
 Iteration 77 RMS(Cart)=  0.05786268 RMS(Int)= 25.08586346
 Iteration 78 RMS(Cart)=  0.05786328 RMS(Int)= 25.00420485
 Iteration 79 RMS(Cart)=  0.05786389 RMS(Int)= 24.92254619
 Iteration 80 RMS(Cart)=  0.05786451 RMS(Int)= 24.84088749
 Iteration 81 RMS(Cart)=  0.05786514 RMS(Int)= 24.75922875
 Iteration 82 RMS(Cart)=  0.05786577 RMS(Int)= 24.67756997
 Iteration 83 RMS(Cart)=  0.05786641 RMS(Int)= 24.59591115
 Iteration 84 RMS(Cart)=  0.05786705 RMS(Int)= 24.51425228
 Iteration 85 RMS(Cart)=  0.05786770 RMS(Int)= 24.43259337
 Iteration 86 RMS(Cart)=  0.05786836 RMS(Int)= 24.35093441
 Iteration 87 RMS(Cart)=  0.05786902 RMS(Int)= 24.26927542
 Iteration 88 RMS(Cart)=  0.05786969 RMS(Int)= 24.18761638
 Iteration 89 RMS(Cart)=  0.05787037 RMS(Int)= 24.10595729
 Iteration 90 RMS(Cart)=  0.05787106 RMS(Int)= 24.02429816
 Iteration 91 RMS(Cart)=  0.05787175 RMS(Int)= 23.94263898
 Iteration 92 RMS(Cart)=  0.05787245 RMS(Int)= 23.86097976
 Iteration 93 RMS(Cart)=  0.05787316 RMS(Int)= 23.77932050
 Iteration 94 RMS(Cart)=  0.05787388 RMS(Int)= 23.69766119
 Iteration 95 RMS(Cart)=  0.05787460 RMS(Int)= 23.61600183
 Iteration 96 RMS(Cart)=  0.05787533 RMS(Int)= 23.53434243
 Iteration 97 RMS(Cart)=  0.05787607 RMS(Int)= 23.45268298
 Iteration 98 RMS(Cart)=  0.05787682 RMS(Int)= 23.37102348
 Iteration 99 RMS(Cart)=  0.05787757 RMS(Int)= 23.28936394
 Iteration100 RMS(Cart)=  0.05787833 RMS(Int)= 23.20770434
 New curvilinear step not converged.
 ITry= 7 IFail=1 DXMaxC= 6.06D+01 DCOld= 1.00D+10 DXMaxT= 3.00D-01 DXLimC= 3.00D+00 Rises=F
 Iteration  1 RMS(Cart)= 17.40483757 RMS(Int)= 23.11194281
 Iteration  2 RMS(Cart)=  0.14314784 RMS(Int)= 23.03072288
[...]
 Coeff:     -0.521D-01 0.309D-01 0.102D+01
 Gap=     0.207 Goal=   None    Shift=    0.000
 Gap=     0.207 Goal=   None    Shift=    0.000
 RMSDP=5.07D-09 MaxDP=8.69D-08 DE=-4.97D-13 OVMax= 5.04D-07

 SCF Done:  E(UM062X) =  -80.4261572045     A.U. after    9 cycles
            NFock=  9  Conv=0.51D-08     -V/T= 2.0038
 <Sx>= 0.0000 <Sy>= 0.0000 <Sz>= 0.0000 <S**2>= 0.0000 S= 0.0000
 <L.S>=  0.00000000000    
 KE= 8.012191060172D+01 PE=-2.136590130299D+02 EE= 4.006142326157D+01
 Annihilation of the first spin contaminant:
 S**2 before annihilation     0.0000,   after     0.0000
 Leave Link  502 at Mon Apr 21 22:35:30 2025, MaxMem=   536870912 cpu:              27.8 elap:               4.2
 (Enter /home/szhao/Apps/g16/l701.exe)
 ... and contract with generalized density number  0.
 Compute integral first derivatives.
 Leave Link  701 at Mon Apr 21 22:35:31 2025, MaxMem=   536870912 cpu:               1.1 elap:               0.2
 (Enter /home/szhao/Apps/g16/l702.exe)
 L702 exits ... SP integral derivatives will be done elsewhere.
 Leave Link  702 at Mon Apr 21 22:35:31 2025, MaxMem=   536870912 cpu:               0.6 elap:               0.1
 (Enter /home/szhao/Apps/g16/l703.exe)
 Integral derivatives from FoFJK, PRISM(SPDF).
 Compute integral first derivatives, UseDBF=F ICtDFT=           0.
 Calling FoFJK, ICntrl=      2127 FMM=F ISym2X=0 I1Cent= 0 IOpClX= 1 NMat=1 NMatS=1 NMatT=0.
 FoFJK:  IHMeth= 1 ICntrl=    2127 DoSepK=F KAlg= 0 I1Cent=           0 FoldK=F
 IRaf=         0 NMat=       1 IRICut=       1 DoRegI=T DoRafI=F ISym2E= 0 IDoP0=0 IntGTp=1.
 FoFCou: FMM=F IPFlag=           0 FMFlag=      100000 FMFlg1=         800
         NFxFlg=           0 DoJE=F BraDBF=F KetDBF=F FulRan=T
         wScrn=  0.000000 ICntrl=      2127 IOpCl=  1 I1Cent=           0 NGrid=           0
         NMat0=    1 NMatS0=      1 NMatT0=    0 NMatD0=    1 NMtDS0=    0 NMtDT0=    0
 Symmetry not used in FoFCou.
 Leave Link  703 at Mon Apr 21 22:35:32 2025, MaxMem=   536870912 cpu:               5.5 elap:               0.7
 (Enter /home/szhao/Apps/g16/l716.exe)
 Dipole        =-1.25699431D+00 1.06318495D-01-4.38886244D-01
 -------------------------------------------------------------------
 Center     Atomic                   Forces (Hartrees/Bohr)
 Number     Number              X              Y              Z
 -------------------------------------------------------------------
      1        5          -0.000000000   -0.000000000   -0.000000000
      2        7          -0.000000000   -0.000000000   -0.000000000
      3        1           0.000006387    0.000001825   -0.000001274
      4        1           0.000000056    0.000004733    0.000001275
 -------------------------------------------------------------------
 Cartesian Forces:  Max     0.000006387 RMS     0.000002411
 Leave Link  716 at Mon Apr 21 22:35:32 2025, MaxMem=   536870912 cpu:               0.7 elap:               0.1
 (Enter /home/szhao/Apps/g16/l103.exe)

 GradGradGradGradGradGradGradGradGradGradGradGradGradGradGradGradGradGrad
 Berny optimization.
 Using GEDIIS/GDIIS optimizer.
 FormGI is forming the generalized inverse of G from B-inverse, IUseBI=4.
 Internal  Forces:  Max     0.000006606 RMS     0.000002831
 Search for a local minimum.
 Step number  14 out of a maximum of   22
 All quantities printed in internal units (Hartrees-Bohrs-Radians)
 RMS Force = .27040D-05 SwitMx=.10000D-02 MixMth= 2
 Mixed Optimization -- En-DIIS/RFO-DIIS
 Swapping is turned off.
 Update second derivatives using D2CorX and points    2    3    4    5    6
                                                      7    8    9   10   11
                                                     12   13   14
 DE= -1.15D-07 DEPred=-1.12D-07 R= 1.02D+00
 Trust test= 1.02D+00 RLast= 4.58D-03 DXMaxT set to 3.95D-01
 The second derivative matrix:
                          X1        Y1        Z1        X2        Y2
           X1           0.53210
           Y1           0.00183   0.50269
           Z1          -0.01357  -0.00103   0.50981
           X2          -0.00310  -0.00386   0.00010   0.51056
           Y2           0.03027  -0.01457  -0.01798   0.01732   0.64971
           Z2          -0.04608  -0.04739   0.00602   0.09494   0.24428
           R1          -0.05516   0.01433   0.02732  -0.01720  -0.17645
           R2          -0.00621  -0.00096   0.00196   0.00780  -0.00843
           R3           0.06406   0.02406  -0.02095  -0.05924  -0.05588
           A1          -0.00064  -0.00166   0.00672  -0.00093  -0.00011
           A2          -0.02390  -0.00414   0.01020   0.01096  -0.01044
           D1           0.00016   0.00040   0.00046  -0.00038  -0.00399
                          Z2        R1        R2        R3        A1
           Z2           1.50474
           R1          -0.23346   0.23266
           R2           0.04988   0.00791   0.01696
           R3          -0.57136   0.02119  -0.04423   0.40271
           A1          -0.00166   0.00056  -0.00192   0.00155   0.01099
           A2           0.10465   0.01654   0.02739  -0.08538   0.00018
           D1          -0.00709  -0.00006  -0.00024   0.00177  -0.00017
                          A2        D1
           A2           0.06097
           D1          -0.00029   0.00227
 ITU=  0  0  1  0  1  1  1  1  1  1  1  1  1
     Eigenvalues ---    0.00225   0.00344   0.01141   0.23076   0.42206
     Eigenvalues --- 1000.000001000.000001000.000001000.000001000.00000
     Eigenvalues --- 1000.000001000.00000
 En-DIIS/RFO-DIIS/Sim-DIIS IScMMF=       -3 using points:    14   13   12   11   10    9
 RFO step:  Lambda=-1.60271236D-10.
 NNeg= 0 NGDIIS= 6 SimSw=  2.50D-01 Rises=F DC= -1.15D-07 SmlDif=  1.00D-05
 NRisDI= 0 DoIntr=F SqrtH=F CThrHd= 10.0 CDAdj=  3.0
 RMS Error=  0.3699658034D-04 NUsed= 6 OKEnD=F EnDIS=F
 InvSVX:  RCond= 8.59D-13 Info=           0 Equed=N FErr=  2.73D-07 BErr=  5.98D-17
 DIIS inversion failure, remove point   6.
 InvSVX:  RCond= 8.48D-11 Info=           0 Equed=N FErr=  2.36D-09 BErr=  9.42D-17
 DIIS inversion failure, remove point   5.
 InvSVX:  RCond= 1.44D-09 Info=           0 Equed=N FErr=  1.10D-12 BErr=  2.74D-17
 DIIS inversion failure, remove point   4.
 InvSVX:  RCond= 3.98D-07 Info=           0 Equed=N FErr=  1.59D-15 BErr=  1.84D-17
 RFO-DIIS uses    3 points instead of    6
 DidBck=F Rises=F RFO-DIIS coefs:    1.02516   -0.03173    0.00657    0.00000    0.00000
                  RFO-DIIS coefs:    0.00000
 Iteration  1 RMS(Cart)=  0.00002871 RMS(Int)=  0.00000002
 Iteration  2 RMS(Cart)=  0.00000002 RMS(Int)=  0.00000001
 ITry= 1 IFail=0 DXMaxC= 8.19D-05 DCOld= 1.00D+10 DXMaxT= 3.95D-01 DXLimC= 3.00D+00 Rises=F
 Variable       Old X    -DE/DX   Delta X   Delta X   Delta X     New X
                                 (Linear)    (Quad)   (Total)
    X1       -3.15224   0.00001  -0.00000   0.00000   0.00000  -3.15224
    Y1       -0.00655   0.00000   0.00000   0.00000   0.00000  -0.00655
    Z1       -0.00000  -0.00000   0.00000   0.00000   0.00000  -0.00000
    X2        3.14891   0.00000   0.00000   0.00000   0.00000   3.14891
    Y2        0.00295  -0.00000  -0.00000   0.00000   0.00000   0.00295
    Z2        0.00000   0.00000   0.00000   0.00000   0.00000   0.00000
    R1        2.30753  -0.00001  -0.00001  -0.00002  -0.00003   2.30750
    R2        6.12816  -0.00000   0.00002  -0.00000   0.00002   6.12818
    R3        1.95827  -0.00000   0.00001  -0.00001   0.00000   1.95827
    A1        3.09937   0.00000   0.00005  -0.00001   0.00004   3.09941
    A2        1.50055  -0.00000  -0.00001   0.00000  -0.00001   1.50054
    D1       -3.12147  -0.00000  -0.00000  -0.00011  -0.00012  -3.12158
         Item               Value     Threshold  Converged?
 Maximum Force            0.000007     0.000450     YES
 RMS     Force            0.000003     0.000300     YES
 Maximum Displacement     0.000082     0.001800     YES
 RMS     Displacement     0.000029     0.001200     YES
 Predicted change in Energy=-1.181004D-10
 Optimization completed.
    -- Stationary point found.
                           ----------------------------
                           !   Optimized Parameters   !
                           ! (Angstroms and Degrees)  !
 --------------------------                            --------------------------
 ! Name  Definition              Value          Derivative Info.                !
 --------------------------------------------------------------------------------
 ! X1    R(1,-1)                -1.6681         -DE/DX =    0.0                 !
 ! Y1    R(1,-2)                -0.0035         -DE/DX =    0.0                 !
 ! Z1    R(1,-3)                 0.0            -DE/DX =    0.0                 !
 ! X2    R(2,-1)                 1.6663         -DE/DX =    0.0                 !
 ! Y2    R(2,-2)                 0.0016         -DE/DX =    0.0                 !
 ! Z2    R(2,-3)                 0.0            -DE/DX =    0.0                 !
 ! R1    R(1,3)                  1.2211         -DE/DX =    0.0                 !
 ! R2    R(1,4)                  3.2429         -DE/DX =    0.0                 !
 ! R3    R(2,4)                  1.0363         -DE/DX =    0.0                 !
 ! A1    A(3,1,4)              177.5809         -DE/DX =    0.0                 !
 ! A2    A(1,4,2)               85.9752         -DE/DX =    0.0                 !
 ! D1    D(3,1,4,2)           -178.8468         -DE/DX =    0.0                 !
 --------------------------------------------------------------------------------
 Lowest energy point so far.  Saving SCF results.
 Largest change from initial coordinates is atom    4       1.208 Angstoms.
 GradGradGradGradGradGradGradGradGradGradGradGradGradGradGradGradGradGrad

 Leave Link  103 at Mon Apr 21 22:35:32 2025, MaxMem=   536870912 cpu:               0.9 elap:               0.2
 (Enter /home/szhao/Apps/g16/l202.exe)
                          Input orientation:                          
 ---------------------------------------------------------------------
 Center     Atomic      Atomic             Coordinates (Angstroms)
 Number     Number       Type             X           Y           Z
 ---------------------------------------------------------------------
      1          5           0       -1.668092   -0.003464   -0.000000
      2          7           0        1.666331    0.001560    0.000000
      3          1           0       -2.843842   -0.085428    0.319310
      4          1           0        1.414654    0.242986   -0.975822
 ---------------------------------------------------------------------
                    Distance matrix (angstroms):
                    1          2          3          4
     1  B    0.000000
     2  N    3.334427   0.000000
     3  H    1.221092   4.522299   0.000000
     4  H    3.242883   1.036271   4.463184   0.000000
 Symmetry turned off by external request.
 Stoichiometry    BH2N
 Framework group  C1[X(BH2N)]
 Deg. of freedom     6
 Full point group                 C1      NOp   1
 Rotational constants (GHZ):         484.2252434           6.3737057           6.2909007
 Leave Link  202 at Mon Apr 21 22:35:32 2025, MaxMem=   536870912 cpu:               0.2 elap:               0.1
 (Enter /home/szhao/Apps/g16/l601.exe)
 Copying SCF densities to generalized density rwf, IOpCl= 1 IROHF=0.

 **********************************************************************

            Population analysis using the SCF density.

 **********************************************************************

 Alpha  occ. eigenvalues --  -14.80346  -7.15989  -0.86788  -0.57545  -0.43659
 Alpha  occ. eigenvalues --   -0.31090  -0.30824
 Alpha virt. eigenvalues --   -0.10093  -0.06477  -0.06352   0.01398   0.04312
 Alpha virt. eigenvalues --    0.05558   0.05574   0.11222   0.14893   0.16245
 Alpha virt. eigenvalues --    0.16973   0.20738   0.24210   0.35481   0.40058
 Alpha virt. eigenvalues --    0.40283   0.44967   0.56688   0.58116   0.79150
 Alpha virt. eigenvalues --    0.80579   0.82069   0.83304   0.83351   0.85701
 Alpha virt. eigenvalues --    0.86249   1.05870   1.11891   1.33373   1.34089
 Alpha virt. eigenvalues --    1.63930   1.63939   1.81827   1.82077   1.88386
 Alpha virt. eigenvalues --    1.95111   2.02204   2.07143   2.33045   2.37186
 Alpha virt. eigenvalues --    2.40984   2.52963   2.59675   2.99779   3.85465
 Alpha virt. eigenvalues --    3.87410   4.38133  14.16928  35.40782
  Beta  occ. eigenvalues --  -14.80346  -7.15989  -0.86788  -0.57545  -0.43659
  Beta  occ. eigenvalues --   -0.31090  -0.30824
  Beta virt. eigenvalues --   -0.10093  -0.06477  -0.06352   0.01398   0.04312
  Beta virt. eigenvalues --    0.05558   0.05574   0.11222   0.14893   0.16245
  Beta virt. eigenvalues --    0.16973   0.20738   0.24210   0.35481   0.40058
  Beta virt. eigenvalues --    0.40283   0.44967   0.56688   0.58116   0.79150
  Beta virt. eigenvalues --    0.80579   0.82069   0.83304   0.83351   0.85701
  Beta virt. eigenvalues --    0.86249   1.05870   1.11891   1.33373   1.34089
  Beta virt. eigenvalues --    1.63930   1.63939   1.81827   1.82077   1.88386
  Beta virt. eigenvalues --    1.95111   2.02204   2.07143   2.33045   2.37186
  Beta virt. eigenvalues --    2.40984   2.52963   2.59675   2.99779   3.85465
  Beta virt. eigenvalues --    3.87410   4.38133  14.16928  35.40782
          Condensed to atoms (all electrons):
               1          2          3          4
     1  B    4.709078  -0.000165   0.256271   0.009763
     2  N   -0.000165   7.023903   0.000978   0.214782
     3  H    0.256271   0.000978   0.724036  -0.000132
     4  H    0.009763   0.214782  -0.000132   0.579992
          Atomic-Atomic Spin Densities.
               1          2          3          4
     1  B    0.000000  -0.000000   0.000000   0.000000
     2  N   -0.000000  -0.000000   0.000000   0.000000
     3  H    0.000000   0.000000  -0.000000  -0.000000
     4  H    0.000000   0.000000  -0.000000   0.000000
 Mulliken charges and spin densities:
               1          2
     1  B    0.025054   0.000000
     2  N   -0.239498  -0.000000
     3  H    0.018848   0.000000
     4  H    0.195596   0.000000
 Sum of Mulliken charges =  -0.00000  -0.00000
 Mulliken charges and spin densities with hydrogens summed into heavy atoms:
               1          2
     1  B    0.043902   0.000000
     2  N   -0.043902  -0.000000
 Electronic spatial extent (au):  <R**2>=            187.1474
 Charge=             -0.0000 electrons
 Dipole moment (field-independent basis, Debye):
    X=             -3.1950    Y=              0.2702    Z=             -1.1155  Tot=              3.3949
 Quadrupole moment (field-independent basis, Debye-Ang):
   XX=            -10.0123   YY=            -14.9860   ZZ=            -12.6974
   XY=              0.7412   XZ=             -2.9501   YZ=             -0.6071
 Traceless Quadrupole moment (field-independent basis, Debye-Ang):
   XX=              2.5530   YY=             -2.4208   ZZ=             -0.1322
   XY=              0.7412   XZ=             -2.9501   YZ=             -0.6071
 Octapole moment (field-independent basis, Debye-Ang**2):
  XXX=             -1.7572  YYY=             -0.2972  ZZZ=              0.2419  XYY=             -3.2965
  XXY=              1.4126  XXZ=             -5.6238  XZZ=              0.9321  YZZ=              0.1816
  YYZ=              0.3881  XYZ=             -1.1245
 Hexadecapole moment (field-independent basis, Debye-Ang**3):
 XXXX=           -244.9292 YYYY=            -20.6594 ZZZZ=            -20.1223 XXXY=              0.2392
 XXXZ=             -1.6611 YYYX=             -0.8547 YYYZ=              0.1114 ZZZX=              1.2711
 ZZZY=             -0.2432 XXYY=            -48.9169 XXZZ=            -43.5625 YYZZ=             -6.9574
 XXYZ=             -1.4099 YYXZ=              0.8331 ZZXY=              0.0868
 N-N= 1.304952196202D+01 E-N=-2.136590130901D+02  KE= 8.012191060172D+01
                          Isotropic Fermi Contact Couplings
        Atom                 a.u.       MegaHertz       Gauss      10(-4) cm-1
     1  B(11)              0.00000       0.00000       0.00000       0.00000
     2  N(14)              0.00000       0.00000       0.00000       0.00000
     3  H(1)              -0.00000      -0.00000      -0.00000      -0.00000
     4  H(1)               0.00000       0.00000       0.00000       0.00000
 --------------------------------------------------------
       Center         ----  Spin Dipole Couplings  ----
                      3XX-RR        3YY-RR        3ZZ-RR
 --------------------------------------------------------
     1   Atom       -0.000000      0.000000     -0.000000
     2   Atom       -0.000000      0.000001     -0.000001
     3   Atom       -0.000000      0.000000     -0.000000
     4   Atom       -0.000000      0.000000     -0.000000
 --------------------------------------------------------
                        XY            XZ            YZ
 --------------------------------------------------------
     1   Atom        0.000000      0.000000     -0.000000
     2   Atom        0.000007      0.000002     -0.000002
     3   Atom        0.000000      0.000000     -0.000000
     4   Atom        0.000000      0.000000     -0.000000
 --------------------------------------------------------


 ---------------------------------------------------------------------------------
              Anisotropic Spin Dipole Couplings in Principal Axis System
 ---------------------------------------------------------------------------------

       Atom             a.u.   MegaHertz   Gauss  10(-4) cm-1        Axes

              Baa    -0.0000    -0.000    -0.000    -0.000  0.6737 -0.6321 -0.3828
     1 B(11)  Bbb    -0.0000    -0.000    -0.000    -0.000  0.3107 -0.2278  0.9228
              Bcc     0.0000     0.000     0.000     0.000  0.6705  0.7406 -0.0429
 
              Baa    -0.0000    -0.000    -0.000    -0.000  0.6886 -0.6460 -0.3295
     2 N(14)  Bbb    -0.0000    -0.000    -0.000    -0.000  0.2327 -0.2336  0.9441
              Bcc     0.0000     0.000     0.000     0.000  0.6868  0.7267  0.0105
 
              Baa    -0.0000    -0.000    -0.000    -0.000 -0.4897  0.5625  0.6662
     3 H(1)   Bbb    -0.0000    -0.000    -0.000    -0.000  0.7221 -0.1666  0.6714
              Bcc     0.0000     0.000     0.000     0.000  0.4887  0.8099 -0.3245
 
              Baa    -0.0000    -0.000    -0.000    -0.000  0.6738 -0.6334 -0.3806
     4 H(1)   Bbb     0.0000     0.000     0.000     0.000  0.3070 -0.2286  0.9239
              Bcc     0.0000     0.000     0.000     0.000  0.6721  0.7393 -0.0404
 

 ---------------------------------------------------------------------------------

 No NMR shielding tensors so no spin-rotation constants.
 Leave Link  601 at Mon Apr 21 22:35:33 2025, MaxMem=   536870912 cpu:               3.7 elap:               0.7
 (Enter /home/szhao/Apps/g16/l9999.exe)
 1\1\GINC-NODE05\FOpt\UM062X\6-311+G(d,p)\B1H2N1\SZHAO\21-Apr-2025\0\\#
 p opt UM062X/6-311+G** nosymm int=superfine\\Title Card Required\\0,1\
 B,-1.6680922861,-0.00346391,0.\N,1.6663312861,0.00155991,0.\H,-2.84384
 19004,-0.0854281693,0.319310447\H,1.4146536629,0.2429864505,-0.9758219
 845\\Version=ES64L-G16RevA.03\HF=-80.4261572\S2=0.\S2-1=0.\S2A=0.\RMSD
 =5.074e-09\RMSF=2.411e-06\Dipole=-1.2569943,0.1063185,-0.4388862\Quadr
 upole=1.8980644,-1.7997987,-0.0982658,0.5510539,-2.193308,-0.4513859\P
 G=C01 [X(B1H2N1)]\\@


 I think that all right-thinking people in this
 country are sick and tired of being told that
 ordinary, decent people are fed up in this country
 with being sick and tired.  I'm certainly not!
 But I'm sick and tired of being told that I am!
                               -- Monty Python
 Job cpu time:       0 days  0 hours 12 minutes 17.2 seconds.
 Elapsed time:       0 days  0 hours  1 minutes 44.4 seconds.
 File lengths (MBytes):  RWF=     17 Int=      0 D2E=      0 Chk=      2 Scr=      2
 Normal termination of Gaussian 16 at Mon Apr 21 22:35:34 2025.
