 Entering Gaussian System, Link 0=g16
 Initial command:
 /home/szhao/Apps/g16/l1.exe "/home/szhao/tmp/Gau-130175.inp" -scrdir="/home/szhao/tmp/"
 Default is to use a total of  16 processors:
                               16 via shared-memory
                                1 via Linda
 Entering Link 1 = /home/szhao/Apps/g16/l1.exe PID=    130177.
  
 Copyright (c) 1988,1990,1992,1993,1995,1998,2003,2009,2016,
            Gaussian, Inc.  All Rights Reserved.
  
 This is part of the Gaussian(R) 16 program.  It is based on
 the Gaussian(R) 09 system (copyright 2009, Gaussian, Inc.),
 the Gaussian(R) 03 system (copyright 2003, Gaussian, Inc.),
 the Gaussian(R) 98 system (copyright 1998, Gaussian, Inc.),
 the Gaussian(R) 94 system (copyright 1995, Gaussian, Inc.),
 the Gaussian 92(TM) system (copyright 1992, Gaussian, Inc.),
 the Gaussian 90(TM) system (copyright 1990, Gaussian, Inc.),
 the Gaussian 88(TM) system (copyright 1988, Gaussian, Inc.),
 the Gaussian 86(TM) system (copyright 1986, Carnegie Mellon
 University), and the Gaussian 82(TM) system (copyright 1983,
 Carnegie Mellon University). Gaussian is a federally registered
 trademark of Gaussian, Inc.
  
 This software contains proprietary and confidential information,
 including trade secrets, belonging to Gaussian, Inc.
  
 This software is provided under written license and may be
 used, copied, transmitted, or stored only in accord with that
 written license.
  
 The following legend is applicable only to US Government
 contracts under FAR:
  
                    RESTRICTED RIGHTS LEGEND
  
 Use, reproduction and disclosure by the US Government is
 subject to restrictions as set forth in subparagraphs (a)
 and (c) of the Commercial Computer Software - Restricted
 Rights clause in FAR 52.227-19.
  
 Gaussian, Inc.
 340 Quinnipiac St., Bldg. 40, Wallingford CT 06492
  
  
 ---------------------------------------------------------------
 Warning -- This program may not be used in any manner that
 competes with the business of Gaussian, Inc. or will provide
 assistance to any competitor of Gaussian, Inc.  The licensee
 of this program is prohibited from giving any competitor of
 Gaussian, Inc. access to this program.  By using this program,
 the user acknowledges that Gaussian, Inc. is engaged in the
 business of creating and licensing software in the field of
 computational chemistry and represents and warrants to the
 licensee that it is not a competitor of Gaussian, Inc. and that
 it will not use this program in any manner prohibited above.
 ---------------------------------------------------------------
  

 Cite this work as:
 Gaussian 16, Revision A.03,
 M. J. Frisch, G. W. Trucks, H. B. Schlegel, G. E. Scuseria, 
 M. A. Robb, J. R. Cheeseman, G. Scalmani, V. Barone, 
 G. A. Petersson, H. Nakatsuji, X. Li, M. Caricato, A. V. Marenich, 
 J. Bloino, B. G. Janesko, R. Gomperts, B. Mennucci, H. P. Hratchian, 
 J. V. Ortiz, A. F. Izmaylov, J. L. Sonnenberg, D. Williams-Young, 
 F. Ding, F. Lipparini, F. Egidi, J. Goings, B. Peng, A. Petrone, 
 T. Henderson, D. Ranasinghe, V. G. Zakrzewski, J. Gao, N. Rega, 
 G. Zheng, W. Liang, M. Hada, M. Ehara, K. Toyota, R. Fukuda, 
 J. Hasegawa, M. Ishida, T. Nakajima, Y. Honda, O. Kitao, H. Nakai, 
 T. Vreven, K. Throssell, J. A. Montgomery, Jr., J. E. Peralta, 
 F. Ogliaro, M. J. Bearpark, J. J. Heyd, E. N. Brothers, K. N. Kudin, 
 V. N. Staroverov, T. A. Keith, R. Kobayashi, J. Normand, 
 K. Raghavachari, A. P. Rendell, J. C. Burant, S. S. Iyengar, 
 J. Tomasi, M. Cossi, J. M. Millam, M. Klene, C. Adamo, R. Cammi, 
 J. W. Ochterski, R. L. Martin, K. Morokuma, O. Farkas, 
 J. B. Foresman, and D. J. Fox, Gaussian, Inc., Wallingford CT, 2016.
 
 ******************************************
 Gaussian 16:  ES64L-G16RevA.03 25-Dec-2016
                13-Nov-2024 
 ******************************************
 %chk=opt.chk
 %mem=16GB
 %nprocshared=28
 Will use up to   28 processors via shared memory.
 --------------------------------------------
 #p opt UM062X/6-311+G** nosymm int=superfine
 --------------------------------------------
 1/18=20,19=15,26=5,38=1/1,3;
 2/9=110,12=2,15=1,17=6,18=5,40=1/2;
 3/5=4,6=6,7=111,11=2,25=1,30=1,71=1,74=-55,75=-7,116=2/1,2,3;
 4//1;
 5/5=2,38=5/2;
 6/7=2,8=2,9=2,10=2,28=1/1;
 7/30=1/1,2,3,16;
 1/18=20,19=15,26=5/3(2);
 2/9=110,15=1/2;
 99//99;
 2/9=110,15=1/2;
 3/5=4,6=6,7=111,11=2,25=1,30=1,71=1,74=-55,75=-7,116=2/1,2,3;
 4/5=5,16=3,69=1/1;
 5/5=2,38=5/2;
 7/30=1/1,2,3,16;
 1/18=20,19=15,26=5/3(-5);
 2/9=110,15=1/2;
 6/7=2,8=2,9=2,10=2,19=2,28=1/1;
 99/9=1/99;
 Leave Link    1 at Wed Nov 13 12:42:21 2024, MaxMem=  2147483648 cpu:               2.4 elap:               0.1
 (Enter /home/szhao/Apps/g16/l101.exe)
 -------------------
 Title Card Required
 -------------------
 Symbolic Z-matrix:
 Charge =  1 Multiplicity = 2
 C                    -1   -1.29827   0.        0. 
 C                    -1    1.29827   0.        0. 
 H                    0     1.35203  -0.93683   0.54223 
 H                    0    -1.35067  -0.93793  -0.54043 
 H                    0     1.35147   0.93804   0.54019 
 H                    0     1.3508   -0.00115  -1.08249 
 H                    0    -1.35197   0.93691  -0.54208 
 H                    0    -1.35137   0.00092   1.08246 
 
 Add virtual bond connecting atoms C2         and C1         Dist= 4.91D+00.
 ITRead=  2  2  0  0  0  0  0  0
 MicOpt= -2 -2 -1 -1 -1 -1 -1 -1
 NAtoms=      8 NQM=        6 NQMF=       2 NMMI=      0 NMMIF=      0
                NMic=       0 NMicF=      0.
                    Isotopes and Nuclear Properties:
 (Nuclear quadrupole moments (NQMom) in fm**2, nuclear magnetic moments (NMagM)
  in nuclear magnetons)

  Atom         1           2           3           4           5           6           7           8
 IAtWgt=          12          12           1           1           1           1           1           1
 AtmWgt=  12.0000000  12.0000000   1.0078250   1.0078250   1.0078250   1.0078250   1.0078250   1.0078250
 NucSpn=           0           0           1           1           1           1           1           1
 AtZEff=  -0.0000000  -0.0000000  -0.0000000  -0.0000000  -0.0000000  -0.0000000  -0.0000000  -0.0000000
 NQMom=    0.0000000   0.0000000   0.0000000   0.0000000   0.0000000   0.0000000   0.0000000   0.0000000
 NMagM=    0.0000000   0.0000000   2.7928460   2.7928460   2.7928460   2.7928460   2.7928460   2.7928460
 AtZNuc=   6.0000000   6.0000000   1.0000000   1.0000000   1.0000000   1.0000000   1.0000000   1.0000000
 Leave Link  101 at Wed Nov 13 12:42:22 2024, MaxMem=  2147483648 cpu:              23.8 elap:               0.9
 (Enter /home/szhao/Apps/g16/l103.exe)

 GradGradGradGradGradGradGradGradGradGradGradGradGradGradGradGradGradGrad
 Berny optimization.
 Initialization pass.
                           ----------------------------
                           !    Initial Parameters    !
                           ! (Angstroms and Degrees)  !
 --------------------------                            --------------------------
 ! Name  Definition              Value          Derivative Info.                !
 --------------------------------------------------------------------------------
 ! X1    R(1,-1)                -1.2983         Frozen                          !
 ! Y1    R(1,-2)                 0.0            Frozen                          !
 ! Z1    R(1,-3)                 0.0            Frozen                          !
 ! X2    R(2,-1)                 1.2983         Frozen                          !
 ! Y2    R(2,-2)                 0.0            Frozen                          !
 ! Z2    R(2,-3)                 0.0            Frozen                          !
 ! R1    R(1,4)                  1.0838         estimate D2E/DX2                !
 ! R2    R(1,7)                  1.0838         estimate D2E/DX2                !
 ! R3    R(1,8)                  1.0838         estimate D2E/DX2                !
 ! R4    R(2,3)                  1.0838         estimate D2E/DX2                !
 ! R5    R(2,5)                  1.0838         estimate D2E/DX2                !
 ! R6    R(2,6)                  1.0838         estimate D2E/DX2                !
 ! A1    A(2,1,4)               92.7711         estimate D2E/DX2                !
 ! A2    A(2,1,7)               92.8401         estimate D2E/DX2                !
 ! A3    A(2,1,8)               92.8085         estimate D2E/DX2                !
 ! A4    A(4,1,7)              119.7594         estimate D2E/DX2                !
 ! A5    A(4,1,8)              119.7642         estimate D2E/DX2                !
 ! A6    A(7,1,8)              119.7635         estimate D2E/DX2                !
 ! A7    A(1,2,3)               92.843          estimate D2E/DX2                !
 ! A8    A(1,2,5)               92.8135         estimate D2E/DX2                !
 ! A9    A(1,2,6)               92.7779         estimate D2E/DX2                !
 ! A10   A(3,2,5)              119.7605         estimate D2E/DX2                !
 ! A11   A(3,2,6)              119.7626         estimate D2E/DX2                !
 ! A12   A(5,2,6)              119.7614         estimate D2E/DX2                !
 ! D1    D(4,1,2,3)            -60.0122         estimate D2E/DX2                !
 ! D2    D(4,1,2,5)            179.9859         estimate D2E/DX2                !
 ! D3    D(4,1,2,6)             59.9887         estimate D2E/DX2                !
 ! D4    D(7,1,2,3)            179.9909         estimate D2E/DX2                !
 ! D5    D(7,1,2,5)             59.9891         estimate D2E/DX2                !
 ! D6    D(7,1,2,6)            -60.0082         estimate D2E/DX2                !
 ! D7    D(8,1,2,3)             59.9867         estimate D2E/DX2                !
 ! D8    D(8,1,2,5)            -60.0151         estimate D2E/DX2                !
 ! D9    D(8,1,2,6)            179.9877         estimate D2E/DX2                !
 --------------------------------------------------------------------------------
 Trust Radius=3.00D-01 FncErr=1.00D-07 GrdErr=1.00D-07 EigMax=2.50D+02 EigMin=1.00D-04
 Number of steps in this run=     43 maximum allowed number of steps=    100.
 GradGradGradGradGradGradGradGradGradGradGradGradGradGradGradGradGradGrad

 Leave Link  103 at Wed Nov 13 12:42:22 2024, MaxMem=  2147483648 cpu:               1.6 elap:               0.1
 (Enter /home/szhao/Apps/g16/l202.exe)
                          Input orientation:                          
 ---------------------------------------------------------------------
 Center     Atomic      Atomic             Coordinates (Angstroms)
 Number     Number       Type             X           Y           Z
 ---------------------------------------------------------------------
      1          6           0       -1.298272    0.000000    0.000000
      2          6           0        1.298272    0.000000    0.000000
      3          1           0        1.352026   -0.936832    0.542231
      4          1           0       -1.350667   -0.937931   -0.540431
      5          1           0        1.351468    0.938036    0.540185
      6          1           0        1.350797   -0.001152   -1.082495
      7          1           0       -1.351970    0.936911   -0.542078
      8          1           0       -1.351374    0.000919    1.082457
 ---------------------------------------------------------------------
                    Distance matrix (angstroms):
                    1          2          3          4          5
     1  C    0.000000
     2  C    2.596543   0.000000
     3  H    2.862821   1.083770   0.000000
     4  H    1.083755   2.861582   2.911478   0.000000
     5  H    2.862312   1.083763   1.874869   3.462444   0.000000
     6  H    2.861706   1.083769   1.874896   2.910205   1.874877
     7  H    1.083759   2.862766   3.463846   1.874843   2.912022
     8  H    1.083759   2.862225   2.911974   1.874888   2.911632
                    6          7          8
     6  H    0.000000
     7  H    2.911522   0.000000
     8  H    3.462477   1.874885   0.000000
 Symmetry turned off by external request.
 Stoichiometry    C2H6(1+,2)
 Framework group  C1[X(C2H6)]
 Deg. of freedom    18
 Full point group                 C1      NOp   1
 Rotational constants (GHZ):          71.3274761           9.1823698           9.1823436
 Leave Link  202 at Wed Nov 13 12:42:22 2024, MaxMem=  2147483648 cpu:               2.6 elap:               0.1
 (Enter /home/szhao/Apps/g16/l301.exe)
 Standard basis: 6-311+G(d,p) (5D, 7F)
 Ernie: Thresh=  0.10000D-02 Tol=  0.10000D-05 Strict=F.
    80 basis functions,   120 primitive gaussians,    82 cartesian basis functions
     9 alpha electrons        8 beta electrons
       nuclear repulsion energy        34.8130447147 Hartrees.
 IExCor= 4336 DFT=T Ex+Corr=M062X ExCW=0 ScaHFX=  0.540000
 ScaDFX=  1.000000  1.000000  1.000000  1.000000 ScalE2=  1.000000  1.000000
 IRadAn=      7 IRanWt=     -1 IRanGd=            0 ICorTp=0 IEmpDi=  4
 NAtoms=    8 NActive=    8 NUniq=    8 SFac= 1.00D+00 NAtFMM=   60 NAOKFM=F Big=F
 Integral buffers will be    131072 words long.
 Raffenetti 2 integral format.
 Two-electron integral symmetry is turned off.
 Leave Link  301 at Wed Nov 13 12:42:22 2024, MaxMem=  2147483648 cpu:               3.5 elap:               0.1
 (Enter /home/szhao/Apps/g16/l302.exe)
 NPDir=0 NMtPBC=     1 NCelOv=     1 NCel=       1 NClECP=     1 NCelD=      1
         NCelK=      1 NCelE2=     1 NClLst=     1 CellRange=     0.0.
 One-electron integrals computed using PRISM.
 NBasis=    80 RedAO= T EigKep=  1.73D-03  NBF=    80
 NBsUse=    80 1.00D-06 EigRej= -1.00D+00 NBFU=    80
 Precomputing XC quadrature grid using
 IXCGrd= 4 IRadAn=           7 IRanWt=          -1 IRanGd=           0 AccXCQ= 0.00D+00.
 Generated NRdTot=       0 NPtTot=           0 NUsed=           0 NTot=          32
 NSgBfM=    82    82    82    82    82 MxSgAt=     8 MxSgA2=     8.
 Leave Link  302 at Wed Nov 13 12:42:23 2024, MaxMem=  2147483648 cpu:               6.8 elap:               0.3
 (Enter /home/szhao/Apps/g16/l303.exe)
 DipDrv:  MaxL=1.
 Leave Link  303 at Wed Nov 13 12:42:23 2024, MaxMem=  2147483648 cpu:               2.5 elap:               0.1
 (Enter /home/szhao/Apps/g16/l401.exe)
 ExpMin= 4.38D-02 ExpMax= 4.56D+03 ExpMxC= 6.82D+02 IAcc=3 IRadAn=         7 AccDes= 0.00D+00
 Harris functional with IExCor= 1009 and IRadAn=       7 diagonalized for initial guess.
 HarFok:  IExCor= 1009 AccDes= 0.00D+00 IRadAn=         7 IDoV= 1 UseB2=F ITyADJ=14
 ICtDFT=  3500011 ScaDFX=  1.000000  1.000000  1.000000  1.000000
 FoFCou: FMM=F IPFlag=           0 FMFlag=      100000 FMFlg1=           0
         NFxFlg=           0 DoJE=T BraDBF=F KetDBF=T FulRan=T
         wScrn=  0.000000 ICntrl=       500 IOpCl=  0 I1Cent=   200000004 NGrid=           0
         NMat0=    1 NMatS0=      1 NMatT0=    0 NMatD0=    1 NMtDS0=    0 NMtDT0=    0
 Symmetry not used in FoFCou.
 Harris En= -79.3713125256207    
 JPrj=0 DoOrth=F DoCkMO=F.
 Initial guess <Sx>= 0.0000 <Sy>= 0.0000 <Sz>= 0.5000 <S**2>= 0.7500 S= 0.5000
 Leave Link  401 at Wed Nov 13 12:42:23 2024, MaxMem=  2147483648 cpu:              10.6 elap:               0.4
 (Enter /home/szhao/Apps/g16/l502.exe)
 Keep R1 and R2 ints in memory in canonical form, NReq=35964362.
 FoFCou: FMM=F IPFlag=           0 FMFlag=           0 FMFlg1=           0
         NFxFlg=           0 DoJE=F BraDBF=F KetDBF=F FulRan=T
         wScrn=  0.000000 ICntrl=       600 IOpCl=  0 I1Cent=           0 NGrid=           0
         NMat0=    1 NMatS0=   3240 NMatT0=    0 NMatD0=    1 NMtDS0=    0 NMtDT0=    0
 Symmetry not used in FoFCou.
 Two-electron integral symmetry not used.
 UHF open shell SCF:
 Using DIIS extrapolation, IDIIS=  1040.
 NGot=  2147483648 LenX=  2136966234 LenY=  2136959069
 Requested convergence on RMS density matrix=1.00D-08 within 128 cycles.
 Requested convergence on MAX density matrix=1.00D-06.
 Requested convergence on             energy=1.00D-06.
 No special actions if energy rises.

 Cycle   1  Pass 1  IDiag  1:
 E= -79.3350347440686    
 DIIS: error= 2.62D-02 at cycle   1 NSaved=   1.
 NSaved= 1 IEnMin= 1 EnMin= -79.3350347440686     IErMin= 1 ErrMin= 2.62D-02
 ErrMax= 2.62D-02  0.00D+00 EMaxC= 1.00D-01 BMatC= 1.06D-01 BMatP= 1.06D-01
 IDIUse=3 WtCom= 7.38D-01 WtEn= 2.62D-01
 Coeff-Com:  0.100D+01
 Coeff-En:   0.100D+01
 Coeff:      0.100D+01
 Gap=     0.238 Goal=   None    Shift=    0.000
 Gap=     0.403 Goal=   None    Shift=    0.000
 GapD=    0.238 DampG=1.000 DampE=0.500 DampFc=0.5000 IDamp=-1.
 Damping current iteration by 5.00D-01
 RMSDP=1.71D-03 MaxDP=4.56D-02              OVMax= 6.78D-02

 Cycle   2  Pass 1  IDiag  1:
 E= -79.3448205441523     Delta-E=       -0.009785800084 Rises=F Damp=T
 DIIS: error= 9.77D-03 at cycle   2 NSaved=   2.
 NSaved= 2 IEnMin= 2 EnMin= -79.3448205441523     IErMin= 2 ErrMin= 9.77D-03
 ErrMax= 9.77D-03  0.00D+00 EMaxC= 1.00D-01 BMatC= 1.69D-02 BMatP= 1.06D-01
 IDIUse=3 WtCom= 9.02D-01 WtEn= 9.77D-02
 Coeff-Com: -0.483D+00 0.148D+01
 Coeff-En:   0.000D+00 0.100D+01
 Coeff:     -0.436D+00 0.144D+01
 Gap=     0.234 Goal=   None    Shift=    0.000
 Gap=     0.394 Goal=   None    Shift=    0.000
 RMSDP=6.74D-04 MaxDP=1.11D-02 DE=-9.79D-03 OVMax= 2.03D-02

 Cycle   3  Pass 1  IDiag  1:
 E= -79.3533972420290     Delta-E=       -0.008576697877 Rises=F Damp=F
 DIIS: error= 2.12D-03 at cycle   3 NSaved=   3.
 NSaved= 3 IEnMin= 3 EnMin= -79.3533972420290     IErMin= 3 ErrMin= 2.12D-03
 ErrMax= 2.12D-03  0.00D+00 EMaxC= 1.00D-01 BMatC= 6.05D-04 BMatP= 1.69D-02
 IDIUse=3 WtCom= 9.79D-01 WtEn= 2.12D-02
 Coeff-Com: -0.139D+00 0.269D+00 0.869D+00
 Coeff-En:   0.000D+00 0.000D+00 0.100D+01
 Coeff:     -0.136D+00 0.263D+00 0.872D+00
 Gap=     0.235 Goal=   None    Shift=    0.000
 Gap=     0.397 Goal=   None    Shift=    0.000
 RMSDP=1.10D-04 MaxDP=3.66D-03 DE=-8.58D-03 OVMax= 3.94D-03

 Cycle   4  Pass 1  IDiag  1:
 E= -79.3535666533480     Delta-E=       -0.000169411319 Rises=F Damp=F
 DIIS: error= 3.47D-04 at cycle   4 NSaved=   4.
 NSaved= 4 IEnMin= 4 EnMin= -79.3535666533480     IErMin= 4 ErrMin= 3.47D-04
 ErrMax= 3.47D-04  0.00D+00 EMaxC= 1.00D-01 BMatC= 2.21D-05 BMatP= 6.05D-04
 IDIUse=3 WtCom= 9.97D-01 WtEn= 3.47D-03
 Coeff-Com:  0.385D-03-0.971D-02 0.700D-01 0.939D+00
 Coeff-En:   0.000D+00 0.000D+00 0.000D+00 0.100D+01
 Coeff:      0.383D-03-0.967D-02 0.698D-01 0.940D+00
 Gap=     0.235 Goal=   None    Shift=    0.000
 Gap=     0.398 Goal=   None    Shift=    0.000
 RMSDP=3.02D-05 MaxDP=6.14D-04 DE=-1.69D-04 OVMax= 1.02D-03

 Cycle   5  Pass 1  IDiag  1:
 E= -79.3535759061672     Delta-E=       -0.000009252819 Rises=F Damp=F
 DIIS: error= 1.20D-04 at cycle   5 NSaved=   5.
 NSaved= 5 IEnMin= 5 EnMin= -79.3535759061672     IErMin= 5 ErrMin= 1.20D-04
 ErrMax= 1.20D-04  0.00D+00 EMaxC= 1.00D-01 BMatC= 2.82D-06 BMatP= 2.21D-05
 IDIUse=3 WtCom= 9.99D-01 WtEn= 1.20D-03
 Coeff-Com:  0.194D-01-0.377D-01-0.123D+00-0.334D-01 0.117D+01
 Coeff-En:   0.000D+00 0.000D+00 0.000D+00 0.000D+00 0.100D+01
 Coeff:      0.193D-01-0.377D-01-0.123D+00-0.333D-01 0.117D+01
 Gap=     0.235 Goal=   None    Shift=    0.000
 Gap=     0.398 Goal=   None    Shift=    0.000
 RMSDP=1.70D-05 MaxDP=2.93D-04 DE=-9.25D-06 OVMax= 5.45D-04

 Cycle   6  Pass 1  IDiag  1:
 E= -79.3535777786425     Delta-E=       -0.000001872475 Rises=F Damp=F
 DIIS: error= 1.98D-05 at cycle   6 NSaved=   6.
 NSaved= 6 IEnMin= 6 EnMin= -79.3535777786425     IErMin= 6 ErrMin= 1.98D-05
 ErrMax= 1.98D-05  0.00D+00 EMaxC= 1.00D-01 BMatC= 1.04D-07 BMatP= 2.82D-06
 IDIUse=1 WtCom= 1.00D+00 WtEn= 0.00D+00
 Coeff-Com: -0.492D-02 0.100D-01 0.264D-01-0.315D-01-0.310D+00 0.131D+01
 Coeff:     -0.492D-02 0.100D-01 0.264D-01-0.315D-01-0.310D+00 0.131D+01
 Gap=     0.235 Goal=   None    Shift=    0.000
 Gap=     0.398 Goal=   None    Shift=    0.000
 RMSDP=3.59D-06 MaxDP=7.79D-05 DE=-1.87D-06 OVMax= 1.09D-04

 Cycle   7  Pass 1  IDiag  1:
 E= -79.3535778547721     Delta-E=       -0.000000076130 Rises=F Damp=F
 DIIS: error= 3.93D-06 at cycle   7 NSaved=   7.
 NSaved= 7 IEnMin= 7 EnMin= -79.3535778547721     IErMin= 7 ErrMin= 3.93D-06
 ErrMax= 3.93D-06  0.00D+00 EMaxC= 1.00D-01 BMatC= 2.17D-09 BMatP= 1.04D-07
 IDIUse=1 WtCom= 1.00D+00 WtEn= 0.00D+00
 Coeff-Com:  0.258D-04-0.624D-04 0.351D-03 0.809D-02-0.575D-02-0.160D+00
 Coeff-Com:  0.116D+01
 Coeff:      0.258D-04-0.624D-04 0.351D-03 0.809D-02-0.575D-02-0.160D+00
 Coeff:      0.116D+01
 Gap=     0.235 Goal=   None    Shift=    0.000
 Gap=     0.398 Goal=   None    Shift=    0.000
 RMSDP=4.83D-07 MaxDP=1.31D-05 DE=-7.61D-08 OVMax= 2.08D-05

 Cycle   8  Pass 1  IDiag  1:
 E= -79.3535778560033     Delta-E=       -0.000000001231 Rises=F Damp=F
 DIIS: error= 1.24D-06 at cycle   8 NSaved=   8.
 NSaved= 8 IEnMin= 8 EnMin= -79.3535778560033     IErMin= 8 ErrMin= 1.24D-06
 ErrMax= 1.24D-06  0.00D+00 EMaxC= 1.00D-01 BMatC= 2.63D-10 BMatP= 2.17D-09
 IDIUse=1 WtCom= 1.00D+00 WtEn= 0.00D+00
 Coeff-Com:  0.850D-04-0.178D-03-0.220D-03 0.370D-02 0.156D-02-0.779D-01
 Coeff-Com:  0.428D+00 0.645D+00
 Coeff:      0.850D-04-0.178D-03-0.220D-03 0.370D-02 0.156D-02-0.779D-01
 Coeff:      0.428D+00 0.645D+00
 Gap=     0.235 Goal=   None    Shift=    0.000
 Gap=     0.398 Goal=   None    Shift=    0.000
 RMSDP=9.01D-08 MaxDP=2.56D-06 DE=-1.23D-09 OVMax= 1.02D-05

 Cycle   9  Pass 1  IDiag  1:
 E= -79.3535778560721     Delta-E=       -0.000000000069 Rises=F Damp=F
 DIIS: error= 4.79D-07 at cycle   9 NSaved=   9.
 NSaved= 9 IEnMin= 9 EnMin= -79.3535778560721     IErMin= 9 ErrMin= 4.79D-07
 ErrMax= 4.79D-07  0.00D+00 EMaxC= 1.00D-01 BMatC= 4.03D-11 BMatP= 2.63D-10
 IDIUse=1 WtCom= 1.00D+00 WtEn= 0.00D+00
 Coeff-Com:  0.248D-04-0.509D-04-0.123D-03-0.315D-03 0.119D-02 0.788D-02
 Coeff-Com: -0.102D+00 0.251D+00 0.842D+00
 Coeff:      0.248D-04-0.509D-04-0.123D-03-0.315D-03 0.119D-02 0.788D-02
 Coeff:     -0.102D+00 0.251D+00 0.842D+00
 Gap=     0.235 Goal=   None    Shift=    0.000
 Gap=     0.398 Goal=   None    Shift=    0.000
 RMSDP=3.02D-08 MaxDP=9.56D-07 DE=-6.88D-11 OVMax= 2.94D-06

 Cycle  10  Pass 1  IDiag  1:
 E= -79.3535778560849     Delta-E=       -0.000000000013 Rises=F Damp=F
 DIIS: error= 3.36D-08 at cycle  10 NSaved=  10.
 NSaved=10 IEnMin=10 EnMin= -79.3535778560849     IErMin=10 ErrMin= 3.36D-08
 ErrMax= 3.36D-08  0.00D+00 EMaxC= 1.00D-01 BMatC= 1.09D-13 BMatP= 4.03D-11
 IDIUse=1 WtCom= 1.00D+00 WtEn= 0.00D+00
 Coeff-Com: -0.599D-05 0.120D-04 0.246D-04 0.328D-04-0.309D-03-0.245D-03
 Coeff-Com:  0.114D-01-0.497D-01-0.137D+00 0.118D+01
 Coeff:     -0.599D-05 0.120D-04 0.246D-04 0.328D-04-0.309D-03-0.245D-03
 Coeff:      0.114D-01-0.497D-01-0.137D+00 0.118D+01
 Gap=     0.235 Goal=   None    Shift=    0.000
 Gap=     0.398 Goal=   None    Shift=    0.000
 RMSDP=3.44D-09 MaxDP=8.23D-08 DE=-1.28D-11 OVMax= 1.68D-07

 SCF Done:  E(UM062X) =  -79.3535778561     A.U. after   10 cycles
            NFock= 10  Conv=0.34D-08     -V/T= 2.0056
 <Sx>= 0.0000 <Sy>= 0.0000 <Sz>= 0.5000 <S**2>= 0.7535 S= 0.5017
 <L.S>=  0.00000000000    
 KE= 7.891346230152D+01 PE=-2.481846201464D+02 EE= 5.510453527407D+01
 Annihilation of the first spin contaminant:
 S**2 before annihilation     0.7535,   after     0.7500
 Leave Link  502 at Wed Nov 13 12:42:28 2024, MaxMem=  2147483648 cpu:             135.9 elap:               5.1
 (Enter /home/szhao/Apps/g16/l601.exe)
 Copying SCF densities to generalized density rwf, IOpCl= 1 IROHF=0.

 **********************************************************************

            Population analysis using the SCF density.

 **********************************************************************

 Alpha  occ. eigenvalues --  -10.85600 -10.85596  -1.06026  -1.02567  -0.76132
 Alpha  occ. eigenvalues --   -0.76130  -0.74308  -0.74308  -0.56083
 Alpha virt. eigenvalues --   -0.32547  -0.15136  -0.10586  -0.10586  -0.09975
 Alpha virt. eigenvalues --   -0.06196  -0.06195  -0.06147  -0.03743  -0.03740
 Alpha virt. eigenvalues --   -0.02917   0.01693   0.01696   0.05322   0.07337
 Alpha virt. eigenvalues --    0.19453   0.19458   0.22840   0.27129   0.27138
 Alpha virt. eigenvalues --    0.31180   0.39101   0.40503   0.40504   0.44778
 Alpha virt. eigenvalues --    0.44780   0.52893   0.59397   0.70455   0.82211
 Alpha virt. eigenvalues --    0.82214   0.86173   0.86174   1.20270   1.20343
 Alpha virt. eigenvalues --    1.22345   1.22348   1.25646   1.28879   1.29582
 Alpha virt. eigenvalues --    1.29584   1.54173   1.56091   1.66943   1.66945
 Alpha virt. eigenvalues --    1.68241   1.68243   1.75481   1.75486   1.76915
 Alpha virt. eigenvalues --    1.76924   2.19454   2.21373   2.21382   2.27860
 Alpha virt. eigenvalues --    2.27867   2.29353   2.40398   2.40405   2.42928
 Alpha virt. eigenvalues --    2.42933   2.49236   2.51687   2.68618   2.73937
 Alpha virt. eigenvalues --    3.48314   3.48316   3.49523   3.49524  23.68453
 Alpha virt. eigenvalues --   23.69730
  Beta  occ. eigenvalues --  -10.85399 -10.85399  -1.02832  -1.00125  -0.75437
  Beta  occ. eigenvalues --   -0.75436  -0.73762  -0.73761
  Beta virt. eigenvalues --   -0.33957  -0.23515  -0.15631  -0.11122  -0.11122
  Beta virt. eigenvalues --   -0.09536  -0.06559  -0.06559  -0.06095  -0.03644
  Beta virt. eigenvalues --   -0.03641  -0.02121   0.02056   0.02058   0.05829
  Beta virt. eigenvalues --    0.07686   0.19571   0.19576   0.24521   0.26659
  Beta virt. eigenvalues --    0.26668   0.31279   0.41664   0.41665   0.41851
  Beta virt. eigenvalues --    0.45987   0.45988   0.53790   0.60644   0.71302
  Beta virt. eigenvalues --    0.85018   0.85021   0.88714   0.88715   1.21422
  Beta virt. eigenvalues --    1.21491   1.23770   1.23773   1.29894   1.30750
  Beta virt. eigenvalues --    1.30752   1.34333   1.56421   1.56898   1.68743
  Beta virt. eigenvalues --    1.68745   1.69810   1.69811   1.76860   1.76866
  Beta virt. eigenvalues --    1.78571   1.78579   2.22686   2.22696   2.22922
  Beta virt. eigenvalues --    2.29169   2.29177   2.33051   2.42983   2.42990
  Beta virt. eigenvalues --    2.45458   2.45462   2.52044   2.56117   2.71100
  Beta virt. eigenvalues --    2.76639   3.52531   3.52533   3.53749   3.53751
  Beta virt. eigenvalues --   23.69675  23.70953
          Condensed to atoms (all electrons):
               1          2          3          4          5          6
     1  C    5.097293   0.073094  -0.005003   0.375368  -0.004983  -0.004989
     2  C    0.073094   5.097319   0.375410  -0.004989   0.375380   0.375368
     3  H   -0.005003   0.375410   0.403048  -0.000467  -0.016794  -0.016794
     4  H    0.375368  -0.004989  -0.000467   0.403142   0.000505  -0.000468
     5  H   -0.004983   0.375380  -0.016794   0.000505   0.403088  -0.016793
     6  H   -0.004989   0.375368  -0.016794  -0.000468  -0.016793   0.403145
     7  H    0.375413  -0.005003   0.000505  -0.016799  -0.000467  -0.000467
     8  H    0.375382  -0.004982  -0.000467  -0.016793  -0.000468   0.000505
               7          8
     1  C    0.375413   0.375382
     2  C   -0.005003  -0.004982
     3  H    0.000505  -0.000467
     4  H   -0.016799  -0.016793
     5  H   -0.000467  -0.000468
     6  H   -0.000467   0.000505
     7  H    0.403048  -0.016793
     8  H   -0.016793   0.403093
          Atomic-Atomic Spin Densities.
               1          2          3          4          5          6
     1  C    0.510460   0.098779  -0.003344  -0.007551  -0.003349  -0.003353
     2  C    0.098779   0.510472  -0.007553  -0.003353  -0.007551  -0.007552
     3  H   -0.003344  -0.007553  -0.017760   0.000101   0.001440   0.001439
     4  H   -0.007551  -0.003353   0.000101  -0.017741   0.000060   0.000101
     5  H   -0.003349  -0.007551   0.001440   0.000060  -0.017752   0.001440
     6  H   -0.003353  -0.007552   0.001439   0.000101   0.001440  -0.017748
     7  H   -0.007553  -0.003344   0.000060   0.001439   0.000100   0.000101
     8  H   -0.007551  -0.003349   0.000100   0.001440   0.000101   0.000060
               7          8
     1  C   -0.007553  -0.007551
     2  C   -0.003344  -0.003349
     3  H    0.000060   0.000100
     4  H    0.001439   0.001440
     5  H    0.000100   0.000101
     6  H    0.000101   0.000060
     7  H   -0.017761   0.001438
     8  H    0.001438  -0.017761
 Mulliken charges and spin densities:
               1          2
     1  C   -0.281576   0.576537
     2  C   -0.281597   0.576548
     3  H    0.260562  -0.025517
     4  H    0.260500  -0.025504
     5  H    0.260532  -0.025511
     6  H    0.260494  -0.025512
     7  H    0.260562  -0.025519
     8  H    0.260522  -0.025522
 Sum of Mulliken charges =   1.00000   1.00000
 Mulliken charges and spin densities with hydrogens summed into heavy atoms:
               1          2
     1  C    0.500009   0.499993
     2  C    0.499991   0.500007
 Electronic spatial extent (au):  <R**2>=            155.2813
 Charge=              1.0000 electrons
 Dipole moment (field-independent basis, Debye):
    X=              0.0001    Y=             -0.0000    Z=             -0.0001  Tot=              0.0001
 Quadrupole moment (field-independent basis, Debye-Ang):
   XX=             -3.4362   YY=            -10.9368   ZZ=            -10.9366
   XY=             -0.0015   XZ=              0.0009   YZ=             -0.0001
 Traceless Quadrupole moment (field-independent basis, Debye-Ang):
   XX=              5.0003   YY=             -2.5003   ZZ=             -2.5001
   XY=             -0.0015   XZ=              0.0009   YZ=             -0.0001
 Octapole moment (field-independent basis, Debye-Ang**2):
  XXX=              0.0000  YYY=              0.0009  ZZZ=              0.0000  XYY=              0.0010
  XXY=              0.0017  XXZ=              0.0027  XZZ=             -0.0011  YZZ=             -0.0009
  YYZ=              0.0000  XYZ=              0.0005
 Hexadecapole moment (field-independent basis, Debye-Ang**3):
 XXXX=           -130.0979 YYYY=            -21.2391 ZZZZ=            -21.2391 XXXY=             -0.0057
 XXXZ=              0.0034 YYYX=              0.0119 YYYZ=              0.0001 ZZZX=             -3.9532
 ZZZY=             -0.0001 XXYY=            -24.2514 XXZZ=            -24.2557 YYZZ=             -7.0797
 XXYZ=             -0.0042 YYXZ=              3.9530 ZZXY=             -0.0116
 N-N= 3.481304471475D+01 E-N=-2.481846196797D+02  KE= 7.891346230152D+01
                          Isotropic Fermi Contact Couplings
        Atom                 a.u.       MegaHertz       Gauss      10(-4) cm-1
     1  C(13)              0.07960      89.48692      31.93116      29.84962
     2  C(13)              0.07959      89.47008      31.92515      29.84401
     3  H(1)              -0.00712     -31.81969     -11.35406     -10.61391
     4  H(1)              -0.00711     -31.80014     -11.34708     -10.60739
     5  H(1)              -0.00712     -31.80544     -11.34897     -10.60915
     6  H(1)              -0.00711     -31.79986     -11.34698     -10.60729
     7  H(1)              -0.00712     -31.82594     -11.35629     -10.61599
     8  H(1)              -0.00712     -31.81544     -11.35254     -10.61249
 --------------------------------------------------------
       Center         ----  Spin Dipole Couplings  ----
                      3XX-RR        3YY-RR        3ZZ-RR
 --------------------------------------------------------
     1   Atom        0.528518     -0.264256     -0.264261
     2   Atom        0.528537     -0.264266     -0.264271
     3   Atom        0.004266      0.016799     -0.021065
     4   Atom        0.004291      0.016913     -0.021204
     5   Atom        0.004280      0.016932     -0.021212
     6   Atom        0.004288     -0.040157      0.035870
     7   Atom        0.004269      0.016815     -0.021084
     8   Atom        0.004284     -0.040154      0.035870
 --------------------------------------------------------
                        XY            XZ            YZ
 --------------------------------------------------------
     1   Atom        0.000725      0.000011     -0.000001
     2   Atom        0.000345     -0.000578      0.000000
     3   Atom        0.000040     -0.000040     -0.032963
     4   Atom       -0.000107     -0.000074      0.032891
     5   Atom       -0.000067     -0.000067      0.032884
     6   Atom        0.000010      0.000120      0.000087
     7   Atom        0.000058     -0.000015     -0.032952
     8   Atom        0.000026      0.000094      0.000075
 --------------------------------------------------------


 ---------------------------------------------------------------------------------
              Anisotropic Spin Dipole Couplings in Principal Axis System
 ---------------------------------------------------------------------------------

       Atom             a.u.   MegaHertz   Gauss  10(-4) cm-1        Axes

              Baa    -0.2643   -35.461   -12.653   -11.829 -0.0002  0.1720  0.9851
     1 C(13)  Bbb    -0.2643   -35.461   -12.653   -11.828 -0.0009  0.9851 -0.1720
              Bcc     0.5285    70.922    25.307    23.657  1.0000  0.0009  0.0000
 
              Baa    -0.2643   -35.463   -12.654   -11.829  0.0007 -0.0462  0.9989
     2 C(13)  Bbb    -0.2643   -35.462   -12.654   -11.829 -0.0004  0.9989  0.0462
              Bcc     0.5285    70.925    25.308    23.658  1.0000  0.0004 -0.0007
 
              Baa    -0.0401   -21.420    -7.643    -7.145  0.0003  0.5010  0.8655
     3 H(1)   Bbb     0.0043     2.276     0.812     0.759  1.0000 -0.0017  0.0006
              Bcc     0.0359    19.144     6.831     6.386  0.0017  0.8655 -0.5010
 
              Baa    -0.0402   -21.427    -7.646    -7.147  0.0002 -0.4993  0.8664
     4 H(1)   Bbb     0.0043     2.289     0.817     0.764  1.0000  0.0037  0.0018
              Bcc     0.0359    19.138     6.829     6.384 -0.0041  0.8664  0.4993
 
              Baa    -0.0402   -21.424    -7.645    -7.146  0.0005 -0.4991  0.8665
     5 H(1)   Bbb     0.0043     2.283     0.815     0.762  1.0000  0.0028  0.0010
              Bcc     0.0359    19.141     6.830     6.385 -0.0029  0.8665  0.4991
 
              Baa    -0.0402   -21.426    -7.645    -7.147 -0.0002  1.0000 -0.0011
     6 H(1)   Bbb     0.0043     2.287     0.816     0.763  1.0000  0.0002 -0.0038
              Bcc     0.0359    19.139     6.829     6.384  0.0038  0.0011  1.0000
 
              Baa    -0.0401   -21.420    -7.643    -7.145 -0.0004  0.5007  0.8656
     7 H(1)   Bbb     0.0043     2.278     0.813     0.760  1.0000 -0.0014  0.0012
              Bcc     0.0359    19.143     6.831     6.385  0.0018  0.8656 -0.5007
 
              Baa    -0.0402   -21.424    -7.645    -7.146 -0.0006  1.0000 -0.0010
     8 H(1)   Bbb     0.0043     2.285     0.815     0.762  1.0000  0.0006 -0.0030
              Bcc     0.0359    19.139     6.829     6.384  0.0030  0.0010  1.0000
 

 ---------------------------------------------------------------------------------

 No NMR shielding tensors so no spin-rotation constants.
 Leave Link  601 at Wed Nov 13 12:42:29 2024, MaxMem=  2147483648 cpu:               7.0 elap:               0.3
 (Enter /home/szhao/Apps/g16/l701.exe)
 ... and contract with generalized density number  0.
 Compute integral first derivatives.
 Leave Link  701 at Wed Nov 13 12:42:29 2024, MaxMem=  2147483648 cpu:               4.3 elap:               0.2
 (Enter /home/szhao/Apps/g16/l702.exe)
 L702 exits ... SP integral derivatives will be done elsewhere.
 Leave Link  702 at Wed Nov 13 12:42:29 2024, MaxMem=  2147483648 cpu:               1.7 elap:               0.1
 (Enter /home/szhao/Apps/g16/l703.exe)
 Integral derivatives from FoFJK, PRISM(SPDF).
 Compute integral first derivatives, UseDBF=F ICtDFT=           0.
 Calling FoFJK, ICntrl=      2127 FMM=F ISym2X=0 I1Cent= 0 IOpClX= 1 NMat=1 NMatS=1 NMatT=0.
 FoFJK:  IHMeth= 1 ICntrl=    2127 DoSepK=F KAlg= 0 I1Cent=           0 FoldK=F
 IRaf=         0 NMat=       1 IRICut=       1 DoRegI=T DoRafI=F ISym2E= 0 IDoP0=0 IntGTp=1.
 FoFCou: FMM=F IPFlag=           0 FMFlag=      100000 FMFlg1=         800
         NFxFlg=           0 DoJE=F BraDBF=F KetDBF=F FulRan=T
         wScrn=  0.000000 ICntrl=      2127 IOpCl=  1 I1Cent=           0 NGrid=           0
         NMat0=    1 NMatS0=      1 NMatT0=    0 NMatD0=    1 NMtDS0=    0 NMtDT0=    0
 Symmetry not used in FoFCou.
 Leave Link  703 at Wed Nov 13 12:42:30 2024, MaxMem=  2147483648 cpu:              28.4 elap:               1.0
 (Enter /home/szhao/Apps/g16/l716.exe)
 Dipole        = 2.42759177D-05-7.89128243D-06-2.39156160D-05
 -------------------------------------------------------------------
 Center     Atomic                   Forces (Hartrees/Bohr)
 Number     Number              X              Y              Z
 -------------------------------------------------------------------
      1        6          -0.000000000   -0.000000000   -0.000000000
      2        6          -0.000000000   -0.000000000   -0.000000000
      3        1           0.001599499   -0.000033679    0.000014458
      4        1          -0.001625362   -0.000044568   -0.000017576
      5        1           0.001610110    0.000038660    0.000017770
      6        1           0.001617133   -0.000000016   -0.000035988
      7        1          -0.001606175    0.000040947   -0.000017405
      8        1          -0.001616950   -0.000001549    0.000042119
 -------------------------------------------------------------------
 Cartesian Forces:  Max     0.001625362 RMS     0.000806551
 Leave Link  716 at Wed Nov 13 12:42:30 2024, MaxMem=  2147483648 cpu:               2.7 elap:               0.1
 (Enter /home/szhao/Apps/g16/l103.exe)

 GradGradGradGradGradGradGradGradGradGradGradGradGradGradGradGradGradGrad
 Berny optimization.
 FormGI is forming the generalized inverse of G from B-inverse, IUseBI=4.
 Internal  Forces:  Max     0.004848487 RMS     0.001827404
 Search for a local minimum.
 Step number   1 out of a maximum of   43
 All quantities printed in internal units (Hartrees-Bohrs-Radians)
 RMS Force = .15323D-02 SwitMx=.10000D-02 MixMth= 1
 Mixed Optimization -- RFO/linear search
 Second derivative matrix not updated -- first step.
 ITU=  0
     Eigenvalues ---    0.00230   0.08048   0.08049   0.08050   0.08050
     Eigenvalues ---    0.16000   0.16000   0.16000   0.16000   0.16000
     Eigenvalues ---    0.16000   0.35543   0.35543   0.35544   0.35544
     Eigenvalues ---    0.35544   0.355441000.000001000.000001000.00000
     Eigenvalues --- 1000.000001000.000001000.000001000.000001000.00000
     Eigenvalues --- 1000.000001000.000001000.000001000.000001000.00000
     Eigenvalues --- 1000.000001000.000001000.00000
 RFO step:  Lambda=-3.94943407D-04 EMin= 2.30000000D-03
 Linear search not attempted -- first point.
 Iteration  1 RMS(Cart)=  0.01731495 RMS(Int)=  0.00032970
 Iteration  2 RMS(Cart)=  0.00017065 RMS(Int)=  0.00028213
 Iteration  3 RMS(Cart)=  0.00000001 RMS(Int)=  0.00028213
 ITry= 1 IFail=0 DXMaxC= 4.09D-02 DCOld= 1.00D+10 DXMaxT= 3.00D-01 DXLimC= 3.00D+00 Rises=F
 Variable       Old X    -DE/DX   Delta X   Delta X   Delta X     New X
                                 (Linear)    (Quad)   (Total)
    X1       -2.45338  -0.00485   0.00000   0.00000   0.00000  -2.45338
    Y1        0.00000   0.00001   0.00000   0.00000   0.00000   0.00000
    Z1        0.00000   0.00000   0.00000   0.00000   0.00000   0.00000
    X2        2.45338   0.00483   0.00000   0.00000   0.00000   2.45338
    Y2        0.00000  -0.00001   0.00000   0.00000   0.00000   0.00000
    Z2        0.00000   0.00000   0.00000   0.00000   0.00000   0.00000
    R1        2.04800   0.00013   0.00000   0.00035   0.00035   2.04835
    R2        2.04801   0.00012   0.00000   0.00035   0.00035   2.04836
    R3        2.04801   0.00012   0.00000   0.00034   0.00034   2.04835
    R4        2.04803   0.00012   0.00000   0.00033   0.00033   2.04835
    R5        2.04801   0.00012   0.00000   0.00034   0.00034   2.04836
    R6        2.04803   0.00011   0.00000   0.00032   0.00032   2.04835
    A1        1.61916   0.00323   0.00000   0.02013   0.01998   1.63914
    A2        1.62036   0.00319   0.00000   0.01989   0.01973   1.64010
    A3        1.61981   0.00321   0.00000   0.02002   0.01987   1.63968
    A4        2.09020  -0.00054   0.00000  -0.00333  -0.00398   2.08622
    A5        2.09028  -0.00054   0.00000  -0.00342  -0.00407   2.08621
    A6        2.09027  -0.00054   0.00000  -0.00340  -0.00404   2.08622
    A7        1.62042   0.00318   0.00000   0.01981   0.01965   1.64007
    A8        1.61990   0.00320   0.00000   0.01994   0.01979   1.63969
    A9        1.61928   0.00321   0.00000   0.02003   0.01988   1.63916
   A10        2.09021  -0.00054   0.00000  -0.00334  -0.00398   2.08624
   A11        2.09025  -0.00054   0.00000  -0.00339  -0.00403   2.08622
   A12        2.09023  -0.00054   0.00000  -0.00339  -0.00403   2.08620
    D1       -1.04741   0.00000   0.00000   0.00007   0.00007  -1.04734
    D2        3.14135   0.00000   0.00000   0.00003   0.00003   3.14138
    D3        1.04700   0.00000   0.00000   0.00005   0.00005   1.04705
    D4        3.14143   0.00000   0.00000   0.00002   0.00002   3.14146
    D5        1.04701  -0.00000   0.00000  -0.00002  -0.00002   1.04699
    D6       -1.04734  -0.00000   0.00000   0.00000   0.00000  -1.04734
    D7        1.04697   0.00000   0.00000   0.00003   0.00003   1.04700
    D8       -1.04746  -0.00000   0.00000  -0.00002  -0.00001  -1.04747
    D9        3.14138  -0.00000   0.00000   0.00001   0.00001   3.14139
         Item               Value     Threshold  Converged?
 Maximum Force            0.003229     0.000450     NO 
 RMS     Force            0.001532     0.000300     NO 
 Maximum Displacement     0.040866     0.001800     NO 
 RMS     Displacement     0.017306     0.001200     NO 
 Predicted change in Energy=-1.977468D-04
 Lowest energy point so far.  Saving SCF results.
 GradGradGradGradGradGradGradGradGradGradGradGradGradGradGradGradGradGrad

 Leave Link  103 at Wed Nov 13 12:42:30 2024, MaxMem=  2147483648 cpu:               2.3 elap:               0.1
 (Enter /home/szhao/Apps/g16/l202.exe)
                          Input orientation:                          
 ---------------------------------------------------------------------
 Center     Atomic      Atomic             Coordinates (Angstroms)
 Number     Number       Type             X           Y           Z
 ---------------------------------------------------------------------
      1          6           0       -1.298272    0.000000    0.000000
      2          6           0        1.298272    0.000000    0.000000
      3          1           0        1.373301   -0.935902    0.541654
      4          1           0       -1.372292   -0.937021   -0.539855
      5          1           0        1.372887    0.937103    0.539632
      6          1           0        1.372312   -0.001139   -1.081407
      7          1           0       -1.373331    0.935975   -0.541525
      8          1           0       -1.372878    0.000916    1.081369
 ---------------------------------------------------------------------
                    Distance matrix (angstroms):
                    1          2          3          4          5
     1  C    0.000000
     2  C    2.596543   0.000000
     3  H    2.882117   1.083942   0.000000
     4  H    1.083943   2.881208   2.950922   0.000000
     5  H    2.881744   1.083943   1.873007   3.494802   0.000000
     6  H    2.881226   1.083939   1.872994   2.949916   1.872983
     7  H    1.083943   2.882145   3.495882   1.872998   2.951375
     8  H    1.083940   2.881735   2.951342   1.872990   2.951127
                    6          7          8
     6  H    0.000000
     7  H    2.950968   0.000000
     8  H    3.494807   1.872998   0.000000
 Symmetry turned off by external request.
 Stoichiometry    C2H6(1+,2)
 Framework group  C1[X(C2H6)]
 Deg. of freedom    18
 Full point group                 C1      NOp   1
 Rotational constants (GHZ):          71.4708448           9.1249575           9.1249465
 Leave Link  202 at Wed Nov 13 12:42:30 2024, MaxMem=  2147483648 cpu:               2.5 elap:               0.1
 (Enter /home/szhao/Apps/g16/l301.exe)
 Standard basis: 6-311+G(d,p) (5D, 7F)
 Ernie: Thresh=  0.10000D-02 Tol=  0.10000D-05 Strict=F.
    80 basis functions,   120 primitive gaussians,    82 cartesian basis functions
     9 alpha electrons        8 beta electrons
       nuclear repulsion energy        34.7480804597 Hartrees.
 IExCor= 4336 DFT=T Ex+Corr=M062X ExCW=0 ScaHFX=  0.540000
 ScaDFX=  1.000000  1.000000  1.000000  1.000000 ScalE2=  1.000000  1.000000
 IRadAn=      7 IRanWt=     -1 IRanGd=            0 ICorTp=0 IEmpDi=  4
 NAtoms=    8 NActive=    8 NUniq=    8 SFac= 1.00D+00 NAtFMM=   60 NAOKFM=F Big=F
 Integral buffers will be    131072 words long.
 Raffenetti 2 integral format.
 Two-electron integral symmetry is turned off.
 Leave Link  301 at Wed Nov 13 12:42:30 2024, MaxMem=  2147483648 cpu:               2.9 elap:               0.1
 (Enter /home/szhao/Apps/g16/l302.exe)
 NPDir=0 NMtPBC=     1 NCelOv=     1 NCel=       1 NClECP=     1 NCelD=      1
         NCelK=      1 NCelE2=     1 NClLst=     1 CellRange=     0.0.
 One-electron integrals computed using PRISM.
 NBasis=    80 RedAO= T EigKep=  1.73D-03  NBF=    80
 NBsUse=    80 1.00D-06 EigRej= -1.00D+00 NBFU=    80
 Precomputing XC quadrature grid using
 IXCGrd= 4 IRadAn=           7 IRanWt=          -1 IRanGd=           0 AccXCQ= 0.00D+00.
 Generated NRdTot=       0 NPtTot=           0 NUsed=           0 NTot=          32
 NSgBfM=    82    82    82    82    82 MxSgAt=     8 MxSgA2=     8.
 Leave Link  302 at Wed Nov 13 12:42:31 2024, MaxMem=  2147483648 cpu:               6.4 elap:               0.2
 (Enter /home/szhao/Apps/g16/l303.exe)
 DipDrv:  MaxL=1.
 Leave Link  303 at Wed Nov 13 12:42:31 2024, MaxMem=  2147483648 cpu:               4.3 elap:               0.2
 (Enter /home/szhao/Apps/g16/l401.exe)
 Initial guess from the checkpoint file:  "opt.chk"
 B after Tr=    -0.000030   -0.000002   -0.000000
         Rot=    1.000000    0.000000    0.000001    0.000005 Ang=   0.00 deg.
 Guess basis will be translated and rotated to current coordinates.
 JPrj=2 DoOrth=T DoCkMO=T.
 Initial guess <Sx>= 0.0000 <Sy>= 0.0000 <Sz>= 0.5000 <S**2>= 0.7535 S= 0.5017
 Generating alternative initial guess.
 ExpMin= 4.38D-02 ExpMax= 4.56D+03 ExpMxC= 6.82D+02 IAcc=3 IRadAn=         5 AccDes= 0.00D+00
 Harris functional with IExCor= 1009 and IRadAn=       5 diagonalized for initial guess.
 HarFok:  IExCor= 1009 AccDes= 0.00D+00 IRadAn=         5 IDoV= 1 UseB2=F ITyADJ=14
 ICtDFT=  3500011 ScaDFX=  1.000000  1.000000  1.000000  1.000000
 FoFCou: FMM=F IPFlag=           0 FMFlag=      100000 FMFlg1=           0
         NFxFlg=           0 DoJE=T BraDBF=F KetDBF=T FulRan=T
         wScrn=  0.000000 ICntrl=       500 IOpCl=  0 I1Cent=   200000004 NGrid=           0
         NMat0=    1 NMatS0=      1 NMatT0=    0 NMatD0=    1 NMtDS0=    0 NMtDT0=    0
 Symmetry not used in FoFCou.
 Harris En= -79.3717636593507    
 Leave Link  401 at Wed Nov 13 12:42:31 2024, MaxMem=  2147483648 cpu:               7.9 elap:               0.3
 (Enter /home/szhao/Apps/g16/l502.exe)
 Keep R1 and R2 ints in memory in canonical form, NReq=35964362.
 FoFCou: FMM=F IPFlag=           0 FMFlag=           0 FMFlg1=           0
         NFxFlg=           0 DoJE=F BraDBF=F KetDBF=F FulRan=T
         wScrn=  0.000000 ICntrl=       600 IOpCl=  0 I1Cent=           0 NGrid=           0
         NMat0=    1 NMatS0=   3240 NMatT0=    0 NMatD0=    1 NMtDS0=    0 NMtDT0=    0
 Symmetry not used in FoFCou.
 Two-electron integral symmetry not used.
 UHF open shell SCF:
 Using DIIS extrapolation, IDIIS=  1040.
 NGot=  2147483648 LenX=  2136966234 LenY=  2136959069
 Requested convergence on RMS density matrix=1.00D-08 within 128 cycles.
 Requested convergence on MAX density matrix=1.00D-06.
 Requested convergence on             energy=1.00D-06.
 No special actions if energy rises.

 Cycle   1  Pass 1  IDiag  1:
 E= -79.3536332724559    
 DIIS: error= 2.43D-03 at cycle   1 NSaved=   1.
 NSaved= 1 IEnMin= 1 EnMin= -79.3536332724559     IErMin= 1 ErrMin= 2.43D-03
 ErrMax= 2.43D-03  0.00D+00 EMaxC= 1.00D-01 BMatC= 3.21D-04 BMatP= 3.21D-04
 IDIUse=3 WtCom= 9.76D-01 WtEn= 2.43D-02
 Coeff-Com:  0.100D+01
 Coeff-En:   0.100D+01
 Coeff:      0.100D+01
 Gap=     0.535 Goal=   None    Shift=    0.000
 Gap=     0.681 Goal=   None    Shift=    0.000
 GapD=    0.535 DampG=2.000 DampE=1.000 DampFc=2.0000 IDamp=-1.
 RMSDP=8.88D-05 MaxDP=1.42D-03              OVMax= 5.60D-03

 Cycle   2  Pass 1  IDiag  1:
 E= -79.3537523748898     Delta-E=       -0.000119102434 Rises=F Damp=F
 DIIS: error= 7.61D-04 at cycle   2 NSaved=   2.
 NSaved= 2 IEnMin= 2 EnMin= -79.3537523748898     IErMin= 2 ErrMin= 7.61D-04
 ErrMax= 7.61D-04  0.00D+00 EMaxC= 1.00D-01 BMatC= 2.59D-05 BMatP= 3.21D-04
 IDIUse=3 WtCom= 9.92D-01 WtEn= 7.61D-03
 Coeff-Com:  0.498D-01 0.950D+00
 Coeff-En:   0.000D+00 0.100D+01
 Coeff:      0.494D-01 0.951D+00
 Gap=     0.238 Goal=   None    Shift=    0.000
 Gap=     0.397 Goal=   None    Shift=    0.000
 RMSDP=4.41D-05 MaxDP=9.35D-04 DE=-1.19D-04 OVMax= 2.73D-03

 Cycle   3  Pass 1  IDiag  1:
 E= -79.3537626781913     Delta-E=       -0.000010303302 Rises=F Damp=F
 DIIS: error= 2.68D-04 at cycle   3 NSaved=   3.
 NSaved= 3 IEnMin= 3 EnMin= -79.3537626781913     IErMin= 3 ErrMin= 2.68D-04
 ErrMax= 2.68D-04  0.00D+00 EMaxC= 1.00D-01 BMatC= 2.71D-06 BMatP= 2.59D-05
 IDIUse=3 WtCom= 9.97D-01 WtEn= 2.68D-03
 Coeff-Com: -0.551D-01 0.809D-01 0.974D+00
 Coeff-En:   0.000D+00 0.000D+00 0.100D+01
 Coeff:     -0.550D-01 0.807D-01 0.974D+00
 Gap=     0.238 Goal=   None    Shift=    0.000
 Gap=     0.397 Goal=   None    Shift=    0.000
 RMSDP=1.32D-05 MaxDP=2.55D-04 DE=-1.03D-05 OVMax= 9.79D-04

 Cycle   4  Pass 1  IDiag  1:
 E= -79.3537645424436     Delta-E=       -0.000001864252 Rises=F Damp=F
 DIIS: error= 7.07D-05 at cycle   4 NSaved=   4.
 NSaved= 4 IEnMin= 4 EnMin= -79.3537645424436     IErMin= 4 ErrMin= 7.07D-05
 ErrMax= 7.07D-05  0.00D+00 EMaxC= 1.00D-01 BMatC= 3.05D-07 BMatP= 2.71D-06
 IDIUse=1 WtCom= 1.00D+00 WtEn= 0.00D+00
 Coeff-Com:  0.171D-01-0.114D+00-0.313D+00 0.141D+01
 Coeff:      0.171D-01-0.114D+00-0.313D+00 0.141D+01
 Gap=     0.238 Goal=   None    Shift=    0.000
 Gap=     0.397 Goal=   None    Shift=    0.000
 RMSDP=7.83D-06 MaxDP=1.58D-04 DE=-1.86D-06 OVMax= 4.61D-04

 Cycle   5  Pass 1  IDiag  1:
 E= -79.3537648261724     Delta-E=       -0.000000283729 Rises=F Damp=F
 DIIS: error= 1.39D-05 at cycle   5 NSaved=   5.
 NSaved= 5 IEnMin= 5 EnMin= -79.3537648261724     IErMin= 5 ErrMin= 1.39D-05
 ErrMax= 1.39D-05  0.00D+00 EMaxC= 1.00D-01 BMatC= 2.05D-08 BMatP= 3.05D-07
 IDIUse=1 WtCom= 1.00D+00 WtEn= 0.00D+00
 Coeff-Com:  0.708D-02-0.338D-01-0.127D+00 0.368D+00 0.786D+00
 Coeff:      0.708D-02-0.338D-01-0.127D+00 0.368D+00 0.786D+00
 Gap=     0.238 Goal=   None    Shift=    0.000
 Gap=     0.397 Goal=   None    Shift=    0.000
 RMSDP=7.79D-07 MaxDP=1.86D-05 DE=-2.84D-07 OVMax= 5.34D-05

 Cycle   6  Pass 1  IDiag  1:
 E= -79.3537648345410     Delta-E=       -0.000000008369 Rises=F Damp=F
 DIIS: error= 3.64D-06 at cycle   6 NSaved=   6.
 NSaved= 6 IEnMin= 6 EnMin= -79.3537648345410     IErMin= 6 ErrMin= 3.64D-06
 ErrMax= 3.64D-06  0.00D+00 EMaxC= 1.00D-01 BMatC= 1.31D-09 BMatP= 2.05D-08
 IDIUse=1 WtCom= 1.00D+00 WtEn= 0.00D+00
 Coeff-Com: -0.178D-02 0.134D-01 0.327D-01-0.165D+00 0.550D-01 0.107D+01
 Coeff:     -0.178D-02 0.134D-01 0.327D-01-0.165D+00 0.550D-01 0.107D+01
 Gap=     0.238 Goal=   None    Shift=    0.000
 Gap=     0.397 Goal=   None    Shift=    0.000
 RMSDP=3.17D-07 MaxDP=5.83D-06 DE=-8.37D-09 OVMax= 2.18D-05

 Cycle   7  Pass 1  IDiag  1:
 E= -79.3537648352321     Delta-E=       -0.000000000691 Rises=F Damp=F
 DIIS: error= 2.00D-07 at cycle   7 NSaved=   7.
 NSaved= 7 IEnMin= 7 EnMin= -79.3537648352321     IErMin= 7 ErrMin= 2.00D-07
 ErrMax= 2.00D-07  0.00D+00 EMaxC= 1.00D-01 BMatC= 7.97D-12 BMatP= 1.31D-09
 IDIUse=1 WtCom= 1.00D+00 WtEn= 0.00D+00
 Coeff-Com: -0.101D-03 0.606D-03 0.212D-02-0.743D-02-0.382D-02 0.222D-01
 Coeff-Com:  0.986D+00
 Coeff:     -0.101D-03 0.606D-03 0.212D-02-0.743D-02-0.382D-02 0.222D-01
 Coeff:      0.986D+00
 Gap=     0.238 Goal=   None    Shift=    0.000
 Gap=     0.397 Goal=   None    Shift=    0.000
 RMSDP=3.69D-08 MaxDP=7.05D-07 DE=-6.91D-10 OVMax= 2.80D-06

 Cycle   8  Pass 1  IDiag  1:
 E= -79.3537648352339     Delta-E=       -0.000000000002 Rises=F Damp=F
 DIIS: error= 2.13D-07 at cycle   8 NSaved=   8.
 NSaved= 8 IEnMin= 8 EnMin= -79.3537648352339     IErMin= 7 ErrMin= 2.00D-07
 ErrMax= 2.13D-07  0.00D+00 EMaxC= 1.00D-01 BMatC= 7.12D-12 BMatP= 7.97D-12
 IDIUse=1 WtCom= 1.00D+00 WtEn= 0.00D+00
 Coeff-Com:  0.788D-04-0.674D-03-0.130D-02 0.835D-02-0.601D-02-0.678D-01
 Coeff-Com:  0.529D+00 0.538D+00
 Coeff:      0.788D-04-0.674D-03-0.130D-02 0.835D-02-0.601D-02-0.678D-01
 Coeff:      0.529D+00 0.538D+00
 Gap=     0.238 Goal=   None    Shift=    0.000
 Gap=     0.397 Goal=   None    Shift=    0.000
 RMSDP=1.20D-08 MaxDP=3.21D-07 DE=-1.76D-12 OVMax= 1.30D-06

 Cycle   9  Pass 1  IDiag  1:
 E= -79.3537648352362     Delta-E=       -0.000000000002 Rises=F Damp=F
 DIIS: error= 1.79D-08 at cycle   9 NSaved=   9.
 NSaved= 9 IEnMin= 9 EnMin= -79.3537648352362     IErMin= 9 ErrMin= 1.79D-08
 ErrMax= 1.79D-08  0.00D+00 EMaxC= 1.00D-01 BMatC= 2.83D-14 BMatP= 7.12D-12
 IDIUse=1 WtCom= 1.00D+00 WtEn= 0.00D+00
 Coeff-Com: -0.638D-05 0.663D-04 0.779D-04-0.802D-03 0.103D-02 0.861D-02
 Coeff-Com: -0.119D+00-0.765D-01 0.119D+01
 Coeff:     -0.638D-05 0.663D-04 0.779D-04-0.802D-03 0.103D-02 0.861D-02
 Coeff:     -0.119D+00-0.765D-01 0.119D+01
 Gap=     0.238 Goal=   None    Shift=    0.000
 Gap=     0.397 Goal=   None    Shift=    0.000
 RMSDP=2.11D-09 MaxDP=2.71D-08 DE=-2.30D-12 OVMax= 1.69D-07

 SCF Done:  E(UM062X) =  -79.3537648352     A.U. after    9 cycles
            NFock=  9  Conv=0.21D-08     -V/T= 2.0056
 <Sx>= 0.0000 <Sy>= 0.0000 <Sz>= 0.5000 <S**2>= 0.7533 S= 0.5016
 <L.S>=  0.00000000000    
 KE= 7.890973653287D+01 PE=-2.480586055304D+02 EE= 5.504702370255D+01
 Annihilation of the first spin contaminant:
 S**2 before annihilation     0.7533,   after     0.7500
 Leave Link  502 at Wed Nov 13 12:42:36 2024, MaxMem=  2147483648 cpu:             128.8 elap:               4.8
 (Enter /home/szhao/Apps/g16/l701.exe)
 ... and contract with generalized density number  0.
 Compute integral first derivatives.
 Leave Link  701 at Wed Nov 13 12:42:36 2024, MaxMem=  2147483648 cpu:               3.9 elap:               0.1
 (Enter /home/szhao/Apps/g16/l702.exe)
 L702 exits ... SP integral derivatives will be done elsewhere.
 Leave Link  702 at Wed Nov 13 12:42:36 2024, MaxMem=  2147483648 cpu:               2.1 elap:               0.1
 (Enter /home/szhao/Apps/g16/l703.exe)
 Integral derivatives from FoFJK, PRISM(SPDF).
 Compute integral first derivatives, UseDBF=F ICtDFT=           0.
 Calling FoFJK, ICntrl=      2127 FMM=F ISym2X=0 I1Cent= 0 IOpClX= 1 NMat=1 NMatS=1 NMatT=0.
 FoFJK:  IHMeth= 1 ICntrl=    2127 DoSepK=F KAlg= 0 I1Cent=           0 FoldK=F
 IRaf=         0 NMat=       1 IRICut=       1 DoRegI=T DoRafI=F ISym2E= 0 IDoP0=0 IntGTp=1.
 FoFCou: FMM=F IPFlag=           0 FMFlag=      100000 FMFlg1=         800
         NFxFlg=           0 DoJE=F BraDBF=F KetDBF=F FulRan=T
         wScrn=  0.000000 ICntrl=      2127 IOpCl=  1 I1Cent=           0 NGrid=           0
         NMat0=    1 NMatS0=      1 NMatT0=    0 NMatD0=    1 NMtDS0=    0 NMtDT0=    0
 Symmetry not used in FoFCou.
 Leave Link  703 at Wed Nov 13 12:42:37 2024, MaxMem=  2147483648 cpu:              24.3 elap:               0.9
 (Enter /home/szhao/Apps/g16/l716.exe)
 Dipole        =-3.17998754D-07-1.33485378D-05-2.65521279D-05
 -------------------------------------------------------------------
 Center     Atomic                   Forces (Hartrees/Bohr)
 Number     Number              X              Y              Z
 -------------------------------------------------------------------
      1        6          -0.000000000   -0.000000000   -0.000000000
      2        6          -0.000000000   -0.000000000   -0.000000000
      3        1          -0.000082026   -0.000082126    0.000046115
      4        1           0.000067695   -0.000081604   -0.000044539
      5        1          -0.000074205    0.000081036    0.000046318
      6        1          -0.000065573   -0.000000611   -0.000095057
      7        1           0.000082496    0.000082552   -0.000044583
      8        1           0.000071744    0.000000679    0.000095441
 -------------------------------------------------------------------
 Cartesian Forces:  Max     0.000095441 RMS     0.000059946
 Leave Link  716 at Wed Nov 13 12:42:37 2024, MaxMem=  2147483648 cpu:               2.0 elap:               0.1
 (Enter /home/szhao/Apps/g16/l103.exe)

 GradGradGradGradGradGradGradGradGradGradGradGradGradGradGradGradGradGrad
 Berny optimization.
 Using GEDIIS/GDIIS optimizer.
 FormGI is forming the generalized inverse of G from B-inverse, IUseBI=4.
 Internal  Forces:  Max     0.000221935 RMS     0.000095443
 Search for a local minimum.
 Step number   2 out of a maximum of   43
 All quantities printed in internal units (Hartrees-Bohrs-Radians)
 RMS Force = .86484D-04 SwitMx=.10000D-02 MixMth= 2
 Mixed Optimization -- En-DIIS/RFO-DIIS
 Update second derivatives using D2CorX and points    1    2
 DE= -1.87D-04 DEPred=-1.98D-04 R= 9.46D-01
 TightC=F SS=  1.41D+00  RLast= 4.95D-02 DXNew= 5.0454D-01 1.4861D-01
 Trust test= 9.46D-01 RLast= 4.95D-02 DXMaxT set to 3.00D-01
 ITU=  1  0
 Use linear search instead of GDIIS.
     Eigenvalues ---    0.00230   0.07985   0.07985   0.07987   0.07987
     Eigenvalues ---    0.15994   0.16000   0.16000   0.16000   0.16000
     Eigenvalues ---    0.16817   0.35533   0.35543   0.35543   0.35544
     Eigenvalues ---    0.35544   0.355441000.000001000.000001000.00000
     Eigenvalues --- 1000.000001000.000001000.000001000.000001000.00000
     Eigenvalues --- 1000.000001000.000001000.000001000.000001000.00000
     Eigenvalues --- 1000.000001000.000001000.00000
 RFO step:  Lambda=-1.44630403D-07 EMin= 2.29999992D-03
 Quartic linear search produced a step of -0.04678.
 Iteration  1 RMS(Cart)=  0.00081656 RMS(Int)=  0.00001235
 Iteration  2 RMS(Cart)=  0.00000059 RMS(Int)=  0.00001234
 ITry= 1 IFail=0 DXMaxC= 2.08D-03 DCOld= 1.00D+10 DXMaxT= 3.00D-01 DXLimC= 3.00D+00 Rises=F
 Variable       Old X    -DE/DX   Delta X   Delta X   Delta X     New X
                                 (Linear)    (Quad)   (Total)
    X1       -2.45338   0.00022   0.00000   0.00000   0.00000  -2.45338
    Y1        0.00000   0.00001   0.00000   0.00000   0.00000   0.00000
    Z1        0.00000  -0.00000   0.00000   0.00000   0.00000   0.00000
    X2        2.45338  -0.00022   0.00000   0.00000   0.00000   2.45338
    Y2        0.00000  -0.00001   0.00000   0.00000   0.00000   0.00000
    Z2        0.00000   0.00000   0.00000   0.00000   0.00000   0.00000
    R1        2.04835   0.00009  -0.00002   0.00025   0.00024   2.04859
    R2        2.04836   0.00009  -0.00002   0.00025   0.00024   2.04859
    R3        2.04835   0.00009  -0.00002   0.00026   0.00024   2.04859
    R4        2.04835   0.00009  -0.00002   0.00025   0.00024   2.04859
    R5        2.04836   0.00009  -0.00002   0.00025   0.00024   2.04859
    R6        2.04835   0.00009  -0.00002   0.00026   0.00024   2.04859
    A1        1.63914  -0.00014  -0.00093   0.00008  -0.00085   1.63829
    A2        1.64010  -0.00017  -0.00092  -0.00011  -0.00103   1.63907
    A3        1.63968  -0.00015  -0.00093   0.00002  -0.00090   1.63878
    A4        2.08622   0.00004   0.00019   0.00002   0.00024   2.08646
    A5        2.08621   0.00004   0.00019  -0.00001   0.00021   2.08642
    A6        2.08622   0.00004   0.00019  -0.00001   0.00020   2.08643
    A7        1.64007  -0.00017  -0.00092  -0.00011  -0.00102   1.63905
    A8        1.63969  -0.00016  -0.00093  -0.00001  -0.00093   1.63876
    A9        1.63916  -0.00014  -0.00093   0.00010  -0.00082   1.63833
   A10        2.08624   0.00004   0.00019   0.00001   0.00022   2.08646
   A11        2.08622   0.00004   0.00019  -0.00001   0.00021   2.08643
   A12        2.08620   0.00004   0.00019   0.00000   0.00022   2.08642
    D1       -1.04734   0.00000  -0.00000   0.00003   0.00002  -1.04732
    D2        3.14138   0.00000  -0.00000   0.00003   0.00003   3.14141
    D3        1.04705  -0.00000  -0.00000   0.00002   0.00002   1.04707
    D4        3.14146  -0.00000  -0.00000   0.00001   0.00001   3.14146
    D5        1.04699  -0.00000   0.00000   0.00001   0.00001   1.04700
    D6       -1.04734  -0.00000  -0.00000  -0.00000  -0.00000  -1.04734
    D7        1.04700   0.00000  -0.00000   0.00003   0.00003   1.04702
    D8       -1.04747   0.00000   0.00000   0.00004   0.00004  -1.04744
    D9        3.14139   0.00000  -0.00000   0.00002   0.00002   3.14141
         Item               Value     Threshold  Converged?
 Maximum Force            0.000173     0.000450     YES
 RMS     Force            0.000086     0.000300     YES
 Maximum Displacement     0.002085     0.001800     NO 
 RMS     Displacement     0.000817     0.001200     YES
 Predicted change in Energy=-5.199509D-07
 Lowest energy point so far.  Saving SCF results.
 GradGradGradGradGradGradGradGradGradGradGradGradGradGradGradGradGradGrad

 Leave Link  103 at Wed Nov 13 12:42:37 2024, MaxMem=  2147483648 cpu:               2.3 elap:               0.1
 (Enter /home/szhao/Apps/g16/l202.exe)
                          Input orientation:                          
 ---------------------------------------------------------------------
 Center     Atomic      Atomic             Coordinates (Angstroms)
 Number     Number       Type             X           Y           Z
 ---------------------------------------------------------------------
      1          6           0       -1.298272    0.000000    0.000000
      2          6           0        1.298272    0.000000    0.000000
      3          1           0        1.372202   -0.936082    0.541745
      4          1           0       -1.371386   -0.937190   -0.539936
      5          1           0        1.371894    0.937262    0.539744
      6          1           0        1.371430   -0.001136   -1.081595
      7          1           0       -1.372228    0.936152   -0.541622
      8          1           0       -1.371912    0.000937    1.081563
 ---------------------------------------------------------------------
                    Distance matrix (angstroms):
                    1          2          3          4          5
     1  C    0.000000
     2  C    2.596543   0.000000
     3  H    2.881175   1.084068   0.000000
     4  H    1.084068   2.880439   2.949121   0.000000
     5  H    2.880897   1.084068   1.873345   3.493546   0.000000
     6  H    2.880479   1.084067   1.873328   2.948328   1.873321
     7  H    1.084068   2.881198   3.494401   1.873343   2.949501
     8  H    1.084068   2.880913   2.949504   1.873324   2.949363
                    6          7          8
     6  H    0.000000
     7  H    2.949193   0.000000
     8  H    3.493593   1.873327   0.000000
 Symmetry turned off by external request.
 Stoichiometry    C2H6(1+,2)
 Framework group  C1[X(C2H6)]
 Deg. of freedom    18
 Full point group                 C1      NOp   1
 Rotational constants (GHZ):          71.4451694           9.1274619           9.1274462
 Leave Link  202 at Wed Nov 13 12:42:38 2024, MaxMem=  2147483648 cpu:               2.1 elap:               0.1
 (Enter /home/szhao/Apps/g16/l301.exe)
 Standard basis: 6-311+G(d,p) (5D, 7F)
 Ernie: Thresh=  0.10000D-02 Tol=  0.10000D-05 Strict=F.
    80 basis functions,   120 primitive gaussians,    82 cartesian basis functions
     9 alpha electrons        8 beta electrons
       nuclear repulsion energy        34.7484912507 Hartrees.
 IExCor= 4336 DFT=T Ex+Corr=M062X ExCW=0 ScaHFX=  0.540000
 ScaDFX=  1.000000  1.000000  1.000000  1.000000 ScalE2=  1.000000  1.000000
 IRadAn=      7 IRanWt=     -1 IRanGd=            0 ICorTp=0 IEmpDi=  4
 NAtoms=    8 NActive=    8 NUniq=    8 SFac= 1.00D+00 NAtFMM=   60 NAOKFM=F Big=F
 Integral buffers will be    131072 words long.
 Raffenetti 2 integral format.
 Two-electron integral symmetry is turned off.
 Leave Link  301 at Wed Nov 13 12:42:38 2024, MaxMem=  2147483648 cpu:               2.9 elap:               0.1
 (Enter /home/szhao/Apps/g16/l302.exe)
 NPDir=0 NMtPBC=     1 NCelOv=     1 NCel=       1 NClECP=     1 NCelD=      1
         NCelK=      1 NCelE2=     1 NClLst=     1 CellRange=     0.0.
 One-electron integrals computed using PRISM.
 NBasis=    80 RedAO= T EigKep=  1.73D-03  NBF=    80
 NBsUse=    80 1.00D-06 EigRej= -1.00D+00 NBFU=    80
 Precomputing XC quadrature grid using
 IXCGrd= 4 IRadAn=           7 IRanWt=          -1 IRanGd=           0 AccXCQ= 0.00D+00.
 Generated NRdTot=       0 NPtTot=           0 NUsed=           0 NTot=          32
 NSgBfM=    82    82    82    82    82 MxSgAt=     8 MxSgA2=     8.
 Leave Link  302 at Wed Nov 13 12:42:38 2024, MaxMem=  2147483648 cpu:               5.2 elap:               0.2
 (Enter /home/szhao/Apps/g16/l303.exe)
 DipDrv:  MaxL=1.
 Leave Link  303 at Wed Nov 13 12:42:38 2024, MaxMem=  2147483648 cpu:               2.3 elap:               0.1
 (Enter /home/szhao/Apps/g16/l401.exe)
 Initial guess from the checkpoint file:  "opt.chk"
 B after Tr=     0.000000    0.000001    0.000003
         Rot=    1.000000   -0.000000    0.000003    0.000005 Ang=  -0.00 deg.
 Guess basis will be translated and rotated to current coordinates.
 JPrj=2 DoOrth=T DoCkMO=T.
 Initial guess <Sx>= 0.0000 <Sy>= 0.0000 <Sz>= 0.5000 <S**2>= 0.7533 S= 0.5016
 Leave Link  401 at Wed Nov 13 12:42:38 2024, MaxMem=  2147483648 cpu:               6.5 elap:               0.2
 (Enter /home/szhao/Apps/g16/l502.exe)
 Keep R1 and R2 ints in memory in canonical form, NReq=35964362.
 FoFCou: FMM=F IPFlag=           0 FMFlag=           0 FMFlg1=           0
         NFxFlg=           0 DoJE=F BraDBF=F KetDBF=F FulRan=T
         wScrn=  0.000000 ICntrl=       600 IOpCl=  0 I1Cent=           0 NGrid=           0
         NMat0=    1 NMatS0=   3240 NMatT0=    0 NMatD0=    1 NMtDS0=    0 NMtDT0=    0
 Symmetry not used in FoFCou.
 Two-electron integral symmetry not used.
 UHF open shell SCF:
 Using DIIS extrapolation, IDIIS=  1040.
 NGot=  2147483648 LenX=  2136966234 LenY=  2136959069
 Requested convergence on RMS density matrix=1.00D-08 within 128 cycles.
 Requested convergence on MAX density matrix=1.00D-06.
 Requested convergence on             energy=1.00D-06.
 No special actions if energy rises.

 Cycle   1  Pass 1  IDiag  1:
 E= -79.3537650493012    
 DIIS: error= 1.16D-04 at cycle   1 NSaved=   1.
 NSaved= 1 IEnMin= 1 EnMin= -79.3537650493012     IErMin= 1 ErrMin= 1.16D-04
 ErrMax= 1.16D-04  0.00D+00 EMaxC= 1.00D-01 BMatC= 7.69D-07 BMatP= 7.69D-07
 IDIUse=3 WtCom= 9.99D-01 WtEn= 1.16D-03
 Coeff-Com:  0.100D+01
 Coeff-En:   0.100D+01
 Coeff:      0.100D+01
 Gap=     0.534 Goal=   None    Shift=    0.000
 Gap=     0.678 Goal=   None    Shift=    0.000
 RMSDP=4.42D-06 MaxDP=6.59D-05              OVMax= 2.68D-04

 Cycle   2  Pass 1  IDiag  1:
 E= -79.3537653270323     Delta-E=       -0.000000277731 Rises=F Damp=F
 DIIS: error= 3.64D-05 at cycle   2 NSaved=   2.
 NSaved= 2 IEnMin= 2 EnMin= -79.3537653270323     IErMin= 2 ErrMin= 3.64D-05
 ErrMax= 3.64D-05  0.00D+00 EMaxC= 1.00D-01 BMatC= 6.49D-08 BMatP= 7.69D-07
 IDIUse=1 WtCom= 1.00D+00 WtEn= 0.00D+00
 Coeff-Com:  0.669D-01 0.933D+00
 Coeff:      0.669D-01 0.933D+00
 Gap=     0.238 Goal=   None    Shift=    0.000
 Gap=     0.397 Goal=   None    Shift=    0.000
 RMSDP=2.15D-06 MaxDP=4.32D-05 DE=-2.78D-07 OVMax= 1.27D-04

 Cycle   3  Pass 1  IDiag  1:
 E= -79.3537653517473     Delta-E=       -0.000000024715 Rises=F Damp=F
 DIIS: error= 1.25D-05 at cycle   3 NSaved=   3.
 NSaved= 3 IEnMin= 3 EnMin= -79.3537653517473     IErMin= 3 ErrMin= 1.25D-05
 ErrMax= 1.25D-05  0.00D+00 EMaxC= 1.00D-01 BMatC= 7.51D-09 BMatP= 6.49D-08
 IDIUse=1 WtCom= 1.00D+00 WtEn= 0.00D+00
 Coeff-Com: -0.533D-01 0.101D+00 0.952D+00
 Coeff:     -0.533D-01 0.101D+00 0.952D+00
 Gap=     0.238 Goal=   None    Shift=    0.000
 Gap=     0.397 Goal=   None    Shift=    0.000
 RMSDP=6.77D-07 MaxDP=1.16D-05 DE=-2.47D-08 OVMax= 4.49D-05

 Cycle   4  Pass 1  IDiag  1:
 E= -79.3537653563963     Delta-E=       -0.000000004649 Rises=F Damp=F
 DIIS: error= 3.91D-06 at cycle   4 NSaved=   4.
 NSaved= 4 IEnMin= 4 EnMin= -79.3537653563963     IErMin= 4 ErrMin= 3.91D-06
 ErrMax= 3.91D-06  0.00D+00 EMaxC= 1.00D-01 BMatC= 9.03D-10 BMatP= 7.51D-09
 IDIUse=1 WtCom= 1.00D+00 WtEn= 0.00D+00
 Coeff-Com:  0.238D-02-0.891D-01-0.875D-01 0.117D+01
 Coeff:      0.238D-02-0.891D-01-0.875D-01 0.117D+01
 Gap=     0.238 Goal=   None    Shift=    0.000
 Gap=     0.397 Goal=   None    Shift=    0.000
 RMSDP=3.32D-07 MaxDP=5.84D-06 DE=-4.65D-09 OVMax= 2.10D-05

 Cycle   5  Pass 1  IDiag  1:
 E= -79.3537653571271     Delta-E=       -0.000000000731 Rises=F Damp=F
 DIIS: error= 1.02D-06 at cycle   5 NSaved=   5.
 NSaved= 5 IEnMin= 5 EnMin= -79.3537653571271     IErMin= 5 ErrMin= 1.02D-06
 ErrMax= 1.02D-06  0.00D+00 EMaxC= 1.00D-01 BMatC= 1.52D-10 BMatP= 9.03D-10
 IDIUse=1 WtCom= 1.00D+00 WtEn= 0.00D+00
 Coeff-Com:  0.826D-02-0.423D-01-0.158D+00 0.330D+00 0.861D+00
 Coeff:      0.826D-02-0.423D-01-0.158D+00 0.330D+00 0.861D+00
 Gap=     0.238 Goal=   None    Shift=    0.000
 Gap=     0.397 Goal=   None    Shift=    0.000
 RMSDP=9.87D-08 MaxDP=1.98D-06 DE=-7.31D-10 OVMax= 5.67D-06

 Cycle   6  Pass 1  IDiag  1:
 E= -79.3537653572039     Delta-E=       -0.000000000077 Rises=F Damp=F
 DIIS: error= 1.61D-07 at cycle   6 NSaved=   6.
 NSaved= 6 IEnMin= 6 EnMin= -79.3537653572039     IErMin= 6 ErrMin= 1.61D-07
 ErrMax= 1.61D-07  0.00D+00 EMaxC= 1.00D-01 BMatC= 2.74D-12 BMatP= 1.52D-10
 IDIUse=1 WtCom= 1.00D+00 WtEn= 0.00D+00
 Coeff-Com: -0.140D-02 0.122D-01 0.298D-01-0.123D+00-0.119D+00 0.120D+01
 Coeff:     -0.140D-02 0.122D-01 0.298D-01-0.123D+00-0.119D+00 0.120D+01
 Gap=     0.238 Goal=   None    Shift=    0.000
 Gap=     0.397 Goal=   None    Shift=    0.000
 RMSDP=1.78D-08 MaxDP=3.20D-07 DE=-7.67D-11 OVMax= 1.13D-06

 Cycle   7  Pass 1  IDiag  1:
 E= -79.3537653572064     Delta-E=       -0.000000000003 Rises=F Damp=F
 DIIS: error= 3.69D-08 at cycle   7 NSaved=   7.
 NSaved= 7 IEnMin= 7 EnMin= -79.3537653572064     IErMin= 7 ErrMin= 3.69D-08
 ErrMax= 3.69D-08  0.00D+00 EMaxC= 1.00D-01 BMatC= 6.93D-14 BMatP= 2.74D-12
 IDIUse=1 WtCom= 1.00D+00 WtEn= 0.00D+00
 Coeff-Com: -0.197D-04-0.227D-03 0.975D-04 0.515D-02-0.742D-02-0.846D-01
 Coeff-Com:  0.109D+01
 Coeff:     -0.197D-04-0.227D-03 0.975D-04 0.515D-02-0.742D-02-0.846D-01
 Coeff:      0.109D+01
 Gap=     0.238 Goal=   None    Shift=    0.000
 Gap=     0.397 Goal=   None    Shift=    0.000
 RMSDP=2.94D-09 MaxDP=4.46D-08 DE=-2.56D-12 OVMax= 2.25D-07

 SCF Done:  E(UM062X) =  -79.3537653572     A.U. after    7 cycles
            NFock=  7  Conv=0.29D-08     -V/T= 2.0056
 <Sx>= 0.0000 <Sy>= 0.0000 <Sz>= 0.5000 <S**2>= 0.7533 S= 0.5016
 <L.S>=  0.00000000000    
 KE= 7.890879825752D+01 PE=-2.480587697040D+02 EE= 5.504771483862D+01
 Annihilation of the first spin contaminant:
 S**2 before annihilation     0.7533,   after     0.7500
 Leave Link  502 at Wed Nov 13 12:42:42 2024, MaxMem=  2147483648 cpu:              87.7 elap:               3.3
 (Enter /home/szhao/Apps/g16/l701.exe)
 ... and contract with generalized density number  0.
 Compute integral first derivatives.
 Leave Link  701 at Wed Nov 13 12:42:42 2024, MaxMem=  2147483648 cpu:               6.6 elap:               0.3
 (Enter /home/szhao/Apps/g16/l702.exe)
 L702 exits ... SP integral derivatives will be done elsewhere.
 Leave Link  702 at Wed Nov 13 12:42:42 2024, MaxMem=  2147483648 cpu:               2.0 elap:               0.1
 (Enter /home/szhao/Apps/g16/l703.exe)
 Integral derivatives from FoFJK, PRISM(SPDF).
 Compute integral first derivatives, UseDBF=F ICtDFT=           0.
 Calling FoFJK, ICntrl=      2127 FMM=F ISym2X=0 I1Cent= 0 IOpClX= 1 NMat=1 NMatS=1 NMatT=0.
 FoFJK:  IHMeth= 1 ICntrl=    2127 DoSepK=F KAlg= 0 I1Cent=           0 FoldK=F
 IRaf=         0 NMat=       1 IRICut=       1 DoRegI=T DoRafI=F ISym2E= 0 IDoP0=0 IntGTp=1.
 FoFCou: FMM=F IPFlag=           0 FMFlag=      100000 FMFlg1=         800
         NFxFlg=           0 DoJE=F BraDBF=F KetDBF=F FulRan=T
         wScrn=  0.000000 ICntrl=      2127 IOpCl=  1 I1Cent=           0 NGrid=           0
         NMat0=    1 NMatS0=      1 NMatT0=    0 NMatD0=    1 NMtDS0=    0 NMtDT0=    0
 Symmetry not used in FoFCou.
 Leave Link  703 at Wed Nov 13 12:42:43 2024, MaxMem=  2147483648 cpu:              29.5 elap:               1.1
 (Enter /home/szhao/Apps/g16/l716.exe)
 Dipole        = 2.36854681D-07-1.11785224D-05-1.99164715D-05
 -------------------------------------------------------------------
 Center     Atomic                   Forces (Hartrees/Bohr)
 Number     Number              X              Y              Z
 -------------------------------------------------------------------
      1        6          -0.000000000   -0.000000000   -0.000000000
      2        6          -0.000000000   -0.000000000   -0.000000000
      3        1          -0.000006680    0.000003178   -0.000002636
      4        1          -0.000004994    0.000003816    0.000003252
      5        1          -0.000000657   -0.000003870   -0.000002374
      6        1           0.000006396   -0.000000160    0.000004840
      7        1           0.000007008   -0.000002995    0.000003035
      8        1          -0.000001074    0.000000177   -0.000004354
 -------------------------------------------------------------------
 Cartesian Forces:  Max     0.000007008 RMS     0.000003443
 Leave Link  716 at Wed Nov 13 12:42:43 2024, MaxMem=  2147483648 cpu:               2.6 elap:               0.1
 (Enter /home/szhao/Apps/g16/l103.exe)

 GradGradGradGradGradGradGradGradGradGradGradGradGradGradGradGradGradGrad
 Berny optimization.
 Using GEDIIS/GDIIS optimizer.
 FormGI is forming the generalized inverse of G from B-inverse, IUseBI=4.
 Internal  Forces:  Max     0.000013624 RMS     0.000005335
 Search for a local minimum.
 Step number   3 out of a maximum of   43
 All quantities printed in internal units (Hartrees-Bohrs-Radians)
 RMS Force = .54194D-05 SwitMx=.10000D-02 MixMth= 2
 Mixed Optimization -- En-DIIS/RFO-DIIS
 Swapping is turned off.
 Update second derivatives using D2CorX and points    1    2    3
 DE= -5.22D-07 DEPred=-5.20D-07 R= 1.00D+00
 Trust test= 1.00D+00 RLast= 2.41D-03 DXMaxT set to 3.00D-01
 ITU=  0  1  0
     Eigenvalues ---    0.00230   0.07987   0.07989   0.07990   0.07990
     Eigenvalues ---    0.15319   0.16000   0.16000   0.16000   0.16000
     Eigenvalues ---    0.17234   0.35543   0.35543   0.35544   0.35544
     Eigenvalues ---    0.35544   0.360881000.000001000.000001000.00000
     Eigenvalues --- 1000.000001000.000001000.000001000.000001000.00000
     Eigenvalues --- 1000.000001000.000001000.000001000.000001000.00000
     Eigenvalues --- 1000.000001000.000001000.00000
 En-DIIS/RFO-DIIS/Sim-DIIS IScMMF=       -3 using points:     3    2
 RFO step:  Lambda=-3.53771405D-09.
 NNeg= 0 NGDIIS= 2 SimSw=  2.50D-03 Rises=F DC= -5.22D-07 SmlDif=  1.00D-05
 NRisDI= 0 DoIntr=F SqrtH=F CThrHd= 10.0 CDAdj=  3.0
 RMS Error=  0.3063285810D-04 NUsed= 2 OKEnD=F EnDIS=F
 InvSVX:  RCond= 1.45D-06 Info=           0 Equed=N FErr=  9.12D-16 BErr=  5.28D-17
 DidBck=F Rises=F RFO-DIIS coefs:    1.00753   -0.00753
 Iteration  1 RMS(Cart)=  0.00005910 RMS(Int)=  0.00000001
 Iteration  2 RMS(Cart)=  0.00000000 RMS(Int)=  0.00000000
 ITry= 1 IFail=0 DXMaxC= 1.85D-04 DCOld= 1.00D+10 DXMaxT= 3.00D-01 DXLimC= 3.00D+00 Rises=F
 Variable       Old X    -DE/DX   Delta X   Delta X   Delta X     New X
                                 (Linear)    (Quad)   (Total)
    X1       -2.45338   0.00000   0.00000   0.00000   0.00000  -2.45338
    Y1        0.00000   0.00001   0.00000   0.00000   0.00000   0.00000
    Z1        0.00000  -0.00000   0.00000   0.00000   0.00000   0.00000
    X2        2.45338  -0.00000  -0.00000   0.00000   0.00000   2.45338
    Y2        0.00000  -0.00001   0.00000   0.00000   0.00000   0.00000
    Z2        0.00000   0.00000   0.00000   0.00000   0.00000   0.00000
    R1        2.04859  -0.00000   0.00000  -0.00001  -0.00001   2.04858
    R2        2.04859  -0.00000   0.00000  -0.00001  -0.00001   2.04858
    R3        2.04859  -0.00000   0.00000  -0.00001  -0.00001   2.04858
    R4        2.04859  -0.00000   0.00000  -0.00001  -0.00001   2.04858
    R5        2.04859  -0.00000   0.00000  -0.00001  -0.00001   2.04858
    R6        2.04859  -0.00000   0.00000  -0.00001  -0.00001   2.04858
    A1        1.63829   0.00001  -0.00001   0.00007   0.00006   1.63836
    A2        1.63907  -0.00001  -0.00001  -0.00008  -0.00009   1.63898
    A3        1.63878   0.00000  -0.00001   0.00002   0.00001   1.63879
    A4        2.08646   0.00000   0.00000   0.00001   0.00001   2.08647
    A5        2.08642  -0.00000   0.00000  -0.00000  -0.00000   2.08642
    A6        2.08643   0.00000   0.00000  -0.00001  -0.00000   2.08642
    A7        1.63905  -0.00001  -0.00001  -0.00008  -0.00009   1.63896
    A8        1.63876  -0.00000  -0.00001  -0.00000  -0.00001   1.63875
    A9        1.63833   0.00001  -0.00001   0.00009   0.00008   1.63842
   A10        2.08646   0.00000   0.00000   0.00000   0.00000   2.08646
   A11        2.08643  -0.00000   0.00000  -0.00000  -0.00000   2.08643
   A12        2.08642  -0.00000   0.00000  -0.00000   0.00000   2.08642
    D1       -1.04732  -0.00000   0.00000   0.00002   0.00002  -1.04730
    D2        3.14141   0.00000   0.00000   0.00002   0.00002   3.14143
    D3        1.04707  -0.00000   0.00000   0.00001   0.00001   1.04708
    D4        3.14146  -0.00000   0.00000   0.00001   0.00001   3.14147
    D5        1.04700  -0.00000   0.00000   0.00002   0.00002   1.04701
    D6       -1.04734  -0.00000  -0.00000   0.00001   0.00001  -1.04733
    D7        1.04702   0.00000   0.00000   0.00002   0.00002   1.04705
    D8       -1.04744   0.00000   0.00000   0.00003   0.00003  -1.04741
    D9        3.14141   0.00000   0.00000   0.00002   0.00002   3.14143
         Item               Value     Threshold  Converged?
 Maximum Force            0.000014     0.000450     YES
 RMS     Force            0.000005     0.000300     YES
 Maximum Displacement     0.000185     0.001800     YES
 RMS     Displacement     0.000059     0.001200     YES
 Predicted change in Energy=-2.284713D-09
 Optimization completed.
    -- Stationary point found.
                           ----------------------------
                           !   Optimized Parameters   !
                           ! (Angstroms and Degrees)  !
 --------------------------                            --------------------------
 ! Name  Definition              Value          Derivative Info.                !
 --------------------------------------------------------------------------------
 ! X1    R(1,-1)                -1.2983         -DE/DX =    0.0                 !
 ! Y1    R(1,-2)                 0.0            -DE/DX =    0.0                 !
 ! Z1    R(1,-3)                 0.0            -DE/DX =    0.0                 !
 ! X2    R(2,-1)                 1.2983         -DE/DX =    0.0                 !
 ! Y2    R(2,-2)                 0.0            -DE/DX =    0.0                 !
 ! Z2    R(2,-3)                 0.0            -DE/DX =    0.0                 !
 ! R1    R(1,4)                  1.0841         -DE/DX =    0.0                 !
 ! R2    R(1,7)                  1.0841         -DE/DX =    0.0                 !
 ! R3    R(1,8)                  1.0841         -DE/DX =    0.0                 !
 ! R4    R(2,3)                  1.0841         -DE/DX =    0.0                 !
 ! R5    R(2,5)                  1.0841         -DE/DX =    0.0                 !
 ! R6    R(2,6)                  1.0841         -DE/DX =    0.0                 !
 ! A1    A(2,1,4)               93.8672         -DE/DX =    0.0                 !
 ! A2    A(2,1,7)               93.9118         -DE/DX =    0.0                 !
 ! A3    A(2,1,8)               93.8951         -DE/DX =    0.0                 !
 ! A4    A(4,1,7)              119.5452         -DE/DX =    0.0                 !
 ! A5    A(4,1,8)              119.5432         -DE/DX =    0.0                 !
 ! A6    A(7,1,8)              119.5435         -DE/DX =    0.0                 !
 ! A7    A(1,2,3)               93.9105         -DE/DX =    0.0                 !
 ! A8    A(1,2,5)               93.8941         -DE/DX =    0.0                 !
 ! A9    A(1,2,6)               93.8696         -DE/DX =    0.0                 !
 ! A10   A(3,2,5)              119.5453         -DE/DX =    0.0                 !
 ! A11   A(3,2,6)              119.5437         -DE/DX =    0.0                 !
 ! A12   A(5,2,6)              119.5429         -DE/DX =    0.0                 !
 ! D1    D(4,1,2,3)            -60.0068         -DE/DX =    0.0                 !
 ! D2    D(4,1,2,5)            179.9893         -DE/DX =    0.0                 !
 ! D3    D(4,1,2,6)             59.9926         -DE/DX =    0.0                 !
 ! D4    D(7,1,2,3)            179.9925         -DE/DX =    0.0                 !
 ! D5    D(7,1,2,5)             59.9885         -DE/DX =    0.0                 !
 ! D6    D(7,1,2,6)            -60.0081         -DE/DX =    0.0                 !
 ! D7    D(8,1,2,3)             59.9901         -DE/DX =    0.0                 !
 ! D8    D(8,1,2,5)            -60.0139         -DE/DX =    0.0                 !
 ! D9    D(8,1,2,6)            179.9895         -DE/DX =    0.0                 !
 --------------------------------------------------------------------------------
 Lowest energy point so far.  Saving SCF results.
 Largest change from initial coordinates is atom    4       0.021 Angstoms.
 GradGradGradGradGradGradGradGradGradGradGradGradGradGradGradGradGradGrad

 Leave Link  103 at Wed Nov 13 12:42:43 2024, MaxMem=  2147483648 cpu:               3.0 elap:               0.1
 (Enter /home/szhao/Apps/g16/l202.exe)
                          Input orientation:                          
 ---------------------------------------------------------------------
 Center     Atomic      Atomic             Coordinates (Angstroms)
 Number     Number       Type             X           Y           Z
 ---------------------------------------------------------------------
      1          6           0       -1.298272    0.000000    0.000000
      2          6           0        1.298272    0.000000    0.000000
      3          1           0        1.372202   -0.936082    0.541745
      4          1           0       -1.371386   -0.937190   -0.539936
      5          1           0        1.371894    0.937262    0.539744
      6          1           0        1.371430   -0.001136   -1.081595
      7          1           0       -1.372228    0.936152   -0.541622
      8          1           0       -1.371912    0.000937    1.081563
 ---------------------------------------------------------------------
                    Distance matrix (angstroms):
                    1          2          3          4          5
     1  C    0.000000
     2  C    2.596543   0.000000
     3  H    2.881175   1.084068   0.000000
     4  H    1.084068   2.880439   2.949121   0.000000
     5  H    2.880897   1.084068   1.873345   3.493546   0.000000
     6  H    2.880479   1.084067   1.873328   2.948328   1.873321
     7  H    1.084068   2.881198   3.494401   1.873343   2.949501
     8  H    1.084068   2.880913   2.949504   1.873324   2.949363
                    6          7          8
     6  H    0.000000
     7  H    2.949193   0.000000
     8  H    3.493593   1.873327   0.000000
 Symmetry turned off by external request.
 Stoichiometry    C2H6(1+,2)
 Framework group  C1[X(C2H6)]
 Deg. of freedom    18
 Full point group                 C1      NOp   1
 Rotational constants (GHZ):          71.4451694           9.1274619           9.1274462
 Leave Link  202 at Wed Nov 13 12:42:43 2024, MaxMem=  2147483648 cpu:               2.6 elap:               0.1
 (Enter /home/szhao/Apps/g16/l601.exe)
 Copying SCF densities to generalized density rwf, IOpCl= 1 IROHF=0.

 **********************************************************************

            Population analysis using the SCF density.

 **********************************************************************

 Alpha  occ. eigenvalues --  -10.85585 -10.85581  -1.05938  -1.02566  -0.76025
 Alpha  occ. eigenvalues --   -0.76024  -0.74256  -0.74255  -0.56253
 Alpha virt. eigenvalues --   -0.32478  -0.15055  -0.10549  -0.10549  -0.10019
 Alpha virt. eigenvalues --   -0.06209  -0.06209  -0.06149  -0.03617  -0.03615
 Alpha virt. eigenvalues --   -0.02919   0.01567   0.01569   0.05429   0.07407
 Alpha virt. eigenvalues --    0.19359   0.19362   0.22909   0.27408   0.27413
 Alpha virt. eigenvalues --    0.30905   0.39153   0.40497   0.40497   0.44721
 Alpha virt. eigenvalues --    0.44721   0.53088   0.59295   0.70405   0.82091
 Alpha virt. eigenvalues --    0.82092   0.86269   0.86270   1.20431   1.20488
 Alpha virt. eigenvalues --    1.22466   1.22469   1.24697   1.29823   1.29866
 Alpha virt. eigenvalues --    1.29867   1.54786   1.56750   1.65552   1.65553
 Alpha virt. eigenvalues --    1.66517   1.66519   1.76978   1.76980   1.78703
 Alpha virt. eigenvalues --    1.78709   2.19174   2.21806   2.21813   2.27647
 Alpha virt. eigenvalues --    2.27652   2.29105   2.40590   2.40595   2.42344
 Alpha virt. eigenvalues --    2.42347   2.49313   2.51454   2.69270   2.73002
 Alpha virt. eigenvalues --    3.48221   3.48222   3.49393   3.49393  23.68402
 Alpha virt. eigenvalues --   23.69539
  Beta  occ. eigenvalues --  -10.85388 -10.85388  -1.02731  -1.00138  -0.75323
  Beta  occ. eigenvalues --   -0.75322  -0.73705  -0.73705
  Beta virt. eigenvalues --   -0.34025  -0.23441  -0.15576  -0.11105  -0.11105
  Beta virt. eigenvalues --   -0.09590  -0.06553  -0.06553  -0.06121  -0.03534
  Beta virt. eigenvalues --   -0.03532  -0.02162   0.01969   0.01970   0.05919
  Beta virt. eigenvalues --    0.07730   0.19472   0.19475   0.24532   0.26929
  Beta virt. eigenvalues --    0.26934   0.31056   0.41650   0.41650   0.41989
  Beta virt. eigenvalues --    0.45939   0.45939   0.54006   0.60556   0.71262
  Beta virt. eigenvalues --    0.84870   0.84872   0.88795   0.88796   1.21568
  Beta virt. eigenvalues --    1.21622   1.23876   1.23879   1.28928   1.31044
  Beta virt. eigenvalues --    1.31045   1.35287   1.57034   1.57458   1.67349
  Beta virt. eigenvalues --    1.67350   1.68108   1.68110   1.78376   1.78378
  Beta virt. eigenvalues --    1.80339   1.80345   2.22612   2.23120   2.23127
  Beta virt. eigenvalues --    2.28917   2.28922   2.32779   2.43146   2.43151
  Beta virt. eigenvalues --    2.44872   2.44874   2.52002   2.55863   2.71703
  Beta virt. eigenvalues --    2.75767   3.52366   3.52367   3.53543   3.53543
  Beta virt. eigenvalues --   23.69620  23.70758
          Condensed to atoms (all electrons):
               1          2          3          4          5          6
     1  C    5.098274   0.074275  -0.005015   0.375149  -0.005004  -0.005010
     2  C    0.074275   5.098274   0.375176  -0.005009   0.375159   0.375151
     3  H   -0.005015   0.375176   0.402454  -0.000450  -0.016617  -0.016620
     4  H    0.375149  -0.005009  -0.000450   0.402511   0.000504  -0.000450
     5  H   -0.005004   0.375159  -0.016617   0.000504   0.402474  -0.016619
     6  H   -0.005010   0.375151  -0.016620  -0.000450  -0.016619   0.402512
     7  H    0.375176  -0.005015   0.000504  -0.016619  -0.000450  -0.000450
     8  H    0.375160  -0.005005  -0.000449  -0.016619  -0.000450   0.000504
               7          8
     1  C    0.375176   0.375160
     2  C   -0.005015  -0.005005
     3  H    0.000504  -0.000449
     4  H   -0.016619  -0.016619
     5  H   -0.000450  -0.000450
     6  H   -0.000450   0.000504
     7  H    0.402452  -0.016618
     8  H   -0.016618   0.402477
          Atomic-Atomic Spin Densities.
               1          2          3          4          5          6
     1  C    0.507150   0.099943  -0.003412  -0.007529  -0.003416  -0.003418
     2  C    0.099943   0.507150  -0.007530  -0.003419  -0.007529  -0.007529
     3  H   -0.003412  -0.007530  -0.017118   0.000103   0.001518   0.001518
     4  H   -0.007529  -0.003419   0.000103  -0.017104   0.000062   0.000104
     5  H   -0.003416  -0.007529   0.001518   0.000062  -0.017113   0.001518
     6  H   -0.003418  -0.007529   0.001518   0.000104   0.001518  -0.017107
     7  H   -0.007530  -0.003412   0.000062   0.001518   0.000103   0.000103
     8  H   -0.007529  -0.003416   0.000103   0.001518   0.000103   0.000062
               7          8
     1  C   -0.007530  -0.007529
     2  C   -0.003412  -0.003416
     3  H    0.000062   0.000103
     4  H    0.001518   0.001518
     5  H    0.000103   0.000103
     6  H    0.000103   0.000062
     7  H   -0.017118   0.001518
     8  H    0.001518  -0.017116
 Mulliken charges and spin densities:
               1          2
     1  C   -0.283005   0.574259
     2  C   -0.283004   0.574259
     3  H    0.261018  -0.024756
     4  H    0.260983  -0.024746
     5  H    0.261003  -0.024753
     6  H    0.260983  -0.024749
     7  H    0.261019  -0.024757
     8  H    0.261002  -0.024756
 Sum of Mulliken charges =   1.00000   1.00000
 Mulliken charges and spin densities with hydrogens summed into heavy atoms:
               1          2
     1  C    0.500000   0.500000
     2  C    0.500000   0.500000
 Electronic spatial extent (au):  <R**2>=            156.2715
 Charge=              1.0000 electrons
 Dipole moment (field-independent basis, Debye):
    X=              0.0000    Y=             -0.0000    Z=             -0.0001  Tot=              0.0001
 Quadrupole moment (field-independent basis, Debye-Ang):
   XX=             -3.1904   YY=            -10.9505   ZZ=            -10.9507
   XY=             -0.0009   XZ=              0.0004   YZ=             -0.0001
 Traceless Quadrupole moment (field-independent basis, Debye-Ang):
   XX=              5.1735   YY=             -2.5866   ZZ=             -2.5868
   XY=             -0.0009   XZ=              0.0004   YZ=             -0.0001
 Octapole moment (field-independent basis, Debye-Ang**2):
  XXX=              0.0000  YYY=              0.0007  ZZZ=             -0.0000  XYY=              0.0007
  XXY=              0.0013  XXZ=              0.0019  XZZ=             -0.0007  YZZ=             -0.0007
  YYZ=             -0.0000  XYZ=              0.0004
 Hexadecapole moment (field-independent basis, Debye-Ang**3):
 XXXX=           -130.3157 YYYY=            -21.2583 ZZZZ=            -21.2584 XXXY=             -0.0038
 XXXZ=              0.0020 YYYX=              0.0120 YYYZ=              0.0002 ZZZX=             -4.0254
 ZZZY=             -0.0001 XXYY=            -24.1565 XXZZ=            -24.1596 YYZZ=             -7.0863
 XXYZ=             -0.0027 YYXZ=              4.0254 ZZXY=             -0.0118
 N-N= 3.474849125067D+01 E-N=-2.480587694909D+02  KE= 7.890879825752D+01
                          Isotropic Fermi Contact Couplings
        Atom                 a.u.       MegaHertz       Gauss      10(-4) cm-1
     1  C(13)              0.07626      85.72826      30.58997      28.59587
     2  C(13)              0.07626      85.72819      30.58995      28.59585
     3  H(1)              -0.00671     -30.00340     -10.70596     -10.00806
     4  H(1)              -0.00671     -29.98327     -10.69878     -10.00134
     5  H(1)              -0.00671     -29.99289     -10.70221     -10.00455
     6  H(1)              -0.00671     -29.98466     -10.69927     -10.00181
     7  H(1)              -0.00671     -30.00389     -10.70613     -10.00822
     8  H(1)              -0.00671     -29.99366     -10.70248     -10.00481
 --------------------------------------------------------
       Center         ----  Spin Dipole Couplings  ----
                      3XX-RR        3YY-RR        3ZZ-RR
 --------------------------------------------------------
     1   Atom        0.527760     -0.263879     -0.263880
     2   Atom        0.527760     -0.263879     -0.263881
     3   Atom        0.003837      0.016983     -0.020820
     4   Atom        0.003848      0.017107     -0.020955
     5   Atom        0.003844      0.017118     -0.020962
     6   Atom        0.003847     -0.039870      0.036023
     7   Atom        0.003837      0.016997     -0.020834
     8   Atom        0.003843     -0.039867      0.036024
 --------------------------------------------------------
                        XY            XZ            YZ
 --------------------------------------------------------
     1   Atom        0.000465      0.000042     -0.000001
     2   Atom        0.000194     -0.000381      0.000000
     3   Atom       -0.000932      0.000528     -0.032902
     4   Atom        0.000892      0.000508      0.032830
     5   Atom        0.000918      0.000511      0.032823
     6   Atom        0.000004     -0.001029      0.000083
     7   Atom       -0.000923      0.000547     -0.032894
     8   Atom        0.000016     -0.001052      0.000073
 --------------------------------------------------------


 ---------------------------------------------------------------------------------
              Anisotropic Spin Dipole Couplings in Principal Axis System
 ---------------------------------------------------------------------------------

       Atom             a.u.   MegaHertz   Gauss  10(-4) cm-1        Axes

              Baa    -0.2639   -35.410   -12.635   -11.812 -0.0003  0.4871  0.8734
     1 C(13)  Bbb    -0.2639   -35.410   -12.635   -11.812 -0.0005  0.8734 -0.4871
              Bcc     0.5278    70.820    25.270    23.623  1.0000  0.0006  0.0001
 
              Baa    -0.2639   -35.410   -12.635   -11.812  0.0005 -0.0699  0.9976
     2 C(13)  Bbb    -0.2639   -35.410   -12.635   -11.811 -0.0002  0.9976  0.0699
              Bcc     0.5278    70.820    25.270    23.623  1.0000  0.0002 -0.0005
 
              Baa    -0.0399   -21.269    -7.589    -7.095  0.0002  0.5009  0.8655
     3 H(1)   Bbb     0.0038     2.028     0.724     0.677  0.9994  0.0287 -0.0168
              Bcc     0.0361    19.241     6.866     6.418 -0.0332  0.8650 -0.5007
 
              Baa    -0.0399   -21.273    -7.591    -7.096  0.0001 -0.4992  0.8665
     4 H(1)   Bbb     0.0038     2.036     0.726     0.679  0.9995 -0.0275 -0.0160
              Bcc     0.0361    19.238     6.864     6.417  0.0319  0.8660  0.4990
 
              Baa    -0.0399   -21.271    -7.590    -7.095  0.0004 -0.4991  0.8665
     5 H(1)   Bbb     0.0038     2.033     0.725     0.678  0.9995 -0.0281 -0.0166
              Bcc     0.0361    19.239     6.865     6.417  0.0326  0.8661  0.4988
 
              Baa    -0.0399   -21.273    -7.591    -7.096 -0.0001  1.0000 -0.0011
     6 H(1)   Bbb     0.0038     2.035     0.726     0.679  0.9995  0.0002  0.0319
              Bcc     0.0361    19.238     6.864     6.417 -0.0319  0.0011  0.9995
 
              Baa    -0.0399   -21.269    -7.589    -7.095 -0.0003  0.5007  0.8656
     7 H(1)   Bbb     0.0038     2.028     0.724     0.677  0.9994  0.0289 -0.0164
              Bcc     0.0361    19.241     6.866     6.418 -0.0333  0.8651 -0.5005
 
              Baa    -0.0399   -21.271    -7.590    -7.095 -0.0004  1.0000 -0.0010
     8 H(1)   Bbb     0.0038     2.032     0.725     0.678  0.9995  0.0004  0.0326
              Bcc     0.0361    19.239     6.865     6.417 -0.0326  0.0010  0.9995
 

 ---------------------------------------------------------------------------------

 No NMR shielding tensors so no spin-rotation constants.
 Leave Link  601 at Wed Nov 13 12:42:44 2024, MaxMem=  2147483648 cpu:               7.7 elap:               0.3
 (Enter /home/szhao/Apps/g16/l9999.exe)
 1\1\GINC-NODE01\FOpt\UM062X\6-311+G(d,p)\C2H6(1+,2)\SZHAO\13-Nov-2024\
 0\\#p opt UM062X/6-311+G** nosymm int=superfine\\Title Card Required\\
 1,2\C,-1.29827152,0.,0.\C,1.29827152,0.,0.\H,1.3722024322,-0.936081821
 8,0.541745215\H,-1.3713861665,-0.9371902966,-0.5399362219\H,1.37189356
 45,0.937261766,0.5397439359\H,1.3714304648,-0.0011361984,-1.0815954682
 \H,-1.3722280819,0.9361515694,-0.5416216629\H,-1.3719123021,0.00093733
 75,1.081563151\\Version=ES64L-G16RevA.03\HF=-79.3537654\S2=0.753292\S2
 -1=0.\S2A=0.750009\RMSD=2.941e-09\RMSF=3.443e-06\Dipole=0.0000002,-0.0
 000051,-0.0000093\Quadrupole=3.8463356,-1.9230803,-1.9232552,-0.000653
 ,0.0003162,-0.0000405\PG=C01 [X(C2H6)]\\@


 HONESTY IN A LAWYER IS LIKE A HEN'S HIND LEGS.
  -- MAGNUS OLESON, LAKE WOBEGON PATRIARCH, C.1875
 Job cpu time:       0 days  0 hours  9 minutes 47.7 seconds.
 Elapsed time:       0 days  0 hours  0 minutes 22.0 seconds.
 File lengths (MBytes):  RWF=     10 Int=      0 D2E=      0 Chk=      2 Scr=      1
 Normal termination of Gaussian 16 at Wed Nov 13 12:42:44 2024.
