Title Card Required                                                     
Force     UM062X                                                      6-311+G(d,p)        
Number of atoms                            I                6
Info1-9                                    I   N=           9
          15          15           0           0           0         100
           5          18        -502
Full Title                                 C   N=           2
Title Card Required     
Route                                      C   N=           4
#p UM062X/6-311+G** force int=superfine         
Charge                                     I                0
Multiplicity                               I                1
Number of electrons                        I               16
Number of alpha electrons                  I                8
Number of beta electrons                   I                8
Number of basis functions                  I               68
Number of independent functions            I               68
Number of point charges in /Mol/           I                0
Number of translation vectors              I                0
Atomic numbers                             I   N=           6
           6           6           1           1           1           1
Nuclear charges                            R   N=           6
  6.00000000E+00  6.00000000E+00  1.00000000E+00  1.00000000E+00  1.00000000E+00
  1.00000000E+00
Current cartesian coordinates              R   N=          18
  3.29068013E-21  1.99170708E+00  0.00000000E+00 -2.43919255E-16 -1.99170708E+00
  0.00000000E+00  1.84813892E+00  2.84824435E+00 -4.93038066E-32 -1.84798963E+00
  2.84811585E+00  0.00000000E+00 -1.84813892E+00 -2.84824435E+00  4.93038066E-32
  1.84798963E+00 -2.84811585E+00  0.00000000E+00
Number of symbols in /Mol/                 I                0
Force Field                                I                0
Atom Types                                 C   N=           6
                                                            
            
Int Atom Types                             I   N=           6
           0           0           0           0           0           0
MM charges                                 R   N=           6
  0.00000000E+00  0.00000000E+00  0.00000000E+00  0.00000000E+00  0.00000000E+00
  0.00000000E+00
Integer atomic weights                     I   N=           6
          12          12           1           1           1           1
Real atomic weights                        R   N=           6
  1.20000000E+01  1.20000000E+01  1.00782504E+00  1.00782504E+00  1.00782504E+00
  1.00782504E+00
Atom fragment info                         I   N=           6
           0           0           0           0           0           0
Atom residue num                           I   N=           6
           0           0           0           0           0           0
Nuclear spins                              I   N=           6
           0           0           1           1           1           1
Nuclear ZEff                               R   N=           6
 -3.60000000E+00 -3.60000000E+00 -1.00000000E+00 -1.00000000E+00 -1.00000000E+00
 -1.00000000E+00
Nuclear ZNuc                               R   N=           6
  6.00000000E+00  6.00000000E+00  1.00000000E+00  1.00000000E+00  1.00000000E+00
  1.00000000E+00
Nuclear QMom                               R   N=           6
  0.00000000E+00  0.00000000E+00  0.00000000E+00  0.00000000E+00  0.00000000E+00
  0.00000000E+00
Nuclear GFac                               R   N=           6
  0.00000000E+00  0.00000000E+00  2.79284600E+00  2.79284600E+00  2.79284600E+00
  2.79284600E+00
MicOpt                                     I   N=           6
          -1          -1          -1          -1          -1          -1
Number of residues                         I                0
Number of secondary structures             I                0
SymInf integers                            I   N=          26
           2           4           1           1           1          -1
          -1           1           1           1          -1          -1
          -1          -1           0           0           0           0
           0           0           0           0           0           0
           0           0
RotTr to input orientation                 R   N=          12
  8.42862791E-17 -1.00000000E+00 -2.44479184E-21 -1.00000000E+00 -8.42868299E-17
 -1.22464680E-16  1.22464680E-16  2.44479184E-21 -1.00000000E+00 -5.55111512E-17
  0.00000000E+00  0.00000000E+00
Number of contracted shells                I               28
Number of primitive shells                 I               50
Pure/Cartesian d shells                    I                0
Pure/Cartesian f shells                    I                0
Highest angular momentum                   I                2
Largest degree of contraction              I                6
Shell types                                I   N=          28
           0          -1          -1          -1          -1          -2
           0          -1          -1          -1          -1          -2
           0           0           0           1           0           0
           0           1           0           0           0           1
           0           0           0           1
Number of primitives per shell             I   N=          28
           6           3           1           1           1           1
           6           3           1           1           1           1
           3           1           1           1           3           1
           1           1           3           1           1           1
           3           1           1           1
Shell to atom map                          I   N=          28
           1           1           1           1           1           1
           2           2           2           2           2           2
           3           3           3           3           4           4
           4           4           5           5           5           5
           6           6           6           6
Primitive exponents                        R   N=          50
  4.56324000E+03  6.82024000E+02  1.54973000E+02  4.44553000E+01  1.30290000E+01
  1.82773000E+00  2.09642000E+01  4.80331000E+00  1.45933000E+00  4.83456000E-01
  1.45585000E-01  4.38000000E-02  6.26000000E-01  4.56324000E+03  6.82024000E+02
  1.54973000E+02  4.44553000E+01  1.30290000E+01  1.82773000E+00  2.09642000E+01
  4.80331000E+00  1.45933000E+00  4.83456000E-01  1.45585000E-01  4.38000000E-02
  6.26000000E-01  3.38650000E+01  5.09479000E+00  1.15879000E+00  3.25840000E-01
  1.02741000E-01  7.50000000E-01  3.38650000E+01  5.09479000E+00  1.15879000E+00
  3.25840000E-01  1.02741000E-01  7.50000000E-01  3.38650000E+01  5.09479000E+00
  1.15879000E+00  3.25840000E-01  1.02741000E-01  7.50000000E-01  3.38650000E+01
  5.09479000E+00  1.15879000E+00  3.25840000E-01  1.02741000E-01  7.50000000E-01
Contraction coefficients                   R   N=          50
  1.96665025E-03  1.52306019E-02  7.61269097E-02  2.60801033E-01  6.16462078E-01
  2.21006028E-01  1.14660081E-01  9.19999648E-01 -3.03068213E-03  1.00000000E+00
  1.00000000E+00  1.00000000E+00  1.00000000E+00  1.96665025E-03  1.52306019E-02
  7.61269097E-02  2.60801033E-01  6.16462078E-01  2.21006028E-01  1.14660081E-01
  9.19999648E-01 -3.03068213E-03  1.00000000E+00  1.00000000E+00  1.00000000E+00
  1.00000000E+00  2.54938145E-02  1.90373109E-01  8.52161486E-01  1.00000000E+00
  1.00000000E+00  1.00000000E+00  2.54938145E-02  1.90373109E-01  8.52161486E-01
  1.00000000E+00  1.00000000E+00  1.00000000E+00  2.54938145E-02  1.90373109E-01
  8.52161486E-01  1.00000000E+00  1.00000000E+00  1.00000000E+00  2.54938145E-02
  1.90373109E-01  8.52161486E-01  1.00000000E+00  1.00000000E+00  1.00000000E+00
P(S=P) Contraction coefficients            R   N=          50
  0.00000000E+00  0.00000000E+00  0.00000000E+00  0.00000000E+00  0.00000000E+00
  0.00000000E+00  4.02486927E-02  2.37593957E-01  8.15853851E-01  1.00000000E+00
  1.00000000E+00  1.00000000E+00  0.00000000E+00  0.00000000E+00  0.00000000E+00
  0.00000000E+00  0.00000000E+00  0.00000000E+00  0.00000000E+00  4.02486927E-02
  2.37593957E-01  8.15853851E-01  1.00000000E+00  1.00000000E+00  1.00000000E+00
  0.00000000E+00  0.00000000E+00  0.00000000E+00  0.00000000E+00  0.00000000E+00
  0.00000000E+00  0.00000000E+00  0.00000000E+00  0.00000000E+00  0.00000000E+00
  0.00000000E+00  0.00000000E+00  0.00000000E+00  0.00000000E+00  0.00000000E+00
  0.00000000E+00  0.00000000E+00  0.00000000E+00  0.00000000E+00  0.00000000E+00
  0.00000000E+00  0.00000000E+00  0.00000000E+00  0.00000000E+00  0.00000000E+00
Coordinates of each shell                  R   N=          84
  2.19378675E-21  1.99170708E+00  0.00000000E+00  2.19378675E-21  1.99170708E+00
  0.00000000E+00  2.19378675E-21  1.99170708E+00  0.00000000E+00  2.19378675E-21
  1.99170708E+00  0.00000000E+00  2.19378675E-21  1.99170708E+00  0.00000000E+00
  2.19378675E-21  1.99170708E+00  0.00000000E+00 -2.43918158E-16 -1.99170708E+00
  0.00000000E+00 -2.43918158E-16 -1.99170708E+00  0.00000000E+00 -2.43918158E-16
 -1.99170708E+00  0.00000000E+00 -2.43918158E-16 -1.99170708E+00  0.00000000E+00
 -2.43918158E-16 -1.99170708E+00  0.00000000E+00 -2.43918158E-16 -1.99170708E+00
  0.00000000E+00  1.84813892E+00  2.84824435E+00  0.00000000E+00  1.84813892E+00
  2.84824435E+00  0.00000000E+00  1.84813892E+00  2.84824435E+00  0.00000000E+00
  1.84813892E+00  2.84824435E+00  0.00000000E+00 -1.84798963E+00  2.84811585E+00
  0.00000000E+00 -1.84798963E+00  2.84811585E+00  0.00000000E+00 -1.84798963E+00
  2.84811585E+00  0.00000000E+00 -1.84798963E+00  2.84811585E+00  0.00000000E+00
 -1.84813892E+00 -2.84824435E+00  0.00000000E+00 -1.84813892E+00 -2.84824435E+00
  0.00000000E+00 -1.84813892E+00 -2.84824435E+00  0.00000000E+00 -1.84813892E+00
 -2.84824435E+00  0.00000000E+00  1.84798963E+00 -2.84811585E+00  0.00000000E+00
  1.84798963E+00 -2.84811585E+00  0.00000000E+00  1.84798963E+00 -2.84811585E+00
  0.00000000E+00  1.84798963E+00 -2.84811585E+00  0.00000000E+00
Num ILSW                                   I              100
ILSW                                       I   N=         100
           1           0           0           0           2           0
           0           0           0           0        4336          -1
           7           0           0           0           2           0
           0           0           0           0           1           0
           1           0           0           0           0           0
           0           0      100000           0          -1           0
           0           0           0           0           0           0
           0           0           0           1           0           0
           0 -2000000000           1           0           0           0
           0           0           4          52           0           0
           0           0          55           0           0           0
           0           0           0           6           0           1
           0           0           0           0           0           0
           0           0           0           0           0           0
           0           0           0           0           0           0
           0           0           0           0           0           0
           0           0           0           0
Num RLSW                                   I               52
RLSW                                       R   N=          52
  1.00000000E+00  1.00000000E+00  1.00000000E+00  1.00000000E+00  5.40000000E-01
  0.00000000E+00  0.00000000E+00  1.00000000E+00  0.00000000E+00  0.00000000E+00
  0.00000000E+00  0.00000000E+00  1.00000000E+00  0.00000000E+00  0.00000000E+00
  0.00000000E+00  0.00000000E+00  1.00000000E+00  0.00000000E+00  0.00000000E+00
  0.00000000E+00  0.00000000E+00  1.00000000E+00  0.00000000E+00  0.00000000E+00
  0.00000000E+00  0.00000000E+00  1.00000000E+00  0.00000000E+00  0.00000000E+00
  0.00000000E+00  0.00000000E+00  1.00000000E+00  0.00000000E+00  0.00000000E+00
  0.00000000E+00  0.00000000E+00  0.00000000E+00  1.00000000E+00  1.00000000E+00
  0.00000000E+00  1.00000000E+00  0.00000000E+00  0.00000000E+00  0.00000000E+00
  0.00000000E+00  0.00000000E+00  0.00000000E+00  0.00000000E+00  0.00000000E+00
  0.00000000E+00  0.00000000E+00
MxBond                                     I                2
NBond                                      I   N=           6
           2           2           1           1           1           1
IBond                                      I   N=          12
           3           4           5           6           1           0
           1           0           2           0           2           0
RBond                                      R   N=          12
  1.00000000E+00  1.00000000E+00  1.00000000E+00  1.00000000E+00  1.00000000E+00
  0.00000000E+00  1.00000000E+00  0.00000000E+00  1.00000000E+00  0.00000000E+00
  1.00000000E+00  0.00000000E+00
Virial Ratio                               R      2.012056740809473E+00
SCF Energy                                 R     -7.834641004846125E+01
Total Energy                               R     -7.834641004846125E+01
S**2                                       R      1.598721155460225E-14
S**2 after annihilation                    R      4.263256414560631E-14
RMS Force                                  R      5.074057327483156E-02
RMS Density                                R      4.830798743867661E-09
Job Status                                 I                1
Nuclear derivative order                   I                1
External E-field                           R   N=          35
  0.00000000E+00  0.00000000E+00  0.00000000E+00  0.00000000E+00  0.00000000E+00
  0.00000000E+00  0.00000000E+00  0.00000000E+00  0.00000000E+00  0.00000000E+00
  0.00000000E+00  0.00000000E+00  0.00000000E+00  0.00000000E+00  0.00000000E+00
  0.00000000E+00  0.00000000E+00  0.00000000E+00  0.00000000E+00  0.00000000E+00
  0.00000000E+00  0.00000000E+00  0.00000000E+00  0.00000000E+00  0.00000000E+00
  0.00000000E+00  0.00000000E+00  0.00000000E+00  0.00000000E+00  0.00000000E+00
  0.00000000E+00  0.00000000E+00  0.00000000E+00  0.00000000E+00  0.00000000E+00
IOpCl                                      I                1
IROHF                                      I                0
Alpha Orbital Energies                     R   N=          68
 -1.06152695E+01 -1.06151518E+01 -7.70706120E-01 -7.19522747E-01 -5.30623315E-01
 -5.04478153E-01 -3.66431803E-01 -2.55908640E-01 -7.40738148E-02  6.09707495E-03
  3.36301542E-02  5.37917992E-02  7.25530896E-02  7.82090351E-02  9.19987807E-02
  9.93567759E-02  1.13310814E-01  1.51767592E-01  1.64007645E-01  2.02477944E-01
  2.13441729E-01  2.79154539E-01  3.94583569E-01  4.33860709E-01  4.45973026E-01
  5.82941983E-01  6.18644936E-01  6.41308596E-01  6.49160470E-01  6.68669662E-01
  7.02699890E-01  7.63510383E-01  7.63741225E-01  8.21987405E-01  1.07846020E+00
  1.09212700E+00  1.17260496E+00  1.17848862E+00  1.39636222E+00  1.41334624E+00
  1.44239708E+00  1.51518803E+00  1.52217905E+00  1.70877146E+00  1.73616358E+00
  1.77265410E+00  1.80857213E+00  1.86340925E+00  1.92784955E+00  2.01020830E+00
  2.01816501E+00  2.05667045E+00  2.35813772E+00  2.53287164E+00  2.57064268E+00
  2.59340977E+00  2.62250892E+00  2.63432016E+00  2.65209837E+00  2.69856901E+00
  2.76380459E+00  2.77675168E+00  2.78387009E+00  3.30375756E+00  3.70817109E+00
  3.74488786E+00  2.38240520E+01  2.38250182E+01
Beta Orbital Energies                      R   N=          68
 -1.06152695E+01 -1.06151518E+01 -7.70706120E-01 -7.19522747E-01 -5.30623315E-01
 -5.04478153E-01 -3.66431803E-01 -2.55908640E-01 -7.40738148E-02  6.09707495E-03
  3.36301542E-02  5.37917992E-02  7.25530896E-02  7.82090351E-02  9.19987807E-02
  9.93567759E-02  1.13310814E-01  1.51767592E-01  1.64007645E-01  2.02477944E-01
  2.13441729E-01  2.79154539E-01  3.94583569E-01  4.33860709E-01  4.45973026E-01
  5.82941983E-01  6.18644936E-01  6.41308596E-01  6.49160470E-01  6.68669662E-01
  7.02699890E-01  7.63510383E-01  7.63741225E-01  8.21987405E-01  1.07846020E+00
  1.09212700E+00  1.17260496E+00  1.17848862E+00  1.39636222E+00  1.41334624E+00
  1.44239708E+00  1.51518803E+00  1.52217905E+00  1.70877146E+00  1.73616358E+00
  1.77265410E+00  1.80857213E+00  1.86340925E+00  1.92784955E+00  2.01020830E+00
  2.01816501E+00  2.05667045E+00  2.35813772E+00  2.53287164E+00  2.57064268E+00
  2.59340977E+00  2.62250892E+00  2.63432016E+00  2.65209837E+00  2.69856901E+00
  2.76380459E+00  2.77675168E+00  2.78387009E+00  3.30375756E+00  3.70817109E+00
  3.74488786E+00  2.38240520E+01  2.38250182E+01
Alpha MO coefficients                      R   N=        4624
  3.98972051E-01  3.28090540E-01  1.00366593E-07 -3.68531901E-04  0.00000000E+00
  8.07631769E-03 -1.13680201E-06  1.34096206E-03  0.00000000E+00 -1.92062329E-03
 -5.74061345E-08 -2.13617415E-05  0.00000000E+00 -5.54190908E-04  3.59385331E-07
 -3.70019626E-04  0.00000000E+00 -9.04088952E-04  0.00000000E+00  0.00000000E+00
  9.94527882E-04 -3.35462633E-07  3.98972051E-01  3.28090540E-01 -1.00366593E-07
  3.68531901E-04  0.00000000E+00  8.07631769E-03  1.13680201E-06 -1.34096206E-03
  0.00000000E+00 -1.92062329E-03  5.74061345E-08  2.13617415E-05  0.00000000E+00
 -5.54190908E-04 -3.59385331E-07  3.70019626E-04  0.00000000E+00 -9.04088952E-04
  0.00000000E+00  0.00000000E+00  9.94527882E-04 -3.35462633E-07  1.14953392E-04
 -2.36846881E-03  1.49622673E-03  1.32376377E-03  6.89555767E-04  0.00000000E+00
  1.14719859E-04 -2.37029431E-03  1.49739665E-03 -1.32453051E-03  6.89873707E-04
  0.00000000E+00  1.14953392E-04 -2.36846881E-03  1.49622673E-03 -1.32376377E-03
 -6.89555767E-04  0.00000000E+00  1.14719859E-04 -2.37029431E-03  1.49739665E-03
  1.32453051E-03 -6.89873707E-04  0.00000000E+00  3.98986811E-01  3.28112090E-01
  9.52658530E-08 -4.44458453E-04  0.00000000E+00  8.23013352E-03 -1.11515787E-06
  1.73706810E-03  0.00000000E+00 -3.09785029E-03  1.27887958E-07  3.59486417E-04
  0.00000000E+00  5.94921834E-04  1.66235473E-07 -8.62955495E-04  0.00000000E+00
 -8.06542614E-04  0.00000000E+00  0.00000000E+00  1.20233801E-03 -3.43070952E-07
 -3.98986811E-01 -3.28112090E-01  9.52658530E-08 -4.44458453E-04  0.00000000E+00
 -8.23013352E-03 -1.11515787E-06  1.73706810E-03  0.00000000E+00  3.09785029E-03
  1.27887958E-07  3.59486417E-04  0.00000000E+00 -5.94921834E-04  1.66235473E-07
 -8.62955495E-04  0.00000000E+00  8.06542614E-04  0.00000000E+00  0.00000000E+00
 -1.20233801E-03  3.43070952E-07  7.55906240E-05 -2.27672491E-03  1.69652528E-03
  1.35494010E-03  6.48424104E-04  0.00000000E+00  7.53104599E-05 -2.27829701E-03
  1.69763838E-03 -1.35569744E-03  6.48713025E-04  0.00000000E+00 -7.55906240E-05
  2.27672491E-03 -1.69652528E-03  1.35494010E-03  6.48424104E-04  0.00000000E+00
 -7.53104599E-05  2.27829701E-03 -1.69763838E-03 -1.35569744E-03  6.48713025E-04
  0.00000000E+00 -7.79367297E-02 -1.25533989E-01 -1.16174886E-05  1.36030938E-02
  0.00000000E+00  3.37309428E-01 -1.14059064E-05  1.41004738E-02  0.00000000E+00
  2.33257395E-01 -3.58464290E-06  3.08243371E-03  0.00000000E+00  3.16611153E-03
 -5.73767077E-07  3.64022806E-03  0.00000000E+00 -8.44298062E-03  0.00000000E+00
  0.00000000E+00  1.87529552E-03 -7.04017301E-07 -7.79367297E-02 -1.25533989E-01
  1.16174886E-05 -1.36030938E-02  0.00000000E+00  3.37309428E-01  1.14059064E-05
 -1.41004738E-02  0.00000000E+00  2.33257395E-01  3.58464290E-06 -3.08243371E-03
  0.00000000E+00  3.16611153E-03  5.73767077E-07 -3.64022806E-03  0.00000000E+00
 -8.44298062E-03  0.00000000E+00  0.00000000E+00  1.87529552E-03 -7.04017301E-07
  7.38610018E-02  8.52398823E-02  4.85197436E-03 -1.13104435E-02 -4.20763121E-03
  0.00000000E+00  7.38811971E-02  8.52592707E-02  4.85184643E-03  1.13131392E-02
 -4.20872791E-03  0.00000000E+00  7.38610018E-02  8.52398823E-02  4.85197436E-03
  1.13104435E-02  4.20763121E-03  0.00000000E+00  7.38811971E-02  8.52592707E-02
  4.85184643E-03 -1.13131392E-02  4.20872791E-03  0.00000000E+00 -7.51636513E-02
 -1.21413483E-01 -1.64395028E-05  4.65507532E-02  0.00000000E+00  3.30931067E-01
 -1.80585924E-05  6.82300629E-02  0.00000000E+00  2.28018822E-01 -6.77338599E-06
  3.26868151E-02  0.00000000E+00 -2.08913544E-02 -8.48212854E-08  1.06302554E-02
  0.00000000E+00 -6.94430758E-03  0.00000000E+00  0.00000000E+00  9.45506320E-03
 -9.27438238E-07  7.51636513E-02  1.21413483E-01 -1.64395028E-05  4.65507532E-02
  0.00000000E+00 -3.30931067E-01 -1.80585924E-05  6.82300629E-02  0.00000000E+00
 -2.28018822E-01 -6.77338599E-06  3.26868151E-02  0.00000000E+00  2.08913544E-02
 -8.48212854E-08  1.06302554E-02  0.00000000E+00  6.94430758E-03  0.00000000E+00
  0.00000000E+00 -9.45506320E-03  9.27438238E-07  8.46427329E-02  1.01336838E-01
  1.17474574E-02 -1.22092753E-02 -2.89061186E-03  0.00000000E+00  8.46688193E-02
  1.01362533E-01  1.17495061E-02  1.22124052E-02 -2.89176954E-03  0.00000000E+00
 -8.46427329E-02 -1.01336838E-01 -1.17474574E-02 -1.22092753E-02 -2.89061186E-03
  0.00000000E+00 -8.46688193E-02 -1.01362533E-01 -1.17495061E-02  1.22124052E-02
 -2.89176954E-03  0.00000000E+00 -5.42786771E-06 -9.11224171E-06  1.49242724E-01
  3.50295666E-06  0.00000000E+00  2.66686982E-05  2.06507564E-01  7.57980832E-06
  0.00000000E+00  3.40060633E-05  1.18106281E-01  5.05362702E-06  0.00000000E+00
 -3.88214628E-06  3.70132419E-03  3.33511791E-06  0.00000000E+00 -3.62513451E-07
  0.00000000E+00  0.00000000E+00 -1.00010054E-07  1.14413340E-02  5.42786771E-06
  9.11224171E-06  1.49242724E-01  3.50295666E-06  0.00000000E+00 -2.66686982E-05
  2.06507564E-01  7.57980832E-06  0.00000000E+00 -3.40060633E-05  1.18106281E-01
  5.05362702E-06  0.00000000E+00  3.88214628E-06  3.70132419E-03  3.33511791E-06
  0.00000000E+00  3.62513451E-07  0.00000000E+00  0.00000000E+00  1.00010054E-07
 -1.14413340E-02  1.06725547E-01  1.48290607E-01  4.36506801E-02 -1.01297567E-02
 -7.30069271E-03  0.00000000E+00 -1.06716508E-01 -1.48269071E-01 -4.36446682E-02
 -1.01278027E-02  7.30035812E-03  0.00000000E+00 -1.06725547E-01 -1.48290607E-01
 -4.36506801E-02 -1.01297567E-02 -7.30069271E-03  0.00000000E+00  1.06716508E-01
  1.48269071E-01  4.36446682E-02 -1.01278027E-02  7.30035812E-03  0.00000000E+00
 -3.76427751E-06 -6.43997280E-06  1.52572721E-01 -5.22579963E-06  0.00000000E+00
  1.93039590E-05  2.08667180E-01 -5.53243767E-06  0.00000000E+00  3.05316523E-05
  1.22928303E-01 -3.35190731E-06  0.00000000E+00  2.89319067E-06  1.00336760E-02
  7.21058723E-07  0.00000000E+00 -2.03510855E-07  0.00000000E+00  0.00000000E+00
 -9.85027817E-07  1.83658789E-02 -3.76427751E-06 -6.43997280E-06 -1.52572721E-01
  5.22579963E-06  0.00000000E+00  1.93039590E-05 -2.08667180E-01  5.53243767E-06
  0.00000000E+00  3.05316523E-05 -1.22928303E-01  3.35190731E-06  0.00000000E+00
  2.89319067E-06 -1.00336760E-02 -7.21058723E-07  0.00000000E+00 -2.03510855E-07
  0.00000000E+00  0.00000000E+00 -9.85027817E-07  1.83658789E-02  1.12001621E-01
  1.60276272E-01  5.02341948E-02 -1.03516396E-02 -7.57092293E-03  0.00000000E+00
 -1.12001745E-01 -1.60267330E-01 -5.02317907E-02 -1.03511476E-02  7.57035773E-03
  0.00000000E+00  1.12001621E-01  1.60276272E-01  5.02341948E-02  1.03516396E-02
  7.57092293E-03  0.00000000E+00 -1.12001745E-01 -1.60267330E-01 -5.02317907E-02
  1.03511476E-02 -7.57035773E-03  0.00000000E+00  1.43278522E-02  2.37173350E-02
 -4.89163821E-07  1.70380716E-01  0.00000000E+00 -6.35680807E-02  1.96609775E-06
  2.62296925E-01  0.00000000E+00 -1.17233315E-01  1.37128963E-06  2.16893708E-01
  0.00000000E+00 -7.49951346E-03  1.37974709E-06  2.10290585E-02  0.00000000E+00
 -1.01687324E-03  0.00000000E+00  0.00000000E+00  1.22571154E-02  8.90934984E-09
  1.43278522E-02  2.37173350E-02  4.89163821E-07 -1.70380716E-01  0.00000000E+00
 -6.35680807E-02 -1.96609775E-06 -2.62296925E-01  0.00000000E+00 -1.17233315E-01
 -1.37128963E-06 -2.16893708E-01  0.00000000E+00 -7.49951346E-03 -1.37974709E-06
 -2.10290585E-02  0.00000000E+00 -1.01687324E-03  0.00000000E+00  0.00000000E+00
  1.22571154E-02  8.90934984E-09  5.32177772E-02  8.39796405E-02  4.43469784E-02
 -7.67779859E-03  8.12521887E-03  0.00000000E+00  5.32128465E-02  8.39672987E-02
  4.43393655E-02  7.67776690E-03  8.12663146E-03  0.00000000E+00  5.32177772E-02
  8.39796405E-02  4.43469784E-02  7.67779859E-03 -8.12521887E-03  0.00000000E+00
  5.32128465E-02  8.39672987E-02  4.43393655E-02 -7.67776690E-03 -8.12663146E-03
  0.00000000E+00  0.00000000E+00  0.00000000E+00  0.00000000E+00  0.00000000E+00
  1.71900766E-01  0.00000000E+00  0.00000000E+00  0.00000000E+00  2.67006364E-01
  0.00000000E+00  0.00000000E+00  0.00000000E+00  3.00525158E-01  0.00000000E+00
  0.00000000E+00  0.00000000E+00  6.41208076E-02  0.00000000E+00 -5.48713492E-07
 -4.63348369E-03  0.00000000E+00  0.00000000E+00  0.00000000E+00  0.00000000E+00
  0.00000000E+00  0.00000000E+00  1.71900766E-01  0.00000000E+00  0.00000000E+00
  0.00000000E+00  2.67006364E-01  0.00000000E+00  0.00000000E+00  0.00000000E+00
  3.00525158E-01  0.00000000E+00  0.00000000E+00  0.00000000E+00  6.41208076E-02
  0.00000000E+00  5.48713492E-07  4.63348369E-03  0.00000000E+00  0.00000000E+00
  0.00000000E+00  0.00000000E+00  0.00000000E+00  0.00000000E+00  0.00000000E+00
  1.47108872E-02  0.00000000E+00  0.00000000E+00  0.00000000E+00  0.00000000E+00
  0.00000000E+00  1.47123290E-02  0.00000000E+00  0.00000000E+00  0.00000000E+00
  0.00000000E+00  0.00000000E+00  1.47108872E-02  0.00000000E+00  0.00000000E+00
  0.00000000E+00  0.00000000E+00  0.00000000E+00  1.47123290E-02  0.00000000E+00
  0.00000000E+00  0.00000000E+00  0.00000000E+00  1.85364467E-01  0.00000000E+00
  0.00000000E+00  0.00000000E+00  2.83068049E-01  0.00000000E+00  0.00000000E+00
  0.00000000E+00  3.57490671E-01  0.00000000E+00  0.00000000E+00  0.00000000E+00
  2.38158801E-01  0.00000000E+00 -5.27844240E-07  1.68280186E-02  0.00000000E+00
  0.00000000E+00  0.00000000E+00  0.00000000E+00  0.00000000E+00  0.00000000E+00
 -1.85364467E-01  0.00000000E+00  0.00000000E+00  0.00000000E+00 -2.83068049E-01
  0.00000000E+00  0.00000000E+00  0.00000000E+00 -3.57490671E-01  0.00000000E+00
  0.00000000E+00  0.00000000E+00 -2.38158801E-01  0.00000000E+00 -5.27844240E-07
  1.68280186E-02  0.00000000E+00  0.00000000E+00  0.00000000E+00  0.00000000E+00
  0.00000000E+00  0.00000000E+00  0.00000000E+00  1.89227605E-02  0.00000000E+00
  0.00000000E+00  0.00000000E+00  0.00000000E+00  0.00000000E+00  1.89241168E-02
  0.00000000E+00  0.00000000E+00  0.00000000E+00  0.00000000E+00  0.00000000E+00
 -1.89227605E-02  0.00000000E+00  0.00000000E+00  0.00000000E+00  0.00000000E+00
  0.00000000E+00 -1.89241168E-02 -4.43008503E-02 -7.41810894E-02  6.96819335E-06
 -1.18927415E-01  0.00000000E+00  2.17145277E-01  4.88694342E-06 -1.76902835E-01
  0.00000000E+00  4.77597335E-01  2.44510434E-05 -2.53509721E-01  0.00000000E+00
  1.61700527E+00  1.24405351E-05 -1.22726264E+00  0.00000000E+00  7.50916402E-03
  0.00000000E+00  0.00000000E+00  1.98821086E-02 -1.30696318E-06  4.43008503E-02
  7.41810894E-02  6.96819335E-06 -1.18927415E-01  0.00000000E+00 -2.17145277E-01
  4.88694342E-06 -1.76902835E-01  0.00000000E+00 -4.77597335E-01  2.44510434E-05
 -2.53509721E-01  0.00000000E+00 -1.61700527E+00  1.24405351E-05 -1.22726264E+00
  0.00000000E+00 -7.50916402E-03  0.00000000E+00  0.00000000E+00 -1.98821086E-02
  1.30696318E-06 -1.53433566E-02 -6.94468893E-02 -1.17823026E-02  3.52227836E-03
 -1.47778631E-02  0.00000000E+00 -1.53393115E-02 -6.94414910E-02 -1.17275759E-02
 -3.52443663E-03 -1.47763961E-02  0.00000000E+00  1.53433566E-02  6.94468893E-02
  1.17823026E-02  3.52227836E-03 -1.47778631E-02  0.00000000E+00  1.53393115E-02
  6.94414910E-02  1.17275759E-02 -3.52443663E-03 -1.47763961E-02  0.00000000E+00
  2.22818137E-02  3.74796560E-02 -4.66262259E-06 -3.20197675E-02  0.00000000E+00
 -9.85577674E-02  5.20740833E-06 -4.89329291E-02  0.00000000E+00 -4.03055591E-01
 -2.32206571E-05 -1.03701609E-01  0.00000000E+00  1.17404686E+00 -3.17615730E-05
  4.86855252E-01  0.00000000E+00  1.44066423E-02  0.00000000E+00  0.00000000E+00
 -1.06096528E-02  2.22578052E-06  2.22818137E-02  3.74796560E-02  4.66262259E-06
  3.20197675E-02  0.00000000E+00 -9.85577674E-02 -5.20740833E-06  4.89329291E-02
  0.00000000E+00 -4.03055591E-01  2.32206571E-05  1.03701609E-01  0.00000000E+00
  1.17404686E+00  3.17615730E-05 -4.86855252E-01  0.00000000E+00  1.44066423E-02
  0.00000000E+00  0.00000000E+00 -1.06096528E-02  2.22578052E-06 -1.62542550E-02
  8.90475693E-02 -3.14258421E-01  1.01010402E-03 -3.25085706E-04  0.00000000E+00
 -1.62556483E-02  8.90679443E-02 -3.14339040E-01 -1.00462987E-03 -3.28305356E-04
  0.00000000E+00 -1.62542550E-02  8.90475693E-02 -3.14258421E-01 -1.01010402E-03
  3.25085706E-04  0.00000000E+00 -1.62556483E-02  8.90679443E-02 -3.14339040E-01
  1.00462987E-03  3.28305356E-04  0.00000000E+00  2.03858942E-06  2.93724959E-06
 -5.21144955E-02  4.52176266E-06  0.00000000E+00 -9.76642094E-07 -9.00399563E-02
  1.00540799E-05  0.00000000E+00 -6.36450324E-05 -1.69050476E-01 -2.94260615E-06
  0.00000000E+00 -1.90233964E-04  8.69423032E-01  3.52816751E-05  0.00000000E+00
 -2.34836813E-06  0.00000000E+00  0.00000000E+00  1.63291570E-06 -1.80297199E-02
 -2.03858942E-06 -2.93724959E-06 -5.21144955E-02  4.52176266E-06  0.00000000E+00
  9.76642094E-07 -9.00399563E-02  1.00540799E-05  0.00000000E+00  6.36450324E-05
 -1.69050476E-01 -2.94260615E-06  0.00000000E+00  1.90233964E-04  8.69423032E-01
  3.52816751E-05  0.00000000E+00  2.34836813E-06  0.00000000E+00  0.00000000E+00
 -1.63291570E-06  1.80297199E-02 -2.58077161E-02  7.82657615E-02 -4.33304469E-01
  2.78350314E-03 -1.84957149E-04  0.00000000E+00  2.58159493E-02 -7.82689964E-02
  4.33426956E-01  2.78072878E-03  1.86450968E-04  0.00000000E+00  2.58077161E-02