Title Card Required                                                     
FOpt      UM062X                                                      6-311+G(d,p)        
Number of atoms                            I                4
Info1-9                                    I   N=           9
          13          13           0           0           0         110
           2          18        -502
Full Title                                 C   N=           2
Title Card Required     
Route                                      C   N=           4
#p opt UM062X/6-311+G** nosymm int=superfine    
Charge                                     I                0
Multiplicity                               I                1
Number of electrons                        I               14
Number of alpha electrons                  I                7
Number of beta electrons                   I                7
Number of basis functions                  I               56
Number of independent functions            I               56
Number of point charges in /Mol/           I                0
Number of translation vectors              I                0
Atomic numbers                             I   N=           4
           6           6           1           1
Nuclear charges                            R   N=           4
  6.00000000E+00  6.00000000E+00  1.00000000E+00  1.00000000E+00
Current cartesian coordinates              R   N=          12
 -1.53820131E+00  0.00000000E+00  0.00000000E+00  1.53820131E+00  0.00000000E+00
  0.00000000E+00 -3.56858041E+00 -2.93057047E-06  3.08234480E-06  3.56852228E+00
 -4.21201990E-06  4.10190720E-06
Number of symbols in /Mol/                 I                0
Force Field                                I                0
Atom Types                                 C   N=           4
                                                
Int Atom Types                             I   N=           4
           0           0           0           0
MM charges                                 R   N=           4
  0.00000000E+00  0.00000000E+00  0.00000000E+00  0.00000000E+00
Integer atomic weights                     I   N=           4
          12          12           1           1
Real atomic weights                        R   N=           4
  1.20000000E+01  1.20000000E+01  1.00782504E+00  1.00782504E+00
Atom fragment info                         I   N=           4
           0           0           0           0
Atom residue num                           I   N=           4
           0           0           0           0
Nuclear spins                              I   N=           4
           0           0           1           1
Nuclear ZEff                               R   N=           4
 -3.60000000E+00 -3.60000000E+00 -1.00000000E+00 -1.00000000E+00
Nuclear ZNuc                               R   N=           4
  6.00000000E+00  6.00000000E+00  1.00000000E+00  1.00000000E+00
Nuclear QMom                               R   N=           4
  0.00000000E+00  0.00000000E+00  0.00000000E+00  0.00000000E+00
Nuclear GFac                               R   N=           4
  0.00000000E+00  0.00000000E+00  2.79284600E+00  2.79284600E+00
MicOpt                                     I   N=           4
          -2          -2          -1          -1
Number of residues                         I                0
Number of secondary structures             I                0
Redundant internal dimensions              I   N=           4
          12           8           4           0
Redundant internal coordinate indices      I   N=          48
           1          -1           0           0           1          -2
           0           0           1          -3           0           0
           2          -1           0           0           2          -2
           0           0           2          -3           0           0
           1           3           0           0           2           4
           0           0           2           1           3          -4
           1           2           4          -4           2           1
           3          -8           1           2           4          -8
Redundant internal coordinates             R   N=          12
 -1.53820131E+00  0.00000000E+00  0.00000000E+00  1.53820131E+00  0.00000000E+00
  0.00000000E+00  2.03037910E+00  2.03032097E+00  3.14159114E+00  3.14159467E+00
  3.14159121E+00  3.14159473E+00
ZRed-IntVec                                I   N=          12
          -1          -1          -1          -1          -1          -1
           0           0           0           0           0           0
ZRed-FPVec                                 R   N=          12
  0.00000000E+00  0.00000000E+00  0.00000000E+00  0.00000000E+00  0.00000000E+00
  0.00000000E+00  0.00000000E+00  0.00000000E+00  0.00000000E+00  0.00000000E+00
  0.00000000E+00  0.00000000E+00
ZRed-Constraint1                           R   N=          12
 -1.53820131E+00  0.00000000E+00  0.00000000E+00  1.53820131E+00  0.00000000E+00
  0.00000000E+00  2.73556043E+00  2.73551931E+00  3.14159265E+00  3.14159265E+00
  3.14159265E+00  3.14159265E+00
ZRed-Constraint2                           R   N=          12
 -1.53820131E+00  0.00000000E+00  0.00000000E+00  1.53820131E+00  0.00000000E+00
  0.00000000E+00  0.00000000E+00  0.00000000E+00  0.00000000E+00  0.00000000E+00
  0.00000000E+00  0.00000000E+00
Number of contracted shells                I               20
Number of primitive shells                 I               38
Pure/Cartesian d shells                    I                0
Pure/Cartesian f shells                    I                0
Highest angular momentum                   I                2
Largest degree of contraction              I                6
Shell types                                I   N=          20
           0          -1          -1          -1          -1          -2
           0          -1          -1          -1          -1          -2
           0           0           0           1           0           0
           0           1
Number of primitives per shell             I   N=          20
           6           3           1           1           1           1
           6           3           1           1           1           1
           3           1           1           1           3           1
           1           1
Shell to atom map                          I   N=          20
           1           1           1           1           1           1
           2           2           2           2           2           2
           3           3           3           3           4           4
           4           4
Primitive exponents                        R   N=          38
  4.56324000E+03  6.82024000E+02  1.54973000E+02  4.44553000E+01  1.30290000E+01
  1.82773000E+00  2.09642000E+01  4.80331000E+00  1.45933000E+00  4.83456000E-01
  1.45585000E-01  4.38000000E-02  6.26000000E-01  4.56324000E+03  6.82024000E+02
  1.54973000E+02  4.44553000E+01  1.30290000E+01  1.82773000E+00  2.09642000E+01
  4.80331000E+00  1.45933000E+00  4.83456000E-01  1.45585000E-01  4.38000000E-02
  6.26000000E-01  3.38650000E+01  5.09479000E+00  1.15879000E+00  3.25840000E-01
  1.02741000E-01  7.50000000E-01  3.38650000E+01  5.09479000E+00  1.15879000E+00
  3.25840000E-01  1.02741000E-01  7.50000000E-01
Contraction coefficients                   R   N=          38
  1.96665025E-03  1.52306019E-02  7.61269097E-02  2.60801033E-01  6.16462078E-01
  2.21006028E-01  1.14660081E-01  9.19999648E-01 -3.03068213E-03  1.00000000E+00
  1.00000000E+00  1.00000000E+00  1.00000000E+00  1.96665025E-03  1.52306019E-02
  7.61269097E-02  2.60801033E-01  6.16462078E-01  2.21006028E-01  1.14660081E-01
  9.19999648E-01 -3.03068213E-03  1.00000000E+00  1.00000000E+00  1.00000000E+00
  1.00000000E+00  2.54938145E-02  1.90373109E-01  8.52161486E-01  1.00000000E+00
  1.00000000E+00  1.00000000E+00  2.54938145E-02  1.90373109E-01  8.52161486E-01
  1.00000000E+00  1.00000000E+00  1.00000000E+00
P(S=P) Contraction coefficients            R   N=          38
  0.00000000E+00  0.00000000E+00  0.00000000E+00  0.00000000E+00  0.00000000E+00
  0.00000000E+00  4.02486927E-02  2.37593957E-01  8.15853851E-01  1.00000000E+00
  1.00000000E+00  1.00000000E+00  0.00000000E+00  0.00000000E+00  0.00000000E+00
  0.00000000E+00  0.00000000E+00  0.00000000E+00  0.00000000E+00  4.02486927E-02
  2.37593957E-01  8.15853851E-01  1.00000000E+00  1.00000000E+00  1.00000000E+00
  0.00000000E+00  0.00000000E+00  0.00000000E+00  0.00000000E+00  0.00000000E+00
  0.00000000E+00  0.00000000E+00  0.00000000E+00  0.00000000E+00  0.00000000E+00
  0.00000000E+00  0.00000000E+00  0.00000000E+00
Coordinates of each shell                  R   N=          60
 -1.53820131E+00  0.00000000E+00  0.00000000E+00 -1.53820131E+00  0.00000000E+00
  0.00000000E+00 -1.53820131E+00  0.00000000E+00  0.00000000E+00 -1.53820131E+00
  0.00000000E+00  0.00000000E+00 -1.53820131E+00  0.00000000E+00  0.00000000E+00
 -1.53820131E+00  0.00000000E+00  0.00000000E+00  1.53820131E+00  0.00000000E+00
  0.00000000E+00  1.53820131E+00  0.00000000E+00  0.00000000E+00  1.53820131E+00
  0.00000000E+00  0.00000000E+00  1.53820131E+00  0.00000000E+00  0.00000000E+00
  1.53820131E+00  0.00000000E+00  0.00000000E+00  1.53820131E+00  0.00000000E+00
  0.00000000E+00 -3.56858041E+00 -2.93057047E-06  3.08234480E-06 -3.56858041E+00
 -2.93057047E-06  3.08234480E-06 -3.56858041E+00 -2.93057047E-06  3.08234480E-06
 -3.56858041E+00 -2.93057047E-06  3.08234480E-06  3.56852228E+00 -4.21201990E-06
  4.10190720E-06  3.56852228E+00 -4.21201990E-06  4.10190720E-06  3.56852228E+00
 -4.21201990E-06  4.10190720E-06  3.56852228E+00 -4.21201990E-06  4.10190720E-06
Num ILSW                                   I              100
ILSW                                       I   N=         100
           1           0           0           1           2           0
           0           0           0           0        4336          -1
           7           0           0           0           2           0
           0           0           0           0           1           0
           1           1           0           0           0           0
           0           0      100000           0          -1           0
           0           0           0           0           0           0
           0           0           0           1           0           0
           0 -2000000000           1           0           0           0
           0           0           4          52           0           0
           0           0          55           0           0           0
           0           0           0           4           0           1
           0           0           0           0           0           0
           0           0           0           0           0           0
           0           0           0           0           0           0
           0           0           0           0           0           0
           0           0           0           0
Num RLSW                                   I               52
RLSW                                       R   N=          52
  1.00000000E+00  1.00000000E+00  1.00000000E+00  1.00000000E+00  5.40000000E-01
  0.00000000E+00  0.00000000E+00  1.00000000E+00  0.00000000E+00  0.00000000E+00
  0.00000000E+00  0.00000000E+00  1.00000000E+00  0.00000000E+00  0.00000000E+00
  0.00000000E+00  0.00000000E+00  1.00000000E+00  0.00000000E+00  0.00000000E+00
  0.00000000E+00  0.00000000E+00  1.00000000E+00  0.00000000E+00  0.00000000E+00
  0.00000000E+00  0.00000000E+00  1.00000000E+00  0.00000000E+00  0.00000000E+00
  0.00000000E+00  0.00000000E+00  1.00000000E+00  0.00000000E+00  0.00000000E+00
  0.00000000E+00  0.00000000E+00  0.00000000E+00  1.00000000E+00  1.00000000E+00
  0.00000000E+00  1.00000000E+00  0.00000000E+00  0.00000000E+00  0.00000000E+00
  0.00000000E+00  0.00000000E+00  0.00000000E+00  0.00000000E+00  0.00000000E+00
  0.00000000E+00  0.00000000E+00
MxBond                                     I                2
NBond                                      I   N=           4
           2           2           1           1
IBond                                      I   N=           8
           2           3           1           4           1           0
           2           0
RBond                                      R   N=           8
  1.00000000E+00  1.00000000E-01  1.00000000E+00  1.00000000E-01  1.00000000E-01
  0.00000000E+00  1.00000000E-01  0.00000000E+00
Virial Ratio                               R      2.016322859706720E+00
SCF Energy                                 R     -7.712948670908980E+01
Total Energy                               R     -7.712948670908980E+01
S**2                                       R     -4.440892098500626E-14
S**2 after annihilation                    R      9.947598300641191E-14
RMS Force                                  R      4.755388924300846E-06
RMS Density                                R      4.138790996017233E-09
Job Status                                 I                1
Nuclear derivative order                   I                1
External E-field                           R   N=          35
  0.00000000E+00  0.00000000E+00  0.00000000E+00  0.00000000E+00  0.00000000E+00
  0.00000000E+00  0.00000000E+00  0.00000000E+00  0.00000000E+00  0.00000000E+00
  0.00000000E+00  0.00000000E+00  0.00000000E+00  0.00000000E+00  0.00000000E+00
  0.00000000E+00  0.00000000E+00  0.00000000E+00  0.00000000E+00  0.00000000E+00
  0.00000000E+00  0.00000000E+00  0.00000000E+00  0.00000000E+00  0.00000000E+00
  0.00000000E+00  0.00000000E+00  0.00000000E+00  0.00000000E+00  0.00000000E+00
  0.00000000E+00  0.00000000E+00  0.00000000E+00  0.00000000E+00  0.00000000E+00
IOpCl                                      I                1
IROHF                                      I                0
Alpha Orbital Energies                     R   N=          56
 -1.06482022E+01 -1.06478365E+01 -7.83526658E-01 -6.91896616E-01 -5.38587204E-01
 -3.07570271E-01 -3.07570271E-01 -3.44970414E-02 -3.44970414E-02  8.22866776E-03
  2.33418130E-02  7.29875722E-02  8.33565113E-02  8.33565113E-02  9.48928581E-02
  1.12602156E-01  1.12602156E-01  1.77848301E-01  2.28151788E-01  2.86927797E-01
  4.65969259E-01  5.86801303E-01  5.86801303E-01  6.10139015E-01  6.10139015E-01
  6.55594497E-01  6.91380418E-01  7.45512409E-01  8.19518320E-01  1.01542011E+00
  1.01542011E+00  1.01547261E+00  1.27406576E+00  1.27406631E+00  1.35555609E+00
  1.35555609E+00  1.44734019E+00  1.44734079E+00  1.58802991E+00  1.73966699E+00
  1.73966699E+00  1.85955248E+00  2.20084063E+00  2.20084063E+00  2.39540277E+00
  2.62296564E+00  2.71031686E+00  2.71921077E+00  2.71921077E+00  2.81330185E+00
  2.81330185E+00  3.17730932E+00  3.27083928E+00  3.54728162E+00  2.35733266E+01
  2.38827537E+01
Beta Orbital Energies                      R   N=          56
 -1.06482022E+01 -1.06478365E+01 -7.83526658E-01 -6.91896616E-01 -5.38587204E-01
 -3.07570271E-01 -3.07570271E-01 -3.44970414E-02 -3.44970414E-02  8.22866776E-03
  2.33418130E-02  7.29875722E-02  8.33565113E-02  8.33565113E-02  9.48928581E-02
  1.12602156E-01  1.12602156E-01  1.77848301E-01  2.28151788E-01  2.86927797E-01
  4.65969259E-01  5.86801303E-01  5.86801303E-01  6.10139015E-01  6.10139015E-01
  6.55594497E-01  6.91380418E-01  7.45512409E-01  8.19518320E-01  1.01542011E+00
  1.01542011E+00  1.01547261E+00  1.27406576E+00  1.27406631E+00  1.35555609E+00
  1.35555609E+00  1.44734019E+00  1.44734079E+00  1.58802991E+00  1.73966699E+00
  1.73966699E+00  1.85955248E+00  2.20084063E+00  2.20084063E+00  2.39540277E+00
  2.62296564E+00  2.71031686E+00  2.71921077E+00  2.71921077E+00  2.81330185E+00
  2.81330185E+00  3.17730932E+00  3.27083928E+00  3.54728162E+00  2.35733266E+01
  2.38827537E+01
Alpha MO coefficients                      R   N=        3136
  4.00462216E-01  3.29383521E-01  4.33088298E-04  2.26327764E-09 -2.19481743E-09
  7.50111723E-03 -2.15327433E-03 -4.32580736E-09  4.44653525E-09 -3.45501102E-03
  5.73561130E-04  1.07913289E-09 -1.10139980E-09 -4.40866477E-04  1.48040360E-03
  3.14077529E-10 -4.64185596E-10 -4.18835431E-04 -2.52906406E-09 -3.89384844E-15
  7.25444246E-04  2.38060479E-09  3.97569200E-01  3.27005256E-01 -4.33421487E-04
  1.47943185E-09 -1.56924942E-09  7.44274652E-03  2.14267533E-03 -5.20143526E-09
  5.13740967E-09 -3.40786414E-03 -6.22568703E-04  1.26658409E-09 -1.25744437E-09
 -4.56248765E-04 -1.47394941E-03  1.73238291E-09 -1.59417331E-09 -4.11442198E-04
  3.50463756E-09 -8.17795058E-15  7.12638791E-04 -3.61691539E-09  9.92796585E-05
 -2.82027464E-03  3.13936442E-03 -1.68895413E-03 -2.09595030E-09  2.20797638E-09
  9.85733995E-05 -2.78380885E-03  3.14143795E-03  1.67287083E-03 -3.00145433E-09
  2.92075538E-09 -3.97621947E-01 -3.26869298E-01  4.42526814E-05 -1.79744323E-09
  1.73687484E-09 -8.06714544E-03  1.50068872E-03  3.20973708E-09 -3.38278542E-09
  6.48801709E-03  6.77059370E-03  4.12545391E-09 -4.22832483E-09 -1.99575863E-03
 -8.52676036E-04  9.87649620E-10 -9.98074126E-10  1.02903240E-03  4.80677924E-09
  6.75343085E-15 -1.78233641E-03 -4.61246864E-09  4.00514565E-01  3.29248478E-01
  4.10928691E-05  1.13426900E-09 -1.21248157E-09  8.12165290E-03  1.51665099E-03
 -4.71786028E-09  4.59029824E-09 -6.51261625E-03  6.76633925E-03 -4.86601036E-09
  4.81571343E-09  1.99244509E-03 -8.63372670E-04 -1.01964954E-09  1.02199559E-09
 -1.03212757E-03  6.10048339E-09 -1.20017444E-14  1.78769738E-03 -6.23253071E-09
 -8.63226686E-05  5.08740522E-03  2.62756387E-04  2.24351791E-03  4.00894741E-09
 -4.25484681E-09  8.69228115E-05 -5.10826113E-03 -2.39960239E-04  2.25593406E-03
 -6.14864205E-09  5.96125070E-09 -8.35563183E-02 -1.34832150E-01  5.24898857E-03
 -4.92420220E-08  5.18505661E-08  3.69816745E-01  1.13623451E-02 -6.03462177E-08
  6.45329821E-08  2.49050492E-01 -2.61109769E-03 -2.61646387E-08  2.77385469E-08
  2.15542201E-03 -1.42291614E-02 -2.96614414E-09  4.00950220E-09 -9.53688120E-03
 -2.37098296E-08 -6.90413433E-15  1.65183628E-02  2.27142845E-08 -8.35608223E-02
 -1.34839375E-01 -5.24207751E-03 -7.13347851E-08  6.94291385E-08  3.69835527E-01
 -1.13545321E-02 -9.68241671E-08  9.35535067E-08  2.49062617E-01  2.61292127E-03
 -3.96895439E-08  3.84996031E-08  2.15257968E-03  1.42301130E-02 -1.27283627E-08
  1.17765235E-08 -9.53749147E-03  3.02522074E-08  8.94161844E-15  1.65194198E-02
 -3.09349410E-08  7.81617014E-02  9.42378200E-02 -5.61534115E-03  1.07842497E-02
  1.08638089E-08 -1.14756479E-08  7.81723741E-02  9.42490882E-02 -5.61464946E-03
 -1.07856637E-02  1.60859921E-08 -1.56312473E-08 -6.64970446E-02 -1.07674798E-01
 -8.53824376E-02 -7.86321444E-08  8.41726467E-08  2.96830798E-01 -1.14413443E-01
 -9.21938297E-08  1.00219714E-07  2.19721660E-01 -5.33136903E-02 -4.65113333E-08
  4.95751001E-08 -1.32517503E-01 -4.73329655E-02 -1.80564488E-08  1.83789768E-08
 -7.03917230E-03 -3.81458942E-08  1.51655790E-14  1.21922041E-02  3.65778833E-08
  6.64911415E-02  1.07665115E-01 -8.53921455E-02  1.26988829E-07 -1.22647290E-07
 -2.96802622E-01 -1.14425328E-01  1.63431411E-07 -1.56896388E-07 -2.19697355E-01
 -5.33164294E-02  7.30812298E-08 -7.07150231E-08  1.32518095E-01 -4.73310142E-02
  2.01211571E-08 -2.00214525E-08  7.03845236E-03 -4.83989262E-08 -3.43441181E-14
 -1.21909571E-02  4.94651385E-08  1.27287205E-01  1.63401355E-01  1.73673615E-02
  1.77446605E-02  2.93047666E-08 -3.06238223E-08 -1.27290337E-01 -1.63402399E-01
 -1.73694273E-02  1.77450511E-02 -4.02318906E-08  3.93183381E-08 -1.40648259E-02
 -2.34784203E-02  1.75524715E-01  1.46787235E-07 -1.53295895E-07  7.23579182E-02
  2.48583351E-01  2.04390005E-07 -2.12426089E-07  5.65557452E-02  1.22855799E-01
  9.85529746E-08 -1.03595428E-07 -1.41798590E-03  2.07331038E-03  7.22335938E-10
 -1.22007801E-09 -2.31179585E-03  5.92814657E-09 -5.54754198E-14  4.00414787E-03
 -4.10534267E-09 -1.40674480E-02 -2.34828302E-02 -1.75522402E-01  2.00553903E-07
 -1.96071075E-07  7.23711783E-02 -2.48577688E-01  2.69486055E-07 -2.64213994E-07
  5.65704454E-02 -1.22851237E-01  1.41021786E-07 -1.37376709E-07 -1.42936121E-03
 -2.06861627E-03  5.41303191E-09 -4.95112230E-09 -2.31205937E-03 -1.95358398E-08
 -6.84045520E-14  4.00460430E-03  2.12109213E-08 -1.21579947E-01 -1.79444927E-01
 -4.84496100E-02 -1.80260547E-02 -3.37989171E-08  3.57170795E-08 -1.21576285E-01
 -1.79436390E-01 -4.84480170E-02  1.80255640E-02 -5.01759730E-08  4.87475784E-08
 -1.66000054E-08 -2.70856788E-08 -3.26865860E-07  1.41996576E-01 -1.12386884E-01
  5.87601528E-08 -5.28875980E-07  2.24233368E-01 -1.77475333E-01  2.76191982E-07
 -3.03226748E-07  2.09151461E-01 -1.65538365E-01  2.04905252E-07 -2.07103292E-08
  2.72730199E-02 -2.15859412E-02  2.50464946E-10 -9.11843113E-03 -3.81442898E-11
 -1.97218954E-09  1.15207927E-02 -6.52320444E-08 -1.09187741E-07  3.43003794E-07
  1.41996674E-01 -1.12386962E-01  3.08568419E-07  5.79617579E-07  2.24233669E-01
 -1.77475571E-01  5.51953800E-07  4.89564346E-07  2.09151658E-01 -1.65538521E-01
 -8.92134624E-08  1.46949381E-07  2.72726912E-02 -2.15856810E-02 -1.21282292E-09
  9.11845141E-03  1.27774010E-08  6.55381231E-09 -1.15208184E-02 -1.23009113E-08
  2.07975700E-08  7.69411584E-08 -4.95059491E-08  1.36067112E-02 -1.07693856E-02
 -7.19521209E-08 -1.28297925E-07 -3.46228447E-08  8.13241934E-08  1.36072225E-02
 -1.07697902E-02  4.82239071E-09  8.02926991E-09  3.99505181E-08  1.12386884E-01
  1.41996576E-01 -2.16074380E-08  6.60802094E-08  1.77475333E-01  2.24233368E-01
 -4.90820671E-08  4.70686429E-08  1.65538365E-01  2.09151461E-01 -7.30395881E-09
  9.83566703E-09  2.15859412E-02  2.72730199E-02  1.33487648E-10  1.15207927E-02
  7.73279246E-10 -2.17660564E-10  9.11843113E-03  4.94397076E-09  8.23439229E-09
 -3.99957718E-08  1.12386962E-01  1.41996674E-01 -2.22316097E-08 -6.62139318E-08
  1.77475571E-01  2.24233669E-01 -4.97536055E-08 -4.75476814E-08  1.65538521E-01
  2.09151658E-01 -6.50345550E-09 -1.01737087E-08  2.15856810E-02  2.72726912E-02
  1.12567708E-08 -1.15208184E-02 -2.21857339E-09  6.18081162E-09 -9.11845141E-03
  4.95296999E-09  6.23055660E-09 -2.66078730E-09  7.76661319E-09  1.07693856E-02
  1.36067112E-02  5.10230689E-09  6.59923166E-09 -2.38954441E-09 -7.84733833E-09
  1.07697902E-02  1.36072225E-02  4.04618721E-07  6.80841925E-07 -2.34668028E-07
 -1.31908076E-01  1.32512237E-01 -2.07457240E-06 -2.66735281E-07 -2.00364603E-01
  2.01282307E-01 -3.42306468E-06  1.60837359E-06 -2.77215270E-01  2.78484963E-01
 -1.32320698E-05 -4.91835845E-06 -2.93672301E-01  2.95017371E-01 -8.80399394E-08
 -1.91589472E-02 -6.81190846E-09  1.54217981E-07  1.90715961E-02 -4.20790600E-07
 -7.07568010E-07 -1.12225302E-07  1.31907938E-01 -1.32512099E-01  2.13400779E-06
 -7.32749030E-08  2.00364457E-01 -2.01282161E-01  3.75118183E-06  1.89148464E-06
  2.77215224E-01 -2.78484917E-01  1.35079151E-05 -4.72514902E-06  2.93671275E-01
 -2.95016340E-01  9.03006635E-08 -1.91589374E-02  2.09796495E-08 -1.54966897E-07
  1.90715863E-02  6.37649566E-07  2.04113777E-06  2.56257788E-06  1.87531443E-08
 -1.96078708E-02  1.96976782E-02 -7.05892485E-07 -2.20927743E-06 -2.82460420E-06
  3.59284866E-08  1.96080286E-02 -1.96978367E-02  1.19682506E-09  1.98547126E-09
  7.00490753E-09  1.32512237E-01  1.31908076E-01 -4.76508678E-09  1.11321200E-08
  2.01282307E-01  2.00364603E-01 -2.12890232E-08  1.75332496E-08  2.78484963E-01
  2.77215270E-01 -2.43454065E-08  8.19901750E-09  2.95017371E-01  2.93672301E-01
  5.83639061E-09 -1.90715961E-02  8.62717879E-10  3.61694706E-09 -1.91589472E-02
  6.82440893E-10  1.12016322E-09 -7.22104505E-09 -1.32512099E-01 -1.31907938E-01
 -2.14216241E-09 -1.13440254E-08 -2.01282161E-01 -2.00364457E-01 -1.68181707E-08
 -1.53527878E-08 -2.78484917E-01 -2.77215224E-01 -7.67196743E-09 -1.42130786E-08
 -2.95016340E-01 -2.93671275E-01 -1.82265542E-08 -1.90715863E-02  7.18406786E-10
 -1.05326269E-08 -1.91589374E-02  4.38148243E-09  1.10906902E-08  1.68927544E-08
  1.01381683E-09  1.96976782E-02  1.96078708E-02  3.54422718E-09  8.44184582E-09
  1.35357585E-08 -9.79812083E-10 -1.96978367E-02 -1.96080286E-02  4.64125038E-02
  7.83993877E-02 -2.41427547E-02  5.74438634E-07 -5.81623667E-07 -2.44306455E-01
 -1.51488322E-02  8.97910614E-07 -9.10649428E-07 -4.53089007E-01 -1.41720721E-01
  1.29466484E-06 -1.31131423E-06 -7.19203304E+00 -3.04803598E+00  7.00264202E-07
 -6.95238353E-07 -1.08374259E-02  8.31070893E-08  7.46585457E-14  1.87709723E-02
 -8.38664096E-08 -4.64096302E-02 -7.83945690E-02 -2.41534829E-02 -6.10885568E-07
  6.10615414E-07  2.44291274E-01 -1.51646604E-02 -9.69217015E-07  9.67370669E-07
  4.53062263E-01 -1.41743375E-01 -1.38117652E-06  1.38013720E-06  7.19214627E+00
 -3.04789809E+00 -6.13652384E-07  6.26335099E-07  1.08374899E-02  7.36580203E-08
 -1.58575272E-13 -1.87710831E-02 -7.19893848E-08  4.61092387E-02  1.69470502E-01
 -1.18748687E-01 -1.66637547E-02  8.77923637E-08 -8.82926471E-08 -4.61083138E-02
 -1.69448045E-01  1.18702123E-01 -1.66610287E-02 -8.76829321E-08  8.82061127E-08
  1.72483913E-02  2.99222894E-02  3.13260844E-02  2.91282089E-08 -2.81067384E-08
 -1.04664591E-01  6.77358112E-02  8.04742508E-08 -8.16895304E-08 -6.06605253E-02
  1.65456121E-02 -6.78943488E-09  1.75813432E-08  1.11452031E+00 -1.06163707E+00
 -2.81744826E-07  3.76794802E-07  7.05045678E-03  3.11615079E-08  3.83916134E-14
 -1.22117494E-02 -2.98578844E-08  1.72521390E-02  2.99288056E-02 -3.13251570E-02
  1.78171051E-08 -1.91122303E-08 -1.04687671E-01 -6.77403412E-02  8.76201709E-08
 -8.73845821E-08 -6.06869257E-02 -1.65005472E-02 -1.09083957E-07  9.89670824E-08
  1.11369926E+00  1.06202345E+00 -1.17070081E-06  1.08412020E-06  7.05024795E-03
 -3.97194400E-08  6.48514789E-14 -1.22113876E-02  4.06120764E-08 -2.67971072E-02
  9.52396454E-02 -7.15068152E-01 -7.17555254E-03 -6.66493651E-09  7.64386274E-09
 -2.67959960E-02  9.52509104E-02 -7.15147122E-01  7.17611621E-03 -1.56053309E-08
  1.47563143E-08 -4.70998151E-02 -7.85782603E-02  8.21272829E-02 -2.81482701E-07
  2.84080792E-07  2.15214163E-01  1.33923721E-01 -4.33420577E-07  4.39777204E-07
  7.77821985E-01 -2.18720843E-01 -1.09530373E-06  1.11563425E-06 -2.29194645E+00
 -1.74544650E+00 -6.05442405E-06  6.14946270E-06  2.19165650E-02 -3.72033265E-08
 -1.29031628E-13 -3.79606041E-02  3.96035303E-08  4.70997324E-02  7.85781823E-02
  8.21388616E-02  2.90556438E-07 -2.91296068E-07 -2.15213316E-01  1.33934113E-01
  4.69801661E-07 -4.68714764E-07 -7.77836616E-01 -2.18688342E-01  1.22794657E-06
 -1.22117041E-06  2.29206334E+00 -1.74543397E+00  6.62245862E-06 -6.60137003E-06
 -2.19140033E-02 -1.72986457E-08  1.95333231E-13  3.79561671E-02  1.45825015E-08
 -1.06761013E-01 -2.31813196E-01 -1.38529047E+00  4.92108976E-04 -1.14851193E-07
  1.17264689E-07  1.06751983E-01  2.31805972E-01  1.38517367E+00  4.89317861E-04
  1.31442016E-07 -1.30465095E-07  2.31887564E-08  4.03997008E-08  3.07069001E-08
 -5.91999783E-02  4.72824452E-02 -1.59440197E-07  7.56402384E-09 -5.02904935E-02
  4.01665266E-02  1.81406408E-07  2.23937878E-07 -2.62391260E-01  2.09569340E-01
  3.72080027E-06 -2.20726622E-07  5.22298192E-01 -4.17154472E-01 -1.46310227E-08
  3.45920682E-03 -2.34755964E-09  2.54428387E-08 -4.33109937E-03 -2.70515951E-09
 -3.14782570E-09 -7.71747938E-08 -5.91986977E-02  4.72814225E-02 -4.02389079E-08
 -8.54734739E-08 -5.02890525E-02  4.01653758E-02  6.17954330E-07  2.92822086E-07
 -2.62386823E-01  2.09565796E-01 -2.05559904E-06  2.90292566E-06  5.22285079E-01
 -4.17143999E-01 -5.46601305E-09 -3.45918678E-03 -7.49250292E-09  7.21146692E-09
  4.33107427E-03  4.95718634E-08 -4.83479619E-08 -1.08152874E-07 -8.63108440E-10
  3.10369084E-03 -2.47888760E-03  5.78112917E-09 -3.36553518E-07 -1.17700670E-06
 -2.42840316E-10  3.10335309E-03 -2.47861784E-03 -1.15128796E-09 -2.09722879E-09
 -6.24036778E-09 -4.72824452E-02 -5.91999783E-02  1.13524222E-08 -5.41843776E-09
 -4.01665266E-02 -5.02904935E-02 -4.63306871E-08  4.44069371E-09 -2.09569340E-01
 -2.62391260E-01 -9.01966281E-08  1.81935029E-07  4.17154472E-01  5.22298192E-01
 -9.59537400E-10 -4.33109937E-03 -5.22922753E-11 -3.07234974E-09 -3.45920682E-03
 -1.20157463E-09 -2.18171136E-09  6.15089890E-09 -4.72814225E-02 -5.91986977E-02
  1.15838401E-08  5.26787589E-09 -4.01653758E-02 -5.02890525E-02 -4.54871180E-08
 -3.47324060E-09 -2.09565796E-01 -2.62386823E-01 -1.01082586E-07 -1.76864068E-07
  4.17143999E-01  5.22285079E-01 -5.40118813E-09  4.33107427E-03  1.12463484E-09
 -5.68331473E-09  3.45918678E-03 -3.13581267E-09  2.23786382E-08  7.48314646E-08
  3.42614420E-11  2.47888760E-03  3.10369084E-03 -3.22183485E-09  2.18332314E-08
  7.27940401E-08 -3.68177654E-11  2.47861784E-03  3.10335309E-03  7.48286819E-03
  1.16557862E-02 -6.54710358E-02 -4.76533515E-08  5.18652057E-08 -1.73037634E-02
 -4.16371343E-02 -1.74778808E-08  2.11549321E-08 -2.05442531E-01 -2.88941196E-01
 -2.68791825E-07  2.90110568E-07  4.59670467E-01  9.05819685E-01  2.05707964E-07
 -1.67472178E-07  1.75463880E-02  4.98709022E-08  4.54339753E-14 -3.03912355E-02
 -4.85544982E-08  7.47634411E-03  1.16450046E-02  6.54586546E-02 -8.50948691E-08
  8.16565940E-08 -1.72749926E-02  4.16152048E-02 -5.15182523E-08  4.82429676E-08
 -2.05331356E-01  2.88956286E-01 -4.56788294E-07  4.39696832E-07  4.59850651E-01
 -9.05792360E-01 -1.70496953E-07  1.32054902E-07  1.75499982E-02 -5.76991226E-08
  3.75130971E-14 -3.03974885E-02  5.83922701E-08 -2.89788794E-02 -6.15930307E-02
 -4.39162891E-01  2.82435099E-02  2.39867915E-08 -2.42383974E-08 -2.89896286E-02
 -6.16164546E-02 -4.39326688E-01 -2.82457922E-02  2.50404318E-08 -2.50747805E-08
 -4.11885439E-09 -6.81257630E-09  1.17900175E-08  7.25067025E-02  7.83661987E-02
  1.60492196E-08  1.38245948E-08  7.37464086E-02  7.97060894E-02  1.09819091E-07
  4.29814576E-08  3.36343830E-01  3.63524840E-01 -7.00148138E-07 -3.38100347E-07
 -1.25781901E+00 -1.35946735E+00  6.72830178E-09 -3.76203296E-03  2.93693260E-10