 Entering Gaussian System, Link 0=g16
 Initial command:
 /home/szhao/Apps/g16/l1.exe "/home/szhao/tmp/Gau-30105.inp" -scrdir="/home/szhao/tmp/"
 Default is to use a total of  16 processors:
                               16 via shared-memory
                                1 via Linda
 Entering Link 1 = /home/szhao/Apps/g16/l1.exe PID=     30110.
  
 Copyright (c) 1988,1990,1992,1993,1995,1998,2003,2009,2016,
            Gaussian, Inc.  All Rights Reserved.
  
 This is part of the Gaussian(R) 16 program.  It is based on
 the Gaussian(R) 09 system (copyright 2009, Gaussian, Inc.),
 the Gaussian(R) 03 system (copyright 2003, Gaussian, Inc.),
 the Gaussian(R) 98 system (copyright 1998, Gaussian, Inc.),
 the Gaussian(R) 94 system (copyright 1995, Gaussian, Inc.),
 the Gaussian 92(TM) system (copyright 1992, Gaussian, Inc.),
 the Gaussian 90(TM) system (copyright 1990, Gaussian, Inc.),
 the Gaussian 88(TM) system (copyright 1988, Gaussian, Inc.),
 the Gaussian 86(TM) system (copyright 1986, Carnegie Mellon
 University), and the Gaussian 82(TM) system (copyright 1983,
 Carnegie Mellon University). Gaussian is a federally registered
 trademark of Gaussian, Inc.
  
 This software contains proprietary and confidential information,
 including trade secrets, belonging to Gaussian, Inc.
  
 This software is provided under written license and may be
 used, copied, transmitted, or stored only in accord with that
 written license.
  
 The following legend is applicable only to US Government
 contracts under FAR:
  
                    RESTRICTED RIGHTS LEGEND
  
 Use, reproduction and disclosure by the US Government is
 subject to restrictions as set forth in subparagraphs (a)
 and (c) of the Commercial Computer Software - Restricted
 Rights clause in FAR 52.227-19.
  
 Gaussian, Inc.
 340 Quinnipiac St., Bldg. 40, Wallingford CT 06492
  
  
 ---------------------------------------------------------------
 Warning -- This program may not be used in any manner that
 competes with the business of Gaussian, Inc. or will provide
 assistance to any competitor of Gaussian, Inc.  The licensee
 of this program is prohibited from giving any competitor of
 Gaussian, Inc. access to this program.  By using this program,
 the user acknowledges that Gaussian, Inc. is engaged in the
 business of creating and licensing software in the field of
 computational chemistry and represents and warrants to the
 licensee that it is not a competitor of Gaussian, Inc. and that
 it will not use this program in any manner prohibited above.
 ---------------------------------------------------------------
  

 Cite this work as:
 Gaussian 16, Revision A.03,
 M. J. Frisch, G. W. Trucks, H. B. Schlegel, G. E. Scuseria, 
 M. A. Robb, J. R. Cheeseman, G. Scalmani, V. Barone, 
 G. A. Petersson, H. Nakatsuji, X. Li, M. Caricato, A. V. Marenich, 
 J. Bloino, B. G. Janesko, R. Gomperts, B. Mennucci, H. P. Hratchian, 
 J. V. Ortiz, A. F. Izmaylov, J. L. Sonnenberg, D. Williams-Young, 
 F. Ding, F. Lipparini, F. Egidi, J. Goings, B. Peng, A. Petrone, 
 T. Henderson, D. Ranasinghe, V. G. Zakrzewski, J. Gao, N. Rega, 
 G. Zheng, W. Liang, M. Hada, M. Ehara, K. Toyota, R. Fukuda, 
 J. Hasegawa, M. Ishida, T. Nakajima, Y. Honda, O. Kitao, H. Nakai, 
 T. Vreven, K. Throssell, J. A. Montgomery, Jr., J. E. Peralta, 
 F. Ogliaro, M. J. Bearpark, J. J. Heyd, E. N. Brothers, K. N. Kudin, 
 V. N. Staroverov, T. A. Keith, R. Kobayashi, J. Normand, 
 K. Raghavachari, A. P. Rendell, J. C. Burant, S. S. Iyengar, 
 J. Tomasi, M. Cossi, J. M. Millam, M. Klene, C. Adamo, R. Cammi, 
 J. W. Ochterski, R. L. Martin, K. Morokuma, O. Farkas, 
 J. B. Foresman, and D. J. Fox, Gaussian, Inc., Wallingford CT, 2016.
 
 ******************************************
 Gaussian 16:  ES64L-G16RevA.03 25-Dec-2016
                21-Apr-2025 
 ******************************************
 %chk=opt.chk
 %mem=4GB
 %nprocshared=8
 Will use up to    8 processors via shared memory.
 --------------------------------------------
 #p opt UM062X/6-311+G** nosymm int=superfine
 --------------------------------------------
 1/18=20,19=15,26=5,38=1/1,3;
 2/9=110,12=2,15=1,17=6,18=5,40=1/2;
 3/5=4,6=6,7=111,11=2,25=1,30=1,71=1,74=-55,75=-7,116=2/1,2,3;
 4//1;
 5/5=2,38=5/2;
 6/7=2,8=2,9=2,10=2,28=1/1;
 7/30=1/1,2,3,16;
 1/18=20,19=15,26=5/3(2);
 2/9=110,15=1/2;
 99//99;
 2/9=110,15=1/2;
 3/5=4,6=6,7=111,11=2,25=1,30=1,71=1,74=-55,75=-7,116=2/1,2,3;
 4/5=5,16=3,69=1/1;
 5/5=2,38=5/2;
 7/30=1/1,2,3,16;
 1/18=20,19=15,26=5/3(-5);
 2/9=110,15=1/2;
 6/7=2,8=2,9=2,10=2,19=2,28=1/1;
 99/9=1/99;
 Leave Link    1 at Mon Apr 21 17:58:28 2025, MaxMem=   536870912 cpu:               2.4 elap:               0.3
 (Enter /home/szhao/Apps/g16/l101.exe)
 -------------------
 Title Card Required
 -------------------
 Symbolic Z-matrix:
 Charge =  1 Multiplicity = 2
 B                    -1   -1.65273   0.        0. 
 N                    -1    1.65273   0.        0. 
 H                    0    -2.82069  -0.00026   0. 
 H                    0     2.67125   0.        0. 
 
 Add virtual bond connecting atoms N2         and B1         Dist= 6.25D+00.
 ITRead=  2  2  0  0
 MicOpt= -2 -2 -1 -1
 NAtoms=      4 NQM=        2 NQMF=       2 NMMI=      0 NMMIF=      0
                NMic=       0 NMicF=      0.
                    Isotopes and Nuclear Properties:
 (Nuclear quadrupole moments (NQMom) in fm**2, nuclear magnetic moments (NMagM)
  in nuclear magnetons)

  Atom         1           2           3           4
 IAtWgt=          11          14           1           1
 AtmWgt=  11.0093053  14.0030740   1.0078250   1.0078250
 NucSpn=           3           2           1           1
 AtZEff=  -0.0000000  -0.0000000  -0.0000000  -0.0000000
 NQMom=    4.0590000   2.0440000   0.0000000   0.0000000
 NMagM=    2.6886370   0.4037610   2.7928460   2.7928460
 AtZNuc=   5.0000000   7.0000000   1.0000000   1.0000000
 Leave Link  101 at Mon Apr 21 17:58:29 2025, MaxMem=   536870912 cpu:               3.0 elap:               0.4
 (Enter /home/szhao/Apps/g16/l103.exe)

 GradGradGradGradGradGradGradGradGradGradGradGradGradGradGradGradGradGrad
 Berny optimization.
 Initialization pass.
                           ----------------------------
                           !    Initial Parameters    !
                           ! (Angstroms and Degrees)  !
 --------------------------                            --------------------------
 ! Name  Definition              Value          Derivative Info.                !
 --------------------------------------------------------------------------------
 ! X1    R(1,-1)                -1.6527         Frozen                          !
 ! Y1    R(1,-2)                 0.0            Frozen                          !
 ! Z1    R(1,-3)                 0.0            Frozen                          !
 ! X2    R(2,-1)                 1.6527         Frozen                          !
 ! Y2    R(2,-2)                 0.0            Frozen                          !
 ! Z2    R(2,-3)                 0.0            Frozen                          !
 ! R1    R(1,3)                  1.168          estimate D2E/DX2                !
 ! R2    R(2,4)                  1.0185         estimate D2E/DX2                !
 ! A1    L(2,1,3,-3,-1)        179.9872         estimate D2E/DX2                !
 ! A2    L(1,2,4,-3,-1)        179.9999         estimate D2E/DX2                !
 ! A3    L(2,1,3,-2,-2)        180.0            estimate D2E/DX2                !
 ! A4    L(1,2,4,-2,-2)        180.0            estimate D2E/DX2                !
 --------------------------------------------------------------------------------
 Trust Radius=3.00D-01 FncErr=1.00D-07 GrdErr=1.00D-07 EigMax=2.50D+02 EigMin=1.00D-04
 Number of steps in this run=     22 maximum allowed number of steps=    100.
 GradGradGradGradGradGradGradGradGradGradGradGradGradGradGradGradGradGrad

 Leave Link  103 at Mon Apr 21 17:58:30 2025, MaxMem=   536870912 cpu:               0.3 elap:               0.1
 (Enter /home/szhao/Apps/g16/l202.exe)
                          Input orientation:                          
 ---------------------------------------------------------------------
 Center     Atomic      Atomic             Coordinates (Angstroms)
 Number     Number       Type             X           Y           Z
 ---------------------------------------------------------------------
      1          5           0       -1.652734    0.000000    0.000000
      2          7           0        1.652734    0.000000    0.000000
      3          1           0       -2.820689   -0.000261    0.000000
      4          1           0        2.671250    0.000002    0.000000
 ---------------------------------------------------------------------
                    Distance matrix (angstroms):
                    1          2          3          4
     1  B    0.000000
     2  N    3.305468   0.000000
     3  H    1.167955   4.473424   0.000000
     4  H    4.323984   1.018516   5.491940   0.000000
 Symmetry turned off by external request.
 Stoichiometry    BH2N(1+,2)
 Framework group  C*V[C*(HNBH)]
 Deg. of freedom     3
 Full point group                 C*V     NOp   4
 Rotational constants (GHZ):           0.0000000           6.1124295           6.1124295
 Leave Link  202 at Mon Apr 21 17:58:30 2025, MaxMem=   536870912 cpu:               0.1 elap:               0.1
 (Enter /home/szhao/Apps/g16/l301.exe)
 Standard basis: 6-311+G(d,p) (5D, 7F)
 Ernie: Thresh=  0.10000D-02 Tol=  0.10000D-05 Strict=F.
    56 basis functions,    88 primitive gaussians,    58 cartesian basis functions
     7 alpha electrons        6 beta electrons
       nuclear repulsion energy        13.0418200102 Hartrees.
 IExCor= 4336 DFT=T Ex+Corr=M062X ExCW=0 ScaHFX=  0.540000
 ScaDFX=  1.000000  1.000000  1.000000  1.000000 ScalE2=  1.000000  1.000000
 IRadAn=      7 IRanWt=     -1 IRanGd=            0 ICorTp=0 IEmpDi=  4
 NAtoms=    4 NActive=    4 NUniq=    4 SFac= 1.00D+00 NAtFMM=   60 NAOKFM=F Big=F
 Integral buffers will be    131072 words long.
 Raffenetti 2 integral format.
 Two-electron integral symmetry is turned off.
 Leave Link  301 at Mon Apr 21 17:58:30 2025, MaxMem=   536870912 cpu:               0.4 elap:               0.1
 (Enter /home/szhao/Apps/g16/l302.exe)
 NPDir=0 NMtPBC=     1 NCelOv=     1 NCel=       1 NClECP=     1 NCelD=      1
         NCelK=      1 NCelE2=     1 NClLst=     1 CellRange=     0.0.
 One-electron integrals computed using PRISM.
 NBasis=    56 RedAO= T EigKep=  8.32D-03  NBF=    56
 NBsUse=    56 1.00D-06 EigRej= -1.00D+00 NBFU=    56
 Precomputing XC quadrature grid using
 IXCGrd= 4 IRadAn=           7 IRanWt=          -1 IRanGd=           0 AccXCQ= 0.00D+00.
 Generated NRdTot=       0 NPtTot=           0 NUsed=           0 NTot=          32
 NSgBfM=    58    58    58    58    58 MxSgAt=     4 MxSgA2=     4.
 Leave Link  302 at Mon Apr 21 17:58:30 2025, MaxMem=   536870912 cpu:               1.3 elap:               0.3
 (Enter /home/szhao/Apps/g16/l303.exe)
 DipDrv:  MaxL=1.
 Leave Link  303 at Mon Apr 21 17:58:31 2025, MaxMem=   536870912 cpu:               0.5 elap:               0.1
 (Enter /home/szhao/Apps/g16/l401.exe)
 ExpMin= 3.15D-02 ExpMax= 6.29D+03 ExpMxC= 9.49D+02 IAcc=3 IRadAn=         7 AccDes= 0.00D+00
 Harris functional with IExCor= 1009 and IRadAn=       7 diagonalized for initial guess.
 HarFok:  IExCor= 1009 AccDes= 0.00D+00 IRadAn=         7 IDoV= 1 UseB2=F ITyADJ=14
 ICtDFT=  3500011 ScaDFX=  1.000000  1.000000  1.000000  1.000000
 FoFCou: FMM=F IPFlag=           0 FMFlag=      100000 FMFlg1=           0
         NFxFlg=           0 DoJE=T BraDBF=F KetDBF=T FulRan=T
         wScrn=  0.000000 ICntrl=       500 IOpCl=  0 I1Cent=   200000004 NGrid=           0
         NMat0=    1 NMatS0=      1 NMatT0=    0 NMatD0=    1 NMtDS0=    0 NMtDT0=    0
 Symmetry not used in FoFCou.
 Harris En= -80.1344825463948    
 JPrj=0 DoOrth=F DoCkMO=F.
 Initial guess <Sx>= 0.0000 <Sy>= 0.0000 <Sz>= 0.5000 <S**2>= 0.7500 S= 0.5000
 Leave Link  401 at Mon Apr 21 17:58:31 2025, MaxMem=   536870912 cpu:               2.4 elap:               0.4
 (Enter /home/szhao/Apps/g16/l502.exe)
 Keep R1 and R2 ints in memory in canonical form, NReq=9624198.
 FoFCou: FMM=F IPFlag=           0 FMFlag=           0 FMFlg1=           0
         NFxFlg=           0 DoJE=F BraDBF=F KetDBF=F FulRan=T
         wScrn=  0.000000 ICntrl=       600 IOpCl=  0 I1Cent=           0 NGrid=           0
         NMat0=    1 NMatS0=   1596 NMatT0=    0 NMatD0=    1 NMtDS0=    0 NMtDT0=    0
 Symmetry not used in FoFCou.
 Two-electron integral symmetry not used.
 UHF open shell SCF:
 Using DIIS extrapolation, IDIIS=  1040.
 NGot=   536870912 LenX=   534314338 LenY=   534310533
 Requested convergence on RMS density matrix=1.00D-08 within 128 cycles.
 Requested convergence on MAX density matrix=1.00D-06.
 Requested convergence on             energy=1.00D-06.
 No special actions if energy rises.

 Cycle   1  Pass 1  IDiag  1:
 E= -79.5622885568429    
 DIIS: error= 4.05D-02 at cycle   1 NSaved=   1.
 NSaved= 1 IEnMin= 1 EnMin= -79.5622885568429     IErMin= 1 ErrMin= 4.05D-02
 ErrMax= 4.05D-02  0.00D+00 EMaxC= 1.00D-01 BMatC= 5.18D-01 BMatP= 5.18D-01
 IDIUse=3 WtCom= 5.95D-01 WtEn= 4.05D-01
 Coeff-Com:  0.100D+01
 Coeff-En:   0.100D+01
 Coeff:      0.100D+01
 Gap=    -0.540 Goal=   None    Shift=    0.000
 Gap=     0.269 Goal=   None    Shift=    0.000
 GapD=   -0.540 DampG=0.250 DampE=0.500 DampFc=0.2500 IDamp=-1.
 Damping current iteration by 2.50D-01
 RMSDP=2.44D-02 MaxDP=5.01D-01              OVMax= 1.00D+00

 Cycle   2  Pass 1  IDiag  1:
 E= -79.4807740304770     Delta-E=        0.081514526366 Rises=F Damp=T
 DIIS: error= 2.01D-02 at cycle   2 NSaved=   2.
 NSaved= 2 IEnMin= 1 EnMin= -79.5622885568429     IErMin= 2 ErrMin= 2.01D-02
 ErrMax= 2.01D-02  0.00D+00 EMaxC= 1.00D-01 BMatC= 1.05D-01 BMatP= 5.18D-01
 IDIUse=3 WtCom= 7.99D-01 WtEn= 2.01D-01
 Coeff-Com:  0.236D+00 0.764D+00
 Coeff-En:   0.554D+00 0.446D+00
 Coeff:      0.300D+00 0.700D+00
 Gap=    -0.228 Goal=   None    Shift=    0.000
 Gap=    -0.660 Goal=   None    Shift=    0.000
 RMSDP=5.70D-03 MaxDP=8.04D-02 DE= 8.15D-02 OVMax= 9.99D-01

 Cycle   3  Pass 1  IDiag  1:
 E= -79.6327076830528     Delta-E=       -0.151933652576 Rises=F Damp=F
 DIIS: error= 4.49D-02 at cycle   3 NSaved=   3.
 NSaved= 3 IEnMin= 3 EnMin= -79.6327076830528     IErMin= 2 ErrMin= 2.01D-02
 ErrMax= 4.49D-02  0.00D+00 EMaxC= 1.00D-01 BMatC= 3.31D-01 BMatP= 1.05D-01
 IDIUse=2 WtCom= 0.00D+00 WtEn= 1.00D+00
 Coeff-En:   0.000D+00 0.388D+00 0.612D+00
 Coeff:      0.000D+00 0.388D+00 0.612D+00
 Gap=    -0.215 Goal=   None    Shift=    0.000
 Gap=    -0.238 Goal=   None    Shift=    0.000
 RMSDP=1.83D-02 MaxDP=2.76D-01 DE=-1.52D-01 OVMax= 9.93D-01

 Cycle   4  Pass 1  IDiag  1:
 E= -77.1739765362371     Delta-E=        2.458731146816 Rises=F Damp=F
 DIIS: error= 1.48D-01 at cycle   4 NSaved=   4.
 NSaved= 4 IEnMin= 3 EnMin= -79.6327076830528     IErMin= 2 ErrMin= 2.01D-02
 ErrMax= 1.48D-01  0.00D+00 EMaxC= 1.00D-01 BMatC= 3.03D+00 BMatP= 1.05D-01
 IDIUse=2 WtCom= 0.00D+00 WtEn= 1.00D+00
 Coeff-En:   0.000D+00 0.000D+00 0.778D+00 0.222D+00
 Coeff:      0.000D+00 0.000D+00 0.778D+00 0.222D+00
 Gap=     0.053 Goal=   None    Shift=    0.000
 Gap=     0.054 Goal=   None    Shift=    0.000
 RMSDP=1.27D-02 MaxDP=2.76D-01 DE= 2.46D+00 OVMax= 9.78D-01

 Cycle   5  Pass 1  IDiag  1:
 E= -79.8814232513873     Delta-E=       -2.707446715150 Rises=F Damp=F
 DIIS: error= 5.09D-02 at cycle   5 NSaved=   5.
 NSaved= 5 IEnMin= 5 EnMin= -79.8814232513873     IErMin= 2 ErrMin= 2.01D-02
 ErrMax= 5.09D-02  0.00D+00 EMaxC= 1.00D-01 BMatC= 3.83D-01 BMatP= 1.05D-01
 IDIUse=2 WtCom= 0.00D+00 WtEn= 1.00D+00
 Coeff-En:   0.000D+00 0.000D+00 0.362D+00 0.000D+00 0.638D+00
 Coeff:      0.000D+00 0.000D+00 0.362D+00 0.000D+00 0.638D+00
 Gap=     0.187 Goal=   None    Shift=    0.000
 Gap=     0.180 Goal=   None    Shift=    0.000
 RMSDP=1.06D-02 MaxDP=2.15D-01 DE=-2.71D+00 OVMax= 1.00D+00

 Cycle   6  Pass 1  IDiag  1:
 E= -80.1294454946189     Delta-E=       -0.248022243232 Rises=F Damp=F
 DIIS: error= 1.95D-02 at cycle   6 NSaved=   6.
 NSaved= 6 IEnMin= 6 EnMin= -80.1294454946189     IErMin= 6 ErrMin= 1.95D-02
 ErrMax= 1.95D-02  0.00D+00 EMaxC= 1.00D-01 BMatC= 9.97D-02 BMatP= 1.05D-01
 IDIUse=3 WtCom= 8.05D-01 WtEn= 1.95D-01
 Coeff-Com: -0.191D+00 0.302D+00 0.288D+00-0.107D-01 0.178D+00 0.434D+00
 Coeff-En:   0.000D+00 0.000D+00 0.000D+00 0.000D+00 0.000D+00 0.100D+01
 Coeff:     -0.154D+00 0.243D+00 0.232D+00-0.861D-02 0.143D+00 0.545D+00
 Gap=     0.091 Goal=   None    Shift=    0.000
 Gap=     0.250 Goal=   None    Shift=    0.000
 RMSDP=2.20D-03 MaxDP=6.20D-02 DE=-2.48D-01 OVMax= 5.73D-02

 Cycle   7  Pass 1  IDiag  1:
 E= -80.1549224422170     Delta-E=       -0.025476947598 Rises=F Damp=F
 DIIS: error= 6.57D-03 at cycle   7 NSaved=   7.
 NSaved= 7 IEnMin= 7 EnMin= -80.1549224422170     IErMin= 7 ErrMin= 6.57D-03
 ErrMax= 6.57D-03  0.00D+00 EMaxC= 1.00D-01 BMatC= 9.34D-03 BMatP= 9.97D-02
 IDIUse=3 WtCom= 9.34D-01 WtEn= 6.57D-02
 Coeff-Com: -0.843D-01 0.164D+00 0.152D+00 0.954D-03 0.730D-01 0.584D-01
 Coeff-Com:  0.637D+00
 Coeff-En:   0.000D+00 0.000D+00 0.000D+00 0.000D+00 0.000D+00 0.000D+00
 Coeff-En:   0.100D+01
 Coeff:     -0.787D-01 0.153D+00 0.142D+00 0.892D-03 0.682D-01 0.545D-01
 Coeff:      0.661D+00
 Gap=     0.117 Goal=   None    Shift=    0.000
 Gap=     0.266 Goal=   None    Shift=    0.000
 RMSDP=8.08D-04 MaxDP=3.00D-02 DE=-2.55D-02 OVMax= 2.13D-02

 Cycle   8  Pass 1  IDiag  1:
 E= -80.1578085107860     Delta-E=       -0.002886068569 Rises=F Damp=F
 DIIS: error= 4.93D-03 at cycle   8 NSaved=   8.
 NSaved= 8 IEnMin= 8 EnMin= -80.1578085107860     IErMin= 8 ErrMin= 4.93D-03
 ErrMax= 4.93D-03  0.00D+00 EMaxC= 1.00D-01 BMatC= 4.82D-03 BMatP= 9.34D-03
 IDIUse=3 WtCom= 9.51D-01 WtEn= 4.93D-02
 Coeff-Com: -0.154D-03 0.243D-01 0.742D-02 0.747D-03-0.136D-01-0.245D+00
 Coeff-Com: -0.739D+00 0.196D+01
 Coeff-En:   0.000D+00 0.000D+00 0.000D+00 0.000D+00 0.000D+00 0.000D+00
 Coeff-En:   0.000D+00 0.100D+01
 Coeff:     -0.146D-03 0.231D-01 0.705D-02 0.710D-03-0.129D-01-0.233D+00
 Coeff:     -0.702D+00 0.192D+01
 Gap=     0.134 Goal=   None    Shift=    0.000
 Gap=     0.252 Goal=   None    Shift=    0.000
 RMSDP=1.13D-03 MaxDP=3.93D-02 DE=-2.89D-03 OVMax= 3.32D-02

 Cycle   9  Pass 1  IDiag  1:
 E= -80.1600170012233     Delta-E=       -0.002208490437 Rises=F Damp=F
 DIIS: error= 7.74D-04 at cycle   9 NSaved=   9.
 NSaved= 9 IEnMin= 9 EnMin= -80.1600170012233     IErMin= 9 ErrMin= 7.74D-04
 ErrMax= 7.74D-04  0.00D+00 EMaxC= 1.00D-01 BMatC= 1.18D-04 BMatP= 4.82D-03
 IDIUse=3 WtCom= 9.92D-01 WtEn= 7.74D-03
 Coeff-Com: -0.469D-03-0.374D-02 0.417D-02 0.762D-03-0.506D-02 0.408D-01
 Coeff-Com: -0.520D-01-0.113D+00 0.113D+01
 Coeff-En:   0.000D+00 0.000D+00 0.000D+00 0.000D+00 0.000D+00 0.000D+00
 Coeff-En:   0.000D+00 0.000D+00 0.100D+01
 Coeff:     -0.465D-03-0.371D-02 0.413D-02 0.756D-03-0.502D-02 0.405D-01
 Coeff:     -0.516D-01-0.112D+00 0.113D+01
 Gap=     0.132 Goal=   None    Shift=    0.000
 Gap=     0.225 Goal=   None    Shift=    0.000
 RMSDP=1.22D-04 MaxDP=3.25D-03 DE=-2.21D-03 OVMax= 4.33D-03

 Cycle  10  Pass 1  IDiag  1:
 E= -80.1600522194462     Delta-E=       -0.000035218223 Rises=F Damp=F
 DIIS: error= 2.94D-04 at cycle  10 NSaved=  10.
 NSaved=10 IEnMin=10 EnMin= -80.1600522194462     IErMin=10 ErrMin= 2.94D-04
 ErrMax= 2.94D-04  0.00D+00 EMaxC= 1.00D-01 BMatC= 1.86D-05 BMatP= 1.18D-04
 IDIUse=3 WtCom= 9.97D-01 WtEn= 2.94D-03
 Coeff-Com:  0.771D-03-0.278D-02 0.107D-02 0.383D-03-0.141D-02 0.725D-02
 Coeff-Com:  0.530D-01-0.680D-01-0.168D+00 0.118D+01
 Coeff-En:   0.000D+00 0.000D+00 0.000D+00 0.000D+00 0.000D+00 0.000D+00
 Coeff-En:   0.000D+00 0.000D+00 0.000D+00 0.100D+01
 Coeff:      0.769D-03-0.278D-02 0.107D-02 0.382D-03-0.140D-02 0.723D-02
 Coeff:      0.529D-01-0.678D-01-0.168D+00 0.118D+01
 Gap=     0.134 Goal=   None    Shift=    0.000
 Gap=     0.228 Goal=   None    Shift=    0.000
 RMSDP=3.96D-05 MaxDP=1.31D-03 DE=-3.52D-05 OVMax= 8.85D-04

 Cycle  11  Pass 1  IDiag  1:
 E= -80.1600589302658     Delta-E=       -0.000006710820 Rises=F Damp=F
 DIIS: error= 1.11D-04 at cycle  11 NSaved=  11.
 NSaved=11 IEnMin=11 EnMin= -80.1600589302658     IErMin=11 ErrMin= 1.11D-04
 ErrMax= 1.11D-04  0.00D+00 EMaxC= 1.00D-01 BMatC= 2.87D-06 BMatP= 1.86D-05
 IDIUse=3 WtCom= 9.99D-01 WtEn= 1.11D-03
 Coeff-Com:  0.921D-03-0.111D-02-0.462D-03 0.728D-04-0.116D-03-0.252D-02
 Coeff-Com:  0.268D-02 0.159D-01-0.556D-01-0.146D+00 0.119D+01
 Coeff-En:   0.000D+00 0.000D+00 0.000D+00 0.000D+00 0.000D+00 0.000D+00
 Coeff-En:   0.000D+00 0.000D+00 0.000D+00 0.000D+00 0.100D+01
 Coeff:      0.920D-03-0.111D-02-0.462D-03 0.727D-04-0.116D-03-0.251D-02
 Coeff:      0.268D-02 0.158D-01-0.555D-01-0.146D+00 0.119D+01
 Gap=     0.134 Goal=   None    Shift=    0.000
 Gap=     0.229 Goal=   None    Shift=    0.000
 RMSDP=1.68D-05 MaxDP=6.23D-04 DE=-6.71D-06 OVMax= 4.06D-04

 Cycle  12  Pass 1  IDiag  1:
 E= -80.1600600301320     Delta-E=       -0.000001099866 Rises=F Damp=F
 DIIS: error= 3.95D-05 at cycle  12 NSaved=  12.
 NSaved=12 IEnMin=12 EnMin= -80.1600600301320     IErMin=12 ErrMin= 3.95D-05
 ErrMax= 3.95D-05  0.00D+00 EMaxC= 1.00D-01 BMatC= 2.70D-07 BMatP= 2.87D-06
 IDIUse=1 WtCom= 1.00D+00 WtEn= 0.00D+00
 Coeff-Com:  0.439D-03-0.221D-03-0.354D-03-0.671D-05 0.114D-03-0.856D-03
 Coeff-Com: -0.507D-02 0.917D-02 0.208D-01-0.152D+00 0.412D-02 0.112D+01
 Coeff:      0.439D-03-0.221D-03-0.354D-03-0.671D-05 0.114D-03-0.856D-03
 Coeff:     -0.507D-02 0.917D-02 0.208D-01-0.152D+00 0.412D-02 0.112D+01
 Gap=     0.134 Goal=   None    Shift=    0.000
 Gap=     0.229 Goal=   None    Shift=    0.000
 RMSDP=7.22D-06 MaxDP=2.26D-04 DE=-1.10D-06 OVMax= 3.59D-04

 Cycle  13  Pass 1  IDiag  1:
 E= -80.1600601619039     Delta-E=       -0.000000131772 Rises=F Damp=F
 DIIS: error= 8.04D-06 at cycle  13 NSaved=  13.
 NSaved=13 IEnMin=13 EnMin= -80.1600601619039     IErMin=13 ErrMin= 8.04D-06
 ErrMax= 8.04D-06  0.00D+00 EMaxC= 1.00D-01 BMatC= 7.72D-09 BMatP= 2.70D-07
 IDIUse=1 WtCom= 1.00D+00 WtEn= 0.00D+00
 Coeff-Com:  0.143D-04-0.381D-04-0.813D-05-0.402D-05 0.518D-04 0.232D-03
 Coeff-Com:  0.188D-03-0.163D-02 0.426D-02 0.235D-01-0.121D+00 0.582D-02
 Coeff-Com:  0.109D+01
 Coeff:      0.143D-04-0.381D-04-0.813D-05-0.402D-05 0.518D-04 0.232D-03
 Coeff:      0.188D-03-0.163D-02 0.426D-02 0.235D-01-0.121D+00 0.582D-02
 Coeff:      0.109D+01
 Gap=     0.134 Goal=   None    Shift=    0.000
 Gap=     0.229 Goal=   None    Shift=    0.000
 RMSDP=1.16D-06 MaxDP=2.25D-05 DE=-1.32D-07 OVMax= 6.43D-05

 Cycle  14  Pass 1  IDiag  1:
 E= -80.1600601669404     Delta-E=       -0.000000005037 Rises=F Damp=F
 DIIS: error= 1.64D-06 at cycle  14 NSaved=  14.
 NSaved=14 IEnMin=14 EnMin= -80.1600601669404     IErMin=14 ErrMin= 1.64D-06
 ErrMax= 1.64D-06  0.00D+00 EMaxC= 1.00D-01 BMatC= 5.39D-10 BMatP= 7.72D-09
 IDIUse=1 WtCom= 1.00D+00 WtEn= 0.00D+00
 Coeff-Com:  0.354D-05-0.105D-04-0.895D-05-0.262D-05 0.171D-04-0.459D-04
 Coeff-Com:  0.835D-04 0.198D-05-0.101D-02 0.447D-02 0.104D-01-0.625D-01
 Coeff-Com: -0.338D-01 0.108D+01
 Coeff:      0.354D-05-0.105D-04-0.895D-05-0.262D-05 0.171D-04-0.459D-04
 Coeff:      0.835D-04 0.198D-05-0.101D-02 0.447D-02 0.104D-01-0.625D-01
 Coeff:     -0.338D-01 0.108D+01
 Gap=     0.134 Goal=   None    Shift=    0.000
 Gap=     0.229 Goal=   None    Shift=    0.000
 RMSDP=3.49D-07 MaxDP=4.57D-06 DE=-5.04D-09 OVMax= 1.48D-05

 Cycle  15  Pass 1  IDiag  1:
 E= -80.1600601672479     Delta-E=       -0.000000000307 Rises=F Damp=F
 DIIS: error= 5.33D-07 at cycle  15 NSaved=  15.
 NSaved=15 IEnMin=15 EnMin= -80.1600601672479     IErMin=15 ErrMin= 5.33D-07
 ErrMax= 5.33D-07  0.00D+00 EMaxC= 1.00D-01 BMatC= 5.87D-11 BMatP= 5.39D-10
 IDIUse=1 WtCom= 1.00D+00 WtEn= 0.00D+00
 Coeff-Com:  0.101D-05 0.483D-07-0.300D-05-0.651D-06 0.257D-05-0.255D-04
 Coeff-Com: -0.573D-04 0.184D-03-0.916D-04-0.192D-02 0.407D-02 0.110D-01
 Coeff-Com: -0.473D-01-0.224D+00 0.126D+01
 Coeff:      0.101D-05 0.483D-07-0.300D-05-0.651D-06 0.257D-05-0.255D-04
 Coeff:     -0.573D-04 0.184D-03-0.916D-04-0.192D-02 0.407D-02 0.110D-01
 Coeff:     -0.473D-01-0.224D+00 0.126D+01
 Gap=     0.134 Goal=   None    Shift=    0.000
 Gap=     0.229 Goal=   None    Shift=    0.000
 RMSDP=1.25D-07 MaxDP=3.32D-06 DE=-3.07D-10 OVMax= 4.13D-06

 Cycle  16  Pass 1  IDiag  1:
 E= -80.1600601672814     Delta-E=       -0.000000000033 Rises=F Damp=F
 DIIS: error= 1.90D-07 at cycle  16 NSaved=  16.
 NSaved=16 IEnMin=16 EnMin= -80.1600601672814     IErMin=16 ErrMin= 1.90D-07
 ErrMax= 1.90D-07  0.00D+00 EMaxC= 1.00D-01 BMatC= 4.71D-12 BMatP= 5.87D-11
 IDIUse=1 WtCom= 1.00D+00 WtEn= 0.00D+00
 Coeff-Com: -0.149D-06 0.476D-06 0.991D-07 0.380D-07-0.675D-06 0.389D-05
 Coeff-Com: -0.824D-05-0.357D-05 0.657D-04-0.303D-05-0.183D-02 0.540D-02
 Coeff-Com:  0.107D-01-0.531D-01-0.249D+00 0.129D+01
 Coeff:     -0.149D-06 0.476D-06 0.991D-07 0.380D-07-0.675D-06 0.389D-05
 Coeff:     -0.824D-05-0.357D-05 0.657D-04-0.303D-05-0.183D-02 0.540D-02
 Coeff:      0.107D-01-0.531D-01-0.249D+00 0.129D+01
 Gap=     0.134 Goal=   None    Shift=    0.000
 Gap=     0.229 Goal=   None    Shift=    0.000
 RMSDP=4.10D-08 MaxDP=1.09D-06 DE=-3.34D-11 OVMax= 1.68D-06

 Cycle  17  Pass 1  IDiag  1:
 E= -80.1600601672847     Delta-E=       -0.000000000003 Rises=F Damp=F
 DIIS: error= 3.69D-08 at cycle  17 NSaved=  17.
 NSaved=17 IEnMin=17 EnMin= -80.1600601672847     IErMin=17 ErrMin= 3.69D-08
 ErrMax= 3.69D-08  0.00D+00 EMaxC= 1.00D-01 BMatC= 3.00D-13 BMatP= 4.71D-12
 IDIUse=1 WtCom= 1.00D+00 WtEn= 0.00D+00
 Coeff-Com: -0.497D-07-0.607D-07 0.121D-06 0.280D-07-0.286D-06 0.612D-06
 Coeff-Com:  0.498D-05-0.966D-05-0.206D-04 0.120D-03 0.292D-03-0.250D-02
 Coeff-Com:  0.133D-02 0.341D-01-0.341D-01-0.272D+00 0.127D+01
 Coeff:     -0.497D-07-0.607D-07 0.121D-06 0.280D-07-0.286D-06 0.612D-06
 Coeff:      0.498D-05-0.966D-05-0.206D-04 0.120D-03 0.292D-03-0.250D-02
 Coeff:      0.133D-02 0.341D-01-0.341D-01-0.272D+00 0.127D+01
 Gap=     0.134 Goal=   None    Shift=    0.000
 Gap=     0.229 Goal=   None    Shift=    0.000
 RMSDP=1.33D-08 MaxDP=1.98D-07 DE=-3.30D-12 OVMax= 1.13D-06

 Cycle  18  Pass 1  IDiag  1:
 E= -80.1600601672852     Delta-E=       -0.000000000001 Rises=F Damp=F
 DIIS: error= 2.36D-08 at cycle  18 NSaved=  18.
 NSaved=18 IEnMin=18 EnMin= -80.1600601672852     IErMin=18 ErrMin= 2.36D-08
 ErrMax= 2.36D-08  0.00D+00 EMaxC= 1.00D-01 BMatC= 7.87D-14 BMatP= 3.00D-13
 IDIUse=1 WtCom= 1.00D+00 WtEn= 0.00D+00
 Coeff-Com: -0.316D-07 0.306D-07 0.944D-07 0.762D-08-0.794D-08 0.216D-06
 Coeff-Com: -0.968D-06 0.197D-05 0.124D-04-0.640D-04 0.768D-05 0.589D-03
 Coeff-Com: -0.116D-02-0.117D-01 0.329D-01 0.193D-01-0.595D+00 0.155D+01
 Coeff:     -0.316D-07 0.306D-07 0.944D-07 0.762D-08-0.794D-08 0.216D-06
 Coeff:     -0.968D-06 0.197D-05 0.124D-04-0.640D-04 0.768D-05 0.589D-03
 Coeff:     -0.116D-02-0.117D-01 0.329D-01 0.193D-01-0.595D+00 0.155D+01
 Gap=     0.134 Goal=   None    Shift=    0.000
 Gap=     0.229 Goal=   None    Shift=    0.000
 RMSDP=1.07D-08 MaxDP=1.77D-07 DE=-5.40D-13 OVMax= 1.00D-06

 Cycle  19  Pass 1  IDiag  1:
 E= -80.1600601672853     Delta-E=       -0.000000000000 Rises=F Damp=F
 DIIS: error= 1.28D-08 at cycle  19 NSaved=  19.
 NSaved=19 IEnMin=19 EnMin= -80.1600601672853     IErMin=19 ErrMin= 1.28D-08
 ErrMax= 1.28D-08  0.00D+00 EMaxC= 1.00D-01 BMatC= 1.64D-14 BMatP= 7.87D-14
 IDIUse=1 WtCom= 1.00D+00 WtEn= 0.00D+00
 Large coefficients: NSaved= 19 BigCof=    0.00 CofMax=   10.00 Det=-2.52D-15
 Inversion failed.  Reducing to 18 matrices.
 Large coefficients: NSaved= 18 BigCof=    0.00 CofMax=   10.00 Det=-2.56D-15
 Inversion failed.  Reducing to 17 matrices.
 Large coefficients: NSaved= 17 BigCof=    0.00 CofMax=   10.00 Det=-2.57D-15
 Inversion failed.  Reducing to 16 matrices.
 Large coefficients: NSaved= 16 BigCof=    0.00 CofMax=   10.00 Det=-2.58D-15
 Inversion failed.  Reducing to 15 matrices.
 Coeff-Com:  0.571D-07-0.212D-06 0.230D-06-0.882D-06-0.885D-05 0.534D-04
 Coeff-Com: -0.145D-03 0.178D-03 0.919D-03 0.212D-02-0.302D-01 0.750D-01
 Coeff-Com:  0.249D+00-0.170D+01 0.240D+01
 Coeff:      0.571D-07-0.212D-06 0.230D-06-0.882D-06-0.885D-05 0.534D-04
 Coeff:     -0.145D-03 0.178D-03 0.919D-03 0.212D-02-0.302D-01 0.750D-01
 Coeff:      0.249D+00-0.170D+01 0.240D+01
 Gap=     0.134 Goal=   None    Shift=    0.000
 Gap=     0.229 Goal=   None    Shift=    0.000
 RMSDP=1.20D-08 MaxDP=2.08D-07 DE=-1.42D-13 OVMax= 1.17D-06

 Cycle  20  Pass 1  IDiag  1:
 E= -80.1600601672854     Delta-E=       -0.000000000000 Rises=F Damp=F
 DIIS: error= 2.68D-09 at cycle  20 NSaved=  16.
 NSaved=16 IEnMin=16 EnMin= -80.1600601672854     IErMin=16 ErrMin= 2.68D-09
 ErrMax= 2.68D-09  0.00D+00 EMaxC= 1.00D-01 BMatC= 2.08D-15 BMatP= 1.64D-14
 IDIUse=1 WtCom= 1.00D+00 WtEn= 0.00D+00
 Large coefficients: NSaved= 16 BigCof=    0.00 CofMax=   10.00 Det=-3.89D-16
 Inversion failed.  Reducing to 15 matrices.
 Coeff-Com: -0.606D-07 0.427D-08-0.534D-07 0.136D-05-0.880D-05 0.392D-04
 Coeff-Com: -0.108D-03-0.615D-04 0.792D-03 0.417D-02-0.230D-01 0.211D-01
 Coeff-Com:  0.253D+00-0.695D+00 0.144D+01
 Coeff:     -0.606D-07 0.427D-08-0.534D-07 0.136D-05-0.880D-05 0.392D-04
 Coeff:     -0.108D-03-0.615D-04 0.792D-03 0.417D-02-0.230D-01 0.211D-01
 Coeff:      0.253D+00-0.695D+00 0.144D+01
 Gap=     0.134 Goal=   None    Shift=    0.000
 Gap=     0.229 Goal=   None    Shift=    0.000
 RMSDP=3.14D-09 MaxDP=5.53D-08 DE=-2.84D-14 OVMax= 3.11D-07

 SCF Done:  E(UM062X) =  -80.1600601673     A.U. after   20 cycles
            NFock= 20  Conv=0.31D-08     -V/T= 2.0024
 <Sx>= 0.0000 <Sy>= 0.0000 <Sz>= 0.5000 <S**2>= 1.7572 S= 0.9168
 <L.S>=  0.00000000000    
 KE= 7.997103859407D+01 PE=-2.100788497824D+02 EE= 3.690593101091D+01
 Annihilation of the first spin contaminant:
 S**2 before annihilation     1.7572,   after     0.7741
 Leave Link  502 at Mon Apr 21 17:58:39 2025, MaxMem=   536870912 cpu:              58.7 elap:               7.7
 (Enter /home/szhao/Apps/g16/l601.exe)
 Copying SCF densities to generalized density rwf, IOpCl= 1 IROHF=0.

 **********************************************************************

            Population analysis using the SCF density.

 **********************************************************************

 Alpha  occ. eigenvalues --  -14.97052  -7.52946  -1.10527  -0.86672  -0.64403
 Alpha  occ. eigenvalues --   -0.56662  -0.56662
 Alpha virt. eigenvalues --   -0.43228  -0.34358  -0.34358  -0.15015  -0.11244
 Alpha virt. eigenvalues --   -0.09884  -0.09884  -0.06418  -0.02501   0.00573
 Alpha virt. eigenvalues --    0.00573   0.04401   0.07998   0.13019   0.13019
 Alpha virt. eigenvalues --    0.14628   0.19023   0.35332   0.43970   0.48631
 Alpha virt. eigenvalues --    0.48631   0.51229   0.51229   0.63424   0.64463
 Alpha virt. eigenvalues --    0.64463   0.81111   0.93372   1.15320   1.15320
 Alpha virt. eigenvalues --    1.36272   1.36272   1.50888   1.50888   1.55503
 Alpha virt. eigenvalues --    1.79683   1.79683   1.80728   2.20778   2.20778
 Alpha virt. eigenvalues --    2.23583   2.36823   2.42409   2.84229   3.64306
 Alpha virt. eigenvalues --    3.64306   4.24032  13.83390  35.28770
  Beta  occ. eigenvalues --  -14.94613  -7.54212  -0.97835  -0.90111  -0.68012
  Beta  occ. eigenvalues --   -0.58564
  Beta virt. eigenvalues --   -0.35681  -0.35681  -0.21241  -0.21241  -0.14405
  Beta virt. eigenvalues --   -0.10620  -0.09502  -0.09502  -0.06822  -0.01782
  Beta virt. eigenvalues --    0.02499   0.02499   0.05920   0.09006   0.16086
  Beta virt. eigenvalues --    0.17886   0.17886   0.26270   0.34764   0.45887
  Beta virt. eigenvalues --    0.50696   0.50696   0.53101   0.53101   0.68318
  Beta virt. eigenvalues --    0.68718   0.68718   0.84505   0.96803   1.22518
  Beta virt. eigenvalues --    1.22518   1.38575   1.38575   1.51418   1.51418
  Beta virt. eigenvalues --    1.61287   1.85019   1.91549   1.91549   2.15930
  Beta virt. eigenvalues --    2.26882   2.26882   2.33846   2.42423   2.97960
  Beta virt. eigenvalues --    3.74204   3.74204   4.32961  13.83185  35.29281
          Condensed to atoms (all electrons):
               1          2          3          4
     1  B    3.898690   0.000100   0.351762   0.000056
     2  N    0.000100   6.968793   0.001292   0.274422
     3  H    0.351762   0.001292   0.435424  -0.000006
     4  H    0.000056   0.274422  -0.000006   0.441843
          Atomic-Atomic Spin Densities.
               1          2          3          4
     1  B   -0.881677   0.037005   0.002759  -0.000811
     2  N    0.037005   2.011240  -0.000707  -0.001754
     3  H    0.002759  -0.000707  -0.136060  -0.000009
     4  H   -0.000811  -0.001754  -0.000009  -0.066470
 Mulliken charges and spin densities:
               1          2
     1  B    0.749393  -0.842724
     2  N   -0.244606   2.045785
     3  H    0.211529  -0.134017
     4  H    0.283685  -0.069043
 Sum of Mulliken charges =   1.00000   1.00000
 Mulliken charges and spin densities with hydrogens summed into heavy atoms:
               1          2
     1  B    0.960922  -0.976741
     2  N    0.039078   1.976741
 Electronic spatial extent (au):  <R**2>=            176.0717
 Charge=              1.0000 electrons
 Dipole moment (field-independent basis, Debye):
    X=             -6.1149    Y=             -0.0002    Z=              0.0000  Tot=              6.1149
 Quadrupole moment (field-independent basis, Debye-Ang):
   XX=             13.5404   YY=            -10.2162   ZZ=            -10.2162
   XY=              0.0004   XZ=             -0.0000   YZ=              0.0000
 Traceless Quadrupole moment (field-independent basis, Debye-Ang):
   XX=             15.8377   YY=             -7.9188   ZZ=             -7.9188
   XY=              0.0004   XZ=             -0.0000   YZ=              0.0000
 Octapole moment (field-independent basis, Debye-Ang**2):
  XXX=            -15.1764  YYY=              0.0005  ZZZ=              0.0000  XYY=             -3.5112
  XXY=             -0.0008  XXZ=             -0.0000  XZZ=             -3.5112  YZZ=              0.0002
  YYZ=              0.0000  XYZ=             -0.0000
 Hexadecapole moment (field-independent basis, Debye-Ang**3):
 XXXX=            -71.0038 YYYY=             -9.7380 ZZZZ=             -9.7380 XXXY=              0.0025
 XXXZ=             -0.0000 YYYX=             -0.0017 YYYZ=             -0.0000 ZZZX=             -0.0000
 ZZZY=             -0.0000 XXYY=            -36.2646 XXZZ=            -36.2646 YYZZ=             -3.2460
 XXYZ=              0.0000 YYXZ=             -0.0000 ZZXY=             -0.0006
 N-N= 1.304182001015D+01 E-N=-2.100788497126D+02  KE= 7.997103859407D+01
                          Isotropic Fermi Contact Couplings
        Atom                 a.u.       MegaHertz       Gauss      10(-4) cm-1
     1  B(11)             -0.76116   -1091.78158    -389.57482    -364.17914
     2  N(14)              0.23785      76.85069      27.42224      25.63463
     3  H(1)              -0.07255    -324.28424    -115.71268    -108.16958
     4  H(1)              -0.03423    -153.01591     -54.59988     -51.04061
 --------------------------------------------------------
       Center         ----  Spin Dipole Couplings  ----
                      3XX-RR        3YY-RR        3ZZ-RR
 --------------------------------------------------------
     1   Atom       -0.449809      0.224905      0.224905
     2   Atom       -2.303501      1.151750      1.151750
     3   Atom       -0.049741      0.024871      0.024871
     4   Atom        0.246967     -0.123483     -0.123483
 --------------------------------------------------------
                        XY            XZ            YZ
 --------------------------------------------------------
     1   Atom       -0.000168      0.000000     -0.000000
     2   Atom       -0.000006     -0.000000     -0.000000
     3   Atom       -0.000019      0.000000      0.000000
     4   Atom        0.000001     -0.000000     -0.000000
 --------------------------------------------------------


 ---------------------------------------------------------------------------------
              Anisotropic Spin Dipole Couplings in Principal Axis System
 ---------------------------------------------------------------------------------

       Atom             a.u.   MegaHertz   Gauss  10(-4) cm-1        Axes

              Baa    -0.4498   -77.014   -27.480   -25.689  1.0000  0.0002  0.0000
     1 B(11)  Bbb     0.2249    38.507    13.740    12.845  0.0000  0.0000  1.0000
              Bcc     0.2249    38.507    13.740    12.845 -0.0002  1.0000 -0.0000
 
              Baa    -2.3035   -88.841   -31.701   -29.634  1.0000  0.0000  0.0000
     2 N(14)  Bbb     1.1518    44.420    15.850    14.817 -0.0000  1.0000 -0.0000
              Bcc     1.1518    44.420    15.850    14.817 -0.0000  0.0000  1.0000
 
              Baa    -0.0497   -26.540    -9.470    -8.853  1.0000  0.0002 -0.0000
     3 H(1)   Bbb     0.0249    13.270     4.735     4.426 -0.0000  0.0000  1.0000
              Bcc     0.0249    13.270     4.735     4.426 -0.0002  1.0000 -0.0000
 
              Baa    -0.1235   -65.885   -23.509   -21.977 -0.0000  1.0000 -0.0000
     4 H(1)   Bbb    -0.1235   -65.885   -23.509   -21.977  0.0000  0.0000  1.0000
              Bcc     0.2470   131.770    47.019    43.954  1.0000  0.0000 -0.0000
 

 ---------------------------------------------------------------------------------

 No NMR shielding tensors so no spin-rotation constants.
 Leave Link  601 at Mon Apr 21 17:58:40 2025, MaxMem=   536870912 cpu:               2.4 elap:               0.4
 (Enter /home/szhao/Apps/g16/l701.exe)
 ... and contract with generalized density number  0.
 Compute integral first derivatives.
 Leave Link  701 at Mon Apr 21 17:58:40 2025, MaxMem=   536870912 cpu:               1.4 elap:               0.2
 (Enter /home/szhao/Apps/g16/l702.exe)
 L702 exits ... SP integral derivatives will be done elsewhere.
 Leave Link  702 at Mon Apr 21 17:58:41 2025, MaxMem=   536870912 cpu:               0.9 elap:               0.3
 (Enter /home/szhao/Apps/g16/l703.exe)
 Integral derivatives from FoFJK, PRISM(SPDF).
 Compute integral first derivatives, UseDBF=F ICtDFT=           0.
 Calling FoFJK, ICntrl=      2127 FMM=F ISym2X=0 I1Cent= 0 IOpClX= 1 NMat=1 NMatS=1 NMatT=0.
 FoFJK:  IHMeth= 1 ICntrl=    2127 DoSepK=F KAlg= 0 I1Cent=           0 FoldK=F
 IRaf=         0 NMat=       1 IRICut=       1 DoRegI=T DoRafI=F ISym2E= 0 IDoP0=0 IntGTp=1.
 FoFCou: FMM=F IPFlag=           0 FMFlag=      100000 FMFlg1=         800
         NFxFlg=           0 DoJE=F BraDBF=F KetDBF=F FulRan=T
         wScrn=  0.000000 ICntrl=      2127 IOpCl=  1 I1Cent=           0 NGrid=           0
         NMat0=    1 NMatS0=      1 NMatT0=    0 NMatD0=    1 NMtDS0=    0 NMtDT0=    0
 Symmetry not used in FoFCou.
 Leave Link  703 at Mon Apr 21 17:58:42 2025, MaxMem=   536870912 cpu:               7.8 elap:               1.3
 (Enter /home/szhao/Apps/g16/l716.exe)
 Dipole        =-2.40577402D+00-7.56320359D-05 6.76356327D-16
 -------------------------------------------------------------------
 Center     Atomic                   Forces (Hartrees/Bohr)
 Number     Number              X              Y              Z
 -------------------------------------------------------------------
      1        5          -0.000000000   -0.000000000   -0.000000000
      2        7          -0.000000000   -0.000000000   -0.000000000
      3        1          -0.017873496   -0.000004726    0.000000000
      4        1           0.013611750    0.000000376    0.000000000
 -------------------------------------------------------------------
 Cartesian Forces:  Max     0.017873496 RMS     0.006485507
 Leave Link  716 at Mon Apr 21 17:58:43 2025, MaxMem=   536870912 cpu:               0.5 elap:               0.1
 (Enter /home/szhao/Apps/g16/l103.exe)

 GradGradGradGradGradGradGradGradGradGradGradGradGradGradGradGradGradGrad
 Berny optimization.
 FormGI is forming the generalized inverse of G from B-inverse, IUseBI=4.
 Internal  Forces:  Max     0.017873496 RMS     0.009171892
 Search for a local minimum.
 Step number   1 out of a maximum of   22
 All quantities printed in internal units (Hartrees-Bohrs-Radians)
 RMS Force = .91719D-02 SwitMx=.10000D-02 MixMth= 1
 Mixed Optimization -- RFO/linear search
 Second derivative matrix not updated -- first step.
 The second derivative matrix:
                          X1        Y1        Z1        X2        Y2
           X1           0.50000
           Y1           0.00000   0.50000
           Z1           0.00000   0.00000   0.50000
           X2           0.00000   0.00000   0.00000   0.50000
           Y2           0.00000   0.00000   0.00000   0.00000   0.50000
           Z2           0.00000   0.00000   0.00000   0.00000   0.00000
           R1           0.00000   0.00000   0.00000   0.00000   0.00000
           R2           0.00000   0.00000   0.00000   0.00000   0.00000
           A1           0.00000   0.00000   0.00000   0.00000   0.00000
           A2           0.00000   0.00000   0.00000   0.00000   0.00000
           A3           0.00000   0.00000   0.00000   0.00000   0.00000
           A4           0.00000   0.00000   0.00000   0.00000   0.00000
                          Z2        R1        R2        A1        A2
           Z2           0.50000
           R1           0.00000   0.27160
           R2           0.00000   0.00000   0.44576
           A1           0.00000   0.00000   0.00000   0.00230
           A2           0.00000   0.00000   0.00000   0.00000   0.00783
           A3           0.00000   0.00000   0.00000   0.00000   0.00000
           A4           0.00000   0.00000   0.00000   0.00000   0.00000
                          A3        A4
           A3           0.00230
           A4           0.00000   0.00783
 ITU=  0
     Eigenvalues ---    0.00230   0.00684   0.00783   0.27160   0.44576
     Eigenvalues --- 1000.000001000.000001000.000001000.000001000.00000
     Eigenvalues --- 1000.000001000.00000
 RFO step:  Lambda=-1.58356733D-03 EMin= 2.30000000D-03
 Linear search not attempted -- first point.
 Iteration  1 RMS(Cart)=  0.02082947 RMS(Int)=  0.00000007
 Iteration  2 RMS(Cart)=  0.00000014 RMS(Int)=  0.00000000
 ITry= 1 IFail=0 DXMaxC= 6.54D-02 DCOld= 1.00D+10 DXMaxT= 3.00D-01 DXLimC= 3.00D+00 Rises=F
 Variable       Old X    -DE/DX   Delta X   Delta X   Delta X     New X
                                 (Linear)    (Quad)   (Total)
    X1       -3.12322  -0.01787   0.00000   0.00000   0.00000  -3.12322
    Y1        0.00000  -0.00000   0.00000   0.00000   0.00000   0.00000
    Z1        0.00000   0.00000   0.00000   0.00000   0.00000   0.00000
    X2        3.12322   0.01361   0.00000   0.00000   0.00000   3.12322
    Y2        0.00000  -0.00000   0.00000   0.00000   0.00000   0.00000
    Z2        0.00000  -0.00000   0.00000   0.00000   0.00000   0.00000
    R1        2.20712   0.01787   0.00000   0.06543   0.06543   2.27254
    R2        1.92472   0.01361   0.00000   0.03043   0.03043   1.95514
    A1        3.14137   0.00000   0.00000  -0.00000  -0.00000   3.14137
    A2        3.14159   0.00000   0.00000   0.00001   0.00001   3.14160
    A3        3.14159  -0.00000   0.00000  -0.00000   0.00000   3.14159
    A4        3.14159  -0.00000   0.00000  -0.00000   0.00000   3.14159
         Item               Value     Threshold  Converged?
 Maximum Force            0.017873     0.000450     NO 
 RMS     Force            0.009172     0.000300     NO 
 Maximum Displacement     0.065426     0.001800     NO 
 RMS     Displacement     0.020829     0.001200     NO 
 Predicted change in Energy=-7.959059D-04
 Lowest energy point so far.  Saving SCF results.
 GradGradGradGradGradGradGradGradGradGradGradGradGradGradGradGradGradGrad

 Leave Link  103 at Mon Apr 21 17:58:44 2025, MaxMem=   536870912 cpu:               2.7 elap:               0.7
 (Enter /home/szhao/Apps/g16/l202.exe)
                          Input orientation:                          
 ---------------------------------------------------------------------
 Center     Atomic      Atomic             Coordinates (Angstroms)
 Number     Number       Type             X           Y           Z
 ---------------------------------------------------------------------
      1          5           0       -1.652734    0.000000    0.000000
      2          7           0        1.652734    0.000000    0.000000
      3          1           0       -2.855311   -0.000273    0.000000
      4          1           0        2.687352   -0.000007   -0.000000
 ---------------------------------------------------------------------
                    Distance matrix (angstroms):
                    1          2          3          4
     1  B    0.000000
     2  N    3.305468   0.000000
     3  H    1.202577   4.508045   0.000000
     4  H    4.340086   1.034618   5.542663   0.000000
 Symmetry turned off by external request.
 This structure is nearly, but not quite of a higher symmetry.
 Consider Symm=Loose if the higher symmetry is desired.
 Stoichiometry    BH2N(1+,2)
 Framework group  CS[SG(BH2N)]
 Deg. of freedom     5
 Full point group                 CS      NOp   2
 Rotational constants (GHZ):  7871736324.7980576           6.0909461           6.0909461
 Leave Link  202 at Mon Apr 21 17:58:44 2025, MaxMem=   536870912 cpu:               0.7 elap:               0.3
 (Enter /home/szhao/Apps/g16/l301.exe)
 Standard basis: 6-311+G(d,p) (5D, 7F)
 Ernie: Thresh=  0.10000D-02 Tol=  0.10000D-05 Strict=F.
    56 basis functions,    88 primitive gaussians,    58 cartesian basis functions
     7 alpha electrons        6 beta electrons
       nuclear repulsion energy        12.9104868545 Hartrees.
 IExCor= 4336 DFT=T Ex+Corr=M062X ExCW=0 ScaHFX=  0.540000
 ScaDFX=  1.000000  1.000000  1.000000  1.000000 ScalE2=  1.000000  1.000000
 IRadAn=      7 IRanWt=     -1 IRanGd=            0 ICorTp=0 IEmpDi=  4
 NAtoms=    4 NActive=    4 NUniq=    4 SFac= 1.00D+00 NAtFMM=   60 NAOKFM=F Big=F
 Integral buffers will be    131072 words long.
 Raffenetti 2 integral format.
 Two-electron integral symmetry is turned off.
 Leave Link  301 at Mon Apr 21 17:58:45 2025, MaxMem=   536870912 cpu:               0.7 elap:               0.2
 (Enter /home/szhao/Apps/g16/l302.exe)
 NPDir=0 NMtPBC=     1 NCelOv=     1 NCel=       1 NClECP=     1 NCelD=      1
         NCelK=      1 NCelE2=     1 NClLst=     1 CellRange=     0.0.
 One-electron integrals computed using PRISM.
 NBasis=    56 RedAO= T EigKep=  8.57D-03  NBF=    56
 NBsUse=    56 1.00D-06 EigRej= -1.00D+00 NBFU=    56
 Precomputing XC quadrature grid using
 IXCGrd= 4 IRadAn=           7 IRanWt=          -1 IRanGd=           0 AccXCQ= 0.00D+00.
 Generated NRdTot=       0 NPtTot=           0 NUsed=           0 NTot=          32
 NSgBfM=    58    58    58    58    58 MxSgAt=     4 MxSgA2=     4.
 Leave Link  302 at Mon Apr 21 17:58:46 2025, MaxMem=   536870912 cpu:               1.4 elap:               0.3
 (Enter /home/szhao/Apps/g16/l303.exe)
 DipDrv:  MaxL=1.
 Leave Link  303 at Mon Apr 21 17:58:46 2025, MaxMem=   536870912 cpu:               0.4 elap:               0.1
 (Enter /home/szhao/Apps/g16/l401.exe)
 Initial guess from the checkpoint file:  "opt.chk"
 B after Tr=    -0.002500   -0.000003    0.000000
         Rot=    1.000000    0.000000   -0.000000   -0.000000 Ang=  -0.00 deg.
 Guess basis will be translated and rotated to current coordinates.
 JPrj=2 DoOrth=T DoCkMO=T.
 Initial guess <Sx>= 0.0000 <Sy>= 0.0000 <Sz>= 0.5000 <S**2>= 1.7575 S= 0.9168
 Generating alternative initial guess.
 ExpMin= 3.15D-02 ExpMax= 6.29D+03 ExpMxC= 9.49D+02 IAcc=3 IRadAn=         5 AccDes= 0.00D+00
 Harris functional with IExCor= 1009 and IRadAn=       5 diagonalized for initial guess.
 HarFok:  IExCor= 1009 AccDes= 0.00D+00 IRadAn=         5 IDoV= 1 UseB2=F ITyADJ=14
 ICtDFT=  3500011 ScaDFX=  1.000000  1.000000  1.000000  1.000000
 FoFCou: FMM=F IPFlag=           0 FMFlag=      100000 FMFlg1=           0
         NFxFlg=           0 DoJE=T BraDBF=F KetDBF=T FulRan=T
         wScrn=  0.000000 ICntrl=       500 IOpCl=  0 I1Cent=   200000004 NGrid=           0
         NMat0=    1 NMatS0=      1 NMatT0=    0 NMatD0=    1 NMtDS0=    0 NMtDT0=    0
 Symmetry not used in FoFCou.
 Harris En= -80.1349286073740    
 Leave Link  401 at Mon Apr 21 17:58:47 2025, MaxMem=   536870912 cpu:               2.6 elap:               0.4
 (Enter /home/szhao/Apps/g16/l502.exe)
 Keep R1 and R2 ints in memory in canonical form, NReq=9624198.
 FoFCou: FMM=F IPFlag=           0 FMFlag=           0 FMFlg1=           0
         NFxFlg=           0 DoJE=F BraDBF=F KetDBF=F FulRan=T
         wScrn=  0.000000 ICntrl=       600 IOpCl=  0 I1Cent=           0 NGrid=           0
         NMat0=    1 NMatS0=   1596 NMatT0=    0 NMatD0=    1 NMtDS0=    0 NMtDT0=    0
 Symmetry not used in FoFCou.
 Two-electron integral symmetry not used.
 UHF open shell SCF:
 Using DIIS extrapolation, IDIIS=  1040.
 NGot=   536870912 LenX=   534314338 LenY=   534310533
 Requested convergence on RMS density matrix=1.00D-08 within 128 cycles.
 Requested convergence on MAX density matrix=1.00D-06.
 Requested convergence on             energy=1.00D-06.
 No special actions if energy rises.

 Cycle   1  Pass 1  IDiag  1:
 E= -80.1606543515254    
 DIIS: error= 2.63D-03 at cycle   1 NSaved=   1.
 NSaved= 1 IEnMin= 1 EnMin= -80.1606543515254     IErMin= 1 ErrMin= 2.63D-03
 ErrMax= 2.63D-03  0.00D+00 EMaxC= 1.00D-01 BMatC= 8.26D-04 BMatP= 8.26D-04
 IDIUse=3 WtCom= 9.74D-01 WtEn= 2.63D-02
 Coeff-Com:  0.100D+01
 Coeff-En:   0.100D+01
 Coeff:      0.100D+01
 Gap=     0.547 Goal=   None    Shift=    0.000
 Gap=     0.641 Goal=   None    Shift=    0.000
 GapD=    0.547 DampG=2.000 DampE=1.000 DampFc=2.0000 IDamp=-1.
 RMSDP=2.09D-04 MaxDP=3.90D-03              OVMax= 1.04D-02

 Cycle   2  Pass 1  IDiag  1:
 E= -80.1608647288502     Delta-E=       -0.000210377325 Rises=F Damp=F
 DIIS: error= 3.38D-04 at cycle   2 NSaved=   2.
 NSaved= 2 IEnMin= 2 EnMin= -80.1608647288502     IErMin= 2 ErrMin= 3.38D-04
 ErrMax= 3.38D-04  0.00D+00 EMaxC= 1.00D-01 BMatC= 2.93D-05 BMatP= 8.26D-04
 IDIUse=3 WtCom= 9.97D-01 WtEn= 3.38D-03
 Coeff-Com:  0.295D-01 0.970D+00
 Coeff-En:   0.000D+00 0.100D+01
 Coeff:      0.294D-01 0.971D+00
 Gap=     0.141 Goal=   None    Shift=    0.000
 Gap=     0.229 Goal=   None    Shift=    0.000
 RMSDP=6.31D-05 MaxDP=1.40D-03 DE=-2.10D-04 OVMax= 3.68D-03

 Cycle   3  Pass 1  IDiag  1:
 E= -80.1608727588991     Delta-E=       -0.000008030049 Rises=F Damp=F
 DIIS: error= 1.71D-04 at cycle   3 NSaved=   3.
 NSaved= 3 IEnMin= 3 EnMin= -80.1608727588991     IErMin= 3 ErrMin= 1.71D-04
 ErrMax= 1.71D-04  0.00D+00 EMaxC= 1.00D-01 BMatC= 7.71D-06 BMatP= 2.93D-05
 IDIUse=3 WtCom= 9.98D-01 WtEn= 1.71D-03
 Coeff-Com: -0.164D-01 0.286D+00 0.731D+00
 Coeff-En:   0.000D+00 0.000D+00 0.100D+01
 Coeff:     -0.164D-01 0.285D+00 0.731D+00
 Gap=     0.138 Goal=   None    Shift=    0.000
 Gap=     0.228 Goal=   None    Shift=    0.000
 RMSDP=2.36D-05 MaxDP=7.09D-04 DE=-8.03D-06 OVMax= 8.88D-04

 Cycle   4  Pass 1  IDiag  1:
 E= -80.1608750592692     Delta-E=       -0.000002300370 Rises=F Damp=F
 DIIS: error= 7.34D-05 at cycle   4 NSaved=   4.
 NSaved= 4 IEnMin= 4 EnMin= -80.1608750592692     IErMin= 4 ErrMin= 7.34D-05
 ErrMax= 7.34D-05  0.00D+00 EMaxC= 1.00D-01 BMatC= 8.02D-07 BMatP= 7.71D-06
 IDIUse=1 WtCom= 1.00D+00 WtEn= 0.00D+00
 Coeff-Com: -0.341D-02-0.761D-01 0.837D-01 0.996D+00
 Coeff:     -0.341D-02-0.761D-01 0.837D-01 0.996D+00
 Gap=     0.138 Goal=   None    Shift=    0.000
 Gap=     0.228 Goal=   None    Shift=    0.000
 RMSDP=1.02D-05 MaxDP=2.52D-04 DE=-2.30D-06 OVMax= 4.09D-04

 Cycle   5  Pass 1  IDiag  1:
 E= -80.1608754481012     Delta-E=       -0.000000388832 Rises=F Damp=F
 DIIS: error= 3.59D-05 at cycle   5 NSaved=   5.
 NSaved= 5 IEnMin= 5 EnMin= -80.1608754481012     IErMin= 5 ErrMin= 3.59D-05
 ErrMax= 3.59D-05  0.00D+00 EMaxC= 1.00D-01 BMatC= 1.02D-07 BMatP= 8.02D-07
 IDIUse=1 WtCom= 1.00D+00 WtEn= 0.00D+00
 Coeff-Com:  0.315D-02-0.422D-01-0.116D+00-0.342D-01 0.119D+01
 Coeff:      0.315D-02-0.422D-01-0.116D+00-0.342D-01 0.119D+01
 Gap=     0.138 Goal=   None    Shift=    0.000
 Gap=     0.228 Goal=   None    Shift=    0.000
 RMSDP=5.49D-06 MaxDP=1.15D-04 DE=-3.89D-07 OVMax= 2.07D-04

 Cycle   6  Pass 1  IDiag  1:
 E= -80.1608755193806     Delta-E=       -0.000000071279 Rises=F Damp=F
 DIIS: error= 7.19D-06 at cycle   6 NSaved=   6.
 NSaved= 6 IEnMin= 6 EnMin= -80.1608755193806     IErMin= 6 ErrMin= 7.19D-06
 ErrMax= 7.19D-06  0.00D+00 EMaxC= 1.00D-01 BMatC= 7.07D-09 BMatP= 1.02D-07
 IDIUse=1 WtCom= 1.00D+00 WtEn= 0.00D+00
 Coeff-Com:  0.769D-03 0.232D-02-0.195D-01-0.821D-01 0.843D-01 0.101D+01
 Coeff:      0.769D-03 0.232D-02-0.195D-01-0.821D-01 0.843D-01 0.101D+01
 Gap=     0.138 Goal=   None    Shift=    0.000
 Gap=     0.228 Goal=   None    Shift=    0.000
 RMSDP=1.50D-06 MaxDP=7.00D-05 DE=-7.13D-08 OVMax= 7.42D-05

 Cycle   7  Pass 1  IDiag  1:
 E= -80.1608755239439     Delta-E=       -0.000000004563 Rises=F Damp=F
 DIIS: error= 3.08D-06 at cycle   7 NSaved=   7.
 NSaved= 7 IEnMin= 7 EnMin= -80.1608755239439     IErMin= 7 ErrMin= 3.08D-06
 ErrMax= 3.08D-06  0.00D+00 EMaxC= 1.00D-01 BMatC= 5.64D-10 BMatP= 7.07D-09
 IDIUse=1 WtCom= 1.00D+00 WtEn= 0.00D+00
 Coeff-Com: -0.291D-03 0.270D-02 0.123D-01 0.115D-01-0.124D+00-0.378D-01
 Coeff-Com:  0.114D+01
 Coeff:     -0.291D-03 0.270D-02 0.123D-01 0.115D-01-0.124D+00-0.378D-01
 Coeff:      0.114D+01
 Gap=     0.138 Goal=   None    Shift=    0.000
 Gap=     0.228 Goal=   None    Shift=    0.000
 RMSDP=3.74D-07 MaxDP=9.51D-06 DE=-4.56D-09 OVMax= 1.23D-05

 Cycle   8  Pass 1  IDiag  1:
 E= -80.1608755242636     Delta-E=       -0.000000000320 Rises=F Damp=F
 DIIS: error= 4.93D-07 at cycle   8 NSaved=   8.
 NSaved= 8 IEnMin= 8 EnMin= -80.1608755242636     IErMin= 8 ErrMin= 4.93D-07
 ErrMax= 4.93D-07  0.00D+00 EMaxC= 1.00D-01 BMatC= 2.34D-11 BMatP= 5.64D-10
 IDIUse=1 WtCom= 1.00D+00 WtEn= 0.00D+00
 Coeff-Com: -0.283D-04-0.347D-03 0.396D-03 0.489D-02 0.185D-02-0.473D-01
 Coeff-Com: -0.721D-01 0.111D+01
 Coeff:     -0.283D-04-0.347D-03 0.396D-03 0.489D-02 0.185D-02-0.473D-01
 Coeff:     -0.721D-01 0.111D+01
 Gap=     0.138 Goal=   None    Shift=    0.000
 Gap=     0.228 Goal=   None    Shift=    0.000
 RMSDP=6.38D-08 MaxDP=1.35D-06 DE=-3.20D-10 OVMax= 1.86D-06

 Cycle   9  Pass 1  IDiag  1:
 E= -80.1608755242736     Delta-E=       -0.000000000010 Rises=F Damp=F
 DIIS: error= 7.99D-08 at cycle   9 NSaved=   9.
 NSaved= 9 IEnMin= 9 EnMin= -80.1608755242736     IErMin= 9 ErrMin= 7.99D-08
 ErrMax= 7.99D-08  0.00D+00 EMaxC= 1.00D-01 BMatC= 9.78D-13 BMatP= 2.34D-11
 IDIUse=1 WtCom= 1.00D+00 WtEn= 0.00D+00
 Coeff-Com:  0.944D-05-0.878D-04-0.519D-03-0.535D-03 0.436D-02 0.297D-02
 Coeff-Com: -0.400D-01-0.866D-01 0.112D+01
 Coeff:      0.944D-05-0.878D-04-0.519D-03-0.535D-03 0.436D-02 0.297D-02
 Coeff:     -0.400D-01-0.866D-01 0.112D+01
 Gap=     0.138 Goal=   None    Shift=    0.000
 Gap=     0.228 Goal=   None    Shift=    0.000
 RMSDP=1.45D-08 MaxDP=2.51D-07 DE=-9.98D-12 OVMax= 4.95D-07

 Cycle  10  Pass 1  IDiag  1:
 E= -80.1608755242742     Delta-E=       -0.000000000001 Rises=F Damp=F
 DIIS: error= 1.88D-08 at cycle  10 NSaved=  10.
 NSaved=10 IEnMin=10 EnMin= -80.1608755242742     IErMin=10 ErrMin= 1.88D-08
 ErrMax= 1.88D-08  0.00D+00 EMaxC= 1.00D-01 BMatC= 5.43D-14 BMatP= 9.78D-13
 IDIUse=1 WtCom= 1.00D+00 WtEn= 0.00D+00
 Coeff-Com:  0.554D-07 0.230D-04 0.778D-04-0.631D-04-0.821D-03 0.150D-02
 Coeff-Com:  0.935D-02-0.266D-01-0.215D+00 0.123D+01
 Coeff:      0.554D-07 0.230D-04 0.778D-04-0.631D-04-0.821D-03 0.150D-02
 Coeff:      0.935D-02-0.266D-01-0.215D+00 0.123D+01
 Gap=     0.138 Goal=   None    Shift=    0.000
 Gap=     0.228 Goal=   None    Shift=    0.000
 RMSDP=4.26D-09 MaxDP=7.40D-08 DE=-5.97D-13 OVMax= 1.65D-07

 SCF Done:  E(UM062X) =  -80.1608755243     A.U. after   10 cycles
            NFock= 10  Conv=0.43D-08     -V/T= 2.0031
 <Sx>= 0.0000 <Sy>= 0.0000 <Sz>= 0.5000 <S**2>= 1.7577 S= 0.9169
 <L.S>=  0.00000000000    
 KE= 7.991308971311D+01 PE=-2.097963773786D+02 EE= 3.681192528677D+01
 Annihilation of the first spin contaminant:
 S**2 before annihilation     1.7577,   after     0.7757
 Leave Link  502 at Mon Apr 21 17:58:51 2025, MaxMem=   536870912 cpu:              27.8 elap:               3.6
 (Enter /home/szhao/Apps/g16/l701.exe)
 ... and contract with generalized density number  0.
 Compute integral first derivatives.
 Leave Link  701 at Mon Apr 21 17:58:51 2025, MaxMem=   536870912 cpu:               1.4 elap:               0.3
 (Enter /home/szhao/Apps/g16/l702.exe)
 L702 exits ... SP integral derivatives will be done elsewhere.
 Leave Link  702 at Mon Apr 21 17:58:51 2025, MaxMem=   536870912 cpu:               0.6 elap:               0.1
 (Enter /home/szhao/Apps/g16/l703.exe)
 Integral derivatives from FoFJK, PRISM(SPDF).
 Compute integral first derivatives, UseDBF=F ICtDFT=           0.
 Calling FoFJK, ICntrl=      2127 FMM=F ISym2X=0 I1Cent= 0 IOpClX= 1 NMat=1 NMatS=1 NMatT=0.
 FoFJK:  IHMeth= 1 ICntrl=    2127 DoSepK=F KAlg= 0 I1Cent=           0 FoldK=F
 IRaf=         0 NMat=       1 IRICut=       1 DoRegI=T DoRafI=F ISym2E= 0 IDoP0=0 IntGTp=1.
 FoFCou: FMM=F IPFlag=           0 FMFlag=      100000 FMFlg1=         800
         NFxFlg=           0 DoJE=F BraDBF=F KetDBF=F FulRan=T
         wScrn=  0.000000 ICntrl=      2127 IOpCl=  1 I1Cent=           0 NGrid=           0
         NMat0=    1 NMatS0=      1 NMatT0=    0 NMatD0=    1 NMtDS0=    0 NMtDT0=    0
 Symmetry not used in FoFCou.
 Leave Link  703 at Mon Apr 21 17:58:52 2025, MaxMem=   536870912 cpu:               4.8 elap:               0.6
 (Enter /home/szhao/Apps/g16/l716.exe)
 Dipole        =-2.42609259D+00-8.69946974D-05 7.73018644D-13
 -------------------------------------------------------------------
 Center     Atomic                   Forces (Hartrees/Bohr)
 Number     Number              X              Y              Z
 -------------------------------------------------------------------
      1        5          -0.000000000   -0.000000000   -0.000000000
      2        7          -0.000000000   -0.000000000   -0.000000000
      3        1          -0.000942629   -0.000000906    0.000000000
      4        1           0.000743961    0.000000311   -0.000000000
 -------------------------------------------------------------------
 Cartesian Forces:  Max     0.000942629 RMS     0.000346654
 Leave Link  716 at Mon Apr 21 17:58:52 2025, MaxMem=   536870912 cpu:               0.3 elap:               0.1
 (Enter /home/szhao/Apps/g16/l103.exe)

 GradGradGradGradGradGradGradGradGradGradGradGradGradGradGradGradGradGrad
 Berny optimization.
 Using GEDIIS/GDIIS optimizer.
 FormGI is forming the generalized inverse of G from B-inverse, IUseBI=4.
 Internal  Forces:  Max     0.000942629 RMS     0.000490243
 Search for a local minimum.
 Step number   2 out of a maximum of   22
 All quantities printed in internal units (Hartrees-Bohrs-Radians)
 RMS Force = .49024D-03 SwitMx=.10000D-02 MixMth= 2
 Mixed Optimization -- En-DIIS/RFO-DIIS
 Update second derivatives using D2CorX and points    1    2
 DE= -8.15D-04 DEPred=-7.96D-04 R= 1.02D+00
 TightC=F SS=  1.41D+00  RLast= 7.22D-02 DXNew= 5.0454D-01 2.1647D-01
 Trust test= 1.02D+00 RLast= 7.22D-02 DXMaxT set to 3.00D-01
 The second derivative matrix:
                          X1        Y1        Z1        X2        Y2
           X1           0.69120
           Y1           0.00004   0.50000
           Z1           0.00000   0.00000   0.50000
           X2          -0.14531  -0.00003  -0.00000   0.61044
           Y2           0.00000   0.00000   0.00000  -0.00000   0.50000
           Z2          -0.00000  -0.00000  -0.00000   0.00000  -0.00000
           R1          -0.19120  -0.00004  -0.00000   0.14531  -0.00000
           R2          -0.14531  -0.00003  -0.00000   0.11044  -0.00000
           A1          -0.00001  -0.00000  -0.00000   0.00001  -0.00000
           A2          -0.00000  -0.00000  -0.00000   0.00000  -0.00000
           A3          -0.00000  -0.00000  -0.00000   0.00000  -0.00000
           A4          -0.00000  -0.00000  -0.00000   0.00000  -0.00000
                          Z2        R1        R2        A1        A2
           Z2           0.50000
           R1           0.00000   0.26235
           R2           0.00000  -0.00769   0.43942
           A1           0.00000   0.00001   0.00001   0.00230
           A2           0.00000   0.00000   0.00000   0.00000   0.00783
           A3           0.00000   0.00000   0.00000   0.00000   0.00000
           A4           0.00000   0.00000   0.00000   0.00000   0.00000
                          A3        A4
           A3           0.00230
           A4           0.00000   0.00783
 ITU=  1  0
 Use linear search instead of GDIIS.
     Eigenvalues ---    0.00230   0.00696   0.00783   0.26202   0.43975
     Eigenvalues --- 1000.000001000.000001000.000001000.000001000.00000
     Eigenvalues --- 1000.000001000.00000
 RFO step:  Lambda= 0.00000000D+00 EMin= 2.30000000D-03
 Quartic linear search produced a step of  0.06098.
 Iteration  1 RMS(Cart)=  0.00127001 RMS(Int)=  0.00000000
 Iteration  2 RMS(Cart)=  0.00000001 RMS(Int)=  0.00000000
 ITry= 1 IFail=0 DXMaxC= 3.99D-03 DCOld= 1.00D+10 DXMaxT= 3.00D-01 DXLimC= 3.00D+00 Rises=F
 Variable       Old X    -DE/DX   Delta X   Delta X   Delta X     New X
                                 (Linear)    (Quad)   (Total)
    X1       -3.12322  -0.00094   0.00000   0.00000   0.00000  -3.12322
    Y1        0.00000  -0.00000   0.00000   0.00000   0.00000   0.00000
    Z1        0.00000   0.00000   0.00000   0.00000   0.00000   0.00000
    X2        3.12322   0.00074   0.00000   0.00000   0.00000   3.12322
    Y2        0.00000  -0.00000   0.00000   0.00000   0.00000   0.00000
    Z2        0.00000  -0.00000   0.00000   0.00000   0.00000   0.00000
    R1        2.27254   0.00094   0.00399  -0.00000   0.00399   2.27653
    R2        1.95514   0.00074   0.00186   0.00000   0.00186   1.95700
    A1        3.14137  -0.00000  -0.00000  -0.00000  -0.00000   3.14136
    A2        3.14160   0.00000   0.00000   0.00001   0.00001   3.14161
    A3        3.14159  -0.00000   0.00000  -0.00000   0.00000   3.14159
    A4        3.14159  -0.00000   0.00000  -0.00000   0.00000   3.14159
         Item               Value     Threshold  Converged?
 Maximum Force            0.000943     0.000450     NO 
 RMS     Force            0.000490     0.000300     NO 
 Maximum Displacement     0.003988     0.001800     NO 
 RMS     Displacement     0.001270     0.001200     NO 
 Predicted change in Energy=-2.353724D-06
 Lowest energy point so far.  Saving SCF results.
 GradGradGradGradGradGradGradGradGradGradGradGradGradGradGradGradGradGrad

 Leave Link  103 at Mon Apr 21 17:58:52 2025, MaxMem=   536870912 cpu:               0.4 elap:               0.1
 (Enter /home/szhao/Apps/g16/l202.exe)
                          Input orientation:                          
 ---------------------------------------------------------------------
 Center     Atomic      Atomic             Coordinates (Angstroms)
 Number     Number       Type             X           Y           Z
 ---------------------------------------------------------------------
      1          5           0       -1.652734    0.000000    0.000000
      2          7           0        1.652734    0.000000    0.000000
      3          1           0       -2.857422   -0.000278    0.000000
      4          1           0        2.688335   -0.000017   -0.000000
 ---------------------------------------------------------------------
                    Distance matrix (angstroms):
                    1          2          3          4
     1  B    0.000000
     2  N    3.305468   0.000000
     3  H    1.204687   4.510156   0.000000
     4  H    4.341069   1.035601   5.545757   0.000000
 Symmetry turned off by external request.
 This structure is nearly, but not quite of a higher symmetry.
 Consider Symm=Loose if the higher symmetry is desired.
 Stoichiometry    BH2N(1+,2)
 Framework group  CS[SG(BH2N)]
 Deg. of freedom     5
 Full point group                 CS      NOp   2
 Rotational constants (GHZ):  7509961672.4451790           6.0896340           6.0896340
 Leave Link  202 at Mon Apr 21 17:58:53 2025, MaxMem=   536870912 cpu:               0.2 elap:               0.0
 (Enter /home/szhao/Apps/g16/l301.exe)
 Standard basis: 6-311+G(d,p) (5D, 7F)
 Ernie: Thresh=  0.10000D-02 Tol=  0.10000D-05 Strict=F.
    56 basis functions,    88 primitive gaussians,    58 cartesian basis functions
     7 alpha electrons        6 beta electrons
       nuclear repulsion energy        12.9026586576 Hartrees.
 IExCor= 4336 DFT=T Ex+Corr=M062X ExCW=0 ScaHFX=  0.540000
 ScaDFX=  1.000000  1.000000  1.000000  1.000000 ScalE2=  1.000000  1.000000
 IRadAn=      7 IRanWt=     -1 IRanGd=            0 ICorTp=0 IEmpDi=  4
 NAtoms=    4 NActive=    4 NUniq=    4 SFac= 1.00D+00 NAtFMM=   60 NAOKFM=F Big=F
 Integral buffers will be    131072 words long.
 Raffenetti 2 integral format.
 Two-electron integral symmetry is turned off.
 Leave Link  301 at Mon Apr 21 17:58:53 2025, MaxMem=   536870912 cpu:               0.6 elap:               0.1
 (Enter /home/szhao/Apps/g16/l302.exe)
 NPDir=0 NMtPBC=     1 NCelOv=     1 NCel=       1 NClECP=     1 NCelD=      1
         NCelK=      1 NCelE2=     1 NClLst=     1 CellRange=     0.0.
 One-electron integrals computed using PRISM.
 NBasis=    56 RedAO= T EigKep=  8.58D-03  NBF=    56
 NBsUse=    56 1.00D-06 EigRej= -1.00D+00 NBFU=    56
 Precomputing XC quadrature grid using
 IXCGrd= 4 IRadAn=           7 IRanWt=          -1 IRanGd=           0 AccXCQ= 0.00D+00.
 Generated NRdTot=       0 NPtTot=           0 NUsed=           0 NTot=          32
 NSgBfM=    58    58    58    58    58 MxSgAt=     4 MxSgA2=     4.
 Leave Link  302 at Mon Apr 21 17:58:53 2025, MaxMem=   536870912 cpu:               1.5 elap:               0.2
 (Enter /home/szhao/Apps/g16/l303.exe)
 DipDrv:  MaxL=1.
 Leave Link  303 at Mon Apr 21 17:58:54 2025, MaxMem=   536870912 cpu:               0.6 elap:               0.1
 (Enter /home/szhao/Apps/g16/l401.exe)
 Initial guess from the checkpoint file:  "opt.chk"
 B after Tr=    -0.000152   -0.000002   -0.000000
         Rot=    1.000000    0.000000   -0.000000    0.000000 Ang=   0.00 deg.
 Guess basis will be translated and rotated to current coordinates.
 JPrj=2 DoOrth=T DoCkMO=T.
 Initial guess <Sx>= 0.0000 <Sy>= 0.0000 <Sz>= 0.5000 <S**2>= 1.7577 S= 0.9169
 Leave Link  401 at Mon Apr 21 17:58:54 2025, MaxMem=   536870912 cpu:               2.2 elap:               0.6
 (Enter /home/szhao/Apps/g16/l502.exe)
 Keep R1 and R2 ints in memory in canonical form, NReq=9624198.
 FoFCou: FMM=F IPFlag=           0 FMFlag=           0 FMFlg1=           0
         NFxFlg=           0 DoJE=F BraDBF=F KetDBF=F FulRan=T
         wScrn=  0.000000 ICntrl=       600 IOpCl=  0 I1Cent=           0 NGrid=           0
         NMat0=    1 NMatS0=   1596 NMatT0=    0 NMatD0=    1 NMtDS0=    0 NMtDT0=    0
 Symmetry not used in FoFCou.
 Two-electron integral symmetry not used.
 UHF open shell SCF:
 Using DIIS extrapolation, IDIIS=  1040.
 NGot=   536870912 LenX=   534314338 LenY=   534310533
 Requested convergence on RMS density matrix=1.00D-08 within 128 cycles.
 Requested convergence on MAX density matrix=1.00D-06.
 Requested convergence on             energy=1.00D-06.
 No special actions if energy rises.

 Cycle   1  Pass 1  IDiag  1:
 E= -80.1608772985860    
 DIIS: error= 1.53D-04 at cycle   1 NSaved=   1.
 NSaved= 1 IEnMin= 1 EnMin= -80.1608772985860     IErMin= 1 ErrMin= 1.53D-04
 ErrMax= 1.53D-04  0.00D+00 EMaxC= 1.00D-01 BMatC= 2.87D-06 BMatP= 2.87D-06
 IDIUse=3 WtCom= 9.98D-01 WtEn= 1.53D-03
 Coeff-Com:  0.100D+01
 Coeff-En:   0.100D+01
 Coeff:      0.100D+01
 Gap=     0.543 Goal=   None    Shift=    0.000
 Gap=     0.640 Goal=   None    Shift=    0.000
 RMSDP=1.24D-05 MaxDP=2.32D-04              OVMax= 6.22D-04

 Cycle   2  Pass 1  IDiag  1:
 E= -80.1608780500777     Delta-E=       -0.000000751492 Rises=F Damp=F
 DIIS: error= 1.99D-05 at cycle   2 NSaved=   2.
 NSaved= 2 IEnMin= 2 EnMin= -80.1608780500777     IErMin= 2 ErrMin= 1.99D-05
 ErrMax= 1.99D-05  0.00D+00 EMaxC= 1.00D-01 BMatC= 1.05D-07 BMatP= 2.87D-06
 IDIUse=1 WtCom= 1.00D+00 WtEn= 0.00D+00
 Coeff-Com:  0.306D-01 0.969D+00
 Coeff:      0.306D-01 0.969D+00
 Gap=     0.139 Goal=   None    Shift=    0.000
 Gap=     0.228 Goal=   None    Shift=    0.000
 RMSDP=3.74D-06 MaxDP=8.44D-05 DE=-7.51D-07 OVMax= 2.12D-04

 Cycle   3  Pass 1  IDiag  1:
 E= -80.1608780790875     Delta-E=       -0.000000029010 Rises=F Damp=F
 DIIS: error= 1.04D-05 at cycle   3 NSaved=   3.
 NSaved= 3 IEnMin= 3 EnMin= -80.1608780790875     IErMin= 3 ErrMin= 1.04D-05
 ErrMax= 1.04D-05  0.00D+00 EMaxC= 1.00D-01 BMatC= 2.70D-08 BMatP= 1.05D-07
 IDIUse=1 WtCom= 1.00D+00 WtEn= 0.00D+00
 Coeff-Com: -0.164D-01 0.278D+00 0.739D+00
 Coeff:     -0.164D-01 0.278D+00 0.739D+00
 Gap=     0.138 Goal=   None    Shift=    0.000
 Gap=     0.228 Goal=   None    Shift=    0.000
 RMSDP=1.40D-06 MaxDP=4.15D-05 DE=-2.90D-08 OVMax= 5.30D-05

 Cycle   4  Pass 1  IDiag  1:
 E= -80.1608780872562     Delta-E=       -0.000000008169 Rises=F Damp=F
 DIIS: error= 4.53D-06 at cycle   4 NSaved=   4.
 NSaved= 4 IEnMin= 4 EnMin= -80.1608780872562     IErMin= 4 ErrMin= 4.53D-06
 ErrMax= 4.53D-06  0.00D+00 EMaxC= 1.00D-01 BMatC= 3.05D-09 BMatP= 2.70D-08
 IDIUse=1 WtCom= 1.00D+00 WtEn= 0.00D+00
 Coeff-Com: -0.335D-02-0.827D-01 0.851D-01 0.100D+01
 Coeff:     -0.335D-02-0.827D-01 0.851D-01 0.100D+01
 Gap=     0.138 Goal=   None    Shift=    0.000
 Gap=     0.228 Goal=   None    Shift=    0.000
 RMSDP=6.35D-07 MaxDP=1.54D-05 DE=-8.17D-09 OVMax= 2.52D-05

 Cycle   5  Pass 1  IDiag  1:
 E= -80.1608780887491     Delta-E=       -0.000000001493 Rises=F Damp=F
 DIIS: error= 2.19D-06 at cycle   5 NSaved=   5.
 NSaved= 5 IEnMin= 5 EnMin= -80.1608780887491     IErMin= 5 ErrMin= 2.19D-06
 ErrMax= 2.19D-06  0.00D+00 EMaxC= 1.00D-01 BMatC= 3.77D-10 BMatP= 3.05D-09
 IDIUse=1 WtCom= 1.00D+00 WtEn= 0.00D+00
 Coeff-Com:  0.320D-02-0.403D-01-0.118D+00-0.386D-01 0.119D+01
 Coeff:      0.320D-02-0.403D-01-0.118D+00-0.386D-01 0.119D+01
 Gap=     0.138 Goal=   None    Shift=    0.000
 Gap=     0.228 Goal=   None    Shift=    0.000
 RMSDP=3.36D-07 MaxDP=7.26D-06 DE=-1.49D-09 OVMax= 1.24D-05

 Cycle   6  Pass 1  IDiag  1:
 E= -80.1608780890146     Delta-E=       -0.000000000266 Rises=F Damp=F
 DIIS: error= 4.28D-07 at cycle   6 NSaved=   6.
 NSaved= 6 IEnMin= 6 EnMin= -80.1608780890146     IErMin= 6 ErrMin= 4.28D-07
 ErrMax= 4.28D-07  0.00D+00 EMaxC= 1.00D-01 BMatC= 2.55D-11 BMatP= 3.77D-10
 IDIUse=1 WtCom= 1.00D+00 WtEn= 0.00D+00
 Coeff-Com:  0.742D-03 0.320D-02-0.192D-01-0.806D-01 0.803D-01 0.102D+01
 Coeff:      0.742D-03 0.320D-02-0.192D-01-0.806D-01 0.803D-01 0.102D+01
 Gap=     0.138 Goal=   None    Shift=    0.000
 Gap=     0.228 Goal=   None    Shift=    0.000
 RMSDP=8.98D-08 MaxDP=4.20D-06 DE=-2.66D-10 OVMax= 4.45D-06

 Cycle   7  Pass 1  IDiag  1:
 E= -80.1608780890310     Delta-E=       -0.000000000016 Rises=F Damp=F
 DIIS: error= 1.84D-07 at cycle   7 NSaved=   7.
 NSaved= 7 IEnMin= 7 EnMin= -80.1608780890310     IErMin= 7 ErrMin= 1.84D-07
 ErrMax= 1.84D-07  0.00D+00 EMaxC= 1.00D-01 BMatC= 2.05D-12 BMatP= 2.55D-11
 IDIUse=1 WtCom= 1.00D+00 WtEn= 0.00D+00
 Coeff-Com: -0.294D-03 0.260D-02 0.124D-01 0.109D-01-0.124D+00-0.315D-01
 Coeff-Com:  0.113D+01
 Coeff:     -0.294D-03 0.260D-02 0.124D-01 0.109D-01-0.124D+00-0.315D-01
 Coeff:      0.113D+01
 Gap=     0.138 Goal=   None    Shift=    0.000
 Gap=     0.228 Goal=   None    Shift=    0.000
 RMSDP=2.25D-08 MaxDP=5.85D-07 DE=-1.64D-11 OVMax= 7.52D-07

 Cycle   8  Pass 1  IDiag  1:
 E= -80.1608780890321     Delta-E=       -0.000000000001 Rises=F Damp=F
 DIIS: error= 2.98D-08 at cycle   8 NSaved=   8.
 NSaved= 8 IEnMin= 8 EnMin= -80.1608780890321     IErMin= 8 ErrMin= 2.98D-08
 ErrMax= 2.98D-08  0.00D+00 EMaxC= 1.00D-01 BMatC= 8.58D-14 BMatP= 2.05D-12
 IDIUse=1 WtCom= 1.00D+00 WtEn= 0.00D+00
 Coeff-Com: -0.301D-04-0.357D-03 0.570D-03 0.512D-02 0.415D-03-0.491D-01
 Coeff-Com: -0.588D-01 0.110D+01
 Coeff:     -0.301D-04-0.357D-03 0.570D-03 0.512D-02 0.415D-03-0.491D-01
 Coeff:     -0.588D-01 0.110D+01
 Gap=     0.138 Goal=   None    Shift=    0.000
 Gap=     0.228 Goal=   None    Shift=    0.000
 RMSDP=3.91D-09 MaxDP=8.29D-08 DE=-1.08D-12 OVMax= 1.22D-07

 SCF Done:  E(UM062X) =  -80.1608780890     A.U. after    8 cycles
            NFock=  8  Conv=0.39D-08     -V/T= 2.0031
 <Sx>= 0.0000 <Sy>= 0.0000 <Sz>= 0.5000 <S**2>= 1.7577 S= 0.9169
 <L.S>=  0.00000000000    
 KE= 7.990969577662D+01 PE=-2.097795136969D+02 EE= 3.680628117370D+01
 Annihilation of the first spin contaminant:
 S**2 before annihilation     1.7577,   after     0.7758
 Leave Link  502 at Mon Apr 21 17:58:58 2025, MaxMem=   536870912 cpu:              22.1 elap:               3.1
 (Enter /home/szhao/Apps/g16/l701.exe)
 ... and contract with generalized density number  0.
 Compute integral first derivatives.
 Leave Link  701 at Mon Apr 21 17:58:59 2025, MaxMem=   536870912 cpu:               1.7 elap:               0.4
 (Enter /home/szhao/Apps/g16/l702.exe)
 L702 exits ... SP integral derivatives will be done elsewhere.
 Leave Link  702 at Mon Apr 21 17:58:59 2025, MaxMem=   536870912 cpu:               0.5 elap:               0.1
 (Enter /home/szhao/Apps/g16/l703.exe)
 Integral derivatives from FoFJK, PRISM(SPDF).
 Compute integral first derivatives, UseDBF=F ICtDFT=           0.
 Calling FoFJK, ICntrl=      2127 FMM=F ISym2X=0 I1Cent= 0 IOpClX= 1 NMat=1 NMatS=1 NMatT=0.
 FoFJK:  IHMeth= 1 ICntrl=    2127 DoSepK=F KAlg= 0 I1Cent=           0 FoldK=F
 IRaf=         0 NMat=       1 IRICut=       1 DoRegI=T DoRafI=F ISym2E= 0 IDoP0=0 IntGTp=1.
 FoFCou: FMM=F IPFlag=           0 FMFlag=      100000 FMFlg1=         800
         NFxFlg=           0 DoJE=F BraDBF=F KetDBF=F FulRan=T
         wScrn=  0.000000 ICntrl=      2127 IOpCl=  1 I1Cent=           0 NGrid=           0
         NMat0=    1 NMatS0=      1 NMatT0=    0 NMatD0=    1 NMtDS0=    0 NMtDT0=    0
 Symmetry not used in FoFCou.
 Leave Link  703 at Mon Apr 21 17:59:00 2025, MaxMem=   536870912 cpu:               5.4 elap:               0.7
 (Enter /home/szhao/Apps/g16/l716.exe)
 Dipole        =-2.42734326D+00-9.50287790D-05-1.97562773D-11
 -------------------------------------------------------------------
 Center     Atomic                   Forces (Hartrees/Bohr)
 Number     Number              X              Y              Z
 -------------------------------------------------------------------
      1        5          -0.000000000   -0.000000000   -0.000000000
      2        7          -0.000000000   -0.000000000   -0.000000000
      3        1           0.000001352   -0.000000687    0.000000000
      4        1           0.000000908    0.000000312   -0.000000000
 -------------------------------------------------------------------
 Cartesian Forces:  Max     0.000001352 RMS     0.000000518
 Leave Link  716 at Mon Apr 21 17:59:00 2025, MaxMem=   536870912 cpu:               0.5 elap:               0.1
 (Enter /home/szhao/Apps/g16/l103.exe)

 GradGradGradGradGradGradGradGradGradGradGradGradGradGradGradGradGradGrad
 Berny optimization.
 Using GEDIIS/GDIIS optimizer.
 FormGI is forming the generalized inverse of G from B-inverse, IUseBI=4.
 Internal  Forces:  Max     0.000001352 RMS     0.000000667
 Search for a local minimum.
 Step number   3 out of a maximum of   22
 All quantities printed in internal units (Hartrees-Bohrs-Radians)
 RMS Force = .66533D-06 SwitMx=.10000D-02 MixMth= 2
 Mixed Optimization -- En-DIIS/RFO-DIIS
 Swapping is turned off.
 Update second derivatives using D2CorX and points    1    2    3
 DE= -2.56D-06 DEPred=-2.35D-06 R= 1.09D+00
 TightC=F SS=  1.41D+00  RLast= 4.40D-03 DXNew= 5.0454D-01 1.3198D-02
 Trust test= 1.09D+00 RLast= 4.40D-03 DXMaxT set to 3.00D-01
 The second derivative matrix:
                          X1        Y1        Z1        X2        Y2
           X1           0.67320
           Y1           0.00003   0.50000
           Z1           0.00000   0.00000   0.50000
           X2          -0.13634  -0.00003  -0.00000   0.60732
           Y2           0.00000   0.00000   0.00000  -0.00000   0.50000
           Z2          -0.00000  -0.00000  -0.00000   0.00000  -0.00000
           R1          -0.17328  -0.00003  -0.00000   0.13639  -0.00000
           R2          -0.13618  -0.00003  -0.00000   0.10719  -0.00000
           A1          -0.00001  -0.00000  -0.00000   0.00001  -0.00000
           A2           0.00001   0.00000  -0.00000  -0.00001   0.00000
           A3          -0.00000  -0.00000  -0.00000   0.00000  -0.00000
           A4          -0.00000  -0.00000  -0.00000   0.00000  -0.00000
                          Z2        R1        R2        A1        A2
           Z2           0.50000
           R1           0.00000   0.24451
           R2           0.00000  -0.01677   0.43605
           A1           0.00000   0.00001   0.00001   0.00230
           A2           0.00000  -0.00001  -0.00001  -0.00000   0.00783
           A3           0.00000   0.00000   0.00000   0.00000   0.00000
           A4           0.00000   0.00000   0.00000   0.00000   0.00000
                          A3        A4
           A3           0.00230
           A4           0.00000   0.00783
 ITU=  1  1  0
     Eigenvalues ---    0.00230   0.00697   0.00783   0.24305   0.43750
     Eigenvalues --- 1000.000001000.000001000.000001000.000001000.00000
     Eigenvalues --- 1000.000001000.00000
 En-DIIS/RFO-DIIS/Sim-DIIS IScMMF=       -3 using points:     3    2
 RFO step:  Lambda=-7.74943755D-12.
 NNeg= 0 NGDIIS= 2 SimSw=  2.50D-03 Rises=F DC= -2.56D-06 SmlDif=  1.00D-05
 NRisDI= 0 DoIntr=F SqrtH=F CThrHd= 10.0 CDAdj=  3.0
 RMS Error=  0.2924340287D-05 NUsed= 2 OKEnD=F EnDIS=F
 InvSVX:  RCond= 2.18D-05 Info=           0 Equed=N FErr=  8.89D-16 BErr=  1.48D-17
 DidBck=F Rises=F RFO-DIIS coefs:    0.99907    0.00093
 Iteration  1 RMS(Cart)=  0.00000513 RMS(Int)=  0.00000000
 Iteration  2 RMS(Cart)=  0.00000000 RMS(Int)=  0.00000001
 ITry= 1 IFail=0 DXMaxC= 1.50D-05 DCOld= 1.00D+10 DXMaxT= 3.00D-01 DXLimC= 3.00D+00 Rises=F
 Variable       Old X    -DE/DX   Delta X   Delta X   Delta X     New X
                                 (Linear)    (Quad)   (Total)
    X1       -3.12322   0.00000  -0.00000   0.00000   0.00000  -3.12322
    Y1        0.00000   0.00000   0.00000   0.00000   0.00000   0.00000
    Z1        0.00000   0.00000   0.00000   0.00000   0.00000   0.00000
    X2        3.12322   0.00000   0.00000   0.00000   0.00000   3.12322
    Y2        0.00000  -0.00000   0.00000   0.00000   0.00000   0.00000
    Z2        0.00000  -0.00000   0.00000   0.00000   0.00000   0.00000
    R1        2.27653  -0.00000  -0.00000  -0.00000  -0.00001   2.27652
    R2        1.95700   0.00000  -0.00000   0.00000   0.00000   1.95700
    A1        3.14136  -0.00000   0.00000  -0.00000  -0.00000   3.14136
    A2        3.14161   0.00000  -0.00000   0.00001   0.00001   3.14162
    A3        3.14159  -0.00000   0.00000  -0.00000  -0.00000   3.14159
    A4        3.14159  -0.00000   0.00000  -0.00000  -0.00000   3.14159
         Item               Value     Threshold  Converged?
 Maximum Force            0.000001     0.000450     YES
 RMS     Force            0.000001     0.000300     YES
 Maximum Displacement     0.000015     0.001800     YES
 RMS     Displacement     0.000005     0.001200     YES
 Predicted change in Energy=-4.746255D-12
 Optimization completed.
    -- Stationary point found.
                           ----------------------------
                           !   Optimized Parameters   !
                           ! (Angstroms and Degrees)  !
 --------------------------                            --------------------------
 ! Name  Definition              Value          Derivative Info.                !
 --------------------------------------------------------------------------------
 ! X1    R(1,-1)                -1.6527         -DE/DX =    0.0                 !
 ! Y1    R(1,-2)                 0.0            -DE/DX =    0.0                 !
 ! Z1    R(1,-3)                 0.0            -DE/DX =    0.0                 !
 ! X2    R(2,-1)                 1.6527         -DE/DX =    0.0                 !
 ! Y2    R(2,-2)                 0.0            -DE/DX =    0.0                 !
 ! Z2    R(2,-3)                 0.0            -DE/DX =    0.0                 !
 ! R1    R(1,3)                  1.2047         -DE/DX =    0.0                 !
 ! R2    R(2,4)                  1.0356         -DE/DX =    0.0                 !
 ! A1    L(2,1,3,-3,-1)        179.9868         -DE/DX =    0.0                 !
 ! A2    L(1,2,4,-3,-1)        180.001          -DE/DX =    0.0                 !
 ! A3    L(2,1,3,-2,-2)        180.0            -DE/DX =    0.0                 !
 ! A4    L(1,2,4,-2,-2)        180.0            -DE/DX =    0.0                 !
 --------------------------------------------------------------------------------
 Lowest energy point so far.  Saving SCF results.
 Largest change from initial coordinates is atom    3       0.017 Angstoms.
 GradGradGradGradGradGradGradGradGradGradGradGradGradGradGradGradGradGrad

 Leave Link  103 at Mon Apr 21 17:59:00 2025, MaxMem=   536870912 cpu:               0.5 elap:               0.1
 (Enter /home/szhao/Apps/g16/l202.exe)
                          Input orientation:                          
 ---------------------------------------------------------------------
 Center     Atomic      Atomic             Coordinates (Angstroms)
 Number     Number       Type             X           Y           Z
 ---------------------------------------------------------------------
      1          5           0       -1.652734    0.000000    0.000000
      2          7           0        1.652734    0.000000    0.000000
      3          1           0       -2.857422   -0.000278    0.000000
      4          1           0        2.688335   -0.000017   -0.000000
 ---------------------------------------------------------------------
                    Distance matrix (angstroms):
                    1          2          3          4
     1  B    0.000000
     2  N    3.305468   0.000000
     3  H    1.204687   4.510156   0.000000
     4  H    4.341069   1.035601   5.545757   0.000000
 Symmetry turned off by external request.
 This structure is nearly, but not quite of a higher symmetry.
 Consider Symm=Loose if the higher symmetry is desired.
 Stoichiometry    BH2N(1+,2)
 Framework group  CS[SG(BH2N)]
 Deg. of freedom     5
 Full point group                 CS      NOp   2
 Rotational constants (GHZ):  7509961672.4451790           6.0896340           6.0896340
 Leave Link  202 at Mon Apr 21 17:59:01 2025, MaxMem=   536870912 cpu:               0.2 elap:               0.1
 (Enter /home/szhao/Apps/g16/l601.exe)
 Copying SCF densities to generalized density rwf, IOpCl= 1 IROHF=0.

 **********************************************************************

            Population analysis using the SCF density.

 **********************************************************************

 Alpha  occ. eigenvalues --  -14.97132  -7.53109  -1.10059  -0.85714  -0.64137
 Alpha  occ. eigenvalues --   -0.56578  -0.56578
 Alpha virt. eigenvalues --   -0.42743  -0.34081  -0.34081  -0.14954  -0.11210
 Alpha virt. eigenvalues --   -0.09848  -0.09848  -0.06634  -0.02633   0.00602
 Alpha virt. eigenvalues --    0.00602   0.04258   0.07945   0.13250   0.13250
 Alpha virt. eigenvalues --    0.15033   0.19159   0.34731   0.43508   0.49799
 Alpha virt. eigenvalues --    0.49799   0.51443   0.51443   0.63130   0.64504
 Alpha virt. eigenvalues --    0.64504   0.81000   0.93311   1.15129   1.15129
 Alpha virt. eigenvalues --    1.35941   1.35941   1.50260   1.50260   1.56469
 Alpha virt. eigenvalues --    1.78830   1.79774   1.79774   2.19293   2.19293
 Alpha virt. eigenvalues --    2.22200   2.37859   2.44207   2.81973   3.64235
 Alpha virt. eigenvalues --    3.64235   4.21707  13.81349  35.27028
  Beta  occ. eigenvalues --  -14.94687  -7.54354  -0.97272  -0.89294  -0.67820
  Beta  occ. eigenvalues --   -0.58344
  Beta virt. eigenvalues --   -0.35561  -0.35561  -0.21224  -0.21224  -0.14421
  Beta virt. eigenvalues --   -0.10689  -0.09506  -0.09506  -0.07162  -0.02129
  Beta virt. eigenvalues --    0.02474   0.02474   0.05728   0.08673   0.16348
  Beta virt. eigenvalues --    0.17876   0.17876   0.26291   0.33811   0.45425
  Beta virt. eigenvalues --    0.51104   0.51104   0.53162   0.53162   0.67600
  Beta virt. eigenvalues --    0.68752   0.68752   0.83969   0.96733   1.21747
  Beta virt. eigenvalues --    1.21747   1.37162   1.37162   1.50818   1.50818
  Beta virt. eigenvalues --    1.61881   1.82997   1.91593   1.91593   2.13774
  Beta virt. eigenvalues --    2.25412   2.25412   2.32631   2.43157   2.93643
  Beta virt. eigenvalues --    3.74142   3.74142   4.29325  13.80972  35.27478
          Condensed to atoms (all electrons):
               1          2          3          4
     1  B    3.916174  -0.000212   0.344585   0.000132
     2  N   -0.000212   6.972294   0.001232   0.272237
     3  H    0.344585   0.001232   0.431860  -0.000005
     4  H    0.000132   0.272237  -0.000005   0.443733
          Atomic-Atomic Spin Densities.
               1          2          3          4
     1  B   -0.870403   0.036806  -0.000427  -0.000803
     2  N    0.036806   2.013057  -0.000735  -0.001213
     3  H   -0.000427  -0.000735  -0.141841  -0.000007
     4  H   -0.000803  -0.001213  -0.000007  -0.068053
 Mulliken charges and spin densities:
               1          2
     1  B    0.739320  -0.834828
     2  N   -0.245551   2.047915
     3  H    0.222328  -0.143010
     4  H    0.283903  -0.070077
 Sum of Mulliken charges =   1.00000   1.00000
 Mulliken charges and spin densities with hydrogens summed into heavy atoms:
               1          2
     1  B    0.961648  -0.977838
     2  N    0.038352   1.977838
 Electronic spatial extent (au):  <R**2>=            177.0145
 Charge=              1.0000 electrons
 Dipole moment (field-independent basis, Debye):
    X=             -6.1697    Y=             -0.0002    Z=             -0.0000  Tot=              6.1697
 Quadrupole moment (field-independent basis, Debye-Ang):
   XX=             13.8417   YY=            -10.2800   ZZ=            -10.2800
   XY=              0.0003   XZ=             -0.0000   YZ=             -0.0000
 Traceless Quadrupole moment (field-independent basis, Debye-Ang):
   XX=             16.0811   YY=             -8.0406   ZZ=             -8.0406
   XY=              0.0003   XZ=             -0.0000   YZ=             -0.0000
 Octapole moment (field-independent basis, Debye-Ang**2):
  XXX=            -16.1083  YYY=              0.0005  ZZZ=             -0.0000  XYY=             -3.4428
  XXY=             -0.0013  XXZ=             -0.0000  XZZ=             -3.4428  YZZ=              0.0002
  YYZ=             -0.0000  XYZ=              0.0000
 Hexadecapole moment (field-independent basis, Debye-Ang**3):
 XXXX=            -66.9418 YYYY=             -9.8391 ZZZZ=             -9.8391 XXXY=              0.0029
 XXXZ=             -0.0000 YYYX=             -0.0018 YYYZ=              0.0000 ZZZX=              0.0000
 ZZZY=              0.0000 XXYY=            -36.8546 XXZZ=            -36.8546 YYZZ=             -3.2797
 XXYZ=             -0.0000 YYXZ=              0.0000 ZZXY=             -0.0006
 N-N= 1.290265865755D+01 E-N=-2.097795137210D+02  KE= 7.990969577662D+01
                          Isotropic Fermi Contact Couplings
        Atom                 a.u.       MegaHertz       Gauss      10(-4) cm-1
     1  B(11)             -0.75744   -1086.44398    -387.67023    -362.39870
     2  N(14)              0.23542      76.06685      27.14254      25.37317
     3  H(1)              -0.07460    -333.47299    -118.99146    -111.23462
     4  H(1)              -0.03444    -153.95204     -54.93392     -51.35287
 --------------------------------------------------------
       Center         ----  Spin Dipole Couplings  ----
                      3XX-RR        3YY-RR        3ZZ-RR
 --------------------------------------------------------
     1   Atom       -0.442745      0.221373      0.221373
     2   Atom       -2.295408      1.147704      1.147704
     3   Atom       -0.045591      0.022796      0.022796
     4   Atom        0.241965     -0.120982     -0.120982
 --------------------------------------------------------
                        XY            XZ            YZ
 --------------------------------------------------------
     1   Atom       -0.000171      0.000000      0.000000
     2   Atom        0.000048      0.000000      0.000000
     3   Atom       -0.000018      0.000000      0.000000
     4   Atom       -0.000006     -0.000000      0.000000
 --------------------------------------------------------


 ---------------------------------------------------------------------------------
              Anisotropic Spin Dipole Couplings in Principal Axis System
 ---------------------------------------------------------------------------------

       Atom             a.u.   MegaHertz   Gauss  10(-4) cm-1        Axes

              Baa    -0.4427   -75.804   -27.049   -25.286  1.0000  0.0003 -0.0000
     1 B(11)  Bbb     0.2214    37.902    13.524    12.643  0.0000 -0.0000  1.0000
              Bcc     0.2214    37.902    13.524    12.643 -0.0003  1.0000  0.0000
 
              Baa    -2.2954   -88.529   -31.589   -29.530  1.0000 -0.0000 -0.0000
     2 N(14)  Bbb     1.1477    44.264    15.795    14.765  0.0000  1.0000 -0.0000
              Bcc     1.1477    44.264    15.795    14.765  0.0000  0.0000  1.0000
 
              Baa    -0.0456   -24.325    -8.680    -8.114  1.0000  0.0003 -0.0000
     3 H(1)   Bbb     0.0228    12.163     4.340     4.057  0.0000  0.0000  1.0000
              Bcc     0.0228    12.163     4.340     4.057 -0.0003  1.0000 -0.0000
 
              Baa    -0.1210   -64.550   -23.033   -21.532  0.0000  1.0000 -0.0000
     4 H(1)   Bbb    -0.1210   -64.550   -23.033   -21.532  0.0000  0.0000  1.0000
              Bcc     0.2420   129.101    46.066    43.063  1.0000 -0.0000 -0.0000
 

 ---------------------------------------------------------------------------------

 No NMR shielding tensors so no spin-rotation constants.
 Leave Link  601 at Mon Apr 21 17:59:01 2025, MaxMem=   536870912 cpu:               1.8 elap:               0.3
 (Enter /home/szhao/Apps/g16/l9999.exe)
 1\1\GINC-NODE06\FOpt\UM062X\6-311+G(d,p)\B1H2N1(1+,2)\SZHAO\21-Apr-202
 5\0\\#p opt UM062X/6-311+G** nosymm int=superfine\\Title Card Required
 \\1,2\B,-1.65273421,0.,0.\N,1.65273421,0.,0.\H,-2.8574216184,-0.000278
 4489,0.0000000002\H,2.6883349482,-0.0000173006,-0.0000000001\\Version=
 ES64L-G16RevA.03\HF=-80.1608781\S2=1.7577\S2-1=0.\S2A=0.77579\RMSD=3.9
 11e-09\RMSF=5.182e-07\Dipole=-2.8506934,-0.0000551,0.\Quadrupole=11.95
 59283,-5.9779641,-5.9779641,0.0002514,0.,0.\PG=CS [SG(B1H2N1)]\\@


 TIMES HAVE CHANGED. IN THE BIBLE WHEN AN ASS
 SPOKE IT WAS CONSIDERED A MIRACLE.
 Job cpu time:       0 days  0 hours  2 minutes 45.3 seconds.
 Elapsed time:       0 days  0 hours  0 minutes 25.0 seconds.
 File lengths (MBytes):  RWF=     17 Int=      0 D2E=      0 Chk=      2 Scr=      2
 Normal termination of Gaussian 16 at Mon Apr 21 17:59:02 2025.
