 Entering Gaussian System, Link 0=g16
 Initial command:
 /home/szhao/Apps/g16/l1.exe "/home/szhao/tmp/Gau-100842.inp" -scrdir="/home/szhao/tmp/"
 Default is to use a total of  16 processors:
                               16 via shared-memory
                                1 via Linda
 Entering Link 1 = /home/szhao/Apps/g16/l1.exe PID=    100844.
  
 Copyright (c) 1988,1990,1992,1993,1995,1998,2003,2009,2016,
            Gaussian, Inc.  All Rights Reserved.
  
 This is part of the Gaussian(R) 16 program.  It is based on
 the Gaussian(R) 09 system (copyright 2009, Gaussian, Inc.),
 the Gaussian(R) 03 system (copyright 2003, Gaussian, Inc.),
 the Gaussian(R) 98 system (copyright 1998, Gaussian, Inc.),
 the Gaussian(R) 94 system (copyright 1995, Gaussian, Inc.),
 the Gaussian 92(TM) system (copyright 1992, Gaussian, Inc.),
 the Gaussian 90(TM) system (copyright 1990, Gaussian, Inc.),
 the Gaussian 88(TM) system (copyright 1988, Gaussian, Inc.),
 the Gaussian 86(TM) system (copyright 1986, Carnegie Mellon
 University), and the Gaussian 82(TM) system (copyright 1983,
 Carnegie Mellon University). Gaussian is a federally registered
 trademark of Gaussian, Inc.
  
 This software contains proprietary and confidential information,
 including trade secrets, belonging to Gaussian, Inc.
  
 This software is provided under written license and may be
 used, copied, transmitted, or stored only in accord with that
 written license.
  
 The following legend is applicable only to US Government
 contracts under FAR:
  
                    RESTRICTED RIGHTS LEGEND
  
 Use, reproduction and disclosure by the US Government is
 subject to restrictions as set forth in subparagraphs (a)
 and (c) of the Commercial Computer Software - Restricted
 Rights clause in FAR 52.227-19.
  
 Gaussian, Inc.
 340 Quinnipiac St., Bldg. 40, Wallingford CT 06492
  
  
 ---------------------------------------------------------------
 Warning -- This program may not be used in any manner that
 competes with the business of Gaussian, Inc. or will provide
 assistance to any competitor of Gaussian, Inc.  The licensee
 of this program is prohibited from giving any competitor of
 Gaussian, Inc. access to this program.  By using this program,
 the user acknowledges that Gaussian, Inc. is engaged in the
 business of creating and licensing software in the field of
 computational chemistry and represents and warrants to the
 licensee that it is not a competitor of Gaussian, Inc. and that
 it will not use this program in any manner prohibited above.
 ---------------------------------------------------------------
  

 Cite this work as:
 Gaussian 16, Revision A.03,
 M. J. Frisch, G. W. Trucks, H. B. Schlegel, G. E. Scuseria, 
 M. A. Robb, J. R. Cheeseman, G. Scalmani, V. Barone, 
 G. A. Petersson, H. Nakatsuji, X. Li, M. Caricato, A. V. Marenich, 
 J. Bloino, B. G. Janesko, R. Gomperts, B. Mennucci, H. P. Hratchian, 
 J. V. Ortiz, A. F. Izmaylov, J. L. Sonnenberg, D. Williams-Young, 
 F. Ding, F. Lipparini, F. Egidi, J. Goings, B. Peng, A. Petrone, 
 T. Henderson, D. Ranasinghe, V. G. Zakrzewski, J. Gao, N. Rega, 
 G. Zheng, W. Liang, M. Hada, M. Ehara, K. Toyota, R. Fukuda, 
 J. Hasegawa, M. Ishida, T. Nakajima, Y. Honda, O. Kitao, H. Nakai, 
 T. Vreven, K. Throssell, J. A. Montgomery, Jr., J. E. Peralta, 
 F. Ogliaro, M. J. Bearpark, J. J. Heyd, E. N. Brothers, K. N. Kudin, 
 V. N. Staroverov, T. A. Keith, R. Kobayashi, J. Normand, 
 K. Raghavachari, A. P. Rendell, J. C. Burant, S. S. Iyengar, 
 J. Tomasi, M. Cossi, J. M. Millam, M. Klene, C. Adamo, R. Cammi, 
 J. W. Ochterski, R. L. Martin, K. Morokuma, O. Farkas, 
 J. B. Foresman, and D. J. Fox, Gaussian, Inc., Wallingford CT, 2016.
 
 ******************************************
 Gaussian 16:  ES64L-G16RevA.03 25-Dec-2016
                19-Nov-2024 
 ******************************************
 %chk=opt.chk
 %mem=16GB
 %nprocshared=24
 Will use up to   24 processors via shared memory.
 ---------------------------------------
 #p UM062X/6-311+G** force int=superfine
 ---------------------------------------
 1/10=7,30=1,38=1/1,3;
 2/12=2,17=6,18=5,40=1/2;
 3/5=4,6=6,7=111,11=2,25=1,30=1,71=1,74=-55,75=-7,116=2/1,2,3;
 4//1;
 5/5=2,38=5/2;
 6/7=2,8=2,9=2,10=2,28=1/1;
 7/29=1/1,2,3,16;
 1/10=7,30=1/3;
 99//99;
 Leave Link    1 at Tue Nov 19 13:35:45 2024, MaxMem=  2147483648 cpu:               1.8 elap:               0.1
 (Enter /home/szhao/Apps/g16/l101.exe)
 -------------------
 Title Card Required
 -------------------
 Symbolic Z-matrix:
 Charge =  1 Multiplicity = 2
 C                    -0.80153   0.        0. 
 C                     0.80153   0.        0. 
 H                    -1.89462   0.        0. 
 H                     1.89462   0.        0. 
 
 ITRead=  0  0  0  0
 MicOpt= -1 -1 -1 -1
 NAtoms=      4 NQM=        4 NQMF=       0 NMMI=      0 NMMIF=      0
                NMic=       0 NMicF=      0.
                    Isotopes and Nuclear Properties:
 (Nuclear quadrupole moments (NQMom) in fm**2, nuclear magnetic moments (NMagM)
  in nuclear magnetons)

  Atom         1           2           3           4
 IAtWgt=          12          12           1           1
 AtmWgt=  12.0000000  12.0000000   1.0078250   1.0078250
 NucSpn=           0           0           1           1
 AtZEff=  -0.0000000  -0.0000000  -0.0000000  -0.0000000
 NQMom=    0.0000000   0.0000000   0.0000000   0.0000000
 NMagM=    0.0000000   0.0000000   2.7928460   2.7928460
 AtZNuc=   6.0000000   6.0000000   1.0000000   1.0000000
 Leave Link  101 at Tue Nov 19 13:35:46 2024, MaxMem=  2147483648 cpu:               4.1 elap:               0.2
 (Enter /home/szhao/Apps/g16/l103.exe)

 GradGradGradGradGradGradGradGradGradGradGradGradGradGradGradGradGradGrad
 Berny optimization.
 Initialization pass.
 Trust Radius=3.00D-01 FncErr=1.00D-07 GrdErr=1.00D-07 EigMax=2.50D+02 EigMin=1.00D-04
 Number of steps in this run=      2 maximum allowed number of steps=      2.
 GradGradGradGradGradGradGradGradGradGradGradGradGradGradGradGradGradGrad

 Leave Link  103 at Tue Nov 19 13:35:46 2024, MaxMem=  2147483648 cpu:               1.2 elap:               0.1
 (Enter /home/szhao/Apps/g16/l202.exe)
                          Input orientation:                          
 ---------------------------------------------------------------------
 Center     Atomic      Atomic             Coordinates (Angstroms)
 Number     Number       Type             X           Y           Z
 ---------------------------------------------------------------------
      1          6           0       -0.801532    0.000000    0.000000
      2          6           0        0.801532    0.000000    0.000000
      3          1           0       -1.894616    0.000000    0.000000
      4          1           0        1.894621    0.000000    0.000000
 ---------------------------------------------------------------------
                    Distance matrix (angstroms):
                    1          2          3          4
     1  C    0.000000
     2  C    1.603064   0.000000
     3  H    1.093084   2.696148   0.000000
     4  H    2.696153   1.093089   3.789237   0.000000
 Stoichiometry    C2H2(1+,2)
 Framework group  C*V[C*(HCCH)]
 Deg. of freedom     3
 Full point group                 C*V     NOp   4
 Largest Abelian subgroup         C2V     NOp   4
 Largest concise Abelian subgroup C1      NOp   1
                         Standard orientation:                         
 ---------------------------------------------------------------------
 Center     Atomic      Atomic             Coordinates (Angstroms)
 Number     Number       Type             X           Y           Z
 ---------------------------------------------------------------------
      1          6           0        0.000000    0.000000   -0.801532
      2          6           0        0.000000    0.000000    0.801532
      3          1           0        0.000000    0.000000   -1.894616
      4          1           0        0.000000    0.000000    1.894621
 ---------------------------------------------------------------------
 Rotational constants (GHZ):           0.0000000          22.3083819          22.3083819
 Leave Link  202 at Tue Nov 19 13:35:46 2024, MaxMem=  2147483648 cpu:               2.5 elap:               0.2
 (Enter /home/szhao/Apps/g16/l301.exe)
 Standard basis: 6-311+G(d,p) (5D, 7F)
 Ernie: Thresh=  0.10000D-02 Tol=  0.10000D-05 Strict=F.
 There are    32 symmetry adapted cartesian basis functions of A1  symmetry.
 There are     2 symmetry adapted cartesian basis functions of A2  symmetry.
 There are    12 symmetry adapted cartesian basis functions of B1  symmetry.
 There are    12 symmetry adapted cartesian basis functions of B2  symmetry.
 There are    30 symmetry adapted basis functions of A1  symmetry.
 There are     2 symmetry adapted basis functions of A2  symmetry.
 There are    12 symmetry adapted basis functions of B1  symmetry.
 There are    12 symmetry adapted basis functions of B2  symmetry.
    56 basis functions,    88 primitive gaussians,    58 cartesian basis functions
     7 alpha electrons        6 beta electrons
       nuclear repulsion energy        20.1879934037 Hartrees.
 IExCor= 4336 DFT=T Ex+Corr=M062X ExCW=0 ScaHFX=  0.540000
 ScaDFX=  1.000000  1.000000  1.000000  1.000000 ScalE2=  1.000000  1.000000
 IRadAn=      7 IRanWt=     -1 IRanGd=            0 ICorTp=0 IEmpDi=  4
 NAtoms=    4 NActive=    4 NUniq=    4 SFac= 1.00D+00 NAtFMM=   60 NAOKFM=F Big=F
 Integral buffers will be    131072 words long.
 Raffenetti 2 integral format.
 Two-electron integral symmetry is turned on.
 Leave Link  301 at Tue Nov 19 13:35:47 2024, MaxMem=  2147483648 cpu:               2.9 elap:               0.2
 (Enter /home/szhao/Apps/g16/l302.exe)
 NPDir=0 NMtPBC=     1 NCelOv=     1 NCel=       1 NClECP=     1 NCelD=      1
         NCelK=      1 NCelE2=     1 NClLst=     1 CellRange=     0.0.
 One-electron integrals computed using PRISM.
 One-electron integral symmetry used in STVInt
 NBasis=    56 RedAO= T EigKep=  5.21D-04  NBF=    30     2    12    12
 NBsUse=    56 1.00D-06 EigRej= -1.00D+00 NBFU=    30     2    12    12
 Precomputing XC quadrature grid using
 IXCGrd= 4 IRadAn=           7 IRanWt=          -1 IRanGd=           0 AccXCQ= 0.00D+00.
 Generated NRdTot=       0 NPtTot=           0 NUsed=           0 NTot=          32
 NSgBfM=    58    58    58    58    58 MxSgAt=     4 MxSgA2=     4.
 Leave Link  302 at Tue Nov 19 13:35:47 2024, MaxMem=  2147483648 cpu:              14.2 elap:               0.8
 (Enter /home/szhao/Apps/g16/l303.exe)
 DipDrv:  MaxL=1.
 Leave Link  303 at Tue Nov 19 13:35:48 2024, MaxMem=  2147483648 cpu:               4.4 elap:               0.3
 (Enter /home/szhao/Apps/g16/l401.exe)
 ExpMin= 4.38D-02 ExpMax= 4.56D+03 ExpMxC= 6.82D+02 IAcc=3 IRadAn=         7 AccDes= 0.00D+00
 Harris functional with IExCor= 1009 and IRadAn=       7 diagonalized for initial guess.
 HarFok:  IExCor= 1009 AccDes= 0.00D+00 IRadAn=         7 IDoV= 1 UseB2=F ITyADJ=14
 ICtDFT=  3500011 ScaDFX=  1.000000  1.000000  1.000000  1.000000
 FoFCou: FMM=F IPFlag=           0 FMFlag=      100000 FMFlg1=           0
         NFxFlg=           0 DoJE=T BraDBF=F KetDBF=T FulRan=T
         wScrn=  0.000000 ICntrl=       500 IOpCl=  0 I1Cent=   200000004 NGrid=           0
         NMat0=    1 NMatS0=      1 NMatT0=    0 NMatD0=    1 NMtDS0=    0 NMtDT0=    0
 Petite list used in FoFCou.
 Harris En= -76.8173038454637    
 JPrj=0 DoOrth=F DoCkMO=F.
 Initial guess orbital symmetries:
 Alpha Orbitals:
       Occupied  (SG) (SG) (SG) (SG) (SG) (PI) (PI)
       Virtual   (PI) (PI) (SG) (SG) (SG) (SG) (PI) (PI) (PI) (PI)
                 (SG) (SG) (SG) (SG) (PI) (PI) (PI) (PI) (SG) (SG)
                 (SG) (SG) (PI) (PI) (SG) (DLTA) (DLTA) (PI) (PI)
                 (DLTA) (DLTA) (SG) (PI) (PI) (SG) (PI) (PI) (SG)
                 (SG) (PI) (PI) (SG) (PI) (PI) (SG) (SG) (SG) (SG)
                 (SG)
 Beta  Orbitals:
       Occupied  (SG) (SG) (SG) (SG) (SG) (PI)
       Virtual   (PI) (PI) (PI) (SG) (SG) (SG) (SG) (PI) (PI) (PI)
                 (PI) (SG) (SG) (SG) (SG) (PI) (PI) (PI) (PI) (SG)
                 (SG) (SG) (SG) (PI) (PI) (SG) (DLTA) (DLTA) (PI)
                 (PI) (DLTA) (DLTA) (SG) (PI) (PI) (SG) (PI) (PI)
                 (SG) (SG) (PI) (PI) (SG) (PI) (PI) (SG) (SG) (SG)
                 (SG) (SG)
 Initial guess <Sx>= 0.0000 <Sy>= 0.0000 <Sz>= 0.5000 <S**2>= 0.7500 S= 0.5000
 Leave Link  401 at Tue Nov 19 13:35:49 2024, MaxMem=  2147483648 cpu:              26.9 elap:               1.5
 (Enter /home/szhao/Apps/g16/l502.exe)
 Keep R1 and R2 ints in memory in symmetry-blocked form, NReq=22505576.
 FoFCou: FMM=F IPFlag=           0 FMFlag=           0 FMFlg1=           0
         NFxFlg=           0 DoJE=F BraDBF=F KetDBF=F FulRan=T
         wScrn=  0.000000 ICntrl=       600 IOpCl=  0 I1Cent=           0 NGrid=           0
         NMat0=    1 NMatS0=   1596 NMatT0=    0 NMatD0=    1 NMtDS0=    0 NMtDT0=    0
 Petite list used in FoFCou.
 UHF open shell SCF:
 Using DIIS extrapolation, IDIIS=  1040.
 NGot=  2147483648 LenX=  2146741758 LenY=  2146737953
 Requested convergence on RMS density matrix=1.00D-08 within 128 cycles.
 Requested convergence on MAX density matrix=1.00D-06.
 Requested convergence on             energy=1.00D-06.
 No special actions if energy rises.

 Cycle   1  Pass 1  IDiag  1:
 E= -76.7662264063070    
 DIIS: error= 2.42D-02 at cycle   1 NSaved=   1.
 NSaved= 1 IEnMin= 1 EnMin= -76.7662264063070     IErMin= 1 ErrMin= 2.42D-02
 ErrMax= 2.42D-02  0.00D+00 EMaxC= 1.00D-01 BMatC= 5.82D-02 BMatP= 5.82D-02
 IDIUse=3 WtCom= 7.58D-01 WtEn= 2.42D-01
 Coeff-Com:  0.100D+01
 Coeff-En:   0.100D+01
 Coeff:      0.100D+01
 Gap=     0.278 Goal=   None    Shift=    0.000
 Gap=     0.190 Goal=   None    Shift=    0.000
 GapD=    0.190 DampG=1.000 DampE=0.500 DampFc=0.5000 IDamp=-1.
 Damping current iteration by 5.00D-01
 RMSDP=2.09D-03 MaxDP=3.93D-02              OVMax= 6.16D-02

 Cycle   2  Pass 1  IDiag  1:
 E= -76.7723379717769     Delta-E=       -0.006111565470 Rises=F Damp=T
 DIIS: error= 1.10D-02 at cycle   2 NSaved=   2.
 NSaved= 2 IEnMin= 2 EnMin= -76.7723379717769     IErMin= 2 ErrMin= 1.10D-02
 ErrMax= 1.10D-02  0.00D+00 EMaxC= 1.00D-01 BMatC= 1.18D-02 BMatP= 5.82D-02
 IDIUse=3 WtCom= 8.90D-01 WtEn= 1.10D-01
 Coeff-Com: -0.640D+00 0.164D+01
 Coeff-En:   0.000D+00 0.100D+01
 Coeff:     -0.570D+00 0.157D+01
 Gap=     0.278 Goal=   None    Shift=    0.000
 Gap=     0.190 Goal=   None    Shift=    0.000
 RMSDP=8.94D-04 MaxDP=8.90D-03 DE=-6.11D-03 OVMax= 1.70D-02

 Cycle   3  Pass 1  IDiag  1:
 E= -76.7778977957913     Delta-E=       -0.005559824014 Rises=F Damp=F
 DIIS: error= 1.70D-03 at cycle   3 NSaved=   3.
 NSaved= 3 IEnMin= 3 EnMin= -76.7778977957913     IErMin= 3 ErrMin= 1.70D-03
 ErrMax= 1.70D-03  0.00D+00 EMaxC= 1.00D-01 BMatC= 2.09D-04 BMatP= 1.18D-02
 IDIUse=3 WtCom= 9.83D-01 WtEn= 1.70D-02
 Coeff-Com: -0.138D+00 0.259D+00 0.879D+00
 Coeff-En:   0.000D+00 0.000D+00 0.100D+01
 Coeff:     -0.136D+00 0.255D+00 0.881D+00
 Gap=     0.278 Goal=   None    Shift=    0.000
 Gap=     0.191 Goal=   None    Shift=    0.000
 RMSDP=1.18D-04 MaxDP=2.83D-03 DE=-5.56D-03 OVMax= 3.60D-03

 Cycle   4  Pass 1  IDiag  1:
 E= -76.7779669526734     Delta-E=       -0.000069156882 Rises=F Damp=F
 DIIS: error= 3.57D-04 at cycle   4 NSaved=   4.
 NSaved= 4 IEnMin= 4 EnMin= -76.7779669526734     IErMin= 4 ErrMin= 3.57D-04
 ErrMax= 3.57D-04  0.00D+00 EMaxC= 1.00D-01 BMatC= 6.18D-06 BMatP= 2.09D-04
 IDIUse=3 WtCom= 9.96D-01 WtEn= 3.57D-03
 Coeff-Com:  0.614D-01-0.122D+00-0.338D+00 0.140D+01
 Coeff-En:   0.000D+00 0.000D+00 0.000D+00 0.100D+01
 Coeff:      0.612D-01-0.121D+00-0.337D+00 0.140D+01
 Gap=     0.278 Goal=   None    Shift=    0.000
 Gap=     0.191 Goal=   None    Shift=    0.000
 RMSDP=4.48D-05 MaxDP=1.06D-03 DE=-6.92D-05 OVMax= 1.65D-03

 Cycle   5  Pass 1  IDiag  1:
 E= -76.7779716333026     Delta-E=       -0.000004680629 Rises=F Damp=F
 DIIS: error= 6.28D-05 at cycle   5 NSaved=   5.
 NSaved= 5 IEnMin= 5 EnMin= -76.7779716333026     IErMin= 5 ErrMin= 6.28D-05
 ErrMax= 6.28D-05  0.00D+00 EMaxC= 1.00D-01 BMatC= 2.88D-07 BMatP= 6.18D-06
 IDIUse=1 WtCom= 1.00D+00 WtEn= 0.00D+00
 Coeff-Com: -0.477D-02 0.105D-01 0.182D-01-0.228D+00 0.120D+01
 Coeff:     -0.477D-02 0.105D-01 0.182D-01-0.228D+00 0.120D+01
 Gap=     0.278 Goal=   None    Shift=    0.000
 Gap=     0.191 Goal=   None    Shift=    0.000
 RMSDP=9.19D-06 MaxDP=1.85D-04 DE=-4.68D-06 OVMax= 2.55D-04

 Cycle   6  Pass 1  IDiag  1:
 E= -76.7779717396603     Delta-E=       -0.000000106358 Rises=F Damp=F
 DIIS: error= 5.54D-05 at cycle   6 NSaved=   6.
 NSaved= 6 IEnMin= 6 EnMin= -76.7779717396603     IErMin= 6 ErrMin= 5.54D-05
 ErrMax= 5.54D-05  0.00D+00 EMaxC= 1.00D-01 BMatC= 2.59D-07 BMatP= 2.88D-07
 IDIUse=1 WtCom= 1.00D+00 WtEn= 0.00D+00
 Coeff-Com: -0.579D-02 0.121D-01 0.273D-01-0.206D+00 0.722D+00 0.450D+00
 Coeff:     -0.579D-02 0.121D-01 0.273D-01-0.206D+00 0.722D+00 0.450D+00
 Gap=     0.278 Goal=   None    Shift=    0.000
 Gap=     0.191 Goal=   None    Shift=    0.000
 RMSDP=3.52D-06 MaxDP=5.48D-05 DE=-1.06D-07 OVMax= 1.92D-04

 Cycle   7  Pass 1  IDiag  1:
 E= -76.7779717957819     Delta-E=       -0.000000056122 Rises=F Damp=F
 DIIS: error= 2.80D-05 at cycle   7 NSaved=   7.
 NSaved= 7 IEnMin= 7 EnMin= -76.7779717957819     IErMin= 7 ErrMin= 2.80D-05
 ErrMax= 2.80D-05  0.00D+00 EMaxC= 1.00D-01 BMatC= 6.65D-08 BMatP= 2.59D-07
 IDIUse=1 WtCom= 1.00D+00 WtEn= 0.00D+00
 Coeff-Com: -0.167D-02 0.330D-02 0.987D-02-0.434D-01-0.724D-02 0.348D+00
 Coeff-Com:  0.691D+00
 Coeff:     -0.167D-02 0.330D-02 0.987D-02-0.434D-01-0.724D-02 0.348D+00
 Coeff:      0.691D+00
 Gap=     0.278 Goal=   None    Shift=    0.000
 Gap=     0.191 Goal=   None    Shift=    0.000
 RMSDP=1.36D-06 MaxDP=2.19D-05 DE=-5.61D-08 OVMax= 6.55D-05

 Cycle   8  Pass 1  IDiag  1:
 E= -76.7779718150654     Delta-E=       -0.000000019283 Rises=F Damp=F
 DIIS: error= 1.27D-06 at cycle   8 NSaved=   8.
 NSaved= 8 IEnMin= 8 EnMin= -76.7779718150654     IErMin= 8 ErrMin= 1.27D-06
 ErrMax= 1.27D-06  0.00D+00 EMaxC= 1.00D-01 BMatC= 1.25D-10 BMatP= 6.65D-08
 IDIUse=1 WtCom= 1.00D+00 WtEn= 0.00D+00
 Coeff-Com:  0.318D-03-0.644D-03-0.140D-02 0.976D-02-0.252D-01-0.370D-01
 Coeff-Com: -0.415D-01 0.110D+01
 Coeff:      0.318D-03-0.644D-03-0.140D-02 0.976D-02-0.252D-01-0.370D-01
 Coeff:     -0.415D-01 0.110D+01
 Gap=     0.278 Goal=   None    Shift=    0.000
 Gap=     0.191 Goal=   None    Shift=    0.000
 RMSDP=1.20D-07 MaxDP=1.69D-06 DE=-1.93D-08 OVMax= 4.12D-06

 Cycle   9  Pass 1  IDiag  1:
 E= -76.7779718151240     Delta-E=       -0.000000000059 Rises=F Damp=F
 DIIS: error= 1.60D-07 at cycle   9 NSaved=   9.
 NSaved= 9 IEnMin= 9 EnMin= -76.7779718151240     IErMin= 9 ErrMin= 1.60D-07
 ErrMax= 1.60D-07  0.00D+00 EMaxC= 1.00D-01 BMatC= 1.69D-12 BMatP= 1.25D-10
 IDIUse=1 WtCom= 1.00D+00 WtEn= 0.00D+00
 Coeff-Com: -0.914D-05 0.199D-04-0.126D-04-0.251D-03 0.234D-02-0.223D-02
 Coeff-Com: -0.767D-02-0.126D+00 0.113D+01
 Coeff:     -0.914D-05 0.199D-04-0.126D-04-0.251D-03 0.234D-02-0.223D-02
 Coeff:     -0.767D-02-0.126D+00 0.113D+01
 Gap=     0.278 Goal=   None    Shift=    0.000
 Gap=     0.191 Goal=   None    Shift=    0.000
 RMSDP=1.59D-08 MaxDP=2.62D-07 DE=-5.86D-11 OVMax= 5.89D-07

 Cycle  10  Pass 1  IDiag  1:
 E= -76.7779718151250     Delta-E=       -0.000000000001 Rises=F Damp=F
 DIIS: error= 1.81D-08 at cycle  10 NSaved=  10.
 NSaved=10 IEnMin=10 EnMin= -76.7779718151250     IErMin=10 ErrMin= 1.81D-08
 ErrMax= 1.81D-08  0.00D+00 EMaxC= 1.00D-01 BMatC= 2.15D-14 BMatP= 1.69D-12
 IDIUse=1 WtCom= 1.00D+00 WtEn= 0.00D+00
 Coeff-Com: -0.304D-05 0.584D-05 0.190D-04-0.884D-04 0.582D-04 0.524D-03
 Coeff-Com:  0.111D-02 0.862D-02-0.175D+00 0.116D+01
 Coeff:     -0.304D-05 0.584D-05 0.190D-04-0.884D-04 0.582D-04 0.524D-03
 Coeff:      0.111D-02 0.862D-02-0.175D+00 0.116D+01
 Gap=     0.278 Goal=   None    Shift=    0.000
 Gap=     0.191 Goal=   None    Shift=    0.000
 RMSDP=2.10D-09 MaxDP=3.09D-08 DE=-1.02D-12 OVMax= 6.73D-08

 SCF Done:  E(UM062X) =  -76.7779718151     A.U. after   10 cycles
            NFock= 10  Conv=0.21D-08     -V/T= 2.0137
 <Sx>= 0.0000 <Sy>= 0.0000 <Sz>= 0.5000 <S**2>= 0.7524 S= 0.5012
 <L.S>=  0.00000000000    
 KE= 7.573988172393D+01 PE=-2.136386356349D+02 EE= 4.093278869214D+01
 Annihilation of the first spin contaminant:
 S**2 before annihilation     0.7524,   after     0.7500
 Leave Link  502 at Tue Nov 19 13:35:53 2024, MaxMem=  2147483648 cpu:              68.8 elap:               3.6
 (Enter /home/szhao/Apps/g16/l601.exe)
 Copying SCF densities to generalized density rwf, IOpCl= 1 IROHF=0.

 **********************************************************************

            Population analysis using the SCF density.

 **********************************************************************

 Orbital symmetries:
 Alpha Orbitals:
       Occupied  (SG) (SG) (SG) (SG) (SG) (PI) (PI)
       Virtual   (PI) (PI) (SG) (SG) (SG) (SG) (PI) (PI) (PI) (PI)
                 (SG) (SG) (SG) (SG) (PI) (PI) (PI) (PI) (SG) (SG)
                 (SG) (SG) (PI) (PI) (SG) (DLTA) (DLTA) (PI) (PI)
                 (DLTA) (DLTA) (SG) (PI) (PI) (SG) (PI) (PI) (SG)
                 (SG) (PI) (PI) (SG) (PI) (PI) (SG) (SG) (SG) (SG)
                 (SG)
 Beta  Orbitals:
       Occupied  (SG) (SG) (SG) (SG) (SG) (?A)
       Virtual   (?A) (?A) (?A) (SG) (SG) (SG) (SG) (?A) (?A) (?A)
                 (?A) (SG) (SG) (SG) (SG) (PI) (PI) (PI) (PI) (SG)
                 (SG) (SG) (SG) (PI) (PI) (SG) (?B) (?B) (PI) (PI)
                 (DLTA) (DLTA) (?B) (PI) (PI) (SG) (PI) (PI) (SG)
                 (SG) (PI) (PI) (SG) (PI) (PI) (SG) (SG) (SG) (SG)
                 (SG)
 Unable to determine electronic state:  an orbital has unidentified symmetry.
 Alpha  occ. eigenvalues --  -10.99188 -10.99143  -1.12004  -0.98912  -0.85575
 Alpha  occ. eigenvalues --   -0.64967  -0.62782
 Alpha virt. eigenvalues --   -0.34978  -0.32975  -0.24582  -0.14247  -0.10815
 Alpha virt. eigenvalues --   -0.10782  -0.09273  -0.09033  -0.05268  -0.04937
 Alpha virt. eigenvalues --    0.01680   0.03990   0.08661   0.21914   0.31424
 Alpha virt. eigenvalues --    0.32819   0.35853   0.36490   0.38359   0.44244
 Alpha virt. eigenvalues --    0.50745   0.55041   0.69672   0.70946   0.76947
 Alpha virt. eigenvalues --    0.93503   0.93652   1.07866   1.08561   1.12113
 Alpha virt. eigenvalues --    1.12234   1.30046   1.43875   1.44767   1.57894
 Alpha virt. eigenvalues --    1.88300   1.89977   2.14189   2.32625   2.37504
 Alpha virt. eigenvalues --    2.40175   2.45207   2.47083   2.50004   2.84667
 Alpha virt. eigenvalues --    2.93575   3.23922  23.20546  23.54382
  Beta  occ. eigenvalues --  -10.98944 -10.98912  -1.07962  -0.97184  -0.84811
  Beta  occ. eigenvalues --   -0.60714
  Beta virt. eigenvalues --   -0.41630  -0.31265  -0.27082  -0.22462  -0.15331
  Beta virt. eigenvalues --   -0.11168  -0.11085  -0.09638  -0.09448  -0.05144
  Beta virt. eigenvalues --   -0.04805   0.00889   0.04104   0.09070   0.22740
  Beta virt. eigenvalues --    0.30963   0.32767   0.34384   0.36216   0.39248
  Beta virt. eigenvalues --    0.42615   0.51177   0.56213   0.72616   0.73305
  Beta virt. eigenvalues --    0.74253   0.96802   0.99085   1.09243   1.10261
  Beta virt. eigenvalues --    1.14856   1.17096   1.31982   1.45264   1.46194
  Beta virt. eigenvalues --    1.59556   1.90452   1.91250   2.17361   2.34350
  Beta virt. eigenvalues --    2.40869   2.41656   2.47070   2.50832   2.51846
  Beta virt. eigenvalues --    2.92185   2.96766   3.25599  23.21604  23.55716
          Condensed to atoms (all electrons):
               1          2          3          4
     1  C    4.824699   0.691467   0.332142   0.006154
     2  C    0.691467   4.824700   0.006154   0.332141
     3  H    0.332142   0.006154   0.307148   0.000096
     4  H    0.006154   0.332141   0.000096   0.307147
          Atomic-Atomic Spin Densities.
               1          2          3          4
     1  C    0.438601   0.088945  -0.006584   0.000284
     2  C    0.088945   0.438600   0.000284  -0.006584
     3  H   -0.006584   0.000284  -0.014955   0.000010
     4  H    0.000284  -0.006584   0.000010  -0.014955
 Mulliken charges and spin densities:
               1          2
     1  C    0.145538   0.521245
     2  C    0.145539   0.521245
     3  H    0.354460  -0.021245
     4  H    0.354462  -0.021245
 Sum of Mulliken charges =   1.00000   1.00000
 Mulliken charges and spin densities with hydrogens summed into heavy atoms:
               1          2
     1  C    0.499999   0.500000
     2  C    0.500001   0.500000
 Electronic spatial extent (au):  <R**2>=             68.5518
 Charge=              1.0000 electrons
 Dipole moment (field-independent basis, Debye):
    X=              0.0000    Y=              0.0000    Z=              0.0000  Tot=              0.0000
 Quadrupole moment (field-independent basis, Debye-Ang):
   XX=            -10.5011   YY=            -12.5430   ZZ=              2.3526
   XY=              0.0000   XZ=              0.0000   YZ=              0.0000
 Traceless Quadrupole moment (field-independent basis, Debye-Ang):
   XX=             -3.6039   YY=             -5.6458   ZZ=              9.2498
   XY=              0.0000   XZ=              0.0000   YZ=              0.0000
 Octapole moment (field-independent basis, Debye-Ang**2):
  XXX=              0.0000  YYY=              0.0000  ZZZ=              0.0001  XYY=              0.0000
  XXY=              0.0000  XXZ=             -0.0000  XZZ=              0.0000  YZZ=              0.0000
  YYZ=             -0.0000  XYZ=              0.0000
 Hexadecapole moment (field-independent basis, Debye-Ang**3):
 XXXX=            -10.2004 YYYY=            -14.2158 ZZZZ=            -16.8794 XXXY=              0.0000
 XXXZ=              0.0000 YYYX=              0.0000 YYYZ=              0.0000 ZZZX=              0.0000
 ZZZY=              0.0000 XXYY=             -4.0693 XXZZ=            -12.5320 YYZZ=            -14.1834
 XXYZ=              0.0000 YYXZ=              0.0000 ZZXY=              0.0000
 N-N= 2.018799340370D+01 E-N=-2.136386357306D+02  KE= 7.573988172393D+01
 Symmetry A1   KE= 7.228827425897D+01
 Symmetry A2   KE= 7.190027014457D-36
 Symmetry B1   KE= 1.167002047851D+00
 Symmetry B2   KE= 2.284605417106D+00
 Symmetry A1   SP= 6.223064656418D-15
 Symmetry A2   SP= 1.024560902955D-36
 Symmetry B1   SP= 1.000000000000D+00
 Symmetry B2   SP=-6.076509015532D-15
                          Isotropic Fermi Contact Couplings
        Atom                 a.u.       MegaHertz       Gauss      10(-4) cm-1
     1  C(13)              0.09403     105.71189      37.72063      35.26169
     2  C(13)              0.09403     105.71196      37.72066      35.26171
     3  H(1)              -0.01112     -49.68484     -17.72879     -16.57308
     4  H(1)              -0.01112     -49.68500     -17.72884     -16.57313
 --------------------------------------------------------
       Center         ----  Spin Dipole Couplings  ----
                      3XX-RR        3YY-RR        3ZZ-RR
 --------------------------------------------------------
     1   Atom        0.619833     -0.320597     -0.299236
     2   Atom        0.619833     -0.320598     -0.299236
     3   Atom       -0.008489     -0.037953      0.046442
     4   Atom       -0.008489     -0.037953      0.046442
 --------------------------------------------------------
                        XY            XZ            YZ
 --------------------------------------------------------
     1   Atom        0.000000      0.000000      0.000000
     2   Atom        0.000000      0.000000      0.000000
     3   Atom        0.000000      0.000000      0.000000
     4   Atom        0.000000      0.000000      0.000000
 --------------------------------------------------------


 ---------------------------------------------------------------------------------
              Anisotropic Spin Dipole Couplings in Principal Axis System
 ---------------------------------------------------------------------------------

       Atom             a.u.   MegaHertz   Gauss  10(-4) cm-1        Axes

              Baa    -0.3206   -43.021   -15.351   -14.350 -0.0000  1.0000  0.0000
     1 C(13)  Bbb    -0.2992   -40.155   -14.328   -13.394  0.0000  0.0000  1.0000
              Bcc     0.6198    83.176    29.679    27.744  1.0000  0.0000  0.0000
 
              Baa    -0.3206   -43.021   -15.351   -14.350 -0.0000  1.0000  0.0000
     2 C(13)  Bbb    -0.2992   -40.155   -14.328   -13.394  0.0000  0.0000  1.0000
              Bcc     0.6198    83.176    29.679    27.744  1.0000  0.0000  0.0000
 
              Baa    -0.0380   -20.250    -7.226    -6.755 -0.0000  1.0000  0.0000
     3 H(1)   Bbb    -0.0085    -4.529    -1.616    -1.511  1.0000  0.0000  0.0000
              Bcc     0.0464    24.779     8.842     8.265  0.0000  0.0000  1.0000
 
              Baa    -0.0380   -20.250    -7.226    -6.755 -0.0000  1.0000  0.0000
     4 H(1)   Bbb    -0.0085    -4.529    -1.616    -1.511  1.0000  0.0000  0.0000
              Bcc     0.0464    24.779     8.842     8.265  0.0000  0.0000  1.0000
 

 ---------------------------------------------------------------------------------

 No NMR shielding tensors so no spin-rotation constants.
 Leave Link  601 at Tue Nov 19 13:35:54 2024, MaxMem=  2147483648 cpu:               8.5 elap:               0.5
 (Enter /home/szhao/Apps/g16/l701.exe)
 ... and contract with generalized density number  0.
 Compute integral first derivatives.
 Leave Link  701 at Tue Nov 19 13:35:54 2024, MaxMem=  2147483648 cpu:              11.3 elap:               0.7
 (Enter /home/szhao/Apps/g16/l702.exe)
 L702 exits ... SP integral derivatives will be done elsewhere.
 Leave Link  702 at Tue Nov 19 13:35:55 2024, MaxMem=  2147483648 cpu:               1.6 elap:               0.1
 (Enter /home/szhao/Apps/g16/l703.exe)
 Integral derivatives from FoFJK, PRISM(SPDF).
 Compute integral first derivatives, UseDBF=F ICtDFT=           0.
 Calling FoFJK, ICntrl=      2127 FMM=F ISym2X=1 I1Cent= 0 IOpClX= 1 NMat=1 NMatS=1 NMatT=0.
 FoFJK:  IHMeth= 1 ICntrl=    2127 DoSepK=F KAlg= 0 I1Cent=           0 FoldK=F
 IRaf=         0 NMat=       1 IRICut=       1 DoRegI=T DoRafI=F ISym2E= 1 IDoP0=0 IntGTp=1.
 FoFCou: FMM=F IPFlag=           0 FMFlag=      100000 FMFlg1=         800
         NFxFlg=           0 DoJE=F BraDBF=F KetDBF=F FulRan=T
         wScrn=  0.000000 ICntrl=      2127 IOpCl=  1 I1Cent=           0 NGrid=           0
         NMat0=    1 NMatS0=      1 NMatT0=    0 NMatD0=    1 NMtDS0=    0 NMtDT0=    0
 Petite list used in FoFCou.
 Leave Link  703 at Tue Nov 19 13:35:55 2024, MaxMem=  2147483648 cpu:              13.1 elap:               0.7
 (Enter /home/szhao/Apps/g16/l716.exe)
 Dipole        = 0.00000000D+00 0.00000000D+00 5.44803049D-06
 ***** Axes restored to original set *****
 -------------------------------------------------------------------
 Center     Atomic                   Forces (Hartrees/Bohr)
 Number     Number              X              Y              Z
 -------------------------------------------------------------------
      1        6           0.261822688   -0.000000000   -0.000000000
      2        6          -0.261819356   -0.000000000   -0.000000000
      3        1           0.000208513   -0.000000000   -0.000000000
      4        1          -0.000211845   -0.000000000   -0.000000000
 -------------------------------------------------------------------
 Cartesian Forces:  Max     0.261822688 RMS     0.106888019
 Z-matrix is all fixed cartesians, so copy forces.
 Force constants in Cartesian coordinates: 
                1             2             3             4             5 
      1  0.580485D+00
      2  0.000000D+00  0.123507D+00
      3  0.000000D+00  0.000000D+00  0.123507D+00
      4 -0.235898D+00  0.000000D+00  0.000000D+00  0.580479D+00
      5  0.000000D+00 -0.860083D-01  0.000000D+00  0.000000D+00  0.123506D+00
      6  0.000000D+00  0.000000D+00 -0.860083D-01  0.000000D+00  0.000000D+00
      7 -0.344587D+00  0.000000D+00  0.000000D+00  0.000000D+00  0.000000D+00
      8  0.000000D+00 -0.630679D-01  0.000000D+00  0.000000D+00  0.255692D-01
      9  0.000000D+00  0.000000D+00 -0.630679D-01  0.000000D+00  0.000000D+00
     10  0.000000D+00  0.000000D+00  0.000000D+00 -0.344581D+00  0.000000D+00
     11  0.000000D+00  0.255691D-01  0.000000D+00  0.000000D+00 -0.630674D-01
     12  0.000000D+00  0.000000D+00  0.255691D-01  0.000000D+00  0.000000D+00
                6             7             8             9            10 
      6  0.123506D+00
      7  0.000000D+00  0.344587D+00
      8  0.000000D+00  0.000000D+00  0.374986D-01
      9  0.255692D-01  0.000000D+00  0.000000D+00  0.374986D-01
     10  0.000000D+00  0.000000D+00  0.000000D+00  0.000000D+00  0.344581D+00
     11  0.000000D+00  0.000000D+00  0.000000D+00  0.000000D+00  0.000000D+00
     12 -0.630674D-01  0.000000D+00  0.000000D+00  0.000000D+00  0.000000D+00
               11            12 
     11  0.374983D-01
     12  0.000000D+00  0.374983D-01
 Leave Link  716 at Tue Nov 19 13:35:56 2024, MaxMem=  2147483648 cpu:               1.9 elap:               0.1
 (Enter /home/szhao/Apps/g16/l103.exe)

 GradGradGradGradGradGradGradGradGradGradGradGradGradGradGradGradGradGrad
 Berny optimization.
 Search for a local minimum.
 Step number   1 out of a maximum of    2
 All quantities printed in internal units (Hartrees-Bohrs-Radians)
 Second derivative matrix not updated -- first step.
 The second derivative matrix:
                          X1        Y1        Z1        X2        Y2
           X1           0.58048
           Y1           0.00000   0.12351
           Z1           0.00000   0.00000   0.12351
           X2          -0.23590   0.00000   0.00000   0.58048
           Y2           0.00000  -0.08601   0.00000   0.00000   0.12351
           Z2           0.00000   0.00000  -0.08601   0.00000   0.00000
           X3          -0.34459   0.00000   0.00000   0.00000   0.00000
           Y3           0.00000  -0.06307   0.00000   0.00000   0.02557
           Z3           0.00000   0.00000  -0.06307   0.00000   0.00000
           X4           0.00000   0.00000   0.00000  -0.34458   0.00000
           Y4           0.00000   0.02557   0.00000   0.00000  -0.06307
           Z4           0.00000   0.00000   0.02557   0.00000   0.00000
                          Z2        X3        Y3        Z3        X4
           Z2           0.12351
           X3           0.00000   0.34459
           Y3           0.00000   0.00000   0.03750
           Z3           0.02557   0.00000   0.00000   0.03750
           X4           0.00000   0.00000   0.00000   0.00000   0.34458
           Y4           0.00000   0.00000   0.00000   0.00000   0.00000
           Z4          -0.06307   0.00000   0.00000   0.00000   0.00000
                          Y4        Z4
           Y4           0.03750
           Z4           0.00000   0.03750
 ITU=  0
     Eigenvalues ---    0.06374   0.06374   0.16289   0.20902   0.20902
     Eigenvalues ---    0.58574   0.99808
 Quadratic step=1.111D+00 exceeds max=3.000D-01 adjusted using Lamda=-6.185D-01.
 Angle between NR and scaled steps=  25.29 degrees.
 Angle between quadratic step and forces=  19.70 degrees.
 ClnCor:  largest displacement from symmetrization is 6.73D-17 for atom     4.
 Linear search not attempted -- first point.
 ClnCor:  largest displacement from symmetrization is 0.00D+00 for atom     0.
 B after Tr=     0.000000    0.000000    0.000000
         Rot=    1.000000    0.000000    0.000000    0.000000 Ang=   0.00 deg.
 Variable       Old X    -DE/DX   Delta X   Delta X   Delta X     New X
                                 (Linear)    (Quad)   (Total)
    X1       -1.51468   0.26182   0.00000   0.19968   0.19968  -1.31499
    Y1        0.00000  -0.00000   0.00000   0.00000   0.00000   0.00000
    Z1        0.00000  -0.00000   0.00000   0.00000   0.00000   0.00000
    X2        1.51468  -0.26182   0.00000  -0.19968  -0.19968   1.31499
    Y2        0.00000  -0.00000   0.00000   0.00000   0.00000   0.00000
    Z2        0.00000  -0.00000   0.00000   0.00000   0.00000   0.00000
    X3       -3.58031   0.00021   0.00000   0.07166   0.07166  -3.50864
    Y3        0.00000  -0.00000   0.00000   0.00000   0.00000   0.00000
    Z3        0.00000  -0.00000   0.00000   0.00000   0.00000   0.00000
    X4        3.58031  -0.00021   0.00000  -0.07167  -0.07167   3.50865
    Y4        0.00000  -0.00000   0.00000   0.00000   0.00000   0.00000
    Z4        0.00000  -0.00000   0.00000   0.00000   0.00000   0.00000
         Item               Value     Threshold  Converged?
 Maximum Force            0.261823     0.000450     NO 
 RMS     Force            0.106888     0.000300     NO 
 Maximum Displacement     0.199684     0.001800     NO 
 RMS     Displacement     0.086612     0.001200     NO 
 Predicted change in Energy=-8.013342D-02
 GradGradGradGradGradGradGradGradGradGradGradGradGradGradGradGradGradGrad

 Leave Link  103 at Tue Nov 19 13:35:56 2024, MaxMem=  2147483648 cpu:               0.9 elap:               0.1
 (Enter /home/szhao/Apps/g16/l9999.exe)
 1\1\GINC-NODE02\Force\UM062X\6-311+G(d,p)\C2H2(1+,2)\SZHAO\19-Nov-2024
 \0\\#p UM062X/6-311+G** force int=superfine\\Title Card Required\\1,2\
 C,-0.801532,0.,0.\C,0.801532,0.,0.\H,-1.894616,0.,0.\H,1.894621,0.,0.\
 \Version=ES64L-G16RevA.03\HF=-76.7779718\S2=0.752364\S2-1=0.\S2A=0.750
 004\RMSD=2.100e-09\RMSF=1.069e-01\Dipole=0.0000054,0.,0.\Quadrupole=6.
 876972,-4.1975488,-2.6794233,0.,0.,0.\PG=C*V [C*(H1C1C1H1)]\\@


 MARY HAD A LITTLE LAMB
      HIS FEET WERE BLACK AS SOOT,
           AND EVERYWHERE THAT MARY WENT
                HIS SOOTY FOOT HE PUT.

                    -- NONAME
 Job cpu time:       0 days  0 hours  2 minutes 45.4 seconds.
 Elapsed time:       0 days  0 hours  0 minutes  9.2 seconds.
 File lengths (MBytes):  RWF=     17 Int=      0 D2E=      0 Chk=      2 Scr=      2
 Normal termination of Gaussian 16 at Tue Nov 19 13:35:56 2024.
