Title Card Required                                                     
FOpt      UM062X                                                      6-311+G(d,p)        
Number of atoms                            I                4
Info1-9                                    I   N=           9
          13          13           0           0           0         110
           2          18        -502
Full Title                                 C   N=           2
Title Card Required     
Route                                      C   N=           5
#p opt UM062X/6-311+G** nosymm int=superfine SCF=NoVarAcc   
Charge                                     I                0
Multiplicity                               I                1
Number of electrons                        I               14
Number of alpha electrons                  I                7
Number of beta electrons                   I                7
Number of basis functions                  I               56
Number of independent functions            I               56
Number of point charges in /Mol/           I                0
Number of translation vectors              I                0
Atomic numbers                             I   N=           4
           6           6           1           1
Nuclear charges                            R   N=           4
  6.00000000E+00  6.00000000E+00  1.00000000E+00  1.00000000E+00
Current cartesian coordinates              R   N=          12
 -1.59353518E+01  0.00000000E+00  0.00000000E+00  1.59353518E+01  0.00000000E+00
  0.00000000E+00 -1.80502374E+01 -1.10720487E-05  1.10732478E-05  1.80502373E+01
  7.43075042E-06 -7.42961645E-06
Number of symbols in /Mol/                 I                0
Force Field                                I                0
Atom Types                                 C   N=           4
                                                
Int Atom Types                             I   N=           4
           0           0           0           0
MM charges                                 R   N=           4
  0.00000000E+00  0.00000000E+00  0.00000000E+00  0.00000000E+00
Integer atomic weights                     I   N=           4
          12          12           1           1
Real atomic weights                        R   N=           4
  1.20000000E+01  1.20000000E+01  1.00782504E+00  1.00782504E+00
Atom fragment info                         I   N=           4
           0           0           0           0
Atom residue num                           I   N=           4
           0           0           0           0
Nuclear spins                              I   N=           4
           0           0           1           1
Nuclear ZEff                               R   N=           4
 -3.60000000E+00 -3.60000000E+00 -1.00000000E+00 -1.00000000E+00
Nuclear ZNuc                               R   N=           4
  6.00000000E+00  6.00000000E+00  1.00000000E+00  1.00000000E+00
Nuclear QMom                               R   N=           4
  0.00000000E+00  0.00000000E+00  0.00000000E+00  0.00000000E+00
Nuclear GFac                               R   N=           4
  0.00000000E+00  0.00000000E+00  2.79284600E+00  2.79284600E+00
MicOpt                                     I   N=           4
          -2          -2          -1          -1
Number of residues                         I                0
Number of secondary structures             I                0
Redundant internal dimensions              I   N=           4
          12           8           4           0
Redundant internal coordinate indices      I   N=          48
           1          -1           0           0           1          -2
           0           0           1          -3           0           0
           2          -1           0           0           2          -2
           0           0           2          -3           0           0
           1           3           0           0           2           4
           0           0           2           1           3          -4
           1           2           4          -4           2           1
           3          -8           1           2           4          -8
Redundant internal coordinates             R   N=          12
 -1.59353518E+01  0.00000000E+00  0.00000000E+00  1.59353518E+01  0.00000000E+00
  0.00000000E+00  2.11488568E+00  2.11488553E+00  3.14158742E+00  3.14158914E+00
  3.14158742E+00  3.14158914E+00
ZRed-IntVec                                I   N=          12
          -1          -1          -1          -1          -1          -1
           0           0           0           0           0           0
ZRed-FPVec                                 R   N=          12
  0.00000000E+00  0.00000000E+00  0.00000000E+00  0.00000000E+00  0.00000000E+00
  0.00000000E+00  0.00000000E+00  0.00000000E+00  0.00000000E+00  0.00000000E+00
  0.00000000E+00  0.00000000E+00
ZRed-Constraint1                           R   N=          12
 -1.59353518E+01  0.00000000E+00  0.00000000E+00  1.59353518E+01  0.00000000E+00
  0.00000000E+00  2.12190166E+00  2.12189977E+00  3.14158731E+00  3.14158909E+00
  3.14158731E+00  3.14158909E+00
ZRed-Constraint2                           R   N=          12
 -1.59353518E+01  0.00000000E+00  0.00000000E+00  1.59353518E+01  0.00000000E+00
  0.00000000E+00  0.00000000E+00  0.00000000E+00  0.00000000E+00  0.00000000E+00
  0.00000000E+00  0.00000000E+00
Number of contracted shells                I               20
Number of primitive shells                 I               38
Pure/Cartesian d shells                    I                0
Pure/Cartesian f shells                    I                0
Highest angular momentum                   I                2
Largest degree of contraction              I                6
Shell types                                I   N=          20
           0          -1          -1          -1          -1          -2
           0          -1          -1          -1          -1          -2
           0           0           0           1           0           0
           0           1
Number of primitives per shell             I   N=          20
           6           3           1           1           1           1
           6           3           1           1           1           1
           3           1           1           1           3           1
           1           1
Shell to atom map                          I   N=          20
           1           1           1           1           1           1
           2           2           2           2           2           2
           3           3           3           3           4           4
           4           4
Primitive exponents                        R   N=          38
  4.56324000E+03  6.82024000E+02  1.54973000E+02  4.44553000E+01  1.30290000E+01
  1.82773000E+00  2.09642000E+01  4.80331000E+00  1.45933000E+00  4.83456000E-01
  1.45585000E-01  4.38000000E-02  6.26000000E-01  4.56324000E+03  6.82024000E+02
  1.54973000E+02  4.44553000E+01  1.30290000E+01  1.82773000E+00  2.09642000E+01
  4.80331000E+00  1.45933000E+00  4.83456000E-01  1.45585000E-01  4.38000000E-02
  6.26000000E-01  3.38650000E+01  5.09479000E+00  1.15879000E+00  3.25840000E-01
  1.02741000E-01  7.50000000E-01  3.38650000E+01  5.09479000E+00  1.15879000E+00
  3.25840000E-01  1.02741000E-01  7.50000000E-01
Contraction coefficients                   R   N=          38
  1.96665025E-03  1.52306019E-02  7.61269097E-02  2.60801033E-01  6.16462078E-01
  2.21006028E-01  1.14660081E-01  9.19999648E-01 -3.03068213E-03  1.00000000E+00
  1.00000000E+00  1.00000000E+00  1.00000000E+00  1.96665025E-03  1.52306019E-02
  7.61269097E-02  2.60801033E-01  6.16462078E-01  2.21006028E-01  1.14660081E-01
  9.19999648E-01 -3.03068213E-03  1.00000000E+00  1.00000000E+00  1.00000000E+00
  1.00000000E+00  2.54938145E-02  1.90373109E-01  8.52161486E-01  1.00000000E+00
  1.00000000E+00  1.00000000E+00  2.54938145E-02  1.90373109E-01  8.52161486E-01
  1.00000000E+00  1.00000000E+00  1.00000000E+00
P(S=P) Contraction coefficients            R   N=          38
  0.00000000E+00  0.00000000E+00  0.00000000E+00  0.00000000E+00  0.00000000E+00
  0.00000000E+00  4.02486927E-02  2.37593957E-01  8.15853851E-01  1.00000000E+00
  1.00000000E+00  1.00000000E+00  0.00000000E+00  0.00000000E+00  0.00000000E+00
  0.00000000E+00  0.00000000E+00  0.00000000E+00  0.00000000E+00  4.02486927E-02
  2.37593957E-01  8.15853851E-01  1.00000000E+00  1.00000000E+00  1.00000000E+00
  0.00000000E+00  0.00000000E+00  0.00000000E+00  0.00000000E+00  0.00000000E+00
  0.00000000E+00  0.00000000E+00  0.00000000E+00  0.00000000E+00  0.00000000E+00
  0.00000000E+00  0.00000000E+00  0.00000000E+00
Coordinates of each shell                  R   N=          60
 -1.59353518E+01  0.00000000E+00  0.00000000E+00 -1.59353518E+01  0.00000000E+00
  0.00000000E+00 -1.59353518E+01  0.00000000E+00  0.00000000E+00 -1.59353518E+01
  0.00000000E+00  0.00000000E+00 -1.59353518E+01  0.00000000E+00  0.00000000E+00
 -1.59353518E+01  0.00000000E+00  0.00000000E+00  1.59353518E+01  0.00000000E+00
  0.00000000E+00  1.59353518E+01  0.00000000E+00  0.00000000E+00  1.59353518E+01
  0.00000000E+00  0.00000000E+00  1.59353518E+01  0.00000000E+00  0.00000000E+00
  1.59353518E+01  0.00000000E+00  0.00000000E+00  1.59353518E+01  0.00000000E+00
  0.00000000E+00 -1.80502374E+01 -1.10720487E-05  1.10732478E-05 -1.80502374E+01
 -1.10720487E-05  1.10732478E-05 -1.80502374E+01 -1.10720487E-05  1.10732478E-05
 -1.80502374E+01 -1.10720487E-05  1.10732478E-05  1.80502373E+01  7.43075042E-06
 -7.42961645E-06  1.80502373E+01  7.43075042E-06 -7.42961645E-06  1.80502373E+01
  7.43075042E-06 -7.42961645E-06  1.80502373E+01  7.43075042E-06 -7.42961645E-06
Num ILSW                                   I              100
ILSW                                       I   N=         100
           1           0           0           1           2           0
           0           0           0           0        4336          -1
           7           0           0           0           2           0
           0           0           0           0           1           0
           1           1           0           0           0           0
           0           0      100000           0          -1           0
           0           0           0           0           0           0
           0           0           0           1           0           0
           0 -2000000000           1           0           0           0
           0           0           4          52           0           0
           0           0          55           0           0           0
           0           0           0           4           0           1
           0           0           0           0           0           0
           0           0           0           0           0           0
           0           0           0           0           0           0
           0           0           0           0           0           0
           0           0           0           0
Num RLSW                                   I               52
RLSW                                       R   N=          52
  1.00000000E+00  1.00000000E+00  1.00000000E+00  1.00000000E+00  5.40000000E-01
  0.00000000E+00  0.00000000E+00  1.00000000E+00  0.00000000E+00  0.00000000E+00
  0.00000000E+00  0.00000000E+00  1.00000000E+00  0.00000000E+00  0.00000000E+00
  0.00000000E+00  0.00000000E+00  1.00000000E+00  0.00000000E+00  0.00000000E+00
  0.00000000E+00  0.00000000E+00  1.00000000E+00  0.00000000E+00  0.00000000E+00
  0.00000000E+00  0.00000000E+00  1.00000000E+00  0.00000000E+00  0.00000000E+00
  0.00000000E+00  0.00000000E+00  1.00000000E+00  0.00000000E+00  0.00000000E+00
  0.00000000E+00  0.00000000E+00  0.00000000E+00  1.00000000E+00  1.00000000E+00
  0.00000000E+00  1.00000000E+00  0.00000000E+00  0.00000000E+00  0.00000000E+00
  0.00000000E+00  0.00000000E+00  0.00000000E+00  0.00000000E+00  0.00000000E+00
  0.00000000E+00  0.00000000E+00
MxBond                                     I                2
NBond                                      I   N=           4
           2           2           1           1
IBond                                      I   N=           8
           2           3           1           4           1           0
           2           0
RBond                                      R   N=           8
  1.00000000E-01  1.00000000E+00  1.00000000E-01  1.00000000E+00  1.00000000E+00
  0.00000000E+00  1.00000000E+00  0.00000000E+00
Virial Ratio                               R      2.002787872997824E+00
SCF Energy                                 R     -7.693907968678708E+01
Total Energy                               R     -7.693907968678708E+01
S**2                                       R      1.004715928312788E+00
S**2 after annihilation                    R      3.775505322765096E-02
RMS Force                                  R      5.643995730147536E-05
RMS Density                                R      2.934801007328638E-09
Job Status                                 I                1
Nuclear derivative order                   I                1
External E-field                           R   N=          35
  0.00000000E+00  0.00000000E+00  0.00000000E+00  0.00000000E+00  0.00000000E+00
  0.00000000E+00  0.00000000E+00  0.00000000E+00  0.00000000E+00  0.00000000E+00
  0.00000000E+00  0.00000000E+00  0.00000000E+00  0.00000000E+00  0.00000000E+00
  0.00000000E+00  0.00000000E+00  0.00000000E+00  0.00000000E+00  0.00000000E+00
  0.00000000E+00  0.00000000E+00  0.00000000E+00  0.00000000E+00  0.00000000E+00
  0.00000000E+00  0.00000000E+00  0.00000000E+00  0.00000000E+00  0.00000000E+00
  0.00000000E+00  0.00000000E+00  0.00000000E+00  0.00000000E+00  0.00000000E+00
IOpCl                                      I                1
IROHF                                      I                0
Alpha Orbital Energies                     R   N=          56
 -1.06396892E+01 -1.06299671E+01 -7.33007781E-01 -6.87434810E-01 -3.87249098E-01
 -3.58836512E-01 -3.11765179E-01 -9.35509645E-02 -7.30127712E-02 -4.69377509E-02
  2.85870316E-02  3.81669023E-02  8.27077801E-02  8.35923465E-02  8.52480513E-02
  8.55980435E-02  9.13873522E-02  1.07572589E-01  1.76768364E-01  1.91278209E-01
  4.53813239E-01  4.62213911E-01  5.64070220E-01  5.82197611E-01  5.83527133E-01
  5.90270522E-01  6.16499352E-01  6.49619364E-01  6.83273277E-01  7.12435706E-01
  1.12764540E+00  1.13208578E+00  1.19611040E+00  1.21368094E+00  1.32795618E+00
  1.33911788E+00  1.37873696E+00  1.37939929E+00  1.58825699E+00  1.59629317E+00
  1.85301625E+00  1.85898135E+00  1.86968121E+00  1.88576669E+00  2.39344634E+00
  2.49083982E+00  2.49418061E+00  2.56377279E+00  2.69842850E+00  2.71461900E+00
  2.73195540E+00  2.77877514E+00  3.18406489E+00  3.23797198E+00  2.35419956E+01
  2.35543871E+01
Beta Orbital Energies                      R   N=          56
 -1.06396892E+01 -1.06299671E+01 -7.33007763E-01 -6.87434830E-01 -3.87249096E-01
 -3.58836513E-01 -3.11765180E-01 -9.35509652E-02 -7.30127690E-02 -4.69377488E-02
  2.85870307E-02  3.81669039E-02  8.27077811E-02  8.35923462E-02  8.52480502E-02
  8.55980432E-02  9.13873532E-02  1.07572591E-01  1.76768345E-01  1.91278228E-01
  4.53813231E-01  4.62213915E-01  5.64070218E-01  5.82197609E-01  5.83527136E-01
  5.90270525E-01  6.16499326E-01  6.49619384E-01  6.83273264E-01  7.12435739E-01
  1.12764539E+00  1.13208577E+00  1.19611042E+00  1.21368097E+00  1.32795618E+00
  1.33911788E+00  1.37873696E+00  1.37939929E+00  1.58825696E+00  1.59629320E+00
  1.85301619E+00  1.85898129E+00  1.86968127E+00  1.88576674E+00  2.39344627E+00
  2.49083983E+00  2.49418057E+00  2.56377295E+00  2.69842849E+00  2.71461899E+00
  2.73195541E+00  2.77877514E+00  3.18406485E+00  3.23797206E+00  2.35419955E+01
  2.35543872E+01
Alpha MO coefficients                      R   N=        3136
 -2.93449442E-12 -1.70114094E-12  7.22070671E-13 -3.57990443E-16 -4.06774080E-16
 -4.59191073E-12 -1.30914241E-12  6.78092896E-16  5.13025327E-16  1.11091586E-11
  7.42323154E-12 -8.46171232E-16 -9.91869750E-16  1.01346035E-11 -2.13645109E-11
  4.80547998E-16  2.69357801E-16  7.09754608E-13  1.53546246E-15 -5.31184601E-16
 -1.22938889E-12 -1.82489131E-16  5.63919942E-01  4.64495488E-01  1.86534814E-03
  6.55921555E-09 -6.55813998E-09  1.01672770E-02  1.44177060E-03  5.06536345E-09
 -5.06467843E-09 -4.00435554E-03  1.02066545E-04  3.58873325E-10 -3.58776744E-10
  4.30482730E-04 -6.84669710E-04 -2.40569154E-09  2.40531037E-09 -5.33189148E-04
 -6.78053443E-09  8.20256739E-05  9.24413722E-04  6.78463823E-09 -3.07582852E-12
  1.53839418E-11 -3.16044064E-11  4.74699401E-13 -1.78424526E-16  1.60512777E-15
  3.15427160E-04 -2.96204946E-03  2.33266781E-03  2.06684651E-03  7.26156996E-09
 -7.26045348E-09  5.63932389E-01  4.64948745E-01 -1.26822262E-03 -6.66079465E-09
  6.66150498E-09  8.82771622E-03 -1.26867899E-03 -6.62359131E-09  6.62429295E-09
 -4.12084345E-03  1.02574465E-04  5.29865330E-10 -5.29914711E-10  3.69544369E-04
  6.43730960E-04  3.37268968E-09 -3.37305690E-09 -4.69506206E-04 -7.63801764E-09
 -1.65483251E-04  8.11387808E-04  7.62747944E-09  2.83782140E-12  3.01146484E-12
 -6.61852772E-13 -1.58887333E-18 -2.26876726E-17 -4.19752378E-12  1.23522900E-12
  4.46725630E-18  1.62644603E-17  1.03336916E-11 -6.91365161E-12 -2.41125075E-17
  2.25075679E-17  9.48652386E-12  1.99377536E-11  5.33486570E-17 -5.54633935E-17
  6.54908414E-13  1.72829982E-17  2.32545614E-16 -1.13433116E-12 -1.62789902E-17
  6.69396030E-04 -2.48226901E-03  2.34473151E-03 -1.48807215E-03 -7.79386460E-09
  7.79471073E-09 -2.87337826E-12  1.43285966E-11 -2.94920220E-11 -4.25825931E-13
  3.62537657E-18 -6.34323823E-18  1.44345845E-14  6.64041711E-14  5.75987425E-14
 -7.19261494E-17 -5.85725661E-16 -6.59240929E-13 -3.16130682E-13  6.02249319E-16
  3.14535020E-17  2.15025054E-12  1.38055850E-12  6.16296411E-16 -9.93308772E-16
  1.14157227E-12 -4.24964857E-12  7.49055563E-17  4.02719040E-17  6.71838319E-14
 -4.67454401E-16  2.91488638E-16 -1.16049932E-13  1.04856134E-16 -1.10047275E-01
 -1.79605645E-01  7.30820083E-02  2.56935094E-07 -2.56897001E-07  5.10611482E-01
  1.12311042E-01  3.94857399E-07 -3.94798714E-07  3.63914440E-01  4.83212597E-02
  1.69701794E-07 -1.69676634E-07  1.74201036E-04  1.68642931E-03  5.89052838E-09
 -5.88953657E-09 -6.16478530E-03 -8.02811476E-08  1.48028906E-03  1.06940188E-02
  8.03490322E-08 -2.34688433E-13  1.82927484E-12 -4.87464636E-12  2.58256872E-15
 -7.90250335E-17  3.14098919E-16  1.38710057E-01  1.68074133E-01  1.54368339E-02
 -1.95498679E-02 -6.87130687E-08  6.87025769E-08 -1.03696949E-01 -1.65654987E-01
 -8.02778553E-02 -4.19887340E-07  4.19932955E-07  4.60706039E-01 -1.16684534E-01
 -6.10239655E-07  6.10306146E-07  3.30327621E-01 -4.93922747E-02 -2.58257741E-07
  2.58286243E-07  3.47683649E-03 -7.35953034E-04 -3.80697330E-09  3.80733673E-09
 -9.65665964E-03 -1.13149940E-07 -1.17056430E-02  1.65970256E-02  1.12450164E-07
 -1.67800403E-15 -2.40407549E-14  3.73619777E-14  3.91451937E-16 -3.68688643E-17
  2.95427998E-13 -4.38775684E-14 -4.87721558E-16 -3.82385419E-18 -1.23445613E-12
  5.78730204E-13  3.29372865E-16  4.04398000E-17 -1.20746701E-12 -2.72076514E-12
 -1.56579033E-16 -7.11756590E-17 -4.40738484E-14 -6.24129832E-17  4.17515139E-16
  7.62827797E-14  4.38158461E-19  1.57293153E-01  2.09268232E-01  3.64779208E-02
  2.66181726E-02  1.39310839E-07 -1.39325975E-07  1.51623183E-13 -1.10832717E-12
  3.46899598E-12  2.04461102E-14  1.30401834E-17  7.14580043E-17 -7.29110661E-12
 -1.57364965E-11  1.72238961E-11 -1.12287024E-16 -2.86772444E-16  9.03495924E-11
  5.26429209E-11 -2.56178127E-16  3.28941270E-16 -2.02220347E-10 -1.09719025E-10
 -5.29665905E-16 -1.96305268E-15 -2.11028813E-10  5.78354252E-10  3.56995170E-16
 -4.52002546E-16 -6.31774820E-12  1.71121881E-16 -9.16322214E-13  1.09325372E-11
  1.33799269E-16 -5.78142026E-02 -9.61864922E-02 -2.18312990E-01 -7.66764706E-07
  7.66644245E-07  2.82834563E-01 -3.20889595E-01 -1.12699991E-06  1.12682290E-06
  4.12029474E-01 -2.03628607E-01 -7.15256591E-07  7.15142969E-07  5.94266226E-02
 -1.23902894E-02 -4.36927971E-08  4.36858754E-08  1.87467173E-02  2.27394086E-07
  2.15060752E-04 -3.24678984E-02 -2.27420669E-07  1.21584068E-11 -2.39871972E-10
  6.57056294E-10 -3.56292963E-12  1.38999154E-16  2.97035880E-17 -1.36554993E-01
 -2.52745730E-01 -1.65352663E-01  9.58631077E-03  3.37328450E-08 -3.37279245E-08
 -6.36357429E-02 -1.03509154E-01  2.09063667E-01  1.09554173E-06 -1.09565846E-06
  2.95102798E-01  2.97991955E-01  1.56156328E-06 -1.56172965E-06  4.49117282E-01
  2.10298421E-01  1.10249449E-06 -1.10261087E-06  7.97414917E-02  2.25868235E-02
  1.18628553E-07 -1.18641339E-07  1.59410288E-02  3.37556783E-07 -9.13000170E-03
 -2.77111316E-02 -3.38056498E-07  9.41108777E-12  8.79485997E-12  4.88361891E-11
 -3.99465056E-16 -4.38938795E-16  5.32322349E-11  2.39363109E-11  1.15689316E-15
 -6.56679451E-17 -5.18058124E-10  2.71225998E-10 -8.62083707E-16  3.38253436E-16
 -4.41901265E-10 -1.05969477E-09 -1.10983283E-15  1.29905667E-15 -1.82540328E-11
 -2.01033609E-16  1.05708749E-13  3.16180808E-11  2.28175520E-16 -1.24008273E-01
 -2.40252150E-01 -1.77247925E-01 -8.31192662E-03 -4.35052753E-08  4.35100126E-08
  7.12544966E-11 -3.47142544E-10  1.28146899E-09  4.48702115E-12  1.64896182E-17
 -7.82195766E-17  2.40544235E-18  6.94615278E-18  7.48132256E-18 -5.15397617E-13
 -5.18300985E-13 -4.17010971E-17 -5.81086502E-17  3.67534471E-12  3.69557090E-12
  1.00835037E-16  5.95286743E-17 -1.23556419E-11 -1.24239084E-11 -1.16519415E-16
 -1.19777977E-16  2.19857886E-11  2.21073500E-11 -5.94411354E-17  8.29666772E-14
 -1.38332748E-17 -2.03026812E-17  8.25717900E-14 -6.29537305E-13 -8.08334276E-13
  3.90952531E-09  2.07607207E-01  2.08752408E-01  9.47029983E-13  5.89585286E-09
  3.13093972E-01  3.14821050E-01  5.82364308E-12  5.72573902E-09  3.03973682E-01
  3.05650424E-01  5.08653790E-12  7.20139588E-10  3.82424337E-02  3.84533751E-02
 -1.13779034E-07  1.86878674E-02  3.69809848E-10 -6.49898369E-08  1.85853435E-02
  1.54682836E-18 -2.06441925E-17  1.72846703E-17 -2.22739808E-17  3.11953985E-13
  3.13627001E-13 -8.50575806E-13 -1.68532545E-12 -2.46848730E-12  3.05109183E-10
  1.61897630E-02  1.62790662E-02  4.18820475E-16  3.01415861E-16 -3.43766639E-15
  5.67418944E-11 -5.64305424E-11  4.07653561E-15 -1.98742506E-15  1.18589398E-10
 -1.17938834E-10 -3.64970291E-14 -1.96312289E-14  1.53616300E-11 -1.52769860E-11
 -3.92972179E-14  9.69885418E-14  3.11867453E-10 -3.10156236E-10 -1.13533471E-15
  2.37077427E-12  1.03184174E-16  1.99201530E-15 -2.38387190E-12 -6.81132122E-11
 -1.49041905E-10 -1.22606865E-06  1.74993586E-01 -1.74033607E-01  7.42614175E-10
 -1.96735069E-06  2.80820934E-01 -2.79280399E-01  6.91716526E-10 -2.10442074E-06
  3.00227501E-01 -2.98580488E-01 -5.56582345E-09 -1.02899509E-06  1.46815586E-01
 -1.46010146E-01  9.57132842E-08 -1.57261955E-02 -1.10922226E-07 -1.66407524E-07
  1.58129389E-02  4.12393793E-15 -2.26451567E-14  1.00100036E-13 -1.14365508E-16
  7.19275671E-12 -7.15329220E-12  1.02872693E-10 -4.48296821E-11  2.41389927E-09
 -1.22898029E-07  1.75357668E-02 -1.74395664E-02  4.81602587E-10  6.75171004E-10
 -1.63712077E-06  1.56687914E-01 -1.55828251E-01 -1.28720684E-09 -2.47618313E-06
  2.37004061E-01 -2.35703746E-01 -4.92488661E-09 -3.24924563E-06  3.10968618E-01
 -3.09262494E-01  4.74880069E-09 -2.20092853E-06  2.10650587E-01 -2.09494861E-01
 -6.98130163E-08  7.71038782E-03  8.08477757E-08  1.21354745E-07 -7.75292372E-03
 -6.11271860E-16 -1.48452378E-16 -5.96137925E-15 -1.24516006E-10  1.23832933E-10
 -1.02080820E-14 -2.63592997E-15 -1.42088671E-10  1.41309148E-10  7.97277602E-14
 -4.45802608E-14 -3.81834076E-10  3.79739353E-10  1.12055153E-13  2.52355771E-13
  2.93051462E-10 -2.91443769E-10  2.71728478E-15  1.13984685E-11  9.80925605E-17
 -5.47386095E-15 -1.14612063E-11  1.46859985E-10  7.76066412E-10 -1.89236768E-09
 -1.21529022E-07  1.16345682E-02 -1.15707355E-02 -1.03219104E-14  5.97579649E-14
 -2.53849987E-13 -8.04745785E-16 -6.89082423E-12  6.85311189E-12 -1.15319576E-12
 -1.60304693E-12  4.11808897E-09  1.39754808E-01  1.40525799E-01  2.18548440E-12
  5.75562799E-09  1.95367360E-01  1.96445153E-01  1.70006475E-11  8.59832648E-09
  2.91720623E-01  2.93329965E-01 -2.51949636E-11  8.49581016E-09  2.88376992E-01
  2.89967897E-01  5.38157126E-08 -5.97123087E-03 -1.67566961E-10  3.07215223E-08
 -5.93846962E-03 -1.96955413E-16 -3.57421478E-16 -2.62920193E-16 -4.81990850E-11
 -4.84647884E-11  1.64719178E-15 -9.42852859E-16  1.46538618E-11  1.47344272E-11
 -4.03704194E-16 -2.41053597E-16 -3.32776658E-10 -3.34612107E-10 -7.44667839E-16
 -1.70648393E-15  6.17809287E-10  6.21217343E-10 -9.98239893E-17 -4.49330800E-12
 -1.33021521E-16  8.63510444E-18 -4.46851330E-12  1.79111674E-14 -1.86620018E-12
  9.80013813E-12  3.59281807E-10  1.22025248E-02  1.22698430E-02 -9.99027798E-17
 -1.27875650E-15  1.74838725E-15  2.56774911E-16  4.80028852E-12  4.82700746E-12
  3.27847597E-02  5.22240658E-02  3.26315130E-02  1.68761342E-07 -1.68779880E-07
 -1.24022557E-01  8.45281864E-02  4.40360563E-07 -4.40407213E-07 -6.20984095E-01
  2.01298589E-03  2.57148834E-09 -2.57737402E-09  1.59475418E+00 -6.16480899E-01
 -3.21478678E-06  3.21515963E-06  4.29498947E-03  7.35579121E-08  7.93053190E-04
 -7.43041387E-03 -7.35032416E-08  3.26691728E-09  5.63567926E-09 -1.07660948E-08
 -1.48593100E-15  2.14645062E-15 -1.64275331E-08 -1.85394878E-08 -4.05498869E-14
  3.98999324E-14 -4.56455967E-08 -3.79275874E-08  3.71564606E-14 -3.65964338E-14
  2.39911171E-07  2.21222907E-07  4.81155398E-13 -4.81249277E-13  3.09931641E-09
  3.31503685E-14  3.76599095E-10 -5.36403093E-09 -3.32527343E-14 -2.87660105E-02
  5.13798267E-02 -5.24289120E-01 -1.34604909E-02 -7.04555832E-08  7.04636270E-08
 -7.71338783E-09  4.29699121E-08 -1.74773652E-07 -4.92474672E-10 -1.94364022E-15
  2.10814456E-15 -8.56872662E-09 -1.33393327E-08  2.28017564E-09 -8.39846985E-14
  8.42021617E-14  2.69774228E-08 -1.15954864E-08 -1.44439474E-13  1.44745675E-13
  1.96527577E-07  4.39385539E-08 -1.93383422E-13  1.94253809E-13 -3.05701508E-07
 -7.41730941E-08  2.64110393E-13 -2.65118791E-13  8.34134896E-10  1.18796090E-14
 -4.00345670E-10 -1.44916914E-09 -1.18837475E-14  2.90501377E-02  4.81188595E-02
 -4.94001158E-02 -1.71652837E-07  1.71631383E-07 -1.18005409E-01 -1.15832121E-01
 -4.04814870E-07  4.04759536E-07 -5.81165338E-01 -1.20121532E-01 -4.14843411E-07
  4.14796048E-07  1.55842877E+00  8.17130098E-01  2.85822515E-06 -2.85780717E-06
  1.44778021E-02  1.65597067E-07  2.93690645E-03 -2.50439833E-02 -1.65511534E-07
 -1.00864670E-09  9.05018078E-09 -2.18366919E-08  1.79232708E-09  1.01807498E-14
 -1.01940162E-14 -2.80210470E-02  1.97472044E-01 -6.60097619E-01 -4.03291695E-03
 -1.41243010E-08  1.41224651E-08  2.19774589E-02  3.47337940E-02 -7.90678627E-02
 -4.23851563E-07  4.23868194E-07 -7.33756471E-02 -5.11072112E-02 -2.78276564E-07
  2.78276428E-07 -4.99263111E-01 -3.88414095E-01 -2.07327036E-06  2.07337291E-06
  5.10997264E-01  1.18797633E+00  6.29357598E-06 -6.29400182E-06 -8.31752165E-03
 -1.60946247E-07  1.80008131E-03  1.44261770E-02  1.61036300E-07  1.36656052E-07
  2.19773197E-07  3.25107830E-07 -5.97464739E-12  5.94508851E-12 -4.84804093E-07
  1.11057988E-07 -6.32529390E-12  6.29513123E-12 -3.28274215E-06  1.76364636E-06
 -2.41709294E-11  2.40467210E-11  3.60716046E-06 -5.83753413E-06  4.19150714E-11
 -4.16781007E-11 -3.41628989E-08  1.57359364E-13  1.06953449E-08  5.92895295E-08
 -1.59595198E-13  3.50294591E-02 -1.37973786E-02  2.59354429E-01  1.11273597E-02
  5.83229468E-08 -5.83282993E-08  1.68299835E-07 -8.25536501E-08  1.71938813E-06
 -5.11239391E-08 -1.32576089E-13  1.32469002E-13 -1.52467350E-12 -2.41280539E-12
  5.62916702E-12 -4.33971184E-09  4.31588990E-09  5.13564035E-12  3.70640044E-12
 -4.61454913E-09  4.58921824E-09  3.43619796E-11  2.75204543E-11 -1.77902898E-08
  1.76926349E-08 -3.57317357E-11 -8.33590376E-11  3.25756357E-08 -3.23968353E-08
  5.79325516E-13 -2.26858632E-10 -1.27428047E-13 -1.00485746E-12  2.28110716E-10
 -1.06234186E-08 -1.70520953E-08  6.60167863E-07 -9.85467008E-02  9.80054259E-02
  3.72917242E-08  6.41442320E-07 -9.35378204E-02  9.30242032E-02  2.52858616E-07
  2.77734602E-06 -4.19216698E-01  4.16913962E-01 -2.79973445E-07 -5.54924466E-06
  8.64382938E-01 -8.59633747E-01 -4.82862938E-08  8.44495962E-03  5.87299124E-08
  8.39623197E-08 -8.49159543E-03 -2.44317235E-12  7.96109705E-13 -1.71961618E-11
 -7.97744233E-13  3.27427053E-11 -3.25632710E-11 -1.42395849E-08  8.73464571E-09
 -1.29051749E-07  2.23365737E-10  6.33764026E-04 -6.30256864E-04  1.12691440E-07
  1.78786996E-07 -4.26090756E-07 -4.02948557E-12  4.02254412E-12 -3.86111677E-07
 -2.85867706E-07 -3.42627011E-12  3.41840558E-12 -2.50027443E-06 -2.07298736E-06
 -1.81910659E-11  1.81637968E-11  2.68350265E-06  6.21247921E-06  4.60513257E-11
 -4.59978430E-11 -4.26547224E-08 -9.16760371E-13  9.26311844E-09  7.39820718E-08
  9.17614201E-13 -2.51815899E-02 -4.05774085E-02 -6.52148376E-02 -1.85282816E-07
  1.86173838E-07  9.08694947E-02 -2.69711664E-02 -5.33651887E-08  5.40911757E-08
  5.94926330E-01 -3.46506393E-01 -1.03055296E-06  1.03440739E-06 -6.68177732E-01
  1.12175125E+00  3.55338901E-06 -3.56242598E-06  6.67440887E-03  8.45347440E-08
 -1.97065799E-03 -1.15820934E-02 -8.45458137E-08  1.82133687E-07 -3.61191995E-08
  1.15543014E-06  6.23979330E-08  3.39909630E-13 -3.39793988E-13 -3.17890547E-02
  1.42064287E-02 -2.97903909E-01  1.01142194E-02  3.51924096E-08 -3.52205434E-08
  1.76628995E-15  2.80232929E-15 -6.75838084E-15 -1.73217858E-09 -1.74178125E-09
 -6.06105640E-15 -4.59503265E-15 -1.88886074E-09 -1.89933206E-09 -3.91046906E-14
 -3.27956094E-14 -6.92942556E-09 -6.96784056E-09  4.20263604E-14  9.79339829E-14
  1.06810070E-08  1.07402795E-08 -1.38119792E-15  7.75622374E-11  1.49659143E-16