Title Card Required                                                     
FOpt      UM062X                                                      6-311+G(d,p)        
Number of atoms                            I                4
Info1-9                                    I   N=           9
          13          13           0           0           0         110
           2          18        -502
Full Title                                 C   N=           2
Title Card Required     
Route                                      C   N=           4
#p opt UM062X/6-311+G** nosymm int=superfine    
Charge                                     I                1
Multiplicity                               I                2
Number of electrons                        I               13
Number of alpha electrons                  I                7
Number of beta electrons                   I                6
Number of basis functions                  I               56
Number of independent functions            I               56
Number of point charges in /Mol/           I                0
Number of translation vectors              I                0
Atomic numbers                             I   N=           4
           6           6           1           1
Nuclear charges                            R   N=           4
  6.00000000E+00  6.00000000E+00  1.00000000E+00  1.00000000E+00
Current cartesian coordinates              R   N=          12
 -1.77299241E+00  0.00000000E+00  0.00000000E+00  1.77299241E+00  0.00000000E+00
  0.00000000E+00 -3.85676926E+00 -2.32604186E-09  4.94940507E-09  3.85678546E+00
  4.66267562E-09  3.75289367E-09
Number of symbols in /Mol/                 I                0
Force Field                                I                0
Atom Types                                 C   N=           4
                                                
Int Atom Types                             I   N=           4
           0           0           0           0
MM charges                                 R   N=           4
  0.00000000E+00  0.00000000E+00  0.00000000E+00  0.00000000E+00
Integer atomic weights                     I   N=           4
          12          12           1           1
Real atomic weights                        R   N=           4
  1.20000000E+01  1.20000000E+01  1.00782504E+00  1.00782504E+00
Atom fragment info                         I   N=           4
           0           0           0           0
Atom residue num                           I   N=           4
           0           0           0           0
Nuclear spins                              I   N=           4
           0           0           1           1
Nuclear ZEff                               R   N=           4
 -3.60000000E+00 -3.60000000E+00 -1.00000000E+00 -1.00000000E+00
Nuclear ZNuc                               R   N=           4
  6.00000000E+00  6.00000000E+00  1.00000000E+00  1.00000000E+00
Nuclear QMom                               R   N=           4
  0.00000000E+00  0.00000000E+00  0.00000000E+00  0.00000000E+00
Nuclear GFac                               R   N=           4
  0.00000000E+00  0.00000000E+00  2.79284600E+00  2.79284600E+00
MicOpt                                     I   N=           4
          -2          -2          -1          -1
Number of residues                         I                0
Number of secondary structures             I                0
Redundant internal dimensions              I   N=           4
          12           8           4           0
Redundant internal coordinate indices      I   N=          48
           1          -1           0           0           1          -2
           0           0           1          -3           0           0
           2          -1           0           0           2          -2
           0           0           2          -3           0           0
           1           3           0           0           2           4
           0           0           2           1           3          -4
           1           2           4          -4           2           1
           3          -8           1           2           4          -8
Redundant internal coordinates             R   N=          12
 -1.77299241E+00  0.00000000E+00  0.00000000E+00  1.77299241E+00  0.00000000E+00
  0.00000000E+00  2.08377685E+00  2.08379304E+00  3.14159265E+00  3.14159265E+00
  3.14159265E+00  3.14159265E+00
ZRed-IntVec                                I   N=          12
          -1          -1          -1          -1          -1          -1
           0           0           0           0           0           0
ZRed-FPVec                                 R   N=          12
  0.00000000E+00  0.00000000E+00  0.00000000E+00  0.00000000E+00  0.00000000E+00
  0.00000000E+00  0.00000000E+00  0.00000000E+00  0.00000000E+00  0.00000000E+00
  0.00000000E+00  0.00000000E+00
ZRed-Constraint1                           R   N=          12
 -1.77299241E+00  0.00000000E+00  0.00000000E+00  1.77299241E+00  0.00000000E+00
  0.00000000E+00  3.08481574E+00  3.08478433E+00  3.14159265E+00  3.14159265E+00
  3.14159265E+00  3.14159265E+00
ZRed-Constraint2                           R   N=          12
 -1.77299241E+00  0.00000000E+00  0.00000000E+00  1.77299241E+00  0.00000000E+00
  0.00000000E+00  0.00000000E+00  0.00000000E+00  0.00000000E+00  0.00000000E+00
  0.00000000E+00  0.00000000E+00
Number of contracted shells                I               20
Number of primitive shells                 I               38
Pure/Cartesian d shells                    I                0
Pure/Cartesian f shells                    I                0
Highest angular momentum                   I                2
Largest degree of contraction              I                6
Shell types                                I   N=          20
           0          -1          -1          -1          -1          -2
           0          -1          -1          -1          -1          -2
           0           0           0           1           0           0
           0           1
Number of primitives per shell             I   N=          20
           6           3           1           1           1           1
           6           3           1           1           1           1
           3           1           1           1           3           1
           1           1
Shell to atom map                          I   N=          20
           1           1           1           1           1           1
           2           2           2           2           2           2
           3           3           3           3           4           4
           4           4
Primitive exponents                        R   N=          38
  4.56324000E+03  6.82024000E+02  1.54973000E+02  4.44553000E+01  1.30290000E+01
  1.82773000E+00  2.09642000E+01  4.80331000E+00  1.45933000E+00  4.83456000E-01
  1.45585000E-01  4.38000000E-02  6.26000000E-01  4.56324000E+03  6.82024000E+02
  1.54973000E+02  4.44553000E+01  1.30290000E+01  1.82773000E+00  2.09642000E+01
  4.80331000E+00  1.45933000E+00  4.83456000E-01  1.45585000E-01  4.38000000E-02
  6.26000000E-01  3.38650000E+01  5.09479000E+00  1.15879000E+00  3.25840000E-01
  1.02741000E-01  7.50000000E-01  3.38650000E+01  5.09479000E+00  1.15879000E+00
  3.25840000E-01  1.02741000E-01  7.50000000E-01
Contraction coefficients                   R   N=          38
  1.96665025E-03  1.52306019E-02  7.61269097E-02  2.60801033E-01  6.16462078E-01
  2.21006028E-01  1.14660081E-01  9.19999648E-01 -3.03068213E-03  1.00000000E+00
  1.00000000E+00  1.00000000E+00  1.00000000E+00  1.96665025E-03  1.52306019E-02
  7.61269097E-02  2.60801033E-01  6.16462078E-01  2.21006028E-01  1.14660081E-01
  9.19999648E-01 -3.03068213E-03  1.00000000E+00  1.00000000E+00  1.00000000E+00
  1.00000000E+00  2.54938145E-02  1.90373109E-01  8.52161486E-01  1.00000000E+00
  1.00000000E+00  1.00000000E+00  2.54938145E-02  1.90373109E-01  8.52161486E-01
  1.00000000E+00  1.00000000E+00  1.00000000E+00
P(S=P) Contraction coefficients            R   N=          38
  0.00000000E+00  0.00000000E+00  0.00000000E+00  0.00000000E+00  0.00000000E+00
  0.00000000E+00  4.02486927E-02  2.37593957E-01  8.15853851E-01  1.00000000E+00
  1.00000000E+00  1.00000000E+00  0.00000000E+00  0.00000000E+00  0.00000000E+00
  0.00000000E+00  0.00000000E+00  0.00000000E+00  0.00000000E+00  4.02486927E-02
  2.37593957E-01  8.15853851E-01  1.00000000E+00  1.00000000E+00  1.00000000E+00
  0.00000000E+00  0.00000000E+00  0.00000000E+00  0.00000000E+00  0.00000000E+00
  0.00000000E+00  0.00000000E+00  0.00000000E+00  0.00000000E+00  0.00000000E+00
  0.00000000E+00  0.00000000E+00  0.00000000E+00
Coordinates of each shell                  R   N=          60
 -1.77299241E+00  0.00000000E+00  0.00000000E+00 -1.77299241E+00  0.00000000E+00
  0.00000000E+00 -1.77299241E+00  0.00000000E+00  0.00000000E+00 -1.77299241E+00
  0.00000000E+00  0.00000000E+00 -1.77299241E+00  0.00000000E+00  0.00000000E+00
 -1.77299241E+00  0.00000000E+00  0.00000000E+00  1.77299241E+00  0.00000000E+00
  0.00000000E+00  1.77299241E+00  0.00000000E+00  0.00000000E+00  1.77299241E+00
  0.00000000E+00  0.00000000E+00  1.77299241E+00  0.00000000E+00  0.00000000E+00
  1.77299241E+00  0.00000000E+00  0.00000000E+00  1.77299241E+00  0.00000000E+00
  0.00000000E+00 -3.85676926E+00 -2.32604186E-09  4.94940507E-09 -3.85676926E+00
 -2.32604186E-09  4.94940507E-09 -3.85676926E+00 -2.32604186E-09  4.94940507E-09
 -3.85676926E+00 -2.32604186E-09  4.94940507E-09  3.85678546E+00  4.66267562E-09
  3.75289367E-09  3.85678546E+00  4.66267562E-09  3.75289367E-09  3.85678546E+00
  4.66267562E-09  3.75289367E-09  3.85678546E+00  4.66267562E-09  3.75289367E-09
Num ILSW                                   I              100
ILSW                                       I   N=         100
           1           0           0           0           2           0
           0           0           0           0        4336          -1
           7           0           0           0           2           0
           0           0           0           0           1           0
           1           1           0           0           0           0
           0           0      100000           0          -1           0
           0           0           0           0           0           0
           0           0           0           1           0           0
           0 -2000000000           1           0           0           0
           0           0           4          52           0           0
           0           0          55           0           0           0
           0           0           0           4           0           1
           0           0           0           0           0           0
           0           0           0           0           0           0
           0           0           0           0           0           0
           0           0           0           0           0           0
           0           0           0           0
Num RLSW                                   I               52
RLSW                                       R   N=          52
  1.00000000E+00  1.00000000E+00  1.00000000E+00  1.00000000E+00  5.40000000E-01
  0.00000000E+00  0.00000000E+00  1.00000000E+00  0.00000000E+00  0.00000000E+00
  0.00000000E+00  0.00000000E+00  1.00000000E+00  0.00000000E+00  0.00000000E+00
  0.00000000E+00  0.00000000E+00  1.00000000E+00  0.00000000E+00  0.00000000E+00
  0.00000000E+00  0.00000000E+00  1.00000000E+00  0.00000000E+00  0.00000000E+00
  0.00000000E+00  0.00000000E+00  1.00000000E+00  0.00000000E+00  0.00000000E+00
  0.00000000E+00  0.00000000E+00  1.00000000E+00  0.00000000E+00  0.00000000E+00
  0.00000000E+00  0.00000000E+00  0.00000000E+00  1.00000000E+00  1.00000000E+00
  0.00000000E+00  1.00000000E+00  0.00000000E+00  0.00000000E+00  0.00000000E+00
  0.00000000E+00  0.00000000E+00  0.00000000E+00  0.00000000E+00  0.00000000E+00
  0.00000000E+00  0.00000000E+00
MxBond                                     I                2
NBond                                      I   N=           4
           2           2           1           1
IBond                                      I   N=           8
           2           3           1           4           1           0
           2           0
RBond                                      R   N=           8
  1.00000000E-01  1.00000000E-01  1.00000000E-01  1.00000000E-01  1.00000000E-01
  0.00000000E+00  1.00000000E-01  0.00000000E+00
Virial Ratio                               R      2.014597041067836E+00
SCF Energy                                 R     -7.664430626186369E+01
Total Energy                               R     -7.664430626186369E+01
S**2                                       R      7.525948413239822E-01
S**2 after annihilation                    R      7.500042277892348E-01
RMS Force                                  R      1.281838994941385E-04
RMS Density                                R      3.049352599723616E-09
Job Status                                 I                1
Nuclear derivative order                   I                1
External E-field                           R   N=          35
  0.00000000E+00  0.00000000E+00  0.00000000E+00  0.00000000E+00  0.00000000E+00
  0.00000000E+00  0.00000000E+00  0.00000000E+00  0.00000000E+00  0.00000000E+00
  0.00000000E+00  0.00000000E+00  0.00000000E+00  0.00000000E+00  0.00000000E+00
  0.00000000E+00  0.00000000E+00  0.00000000E+00  0.00000000E+00  0.00000000E+00
  0.00000000E+00  0.00000000E+00  0.00000000E+00  0.00000000E+00  0.00000000E+00
  0.00000000E+00  0.00000000E+00  0.00000000E+00  0.00000000E+00  0.00000000E+00
  0.00000000E+00  0.00000000E+00  0.00000000E+00  0.00000000E+00  0.00000000E+00
IOpCl                                      I                1
IROHF                                      I                0
Alpha Orbital Energies                     R   N=          56
 -1.10100098E+01 -1.10097611E+01 -1.07322279E+00 -9.96584953E-01 -8.12441517E-01
 -6.11174588E-01 -5.90974020E-01 -3.84344107E-01 -3.64621900E-01 -3.44279232E-01
 -1.40994957E-01 -1.18152147E-01 -1.00946153E-01 -8.76118173E-02 -8.53473454E-02
 -5.36837577E-02 -5.08263167E-02  5.74676017E-03  3.20070065E-02  6.16908264E-02
  2.37644056E-01  3.09758094E-01  3.20665710E-01  3.24320731E-01  3.57036469E-01
  3.64282688E-01  4.31735561E-01  5.25417425E-01  5.46699860E-01  7.15863477E-01
  7.19241165E-01  7.29907585E-01  9.85470525E-01  9.86952478E-01  1.00354266E+00
  1.01134826E+00  1.07521946E+00  1.07632936E+00  1.14163531E+00  1.46269904E+00
  1.47039983E+00  1.51937205E+00  1.72702369E+00  1.74061910E+00  1.98938677E+00
  2.24874647E+00  2.36913029E+00  2.39497478E+00  2.41605167E+00  2.41749968E+00
  2.44363760E+00  2.66846550E+00  2.98644332E+00  3.04330677E+00  2.32065489E+01
  2.32931814E+01
Beta Orbital Energies                      R   N=          56
 -1.10073552E+01 -1.10071876E+01 -1.03895714E+00 -9.77960580E-01 -8.01794442E-01
 -5.72395020E-01 -3.92432006E-01 -3.47149275E-01 -3.24058597E-01 -2.97792423E-01
 -1.50289009E-01 -1.21333515E-01 -1.06810882E-01 -9.11770026E-02 -8.97396617E-02
 -5.39056207E-02 -5.16236333E-02 -3.97149976E-03  3.28888033E-02  6.28952357E-02
  2.40608162E-01  3.14890463E-01  3.25064840E-01  3.25799894E-01  3.42247993E-01
  3.61300236E-01  4.25281016E-01  5.28502793E-01  5.56742690E-01  6.93648666E-01
  7.42663557E-01  7.47550311E-01  1.01505006E+00  1.01689142E+00  1.02595919E+00
  1.03773083E+00  1.10050140E+00  1.12361095E+00  1.16446598E+00  1.47016183E+00
  1.48010791E+00  1.52985220E+00  1.74417018E+00  1.75168789E+00  2.01258549E+00
  2.26419970E+00  2.40399889E+00  2.41378104E+00  2.43154438E+00  2.45286243E+00
  2.46441622E+00  2.71101113E+00  3.01010074E+00  3.06013904E+00  2.32172848E+01
  2.33040902E+01
Alpha MO coefficients                      R   N=        3136
  3.98589756E-01  3.27788806E-01  9.42370889E-04 -2.68464623E-12 -1.02169384E-12
  6.98159280E-03 -2.11977722E-03 -1.71448071E-12  5.03668099E-12 -3.30025646E-03
  6.25945946E-04  5.24149349E-13 -9.82025508E-13 -4.19058618E-04  1.30475046E-03
  2.76296899E-12 -1.93494146E-12 -4.87612077E-04 -3.83793919E-12 -8.79907668E-07
  7.70703806E-04  1.64451199E-12  3.99629146E-01  3.28643509E-01 -9.44407816E-04
  1.08271297E-12 -2.87083994E-12  7.00046560E-03  2.12534029E-03  4.68003362E-12
  4.85167937E-12 -3.31231859E-03 -6.17777603E-04 -1.26379643E-12 -1.22134762E-12
 -4.04202782E-04 -1.31132333E-03 -3.39191847E-12 -5.78449416E-13 -4.89136070E-04
  2.98515906E-12 -8.82237451E-07  7.73148114E-04  3.43212284E-12  1.02517498E-04
 -2.56782456E-03  2.99253285E-03 -1.58058527E-03 -1.96566134E-12  3.51273703E-12
  1.03049141E-04 -2.57748371E-03  2.99530266E-03  1.58528163E-03  3.58462498E-12
  2.55555037E-12  3.99656427E-01  3.28639031E-01  7.84495708E-04 -2.58397339E-12
 -8.55674142E-13  7.28363146E-03 -2.17109906E-03 -2.23472091E-12  4.78875253E-12
 -4.62829372E-03 -3.13404669E-03 -3.59579660E-13  2.14399011E-12  5.64137945E-03
  2.50938063E-03  2.41291942E-13 -8.61888899E-13 -5.93643077E-04 -5.51815347E-12
 -8.93313899E-07  9.53229489E-04  2.03825364E-12 -3.98617110E-01 -3.27784335E-01
  7.82035588E-04 -1.08021496E-12  2.63967802E-12 -7.26535086E-03 -2.16547789E-03
 -4.95831094E-12 -4.33545000E-12  4.61972942E-03 -3.13565704E-03 -1.21533243E-12
 -1.52815396E-12 -5.64247191E-03  2.50597430E-03  5.64298379E-13  6.06921789E-13
  5.92350228E-04 -4.41043481E-12  8.91025489E-07 -9.51182541E-04 -4.62765637E-12
  1.96721479E-04 -3.75665566E-03  1.09356863E-03 -1.82767894E-03 -2.72675687E-12
  4.92903897E-12 -1.96476109E-04  3.74982934E-03 -1.08574047E-03 -1.82349712E-03
 -4.97994083E-12 -3.54919652E-12 -8.45470338E-02 -1.38364872E-01 -5.82363292E-03
 -1.41482294E-12  9.06328367E-11  3.97477990E-01  2.43194133E-03 -3.34471516E-11
  1.28201722E-10  2.65407211E-01  1.10310140E-04 -1.40169628E-12  5.63306146E-11
 -1.70663213E-03 -1.83815309E-02 -3.67802711E-11  1.81813430E-11 -1.26178961E-02
 -3.78824748E-11 -1.01282166E-04  1.33523626E-02  6.94213268E-12 -8.45454693E-02
 -1.38362330E-01  5.82158135E-03  3.51653043E-11  6.21706951E-11  3.97470909E-01
 -2.43448863E-03  7.66564628E-11  7.58519134E-11  2.65402827E-01 -1.10671780E-04
  2.24177723E-11  3.72207929E-11 -1.70572961E-03  1.83811414E-02  4.35532578E-11
  6.25111492E-12 -1.26176924E-02  3.38492819E-11 -1.01280488E-04  1.33521570E-02
  1.95587747E-11  7.56042100E-02  9.17138096E-02 -2.23205970E-02  1.27545408E-02
  9.37540691E-12 -2.27551108E-11  7.56010424E-02  9.17104752E-02 -2.23203310E-02
 -1.27540807E-02 -2.05407119E-11 -1.74201820E-11  7.40399671E-02  1.21208926E-01
  7.81474749E-02  5.97944623E-11 -1.45942658E-10 -3.52783300E-01  1.10229691E-01
  1.07757565E-10 -2.01617708E-10 -2.45340093E-01  4.22019269E-02  2.92200633E-11
 -9.28537543E-11  1.17952298E-01  4.91780900E-02  1.02091961E-12 -3.55529134E-11
  7.81198944E-03  5.54914799E-11  8.68862181E-05 -6.23680178E-03 -1.78472093E-11
 -7.40418694E-02 -1.21212075E-01  7.81455182E-02  1.15762091E-10  9.59457410E-11
  3.52792696E-01  1.10226971E-01  1.79514000E-10  1.20417508E-10  2.45347752E-01
  4.22012254E-02  6.27196497E-11  6.41904100E-11 -1.17952340E-01  4.91787537E-02
  1.93305319E-11  3.30543887E-11 -7.81227263E-03  4.32960160E-11 -8.68887630E-05
  6.23708370E-03  3.65134196E-11 -1.14697258E-01 -1.43325380E-01  1.20333305E-02
 -1.94161875E-02 -1.77546278E-11  4.93662445E-11  1.14696880E-01  1.43325929E-01
 -1.20339699E-02 -1.94162780E-02 -4.10424106E-11 -3.84373061E-11 -1.16330605E-02
 -1.98157943E-02  1.77315810E-01  1.88402730E-10 -2.45088939E-10  5.95015321E-02
  2.71763901E-01  2.43246434E-10 -3.52809921E-10  5.68506880E-02  1.39505376E-01
  1.83356004E-10 -1.92271010E-10 -6.87240315E-03 -3.22162104E-03  8.22822647E-12
 -5.22908443E-12 -3.92307254E-03  4.09275873E-11 -2.19237333E-05  4.95450047E-03
 -3.78573468E-11 -1.16322862E-02 -1.98144844E-02 -1.77316082E-01 -3.02690167E-10
 -1.85284669E-10  5.94974798E-02 -2.71764739E-01 -4.08825911E-10 -2.75290163E-10
  5.68464263E-02 -1.39506227E-01 -2.72074870E-10 -1.38288264E-10 -6.86991475E-03
  3.22046678E-03 -9.67570078E-12  2.08612095E-12 -3.92304943E-03 -1.58140690E-11
 -2.19226386E-05  4.95455491E-03 -4.98535608E-11 -1.14801920E-01 -1.56793759E-01
 -1.14376328E-02 -1.70168513E-02 -1.84726827E-11  5.30861685E-11 -1.14802407E-01
 -1.56795560E-01 -1.14374886E-02  1.70170866E-02  4.27598070E-11  3.93828765E-11
 -1.73050757E-10 -2.96855489E-10  3.14091509E-10  1.98993250E-01 -2.37009299E-03
  9.54898132E-10  3.83325955E-10  3.18770535E-01 -3.79668913E-03  1.20559386E-09
  5.68509438E-10  2.66785812E-01 -3.17753080E-03  2.68706611E-10  1.39299283E-10
 -2.89251569E-04  3.44578819E-06  2.04299015E-11 -1.97232337E-04  1.95110699E-11
 -3.84344413E-11  1.65596582E-02  1.93731938E-10  3.32409742E-10  1.64849069E-10
  1.98993151E-01 -2.37009029E-03 -1.07709248E-09  1.25328422E-10  3.18770282E-01
 -3.79668407E-03 -1.27920435E-09  4.44657693E-10  2.66785762E-01 -3.17752811E-03
 -2.44893507E-10  1.71807557E-10 -2.89163589E-04  3.44472095E-06 -2.54689849E-11
  1.97232759E-04  1.40905295E-12  5.08872119E-11 -1.65596826E-02 -2.99639702E-10
 -4.76497254E-10 -2.38344969E-12 -5.88851469E-11  1.49787663E-02 -1.78403390E-04
  3.29179719E-10  4.89457544E-10 -6.27199874E-11 -8.04107169E-11  1.49786018E-02
 -1.78401291E-04  6.55999054E-11  1.10950151E-10  2.76541195E-10  2.34598957E-03
  1.96969765E-01 -3.60955498E-10  5.04478634E-10  3.78028845E-03  3.17393661E-01
 -3.08927992E-10  2.14463308E-10  3.17394856E-03  2.66485371E-01 -3.04288495E-12
 -7.14675879E-11  4.74098930E-05  3.98047949E-03  1.32109722E-11  1.69676812E-02
 -1.56840771E-11  2.42228385E-11  2.02092134E-04  2.08123265E-11  3.49596820E-11
 -2.98921148E-10  2.34599245E-03  1.96969815E-01 -1.18718079E-10 -5.10627227E-10
  3.78029147E-03  3.17393645E-01 -5.52834288E-11 -2.78899824E-10  3.17395350E-03
  2.66485523E-01  9.03694130E-11  1.69385465E-11  4.74109524E-05  3.98056983E-03
 -5.88372998E-12 -1.69676787E-02  1.55841108E-11  1.32236382E-11 -2.02091930E-04
  8.12259296E-11  7.10970619E-11 -1.38590078E-10  5.93499059E-11  1.93981651E-04
  1.62867386E-02  2.08427969E-11 -1.92647644E-11 -1.10521542E-10 -3.98994150E-11
  1.93979869E-04  1.62865725E-02  1.00825448E-10  1.64330752E-10 -5.21125621E-10
  2.21112587E-01 -2.63353871E-03 -4.85757801E-10 -8.58299896E-10  3.44856570E-01
 -4.10737739E-03 -7.53973888E-10 -6.90586224E-10  3.47366857E-01 -4.13727619E-03
 -2.70901741E-10 -1.27054060E-10  4.84911974E-02 -5.77547902E-04 -1.19577271E-11
  2.21298140E-04  2.63441819E-11  5.09317249E-11 -1.85802463E-02 -1.73719111E-10
 -2.99709264E-10  7.72625907E-11 -2.21112734E-01  2.63354204E-03  9.66492314E-10
  2.33505938E-10 -3.44856695E-01  4.10738180E-03  1.58071268E-09  3.01254501E-10
 -3.47367136E-01  4.13728204E-03  3.98074565E-10 -7.75556380E-11 -4.84912934E-02
  5.77549349E-04  4.02591822E-11  2.21297570E-04 -6.23180542E-12 -7.70099641E-11
 -1.85802140E-02  1.49205752E-10  2.57429813E-10  2.39672507E-10 -2.75555859E-11
  2.21357234E-02 -2.63645316E-04 -3.46994248E-10 -8.10838108E-10 -5.22728930E-10
  6.31608592E-11 -2.21356504E-02  2.63644582E-04  9.95232474E-10  1.68021702E-09
 -1.80355733E-09  2.60045095E-03  2.18334524E-01 -5.23154374E-09 -2.55996212E-09
  4.05076639E-03  3.40103271E-01 -8.88228835E-09 -2.08670934E-09  4.18899650E-03
  3.51709118E-01 -3.90942260E-09 -1.33055020E-09  7.73812115E-04  6.49693144E-02
 -1.69642361E-10 -1.91211081E-02 -1.25968032E-11  4.91322041E-10 -2.27740003E-04
 -9.79476358E-10 -1.65390632E-09 -1.88416072E-09 -2.60045039E-03 -2.18334557E-01
  5.16251528E-09 -2.70272933E-09 -4.05076387E-03 -3.40103220E-01  8.69881025E-09
 -2.22672838E-09 -4.18899590E-03 -3.51709209E-01  3.88069752E-09 -1.35454571E-09
 -7.73812928E-04 -6.49694017E-02  1.92819916E-10 -1.91211070E-02 -1.78747680E-11
 -4.87410623E-10 -2.27740164E-04  1.72648762E-09  3.74164813E-09  2.86197787E-09
  8.66751198E-11  2.81064300E-04  2.35982353E-02 -1.69436250E-09 -3.66129984E-09
 -2.80426668E-09  7.03042970E-11 -2.81063159E-04 -2.35981451E-02 -6.68947236E-02
 -1.12989898E-01  1.46179475E-01  8.60227150E-11  3.13219087E-09  3.51145544E-01
  2.09054580E-01  4.50314956E-11  4.91844823E-09  6.32215994E-01  2.25011590E-01
 -6.12362009E-12  5.40085999E-09  4.32053193E-01  1.64820285E-01  5.51796609E-11
  1.07797924E-09  1.48528657E-02 -2.24291069E-10 -1.18514381E-04 -3.56750353E-02
 -1.23405224E-10  6.68950026E-02  1.12990336E-01  1.46178320E-01 -8.38133395E-10
 -3.04578345E-09 -3.51146928E-01  2.09053172E-01 -1.40916862E-09 -4.75447245E-09
 -6.32216869E-01  2.25010446E-01 -1.63495815E-09 -5.21768608E-09 -4.32052731E-01
  1.64821067E-01 -2.29042151E-10 -1.06163859E-09 -1.48529470E-02 -2.61136837E-10
  1.18514722E-04  3.56751948E-02  6.28161416E-11 -1.12321583E-01 -2.41098980E-01
 -1.91780779E-01 -9.86035156E-04 -5.13031242E-12  3.92820560E-10  1.12322578E-01
  2.41101794E-01  1.91783830E-01 -9.85940683E-04 -1.25119636E-10 -3.74762571E-10
  2.72338467E-02  4.74385516E-02  4.51200025E-02  4.29286314E-11 -9.95513743E-11
 -1.68105592E-01  7.93896146E-02  1.16757396E-10 -2.05671201E-10 -3.95792313E-01
  1.01529014E-01  6.99884786E-11 -2.11774180E-10  8.99846769E-01 -5.24708504E-01
 -9.96611957E-10  8.84005685E-10  6.63231180E-03  2.60384600E-11 -2.28214091E-06
 -1.16790433E-02 -9.73157727E-12  2.72336225E-02  4.74381538E-02 -4.51233573E-02
 -8.57694288E-11 -7.68593733E-11 -1.68104385E-01 -7.93941455E-02 -2.07466058E-10
 -1.51835699E-10 -3.95788893E-01 -1.01539581E-01 -1.69035853E-10 -1.84726517E-10
  8.99796163E-01  5.24738417E-01  1.32461054E-09  4.54094294E-10  6.63239871E-03
 -1.85508707E-11 -2.28282288E-06 -1.16792600E-02 -2.02427026E-11 -5.19362755E-03
  9.91521191E-02 -1.43058653E-01 -1.17789172E-02 -2.00597739E-11  3.21630387E-11
 -5.19380370E-03  9.91519927E-02 -1.43054855E-01  1.17796243E-02  3.48690024E-11
  2.29653228E-11  5.74629114E-03  1.06701164E-02  8.90270866E-02  7.13510212E-11
 -4.86692162E-11 -5.42327907E-02  1.42993004E-01  9.65679688E-11 -9.23238390E-11
 -1.21110875E-02  1.89904872E-01  1.44800139E-10 -4.59832484E-11 -2.45110583E+00
 -1.79864159E+00 -4.04947828E-10  1.97221603E-09  6.54794739E-03  2.25978387E-11
 -2.18319685E-05 -1.31741218E-02 -1.46561594E-11 -5.74605914E-03 -1.06696547E-02
  8.90307333E-02  8.96001117E-11  2.07643915E-11  5.42299116E-02  1.42998396E-01
  1.34114369E-10  4.82008595E-11  1.21157566E-02  1.89920190E-01  1.59822179E-10
 -7.23148249E-12  2.45114031E+00 -1.79865239E+00 -1.34103090E-09 -1.68982769E-09
 -6.54696403E-03  1.09255675E-11  2.18288060E-05  1.31721566E-02  2.27982202E-11
 -2.67469742E-02  1.47107071E-02 -1.67198582E-01 -1.86065553E-02 -2.85764519E-11
  6.66943147E-11  2.67437644E-02 -1.47187924E-02  1.67164832E-01 -1.86074523E-02
 -5.96871413E-11 -5.32258552E-11  1.06115303E-03  8.53273658E-04  9.24766608E-02
  1.84057175E-10 -1.93399862E-10  1.79778142E-02  1.40934664E-01  2.31524914E-10
 -2.42829838E-10 -1.43887415E-01  3.60894866E-01  6.68558114E-10 -1.01768504E-09
 -4.96723708E-01 -5.35147245E-01 -3.71932098E-10  4.11982099E-10 -2.04612734E-02
 -9.64220229E-11  6.71043544E-05  4.10732409E-02  3.99484133E-12  1.06053779E-03
  8.52191091E-04 -9.24765298E-02 -2.79655764E-10 -1.24517239E-10  1.79820121E-02
 -1.40933921E-01 -3.43679723E-10 -1.53753526E-10 -1.43878944E-01 -3.60896865E-01
 -1.17555360E-09 -7.03146018E-10 -4.96621578E-01  5.35063463E-01  6.52281043E-10
  2.97727869E-10 -2.04614619E-02  9.23728065E-11  6.71044031E-05  4.10735769E-02
  6.06646910E-11  5.65768407E-02  1.97859127E-01  7.20908083E-01 -2.16874816E-02
  6.89801736E-12  2.79149924E-11  5.65790871E-02  1.97860313E-01  7.20926523E-01
  2.16868814E-02  7.67196355E-12  2.71948943E-11 -2.27500179E-12 -1.03226867E-12
  3.67587402E-11 -8.02861390E-02  9.56176647E-04 -3.55429607E-11  9.28703349E-11
 -9.22918446E-02  1.09915331E-03  2.50763063E-10 -5.25205414E-10 -2.54767591E-01
  3.03418065E-03 -5.92314307E-09 -3.21318520E-09  6.51614301E-01 -7.76046682E-03
  1.06813645E-11  7.51096973E-05 -6.55203991E-12 -3.36313897E-11 -6.30668248E-03
 -7.53078742E-12 -1.61941673E-11  1.13918312E-10 -8.02866500E-02  9.56182798E-04
  1.01738198E-10  2.11655112E-10 -9.22924678E-02  1.09916105E-03 -2.12352072E-10
 -3.19157059E-10 -2.54768981E-01  3.03419747E-03  5.77270100E-09 -4.03871341E-09
  6.51622786E-01 -7.76056869E-03  3.90532201E-12 -7.51105698E-05 -1.32084294E-12
  6.11802703E-12  6.30675649E-03 -4.25280009E-11 -3.19871583E-10 -9.88875308E-10
  3.32262598E-12  4.50717991E-03 -5.36792409E-05 -1.21810048E-12  2.36859795E-10
  8.02052251E-10 -5.09258181E-12  4.50739918E-03 -5.36818414E-05 -2.17097153E-11
 -3.78796735E-11 -1.39656144E-10 -9.48382444E-04 -7.96318205E-02  1.49915000E-10
 -2.21416528E-10 -1.17281038E-03 -9.84755603E-02 -4.23542401E-12 -2.14036306E-10
 -3.02418642E-03 -2.53928461E-01  7.13269602E-10  2.30062383E-09  7.74799578E-03
  6.50567226E-01  1.57538216E-11 -6.73512790E-03  8.38557202E-12 -4.44735257E-11
 -8.02130587E-05 -1.90452117E-11 -3.30554808E-11  1.19159786E-10 -9.48388651E-04
 -7.96323476E-02  1.29043694E-10  1.79556260E-10 -1.17281777E-03 -9.84762074E-02
  4.98140051E-11  3.91562900E-10 -3.02420370E-03 -2.53929937E-01 -1.81810282E-09
 -9.09819708E-10  7.74809934E-03  6.50575990E-01  2.21316701E-11  6.73519460E-03
 -8.74992445E-12 -4.38306777E-11  8.02138643E-05 -6.59796593E-11 -6.58861998E-11
  6.81689942E-11  1.63229938E-11  4.62506544E-05  3.88352037E-03 -6.56557341E-11
 -1.42349128E-10 -2.16585726E-10 -1.33166487E-11  4.62532518E-05  3.88373748E-03
 -2.79746390E-12 -2.81584468E-12  8.87480917E-11 -7.67936908E-02  9.14605284E-04
 -1.70221688E-12  9.15278859E-11 -8.90920892E-02  1.06107274E-03  9.97452687E-11
  5.42157827E-10 -2.63547043E-01  3.13882485E-03  2.35919015E-09 -3.75218585E-10
  1.61564417E+00 -1.92421842E-02 -1.50477105E-11  7.89283600E-05 -7.39862391E-12