 Entering Gaussian System, Link 0=g16
 Initial command:
 /home/szhao/Apps/g16/l1.exe "/home/szhao/tmp/Gau-317.inp" -scrdir="/home/szhao/tmp/"
 Default is to use a total of  16 processors:
                               16 via shared-memory
                                1 via Linda
 Entering Link 1 = /home/szhao/Apps/g16/l1.exe PID=       322.
  
 Copyright (c) 1988,1990,1992,1993,1995,1998,2003,2009,2016,
            Gaussian, Inc.  All Rights Reserved.
  
 This is part of the Gaussian(R) 16 program.  It is based on
 the Gaussian(R) 09 system (copyright 2009, Gaussian, Inc.),
 the Gaussian(R) 03 system (copyright 2003, Gaussian, Inc.),
 the Gaussian(R) 98 system (copyright 1998, Gaussian, Inc.),
 the Gaussian(R) 94 system (copyright 1995, Gaussian, Inc.),
 the Gaussian 92(TM) system (copyright 1992, Gaussian, Inc.),
 the Gaussian 90(TM) system (copyright 1990, Gaussian, Inc.),
 the Gaussian 88(TM) system (copyright 1988, Gaussian, Inc.),
 the Gaussian 86(TM) system (copyright 1986, Carnegie Mellon
 University), and the Gaussian 82(TM) system (copyright 1983,
 Carnegie Mellon University). Gaussian is a federally registered
 trademark of Gaussian, Inc.
  
 This software contains proprietary and confidential information,
 including trade secrets, belonging to Gaussian, Inc.
  
 This software is provided under written license and may be
 used, copied, transmitted, or stored only in accord with that
 written license.
  
 The following legend is applicable only to US Government
 contracts under FAR:
  
                    RESTRICTED RIGHTS LEGEND
  
 Use, reproduction and disclosure by the US Government is
 subject to restrictions as set forth in subparagraphs (a)
 and (c) of the Commercial Computer Software - Restricted
 Rights clause in FAR 52.227-19.
  
 Gaussian, Inc.
 340 Quinnipiac St., Bldg. 40, Wallingford CT 06492
  
  
 ---------------------------------------------------------------
 Warning -- This program may not be used in any manner that
 competes with the business of Gaussian, Inc. or will provide
 assistance to any competitor of Gaussian, Inc.  The licensee
 of this program is prohibited from giving any competitor of
 Gaussian, Inc. access to this program.  By using this program,
 the user acknowledges that Gaussian, Inc. is engaged in the
 business of creating and licensing software in the field of
 computational chemistry and represents and warrants to the
 licensee that it is not a competitor of Gaussian, Inc. and that
 it will not use this program in any manner prohibited above.
 ---------------------------------------------------------------
  

 Cite this work as:
 Gaussian 16, Revision A.03,
 M. J. Frisch, G. W. Trucks, H. B. Schlegel, G. E. Scuseria, 
 M. A. Robb, J. R. Cheeseman, G. Scalmani, V. Barone, 
 G. A. Petersson, H. Nakatsuji, X. Li, M. Caricato, A. V. Marenich, 
 J. Bloino, B. G. Janesko, R. Gomperts, B. Mennucci, H. P. Hratchian, 
 J. V. Ortiz, A. F. Izmaylov, J. L. Sonnenberg, D. Williams-Young, 
 F. Ding, F. Lipparini, F. Egidi, J. Goings, B. Peng, A. Petrone, 
 T. Henderson, D. Ranasinghe, V. G. Zakrzewski, J. Gao, N. Rega, 
 G. Zheng, W. Liang, M. Hada, M. Ehara, K. Toyota, R. Fukuda, 
 J. Hasegawa, M. Ishida, T. Nakajima, Y. Honda, O. Kitao, H. Nakai, 
 T. Vreven, K. Throssell, J. A. Montgomery, Jr., J. E. Peralta, 
 F. Ogliaro, M. J. Bearpark, J. J. Heyd, E. N. Brothers, K. N. Kudin, 
 V. N. Staroverov, T. A. Keith, R. Kobayashi, J. Normand, 
 K. Raghavachari, A. P. Rendell, J. C. Burant, S. S. Iyengar, 
 J. Tomasi, M. Cossi, J. M. Millam, M. Klene, C. Adamo, R. Cammi, 
 J. W. Ochterski, R. L. Martin, K. Morokuma, O. Farkas, 
 J. B. Foresman, and D. J. Fox, Gaussian, Inc., Wallingford CT, 2016.
 
 ******************************************
 Gaussian 16:  ES64L-G16RevA.03 25-Dec-2016
                21-Apr-2025 
 ******************************************
 %chk=opt.chk
 %mem=4GB
 %nprocshared=8
 Will use up to    8 processors via shared memory.
 --------------------------------------------
 #p opt UM062X/6-311+G** nosymm int=superfine
 --------------------------------------------
 1/18=20,19=15,26=5,38=1/1,3;
 2/9=110,12=2,15=1,17=6,18=5,40=1/2;
 3/5=4,6=6,7=111,11=2,25=1,30=1,71=1,74=-55,75=-7,116=2/1,2,3;
 4//1;
 5/5=2,38=5/2;
 6/7=2,8=2,9=2,10=2,28=1/1;
 7/30=1/1,2,3,16;
 1/18=20,19=15,26=5/3(2);
 2/9=110,15=1/2;
 99//99;
 2/9=110,15=1/2;
 3/5=4,6=6,7=111,11=2,25=1,30=1,71=1,74=-55,75=-7,116=2/1,2,3;
 4/5=5,16=3,69=1/1;
 5/5=2,38=5/2;
 7/30=1/1,2,3,16;
 1/18=20,19=15,26=5/3(-5);
 2/9=110,15=1/2;
 6/7=2,8=2,9=2,10=2,19=2,28=1/1;
 99/9=1/99;
 Leave Link    1 at Mon Apr 21 18:45:33 2025, MaxMem=   536870912 cpu:               1.5 elap:               0.2
 (Enter /home/szhao/Apps/g16/l101.exe)
 -------------------
 Title Card Required
 -------------------
 Symbolic Z-matrix:
 Charge =  0 Multiplicity = 1
 C                    -1   -2.0822    0.        0. 
 O                    -1    2.0822    0.        0. 
 H                    0     2.39239  -0.90717   0. 
 H                    0    -2.49314  -0.48457   0.89177 
 H                    0    -2.39812   1.0422   -0.00092 
 H                    0    -2.49253  -0.48604  -0.89118 
 
 Add virtual bond connecting atoms O2         and C1         Dist= 7.87D+00.
 ITRead=  2  2  0  0  0  0
 MicOpt= -2 -2 -1 -1 -1 -1
 NAtoms=      6 NQM=        4 NQMF=       2 NMMI=      0 NMMIF=      0
                NMic=       0 NMicF=      0.
                    Isotopes and Nuclear Properties:
 (Nuclear quadrupole moments (NQMom) in fm**2, nuclear magnetic moments (NMagM)
  in nuclear magnetons)

  Atom         1           2           3           4           5           6
 IAtWgt=          12          16           1           1           1           1
 AtmWgt=  12.0000000  15.9949146   1.0078250   1.0078250   1.0078250   1.0078250
 NucSpn=           0           0           1           1           1           1
 AtZEff=  -0.0000000  -0.0000000  -0.0000000  -0.0000000  -0.0000000  -0.0000000
 NQMom=    0.0000000   0.0000000   0.0000000   0.0000000   0.0000000   0.0000000
 NMagM=    0.0000000   0.0000000   2.7928460   2.7928460   2.7928460   2.7928460
 AtZNuc=   6.0000000   8.0000000   1.0000000   1.0000000   1.0000000   1.0000000
 Leave Link  101 at Mon Apr 21 18:45:33 2025, MaxMem=   536870912 cpu:               2.0 elap:               0.4
 (Enter /home/szhao/Apps/g16/l103.exe)

 GradGradGradGradGradGradGradGradGradGradGradGradGradGradGradGradGradGrad
 Berny optimization.
 Initialization pass.
                           ----------------------------
                           !    Initial Parameters    !
                           ! (Angstroms and Degrees)  !
 --------------------------                            --------------------------
 ! Name  Definition              Value          Derivative Info.                !
 --------------------------------------------------------------------------------
 ! X1    R(1,-1)                -2.0822         Frozen                          !
 ! Y1    R(1,-2)                 0.0            Frozen                          !
 ! Z1    R(1,-3)                 0.0            Frozen                          !
 ! X2    R(2,-1)                 2.0822         Frozen                          !
 ! Y2    R(2,-2)                 0.0            Frozen                          !
 ! Z2    R(2,-3)                 0.0            Frozen                          !
 ! R1    R(1,4)                  1.095          estimate D2E/DX2                !
 ! R2    R(1,5)                  1.089          estimate D2E/DX2                !
 ! R3    R(1,6)                  1.0949         estimate D2E/DX2                !
 ! R4    R(2,3)                  0.9587         estimate D2E/DX2                !
 ! A1    A(2,1,4)              112.043          estimate D2E/DX2                !
 ! A2    A(2,1,5)              106.8632         estimate D2E/DX2                !
 ! A3    A(2,1,6)              112.0097         estimate D2E/DX2                !
 ! A4    A(4,1,5)              108.381          estimate D2E/DX2                !
 ! A5    A(4,1,6)              109.0137         estimate D2E/DX2                !
 ! A6    A(5,1,6)              108.3865         estimate D2E/DX2                !
 ! A7    A(1,2,3)              108.8771         estimate D2E/DX2                !
 ! D1    D(4,1,2,3)             61.4811         estimate D2E/DX2                !
 ! D2    D(5,1,2,3)           -179.9495         estimate D2E/DX2                !
 ! D3    D(6,1,2,3)            -61.3923         estimate D2E/DX2                !
 --------------------------------------------------------------------------------
 Trust Radius=3.00D-01 FncErr=1.00D-07 GrdErr=1.00D-07 EigMax=2.50D+02 EigMin=1.00D-04
 Number of steps in this run=     30 maximum allowed number of steps=    100.
 GradGradGradGradGradGradGradGradGradGradGradGradGradGradGradGradGradGrad

 Leave Link  103 at Mon Apr 21 18:45:34 2025, MaxMem=   536870912 cpu:               0.4 elap:               0.1
 (Enter /home/szhao/Apps/g16/l202.exe)
                          Input orientation:                          
 ---------------------------------------------------------------------
 Center     Atomic      Atomic             Coordinates (Angstroms)
 Number     Number       Type             X           Y           Z
 ---------------------------------------------------------------------
      1          6           0       -2.082203    0.000000    0.000000
      2          8           0        2.082203    0.000000    0.000000
      3          1           0        2.392391   -0.907170    0.000000
      4          1           0       -2.493141   -0.484570    0.891766
      5          1           0       -2.398117    1.042202   -0.000918
      6          1           0       -2.492532   -0.486043   -0.891183
 ---------------------------------------------------------------------
                    Distance matrix (angstroms):
                    1          2          3          4          5
     1  C    0.000000
     2  O    4.164405   0.000000
     3  H    4.565626   0.958736   0.000000
     4  H    1.094954   4.686558   4.984201   0.000000
     5  H    1.089031   4.599941   5.171945   1.771143   0.000000
     6  H    1.094904   4.686005   4.983375   1.782949   1.771164
                    6
     6  H    0.000000
 Symmetry turned off by external request.
 Stoichiometry    CH4O
 Framework group  C1[X(CH4O)]
 Deg. of freedom    12
 Full point group                 C1      NOp   1
 Rotational constants (GHZ):         128.0983525           3.4435380           3.4262282
 Leave Link  202 at Mon Apr 21 18:45:34 2025, MaxMem=   536870912 cpu:               0.3 elap:               0.1
 (Enter /home/szhao/Apps/g16/l301.exe)
 Standard basis: 6-311+G(d,p) (5D, 7F)
 Ernie: Thresh=  0.10000D-02 Tol=  0.10000D-05 Strict=F.
    68 basis functions,   104 primitive gaussians,    70 cartesian basis functions
     9 alpha electrons        9 beta electrons
       nuclear repulsion energy        23.8616293531 Hartrees.
 IExCor= 4336 DFT=T Ex+Corr=M062X ExCW=0 ScaHFX=  0.540000
 ScaDFX=  1.000000  1.000000  1.000000  1.000000 ScalE2=  1.000000  1.000000
 IRadAn=      7 IRanWt=     -1 IRanGd=            0 ICorTp=0 IEmpDi=  4
 NAtoms=    6 NActive=    6 NUniq=    6 SFac= 1.00D+00 NAtFMM=   60 NAOKFM=F Big=F
 Integral buffers will be    131072 words long.
 Raffenetti 2 integral format.
 Two-electron integral symmetry is turned off.
 Leave Link  301 at Mon Apr 21 18:45:34 2025, MaxMem=   536870912 cpu:               0.9 elap:               0.2
 (Enter /home/szhao/Apps/g16/l302.exe)
 NPDir=0 NMtPBC=     1 NCelOv=     1 NCel=       1 NClECP=     1 NCelD=      1
         NCelK=      1 NCelE2=     1 NClLst=     1 CellRange=     0.0.
 One-electron integrals computed using PRISM.
 NBasis=    68 RedAO= T EigKep=  6.35D-03  NBF=    68
 NBsUse=    68 1.00D-06 EigRej= -1.00D+00 NBFU=    68
 Precomputing XC quadrature grid using
 IXCGrd= 4 IRadAn=           7 IRanWt=          -1 IRanGd=           0 AccXCQ= 0.00D+00.
 Generated NRdTot=       0 NPtTot=           0 NUsed=           0 NTot=          32
 NSgBfM=    70    70    70    70    70 MxSgAt=     6 MxSgA2=     6.
 Leave Link  302 at Mon Apr 21 18:45:34 2025, MaxMem=   536870912 cpu:               2.3 elap:               0.4
 (Enter /home/szhao/Apps/g16/l303.exe)
 DipDrv:  MaxL=1.
 Leave Link  303 at Mon Apr 21 18:45:35 2025, MaxMem=   536870912 cpu:               0.7 elap:               0.2
 (Enter /home/szhao/Apps/g16/l401.exe)
 ExpMin= 4.38D-02 ExpMax= 8.59D+03 ExpMxC= 1.30D+03 IAcc=3 IRadAn=         7 AccDes= 0.00D+00
 Harris functional with IExCor= 1009 and IRadAn=       7 diagonalized for initial guess.
 HarFok:  IExCor= 1009 AccDes= 0.00D+00 IRadAn=         7 IDoV= 1 UseB2=F ITyADJ=14
 ICtDFT=  3500011 ScaDFX=  1.000000  1.000000  1.000000  1.000000
 FoFCou: FMM=F IPFlag=           0 FMFlag=      100000 FMFlg1=           0
         NFxFlg=           0 DoJE=T BraDBF=F KetDBF=T FulRan=T
         wScrn=  0.000000 ICntrl=       500 IOpCl=  0 I1Cent=   200000004 NGrid=           0
         NMat0=    1 NMatS0=      1 NMatT0=    0 NMatD0=    1 NMtDS0=    0 NMtDT0=    0
 Symmetry not used in FoFCou.
 Harris En= -115.513161761042    
 JPrj=0 DoOrth=F DoCkMO=F.
 Initial guess <Sx>= 0.0000 <Sy>= 0.0000 <Sz>= 0.0000 <S**2>=-0.0000 S=-0.0000
 Leave Link  401 at Mon Apr 21 18:45:35 2025, MaxMem=   536870912 cpu:               2.8 elap:               0.5
 (Enter /home/szhao/Apps/g16/l502.exe)
 Keep R1 and R2 ints in memory in canonical form, NReq=12681626.
 FoFCou: FMM=F IPFlag=           0 FMFlag=           0 FMFlg1=           0
         NFxFlg=           0 DoJE=F BraDBF=F KetDBF=F FulRan=T
         wScrn=  0.000000 ICntrl=       600 IOpCl=  0 I1Cent=           0 NGrid=           0
         NMat0=    1 NMatS0=   2346 NMatT0=    0 NMatD0=    1 NMtDS0=    0 NMtDT0=    0
 Symmetry not used in FoFCou.
 Two-electron integral symmetry not used.
 UHF open shell SCF:
 Using DIIS extrapolation, IDIIS=  1040.
 NGot=   536870912 LenX=   531353782 LenY=   531348441
 Requested convergence on RMS density matrix=1.00D-08 within 128 cycles.
 Requested convergence on MAX density matrix=1.00D-06.
 Requested convergence on             energy=1.00D-06.
 No special actions if energy rises.

 Cycle   1  Pass 1  IDiag  1:
 E= -115.109198696412    
 DIIS: error= 9.61D-02 at cycle   1 NSaved=   1.
 NSaved= 1 IEnMin= 1 EnMin= -115.109198696412     IErMin= 1 ErrMin= 9.61D-02
 ErrMax= 9.61D-02  0.00D+00 EMaxC= 1.00D-01 BMatC= 1.12D+00 BMatP= 1.12D+00
 IDIUse=3 WtCom= 3.85D-02 WtEn= 9.61D-01
 Coeff-Com:  0.100D+01
 Coeff-En:   0.100D+01
 Coeff:      0.100D+01
 Gap=    -0.538 Goal=   None    Shift=    0.000
 Gap=    -0.538 Goal=   None    Shift=    0.000
 GapD=   -0.538 DampG=0.250 DampE=0.500 DampFc=0.2500 IDamp=-1.
 Damping current iteration by 2.50D-01
 RMSDP=4.76D-02 MaxDP=2.21D+00              OVMax= 9.98D-01

 Cycle   2  Pass 1  IDiag  1:
 E= -115.140418359008     Delta-E=       -0.031219662596 Rises=F Damp=T
 DIIS: error= 2.24D-02 at cycle   2 NSaved=   2.
 NSaved= 2 IEnMin= 2 EnMin= -115.140418359008     IErMin= 2 ErrMin= 2.24D-02
 ErrMax= 2.24D-02  0.00D+00 EMaxC= 1.00D-01 BMatC= 1.06D-01 BMatP= 1.12D+00
 IDIUse=3 WtCom= 7.76D-01 WtEn= 2.24D-01
 Coeff-Com:  0.416D-01 0.958D+00
 Coeff-En:   0.463D+00 0.537D+00
 Coeff:      0.136D+00 0.864D+00
 Gap=     0.504 Goal=   None    Shift=    0.000
 Gap=     0.504 Goal=   None    Shift=    0.000
 RMSDP=1.17D-02 MaxDP=5.52D-01 DE=-3.12D-02 OVMax= 1.00D+00

 Cycle   3  Pass 1  IDiag  1:
 E= -115.248595955672     Delta-E=       -0.108177596664 Rises=F Damp=F
 DIIS: error= 4.02D-02 at cycle   3 NSaved=   3.
 NSaved= 3 IEnMin= 3 EnMin= -115.248595955672     IErMin= 2 ErrMin= 2.24D-02
 ErrMax= 4.02D-02  0.00D+00 EMaxC= 1.00D-01 BMatC= 2.85D-01 BMatP= 1.06D-01
 IDIUse=2 WtCom= 0.00D+00 WtEn= 1.00D+00
 Coeff-En:   0.000D+00 0.321D+00 0.679D+00
 Coeff:      0.000D+00 0.321D+00 0.679D+00
 Gap=    -0.197 Goal=   None    Shift=    0.000
 Gap=    -0.197 Goal=   None    Shift=    0.000
 RMSDP=1.07D-02 MaxDP=1.91D-01 DE=-1.08D-01 OVMax= 9.94D-01

 Cycle   4  Pass 1  IDiag  1:
 E= -114.355910395183     Delta-E=        0.892685560489 Rises=F Damp=F
 DIIS: error= 1.06D-01 at cycle   4 NSaved=   4.
 NSaved= 4 IEnMin= 3 EnMin= -115.248595955672     IErMin= 2 ErrMin= 2.24D-02
 ErrMax= 1.06D-01  0.00D+00 EMaxC= 1.00D-01 BMatC= 2.80D+00 BMatP= 1.06D-01
 IDIUse=2 WtCom= 0.00D+00 WtEn= 1.00D+00
 Coeff-En:   0.000D+00 0.000D+00 0.743D+00 0.257D+00
 Coeff:      0.000D+00 0.000D+00 0.743D+00 0.257D+00
 Gap=     0.054 Goal=   None    Shift=    0.000
 Gap=     0.054 Goal=   None    Shift=    0.000
 RMSDP=3.28D-03 MaxDP=4.74D-02 DE= 8.93D-01 OVMax= 1.19D-01

 Cycle   5  Pass 1  IDiag  1:
 E= -114.769922540563     Delta-E=       -0.414012145380 Rises=F Damp=F
 DIIS: error= 7.03D-02 at cycle   5 NSaved=   5.
 NSaved= 5 IEnMin= 3 EnMin= -115.248595955672     IErMin= 2 ErrMin= 2.24D-02
 ErrMax= 7.03D-02  0.00D+00 EMaxC= 1.00D-01 BMatC= 1.15D+00 BMatP= 1.06D-01
 IDIUse=2 WtCom= 0.00D+00 WtEn= 1.00D+00
 Coeff-En:   0.000D+00 0.000D+00 0.681D+00 0.000D+00 0.319D+00
 Coeff:      0.000D+00 0.000D+00 0.681D+00 0.000D+00 0.319D+00
 Gap=    -0.001 Goal=   None    Shift=    0.000
 Gap=    -0.001 Goal=   None    Shift=    0.000
 RMSDP=9.81D-03 MaxDP=1.81D-01 DE=-4.14D-01 OVMax= 1.00D+00

 Cycle   6  Pass 1  IDiag  1:
 E= -115.274835831516     Delta-E=       -0.504913290953 Rises=F Damp=F
 DIIS: error= 3.37D-02 at cycle   6 NSaved=   6.
 NSaved= 6 IEnMin= 6 EnMin= -115.274835831516     IErMin= 2 ErrMin= 2.24D-02
 ErrMax= 3.37D-02  0.00D+00 EMaxC= 1.00D-01 BMatC= 2.25D-01 BMatP= 1.06D-01
 IDIUse=2 WtCom= 0.00D+00 WtEn= 1.00D+00
 Coeff-En:   0.000D+00 0.000D+00 0.000D+00 0.000D+00 0.298D+00 0.702D+00
 Coeff:      0.000D+00 0.000D+00 0.000D+00 0.000D+00 0.298D+00 0.702D+00
 Gap=    -0.000 Goal=   None    Shift=    0.000
 Gap=    -0.000 Goal=   None    Shift=    0.000
 RMSDP=8.90D-03 MaxDP=1.50D-01 DE=-5.05D-01 OVMax= 9.07D-01

 Cycle   7  Pass 1  IDiag  1:
 E= -115.078359330657     Delta-E=        0.196476500859 Rises=F Damp=F
 DIIS: error= 8.27D-02 at cycle   7 NSaved=   7.
 NSaved= 7 IEnMin= 6 EnMin= -115.274835831516     IErMin= 2 ErrMin= 2.24D-02
 ErrMax= 8.27D-02  0.00D+00 EMaxC= 1.00D-01 BMatC= 8.75D-01 BMatP= 1.06D-01
 IDIUse=2 WtCom= 0.00D+00 WtEn= 1.00D+00
 Coeff-En:   0.000D+00 0.000D+00 0.000D+00 0.000D+00 0.000D+00 0.622D+00
 Coeff-En:   0.378D+00
 Coeff:      0.000D+00 0.000D+00 0.000D+00 0.000D+00 0.000D+00 0.622D+00
 Coeff:      0.378D+00
 Gap=     0.008 Goal=   None    Shift=    0.000
 Gap=     0.008 Goal=   None    Shift=    0.000
 RMSDP=5.81D-03 MaxDP=1.08D-01 DE= 1.96D-01 OVMax= 5.89D-01

 Cycle   8  Pass 1  IDiag  1:
 E= -115.408654040959     Delta-E=       -0.330294710303 Rises=F Damp=F
 DIIS: error= 1.85D-02 at cycle   8 NSaved=   8.
 NSaved= 8 IEnMin= 8 EnMin= -115.408654040959     IErMin= 8 ErrMin= 1.85D-02
 ErrMax= 1.85D-02  0.00D+00 EMaxC= 1.00D-01 BMatC= 2.84D-02 BMatP= 1.06D-01
 IDIUse=3 WtCom= 8.15D-01 WtEn= 1.85D-01
 Coeff-Com: -0.210D-01 0.322D-01 0.420D-01-0.689D-02-0.941D-01-0.157D+00
 Coeff-Com:  0.207D+00 0.997D+00
 Coeff-En:   0.000D+00 0.000D+00 0.000D+00 0.000D+00 0.000D+00 0.000D+00
 Coeff-En:   0.116D+00 0.884D+00
 Coeff:     -0.172D-01 0.263D-01 0.343D-01-0.562D-02-0.768D-01-0.128D+00
 Coeff:      0.191D+00 0.976D+00
 Gap=     0.066 Goal=   None    Shift=    0.000
 Gap=     0.066 Goal=   None    Shift=    0.000
 RMSDP=2.23D-03 MaxDP=3.74D-02 DE=-3.30D-01 OVMax= 2.25D-01

 Cycle   9  Pass 1  IDiag  1:
 E= -115.402354938207     Delta-E=        0.006299102752 Rises=F Damp=F
 DIIS: error= 2.54D-02 at cycle   9 NSaved=   9.
 NSaved= 9 IEnMin= 8 EnMin= -115.408654040959     IErMin= 8 ErrMin= 1.85D-02
 ErrMax= 2.54D-02  0.00D+00 EMaxC= 1.00D-01 BMatC= 7.10D-02 BMatP= 2.84D-02
 IDIUse=2 WtCom= 0.00D+00 WtEn= 1.00D+00
 Coeff-En:   0.000D+00 0.000D+00 0.000D+00 0.000D+00 0.000D+00 0.000D+00
 Coeff-En:   0.000D+00 0.556D+00 0.444D+00
 Coeff:      0.000D+00 0.000D+00 0.000D+00 0.000D+00 0.000D+00 0.000D+00
 Coeff:      0.000D+00 0.556D+00 0.444D+00
 Gap=     0.071 Goal=   None    Shift=    0.000
 Gap=     0.071 Goal=   None    Shift=    0.000
 RMSDP=1.36D-03 MaxDP=2.55D-02 DE= 6.30D-03 OVMax= 1.34D-01

 Cycle  10  Pass 1  IDiag  1:
 E= -115.421849288031     Delta-E=       -0.019494349824 Rises=F Damp=F
 DIIS: error= 5.32D-03 at cycle  10 NSaved=  10.
 NSaved=10 IEnMin=10 EnMin= -115.421849288031     IErMin=10 ErrMin= 5.32D-03
 ErrMax= 5.32D-03  0.00D+00 EMaxC= 1.00D-01 BMatC= 3.03D-03 BMatP= 2.84D-02
 IDIUse=3 WtCom= 9.47D-01 WtEn= 5.32D-02
 Coeff-Com: -0.944D-02 0.144D-01 0.259D-01 0.181D-02 0.220D-01 0.210D-01
 Coeff-Com: -0.773D-01-0.148D+00 0.307D+00 0.843D+00
 Coeff-En:   0.000D+00 0.000D+00 0.000D+00 0.000D+00 0.000D+00 0.000D+00
 Coeff-En:   0.000D+00 0.000D+00 0.127D+00 0.873D+00
 Coeff:     -0.893D-02 0.136D-01 0.246D-01 0.171D-02 0.209D-01 0.199D-01
 Coeff:     -0.732D-01-0.140D+00 0.297D+00 0.845D+00
 Gap=     0.072 Goal=   None    Shift=    0.000
 Gap=     0.072 Goal=   None    Shift=    0.000
 RMSDP=4.80D-04 MaxDP=5.85D-03 DE=-1.95D-02 OVMax= 3.45D-02

 Cycle  11  Pass 1  IDiag  1:
 E= -115.423141992100     Delta-E=       -0.001292704069 Rises=F Damp=F
 DIIS: error= 2.54D-03 at cycle  11 NSaved=  11.
 NSaved=11 IEnMin=11 EnMin= -115.423141992100     IErMin=11 ErrMin= 2.54D-03
 ErrMax= 2.54D-03  0.00D+00 EMaxC= 1.00D-01 BMatC= 7.43D-04 BMatP= 3.03D-03
 IDIUse=3 WtCom= 9.75D-01 WtEn= 2.54D-02
 Coeff-Com:  0.644D-03 0.130D-02 0.834D-02 0.767D-03 0.267D-01 0.350D-01
 Coeff-Com: -0.655D-01-0.174D+00 0.273D-01 0.138D+00 0.100D+01
 Coeff-En:   0.000D+00 0.000D+00 0.000D+00 0.000D+00 0.000D+00 0.000D+00
 Coeff-En:   0.000D+00 0.000D+00 0.000D+00 0.000D+00 0.100D+01
 Coeff:      0.627D-03 0.127D-02 0.813D-02 0.747D-03 0.260D-01 0.341D-01
 Coeff:     -0.639D-01-0.169D+00 0.267D-01 0.135D+00 0.100D+01
 Gap=     0.074 Goal=   None    Shift=    0.000
 Gap=     0.074 Goal=   None    Shift=    0.000
 RMSDP=3.94D-04 MaxDP=4.88D-03 DE=-1.29D-03 OVMax= 3.87D-02

 Cycle  12  Pass 1  IDiag  1:
 E= -115.423850208798     Delta-E=       -0.000708216699 Rises=F Damp=F
 DIIS: error= 1.78D-03 at cycle  12 NSaved=  12.
 NSaved=12 IEnMin=12 EnMin= -115.423850208798     IErMin=12 ErrMin= 1.78D-03
 ErrMax= 1.78D-03  0.00D+00 EMaxC= 1.00D-01 BMatC= 2.47D-04 BMatP= 7.43D-04
 IDIUse=3 WtCom= 9.82D-01 WtEn= 1.78D-02
 Coeff-Com:  0.927D-02-0.729D-02 0.161D-01 0.214D-02 0.198D-01-0.569D-02
 Coeff-Com: -0.492D-01-0.901D-01 0.773D-01 0.108D+00-0.280D+00 0.120D+01
 Coeff-En:   0.000D+00 0.000D+00 0.000D+00 0.000D+00 0.000D+00 0.000D+00
 Coeff-En:   0.000D+00 0.000D+00 0.000D+00 0.000D+00 0.000D+00 0.100D+01
 Coeff:      0.910D-02-0.716D-02 0.158D-01 0.210D-02 0.194D-01-0.559D-02
 Coeff:     -0.483D-01-0.885D-01 0.759D-01 0.106D+00-0.275D+00 0.120D+01
 Gap=     0.077 Goal=   None    Shift=    0.000
 Gap=     0.077 Goal=   None    Shift=    0.000
 RMSDP=3.71D-04 MaxDP=4.93D-03 DE=-7.08D-04 OVMax= 3.47D-02

 Cycle  13  Pass 1  IDiag  1:
 E= -115.424361369902     Delta-E=       -0.000511161104 Rises=F Damp=F
 DIIS: error= 1.79D-03 at cycle  13 NSaved=  13.
 NSaved=13 IEnMin=13 EnMin= -115.424361369902     IErMin=12 ErrMin= 1.78D-03
 ErrMax= 1.79D-03  0.00D+00 EMaxC= 1.00D-01 BMatC= 2.82D-04 BMatP= 2.47D-04
 IDIUse=3 WtCom= 9.82D-01 WtEn= 1.78D-02
 Coeff-Com:  0.143D-01-0.134D-01 0.274D-01-0.954D-04 0.277D-01-0.341D-01
 Coeff-Com: -0.701D-01 0.258D-02 0.289D+00-0.179D+00-0.649D+00 0.133D+00
 Coeff-Com:  0.145D+01
 Coeff-En:   0.000D+00 0.000D+00 0.000D+00 0.000D+00 0.000D+00 0.000D+00
 Coeff-En:   0.000D+00 0.000D+00 0.000D+00 0.000D+00 0.000D+00 0.000D+00
 Coeff-En:   0.100D+01
 Coeff:      0.141D-01-0.132D-01 0.269D-01-0.937D-04 0.272D-01-0.335D-01
 Coeff:     -0.689D-01 0.254D-02 0.284D+00-0.176D+00-0.637D+00 0.130D+00
 Coeff:      0.144D+01
 Gap=     0.078 Goal=   None    Shift=    0.000
 Gap=     0.078 Goal=   None    Shift=    0.000
 RMSDP=5.37D-04 MaxDP=6.51D-03 DE=-5.11D-04 OVMax= 5.40D-02

 Cycle  14  Pass 1  IDiag  1:
 E= -115.425192648054     Delta-E=       -0.000831278151 Rises=F Damp=F
 DIIS: error= 1.26D-03 at cycle  14 NSaved=  14.
 NSaved=14 IEnMin=14 EnMin= -115.425192648054     IErMin=14 ErrMin= 1.26D-03
 ErrMax= 1.26D-03  0.00D+00 EMaxC= 1.00D-01 BMatC= 1.33D-04 BMatP= 2.47D-04
 IDIUse=3 WtCom= 9.87D-01 WtEn= 1.26D-02
 Coeff-Com:  0.151D-01-0.156D-01 0.227D-01-0.105D-02 0.235D-01-0.346D-01
 Coeff-Com: -0.499D-01 0.619D-01 0.189D+00-0.191D+00-0.377D+00 0.223D+00
 Coeff-Com:  0.650D-01 0.107D+01
 Coeff-En:   0.000D+00 0.000D+00 0.000D+00 0.000D+00 0.000D+00 0.000D+00
 Coeff-En:   0.000D+00 0.000D+00 0.000D+00 0.000D+00 0.000D+00 0.000D+00
 Coeff-En:   0.000D+00 0.100D+01
 Coeff:      0.149D-01-0.154D-01 0.224D-01-0.104D-02 0.232D-01-0.342D-01
 Coeff:     -0.493D-01 0.611D-01 0.186D+00-0.189D+00-0.373D+00 0.220D+00
 Coeff:      0.642D-01 0.107D+01
 Gap=     0.079 Goal=   None    Shift=    0.000
 Gap=     0.079 Goal=   None    Shift=    0.000
 RMSDP=3.75D-04 MaxDP=4.29D-03 DE=-8.31D-04 OVMax= 3.78D-02

 Cycle  15  Pass 1  IDiag  1:
 E= -115.425728084648     Delta-E=       -0.000535436594 Rises=F Damp=F
 DIIS: error= 1.08D-03 at cycle  15 NSaved=  15.
 NSaved=15 IEnMin=15 EnMin= -115.425728084648     IErMin=15 ErrMin= 1.08D-03
 ErrMax= 1.08D-03  0.00D+00 EMaxC= 1.00D-01 BMatC= 1.04D-04 BMatP= 1.33D-04
 IDIUse=3 WtCom= 9.89D-01 WtEn= 1.08D-02
 Coeff-Com: -0.370D-04-0.347D-02 0.133D-01 0.821D-03 0.153D-01 0.680D-02
 Coeff-Com: -0.291D-01-0.474D-02-0.317D-01-0.129D+00 0.223D+00 0.644D+00
 Coeff-Com:  0.358D+00-0.678D+01 0.672D+01
 Coeff-En:   0.000D+00 0.000D+00 0.000D+00 0.000D+00 0.000D+00 0.000D+00
 Coeff-En:   0.000D+00 0.000D+00 0.000D+00 0.000D+00 0.000D+00 0.000D+00
 Coeff-En:   0.000D+00 0.000D+00 0.100D+01
 Coeff:     -0.366D-04-0.343D-02 0.132D-01 0.812D-03 0.151D-01 0.673D-02
 Coeff:     -0.288D-01-0.469D-02-0.314D-01-0.128D+00 0.221D+00 0.637D+00
 Coeff:      0.355D+00-0.671D+01 0.666D+01
 Gap=     0.080 Goal=   None    Shift=    0.000
 Gap=     0.080 Goal=   None    Shift=    0.000
 RMSDP=1.59D-03 MaxDP=2.11D-02 DE=-5.35D-04 OVMax= 1.56D-01

 Cycle  16  Pass 1  IDiag  1:
 E= -115.426291976000     Delta-E=       -0.000563891352 Rises=F Damp=F
 DIIS: error= 5.90D-03 at cycle  16 NSaved=  16.
 NSaved=16 IEnMin=16 EnMin= -115.426291976000     IErMin=15 ErrMin= 1.08D-03
 ErrMax= 5.90D-03  0.00D+00 EMaxC= 1.00D-01 BMatC= 4.13D-03 BMatP= 1.04D-04
 IDIUse=3 WtCom= 9.89D-01 WtEn= 1.08D-02
 Coeff-Com: -0.719D-03-0.195D-02 0.108D-01 0.113D-02 0.201D-01 0.235D-01
 Coeff-Com: -0.386D-01-0.293D-01-0.143D+00-0.153D+00 0.567D+00 0.161D+01
 Coeff-Com: -0.134D+01-0.838D+01 0.903D+01-0.188D+00
 Coeff-En:   0.000D+00 0.000D+00 0.000D+00 0.000D+00 0.000D+00 0.000D+00
 Coeff-En:   0.000D+00 0.000D+00 0.000D+00 0.000D+00 0.000D+00 0.000D+00
 Coeff-En:   0.000D+00 0.000D+00 0.000D+00 0.100D+01
 Coeff:     -0.712D-03-0.193D-02 0.107D-01 0.111D-02 0.199D-01 0.232D-01
 Coeff:     -0.381D-01-0.290D-01-0.142D+00-0.152D+00 0.561D+00 0.159D+01
 Coeff:     -0.132D+01-0.829D+01 0.894D+01-0.175D+00
 Gap=     0.081 Goal=   None    Shift=    0.000
 Gap=     0.081 Goal=   None    Shift=    0.000
 RMSDP=4.74D-04 MaxDP=7.61D-03 DE=-5.64D-04 OVMax= 3.65D-02

 Cycle  17  Pass 1  IDiag  1:
 E= -115.422124050488     Delta-E=        0.004167925512 Rises=F Damp=F
 DIIS: error= 1.35D-02 at cycle  17 NSaved=  17.
 NSaved=17 IEnMin=16 EnMin= -115.426291976000     IErMin=15 ErrMin= 1.08D-03
 ErrMax= 1.35D-02  0.00D+00 EMaxC= 1.00D-01 BMatC= 1.77D-02 BMatP= 1.04D-04
 IDIUse=2 WtCom= 0.00D+00 WtEn= 1.00D+00
 Rare condition: small coef for last iteration:  0.000D+00
 Coeff-En:   0.000D+00 0.000D+00 0.000D+00 0.000D+00 0.000D+00 0.275D-01
 Coeff-En:   0.000D+00 0.000D+00 0.000D+00 0.000D+00 0.000D+00 0.000D+00
 Coeff-En:   0.000D+00 0.000D+00 0.000D+00 0.000D+00 0.973D+00
 Coeff:      0.000D+00 0.000D+00 0.000D+00 0.000D+00 0.000D+00 0.275D-01
 Coeff:      0.000D+00 0.000D+00 0.000D+00 0.000D+00 0.000D+00 0.000D+00
 Coeff:      0.000D+00 0.000D+00 0.000D+00 0.000D+00 0.973D+00
 Gap=     0.092 Goal=   None    Shift=    0.000
 Gap=     0.092 Goal=   None    Shift=    0.000
 RMSDP=3.46D-03 MaxDP=4.89D-02 DE= 4.17D-03 OVMax= 3.47D-01

 Cycle  18  Pass 1  IDiag  1:
 E= -115.315913215695     Delta-E=        0.106210834792 Rises=F Damp=F
 DIIS: error= 4.30D-02 at cycle  18 NSaved=  18.
 NSaved=18 IEnMin=16 EnMin= -115.426291976000     IErMin=15 ErrMin= 1.08D-03
 ErrMax= 4.30D-02  0.00D+00 EMaxC= 1.00D-01 BMatC= 3.51D-01 BMatP= 1.04D-04
 IDIUse=2 WtCom= 0.00D+00 WtEn= 1.00D+00
 Coeff-En:   0.000D+00 0.000D+00 0.000D+00 0.000D+00 0.000D+00 0.000D+00
 Coeff-En:   0.000D+00 0.000D+00 0.000D+00 0.000D+00 0.000D+00 0.000D+00
 Coeff-En:   0.000D+00 0.000D+00 0.000D+00 0.000D+00 0.866D+00 0.134D+00
 Coeff:      0.000D+00 0.000D+00 0.000D+00 0.000D+00 0.000D+00 0.000D+00
 Coeff:      0.000D+00 0.000D+00 0.000D+00 0.000D+00 0.000D+00 0.000D+00
 Coeff:      0.000D+00 0.000D+00 0.000D+00 0.000D+00 0.866D+00 0.134D+00
 Gap=     0.086 Goal=   None    Shift=    0.000
 Gap=     0.086 Goal=   None    Shift=    0.000
 RMSDP=1.58D-03 MaxDP=1.93D-02 DE= 1.06D-01 OVMax= 1.55D-01

 Cycle  19  Pass 1  IDiag  1:
 E= -115.402964417972     Delta-E=       -0.087051202277 Rises=F Damp=F
 DIIS: error= 2.60D-02 at cycle  19 NSaved=  19.
 NSaved=19 IEnMin=16 EnMin= -115.426291976000     IErMin=15 ErrMin= 1.08D-03
 ErrMax= 2.60D-02  0.00D+00 EMaxC= 1.00D-01 BMatC= 7.91D-02 BMatP= 1.04D-04
 IDIUse=2 WtCom= 0.00D+00 WtEn= 1.00D+00
 EnCoef did   100 forward-backward iterations
 Coeff-En:   0.000D+00 0.000D+00 0.000D+00 0.000D+00 0.000D+00 0.000D+00
 Coeff-En:   0.000D+00 0.000D+00 0.000D+00 0.000D+00 0.000D+00 0.000D+00
 Coeff-En:   0.000D+00 0.000D+00 0.000D+00 0.849D+00 0.746D-02 0.000D+00
 Coeff-En:   0.144D+00
 Coeff:      0.000D+00 0.000D+00 0.000D+00 0.000D+00 0.000D+00 0.000D+00
 Coeff:      0.000D+00 0.000D+00 0.000D+00 0.000D+00 0.000D+00 0.000D+00
 Coeff:      0.000D+00 0.000D+00 0.000D+00 0.849D+00 0.746D-02 0.000D+00
 Coeff:      0.144D+00
 Gap=     0.084 Goal=   None    Shift=    0.000
 Gap=     0.084 Goal=   None    Shift=    0.000
 RMSDP=7.77D-04 MaxDP=1.05D-02 DE=-8.71D-02 OVMax= 7.55D-02

 Cycle  20  Pass 1  IDiag  1:
 E= -115.422683031440     Delta-E=       -0.019718613468 Rises=F Damp=F
 DIIS: error= 1.27D-02 at cycle  20 NSaved=  20.
 NSaved=20 IEnMin=16 EnMin= -115.426291976000     IErMin=15 ErrMin= 1.08D-03
 ErrMax= 1.27D-02  0.00D+00 EMaxC= 1.00D-01 BMatC= 1.73D-02 BMatP= 1.04D-04
 IDIUse=2 WtCom= 0.00D+00 WtEn= 1.00D+00
 Coeff-En:   0.000D+00 0.000D+00 0.000D+00 0.000D+00 0.000D+00 0.000D+00
 Coeff-En:   0.000D+00 0.000D+00 0.000D+00 0.000D+00 0.000D+00 0.000D+00
 Coeff-En:   0.000D+00 0.000D+00 0.000D+00 0.000D+00 0.486D+00 0.000D+00
 Coeff-En:   0.000D+00 0.514D+00
 Coeff:      0.000D+00 0.000D+00 0.000D+00 0.000D+00 0.000D+00 0.000D+00
 Coeff:      0.000D+00 0.000D+00 0.000D+00 0.000D+00 0.000D+00 0.000D+00
 Coeff:      0.000D+00 0.000D+00 0.000D+00 0.000D+00 0.486D+00 0.000D+00
 Coeff:      0.000D+00 0.514D+00
 Gap=     0.081 Goal=   None    Shift=    0.000
 Gap=     0.081 Goal=   None    Shift=    0.000
 RMSDP=5.83D-04 MaxDP=8.84D-03 DE=-1.97D-02 OVMax= 5.50D-02

 Cycle  21  Pass 1  IDiag  1:
 E= -115.428155926380     Delta-E=       -0.005472894939 Rises=F Damp=F
 DIIS: error= 1.14D-03 at cycle  21 NSaved=  20.
 NSaved=20 IEnMin=20 EnMin= -115.428155926380     IErMin=14 ErrMin= 1.08D-03
 ErrMax= 1.14D-03  0.00D+00 EMaxC= 1.00D-01 BMatC= 7.82D-05 BMatP= 1.04D-04
 IDIUse=3 WtCom= 9.89D-01 WtEn= 1.08D-02
 Coeff-Com: -0.639D-03-0.369D-03-0.248D-02 0.102D-01 0.122D-01-0.119D-01
 Coeff-Com: -0.911D-02-0.553D-01 0.151D+00-0.309D+00 0.643D+00 0.687D+00
 Coeff-Com: -0.684D+00-0.212D+01 0.378D+01-0.168D+01 0.259D-01 0.789D-01
 Coeff-Com: -0.307D+00 0.796D+00
 Coeff-En:   0.000D+00 0.000D+00 0.000D+00 0.000D+00 0.000D+00 0.000D+00
 Coeff-En:   0.000D+00 0.000D+00 0.000D+00 0.000D+00 0.000D+00 0.000D+00
 Coeff-En:   0.000D+00 0.000D+00 0.000D+00 0.000D+00 0.000D+00 0.000D+00
 Coeff-En:   0.000D+00 0.100D+01
 Coeff:     -0.632D-03-0.365D-03-0.245D-02 0.100D-01 0.120D-01-0.118D-01
 Coeff:     -0.901D-02-0.547D-01 0.149D+00-0.306D+00 0.636D+00 0.680D+00
 Coeff:     -0.677D+00-0.210D+01 0.374D+01-0.166D+01 0.256D-01 0.781D-01
 Coeff:     -0.304D+00 0.798D+00
 Gap=     0.082 Goal=   None    Shift=    0.000
 Gap=     0.082 Goal=   None    Shift=    0.000
 RMSDP=1.35D-03 MaxDP=2.18D-02 DE=-5.47D-03 OVMax= 1.15D-01

 Cycle  22  Pass 1  IDiag  1:
 E= -115.422611927659     Delta-E=        0.005543998720 Rises=F Damp=F
 DIIS: error= 1.65D-02 at cycle  22 NSaved=  20.
 NSaved=20 IEnMin=19 EnMin= -115.428155926380     IErMin=13 ErrMin= 1.08D-03
 ErrMax= 1.65D-02  0.00D+00 EMaxC= 1.00D-01 BMatC= 1.98D-02 BMatP= 7.82D-05
 IDIUse=2 WtCom= 0.00D+00 WtEn= 1.00D+00
 Rare condition: small coef for last iteration:  0.000D+00
 Coeff-En:   0.000D+00 0.000D+00 0.000D+00 0.000D+00 0.000D+00 0.000D+00
 Coeff-En:   0.000D+00 0.000D+00 0.000D+00 0.000D+00 0.000D+00 0.000D+00
 Coeff-En:   0.000D+00 0.000D+00 0.000D+00 0.000D+00 0.000D+00 0.502D+00
 Coeff-En:   0.000D+00 0.498D+00
 Coeff:      0.000D+00 0.000D+00 0.000D+00 0.000D+00 0.000D+00 0.000D+00
 Coeff:      0.000D+00 0.000D+00 0.000D+00 0.000D+00 0.000D+00 0.000D+00
 Coeff:      0.000D+00 0.000D+00 0.000D+00 0.000D+00 0.000D+00 0.502D+00
 Coeff:      0.000D+00 0.498D+00
 Gap=     0.082 Goal=   None    Shift=    0.000
 Gap=     0.082 Goal=   None    Shift=    0.000
 RMSDP=1.09D-03 MaxDP=1.85D-02 DE= 5.54D-03 OVMax= 1.01D-01

 Cycle  23  Pass 1  IDiag  1:
 E= -115.427228744029     Delta-E=       -0.004616816369 Rises=F Damp=F
 DIIS: error= 8.19D-03 at cycle  23 NSaved=  20.
 NSaved=20 IEnMin=20 EnMin= -115.427228744029     IErMin=13 ErrMin= 1.08D-03
 ErrMax= 8.19D-03  0.00D+00 EMaxC= 1.00D-01 BMatC= 4.95D-03 BMatP= 1.04D-04
 IDIUse=3 WtCom= 9.89D-01 WtEn= 1.08D-02
 Coeff-Com:  0.105D-02-0.118D-02-0.511D-02 0.143D-01 0.178D-01-0.101D-01
 Coeff-Com: -0.168D+00 0.119D+00 0.306D+00 0.366D+00-0.678D-01-0.741D+00
 Coeff-Com: -0.110D+01 0.555D+01-0.340D+01 0.689D-02 0.371D+00-0.983D+00
 Coeff-Com:  0.658D+00 0.603D-01
 Coeff-En:   0.000D+00 0.000D+00 0.000D+00 0.000D+00 0.000D+00 0.000D+00
 Coeff-En:   0.000D+00 0.000D+00 0.000D+00 0.000D+00 0.000D+00 0.000D+00
 Coeff-En:   0.000D+00 0.000D+00 0.000D+00 0.000D+00 0.000D+00 0.000D+00
 Coeff-En:   0.312D+00 0.688D+00
 Coeff:      0.103D-02-0.116D-02-0.505D-02 0.141D-01 0.176D-01-0.100D-01
 Coeff:     -0.166D+00 0.118D+00 0.303D+00 0.362D+00-0.671D-01-0.733D+00
 Coeff:     -0.109D+01 0.549D+01-0.336D+01 0.682D-02 0.367D+00-0.972D+00
 Coeff:      0.654D+00 0.671D-01
 Gap=     0.082 Goal=   None    Shift=    0.000
 Gap=     0.081 Goal=   None    Shift=    0.000
 RMSDP=7.83D-04 MaxDP=1.35D-02 DE=-4.62D-03 OVMax= 7.11D-02

 Cycle  24  Pass 1  IDiag  1:
 E= -115.427309350049     Delta-E=       -0.000080606021 Rises=F Damp=F
 DIIS: error= 8.93D-03 at cycle  24 NSaved=  20.
 NSaved=20 IEnMin=20 EnMin= -115.427309350049     IErMin=12 ErrMin= 1.08D-03
 ErrMax= 8.93D-03  0.00D+00 EMaxC= 1.00D-01 BMatC= 5.79D-03 BMatP= 1.04D-04
 IDIUse=3 WtCom= 9.89D-01 WtEn= 1.08D-02
 Coeff-Com:  0.162D-03-0.658D-03-0.701D-02 0.104D-01 0.388D-01-0.530D-02
 Coeff-Com:  0.662D-01-0.310D-01 0.588D+00-0.300D+00 0.219D+01-0.370D+01
 Coeff-Com:  0.387D+01-0.244D+01 0.295D-01 0.235D-01-0.298D+00 0.962D+00
 Coeff-Com:  0.515D+00-0.516D+00
 Coeff-En:   0.000D+00 0.000D+00 0.000D+00 0.000D+00 0.000D+00 0.000D+00
 Coeff-En:   0.000D+00 0.000D+00 0.000D+00 0.000D+00 0.000D+00 0.000D+00
 Coeff-En:   0.000D+00 0.000D+00 0.000D+00 0.000D+00 0.000D+00 0.000D+00
 Coeff-En:   0.493D+00 0.507D+00
 Coeff:      0.160D-03-0.651D-03-0.693D-02 0.102D-01 0.384D-01-0.524D-02
 Coeff:      0.654D-01-0.307D-01 0.581D+00-0.297D+00 0.217D+01-0.366D+01
 Coeff:      0.383D+01-0.241D+01 0.292D-01 0.233D-01-0.294D+00 0.951D+00
 Coeff:      0.515D+00-0.505D+00
 Gap=     0.080 Goal=   None    Shift=    0.000
 Gap=     0.079 Goal=   None    Shift=    0.000
 RMSDP=7.03D-04 MaxDP=1.13D-02 DE=-8.06D-05 OVMax= 7.00D-02

 Cycle  25  Pass 1  IDiag  1:
 E= -115.427797644213     Delta-E=       -0.000488294163 Rises=F Damp=F
 DIIS: error= 7.18D-03 at cycle  25 NSaved=  20.
 NSaved=20 IEnMin=20 EnMin= -115.427797644213     IErMin=11 ErrMin= 1.08D-03
 ErrMax= 7.18D-03  0.00D+00 EMaxC= 1.00D-01 BMatC= 2.91D-03 BMatP= 1.04D-04
 IDIUse=3 WtCom= 9.89D-01 WtEn= 1.08D-02
 Coeff-Com: -0.936D-03-0.110D-01-0.393D-02 0.648D-01-0.447D-01 0.546D-01
 Coeff-Com: -0.236D+00 0.582D+00-0.159D+01 0.314D+01-0.423D+01 0.494D+01
 Coeff-Com: -0.288D+01 0.767D-01-0.132D+00-0.374D+00 0.183D+01 0.585D+00
 Coeff-Com: -0.187D+01 0.108D+01
 Coeff-En:   0.000D+00 0.000D+00 0.000D+00 0.000D+00 0.000D+00 0.000D+00
 Coeff-En:   0.000D+00 0.000D+00 0.000D+00 0.000D+00 0.000D+00 0.000D+00
 Coeff-En:   0.000D+00 0.000D+00 0.000D+00 0.000D+00 0.000D+00 0.000D+00
 Coeff-En:   0.451D+00 0.549D+00
 Coeff:     -0.926D-03-0.109D-01-0.388D-02 0.641D-01-0.442D-01 0.540D-01
 Coeff:     -0.234D+00 0.576D+00-0.157D+01 0.311D+01-0.418D+01 0.488D+01
 Coeff:     -0.284D+01 0.759D-01-0.131D+00-0.370D+00 0.181D+01 0.579D+00
 Coeff:     -0.184D+01 0.107D+01
 Gap=     0.084 Goal=   None    Shift=    0.000
 Gap=     0.085 Goal=   None    Shift=    0.000
 RMSDP=2.86D-03 MaxDP=5.05D-02 DE=-4.88D-04 OVMax= 2.45D-01

 Cycle  26  Pass 1  IDiag  1:
 E= -115.369256351143     Delta-E=        0.058541293069 Rises=F Damp=F
 DIIS: error= 5.37D-02 at cycle  26 NSaved=  20.
 NSaved=20 IEnMin=19 EnMin= -115.427797644213     IErMin=10 ErrMin= 1.08D-03
 ErrMax= 5.37D-02  0.00D+00 EMaxC= 1.00D-01 BMatC= 1.74D-01 BMatP= 1.04D-04
 IDIUse=2 WtCom= 0.00D+00 WtEn= 1.00D+00
 Rare condition: small coef for last iteration:  0.000D+00
 Coeff-En:   0.000D+00 0.000D+00 0.000D+00 0.000D+00 0.000D+00 0.000D+00
 Coeff-En:   0.000D+00 0.000D+00 0.000D+00 0.000D+00 0.000D+00 0.000D+00
 Coeff-En:   0.000D+00 0.000D+00 0.000D+00 0.000D+00 0.000D+00 0.445D+00
 Coeff-En:   0.548D+00 0.754D-02
 Coeff:      0.000D+00 0.000D+00 0.000D+00 0.000D+00 0.000D+00 0.000D+00
 Coeff:      0.000D+00 0.000D+00 0.000D+00 0.000D+00 0.000D+00 0.000D+00
 Coeff:      0.000D+00 0.000D+00 0.000D+00 0.000D+00 0.000D+00 0.445D+00
 Coeff:      0.548D+00 0.754D-02
 Gap=     0.072 Goal=   None    Shift=    0.000
 Gap=     0.073 Goal=   None    Shift=    0.000
 RMSDP=2.61D-03 MaxDP=4.90D-02 DE= 5.85D-02 OVMax= 2.29D-01

 Cycle  27  Pass 1  IDiag  1:
 E= -115.428895394474     Delta-E=       -0.059639043330 Rises=F Damp=F
 DIIS: error= 6.29D-03 at cycle  27 NSaved=  20.
 NSaved=20 IEnMin=20 EnMin= -115.428895394474     IErMin=10 ErrMin= 1.08D-03
 ErrMax= 6.29D-03  0.00D+00 EMaxC= 1.00D-01 BMatC= 1.84D-03 BMatP= 1.04D-04
 IDIUse=3 WtCom= 9.89D-01 WtEn= 1.08D-02
 Coeff-Com: -0.650D-02-0.114D-01 0.510D-01 0.395D-01 0.203D-01-0.159D+00
 Coeff-Com:  0.339D+00-0.800D+00 0.376D+01-0.380D+01-0.230D+01 0.137D+01
 Coeff-Com:  0.935D-01-0.610D+00 0.993D+00-0.452D+00 0.159D+01 0.188D+01
 Coeff-Com: -0.987D-01-0.893D+00
 Coeff-En:   0.000D+00 0.000D+00 0.000D+00 0.000D+00 0.000D+00 0.000D+00
 Coeff-En:   0.000D+00 0.000D+00 0.000D+00 0.000D+00 0.000D+00 0.000D+00
 Coeff-En:   0.000D+00 0.000D+00 0.000D+00 0.000D+00 0.000D+00 0.280D+00
 Coeff-En:   0.000D+00 0.720D+00
 Coeff:     -0.643D-02-0.113D-01 0.505D-01 0.391D-01 0.200D-01-0.158D+00
 Coeff:      0.335D+00-0.791D+00 0.372D+01-0.376D+01-0.227D+01 0.135D+01
 Coeff:      0.925D-01-0.604D+00 0.982D+00-0.447D+00 0.158D+01 0.186D+01
 Coeff:     -0.977D-01-0.876D+00
 Gap=     0.083 Goal=   None    Shift=    0.000
 Gap=     0.084 Goal=   None    Shift=    0.000
 RMSDP=1.30D-03 MaxDP=2.20D-02 DE=-5.96D-02 OVMax= 1.09D-01

 Cycle  28  Pass 1  IDiag  1:
 E= -115.426072912597     Delta-E=        0.002822481877 Rises=F Damp=F
 DIIS: error= 1.33D-02 at cycle  28 NSaved=  20.
 NSaved=20 IEnMin=19 EnMin= -115.428895394474     IErMin= 9 ErrMin= 1.08D-03
 ErrMax= 1.33D-02  0.00D+00 EMaxC= 1.00D-01 BMatC= 1.12D-02 BMatP= 1.04D-04
 IDIUse=2 WtCom= 0.00D+00 WtEn= 1.00D+00
 Rare condition: small coef for last iteration:  0.000D+00
 Coeff-En:   0.000D+00 0.000D+00 0.000D+00 0.000D+00 0.000D+00 0.000D+00
 Coeff-En:   0.000D+00 0.000D+00 0.000D+00 0.000D+00 0.000D+00 0.000D+00
 Coeff-En:   0.000D+00 0.000D+00 0.196D+00 0.602D+00 0.000D+00 0.000D+00
 Coeff-En:   0.000D+00 0.201D+00
 Coeff:      0.000D+00 0.000D+00 0.000D+00 0.000D+00 0.000D+00 0.000D+00
 Coeff:      0.000D+00 0.000D+00 0.000D+00 0.000D+00 0.000D+00 0.000D+00
 Coeff:      0.000D+00 0.000D+00 0.196D+00 0.602D+00 0.000D+00 0.000D+00
 Coeff:      0.000D+00 0.201D+00
 Gap=     0.083 Goal=   None    Shift=    0.000
 Gap=     0.083 Goal=   None    Shift=    0.000
 RMSDP=1.27D-03 MaxDP=2.19D-02 DE= 2.82D-03 OVMax= 1.04D-01

 Cycle  29  Pass 1  IDiag  1:
 E= -115.427845799557     Delta-E=       -0.001772886960 Rises=F Damp=F
 DIIS: error= 8.97D-03 at cycle  29 NSaved=  20.
 NSaved=20 IEnMin=20 EnMin= -115.427845799557     IErMin= 9 ErrMin= 1.08D-03
 ErrMax= 8.97D-03  0.00D+00 EMaxC= 1.00D-01 BMatC= 4.96D-03 BMatP= 1.04D-04
 IDIUse=3 WtCom= 9.89D-01 WtEn= 1.08D-02
 Coeff-Com: -0.289D-02 0.371D-01 0.235D-01 0.949D-02 0.560D-01-0.182D+00
 Coeff-Com:  0.116D+00 0.155D+01-0.201D+01-0.165D+01 0.201D+01 0.342D-01
 Coeff-Com: -0.197D+00 0.537D+00-0.234D+01 0.128D+01 0.180D+01-0.582D-01
 Coeff-Com:  0.104D+01-0.105D+01
 Coeff-En:   0.000D+00 0.000D+00 0.000D+00 0.000D+00 0.000D+00 0.000D+00
 Coeff-En:   0.000D+00 0.000D+00 0.000D+00 0.000D+00 0.000D+00 0.000D+00
 Coeff-En:   0.000D+00 0.000D+00 0.000D+00 0.000D+00 0.000D+00 0.000D+00
 Coeff-En:   0.352D+00 0.648D+00
 Coeff:     -0.286D-02 0.367D-01 0.233D-01 0.939D-02 0.554D-01-0.180D+00
 Coeff:      0.115D+00 0.153D+01-0.199D+01-0.163D+01 0.199D+01 0.338D-01
 Coeff:     -0.195D+00 0.531D+00-0.232D+01 0.127D+01 0.178D+01-0.576D-01
 Coeff:      0.104D+01-0.103D+01
 Gap=     0.083 Goal=   None    Shift=    0.000
 Gap=     0.082 Goal=   None    Shift=    0.000
 RMSDP=6.12D-04 MaxDP=9.50D-03 DE=-1.77D-03 OVMax= 5.61D-02

 Cycle  30  Pass 1  IDiag  1:
 E= -115.429576063564     Delta-E=       -0.001730264008 Rises=F Damp=F
 DIIS: error= 2.13D-03 at cycle  30 NSaved=  20.
 NSaved=20 IEnMin=20 EnMin= -115.429576063564     IErMin= 8 ErrMin= 1.08D-03
 ErrMax= 2.13D-03  0.00D+00 EMaxC= 1.00D-01 BMatC= 1.46D-04 BMatP= 1.04D-04
 IDIUse=3 WtCom= 9.89D-01 WtEn= 1.08D-02
 Coeff-Com:  0.257D-01 0.380D-01 0.168D-01-0.229D+00 0.316D+00-0.962D-01
 Coeff-Com:  0.652D+00-0.127D+01-0.837D+00 0.671D+00 0.319D-01-0.208D+00
 Coeff-Com:  0.448D+00-0.201D+00 0.824D+00 0.113D+00-0.783D-01 0.448D+00
 Coeff-Com: -0.729D+00 0.106D+01
 Coeff-En:   0.000D+00 0.000D+00 0.000D+00 0.000D+00 0.000D+00 0.000D+00
 Coeff-En:   0.000D+00 0.000D+00 0.000D+00 0.000D+00 0.000D+00 0.000D+00
 Coeff-En:   0.000D+00 0.000D+00 0.000D+00 0.000D+00 0.000D+00 0.239D-01
 Coeff-En:   0.000D+00 0.976D+00
 Coeff:      0.254D-01 0.376D-01 0.166D-01-0.227D+00 0.313D+00-0.951D-01
 Coeff:      0.645D+00-0.125D+01-0.828D+00 0.664D+00 0.315D-01-0.205D+00
 Coeff:      0.443D+00-0.198D+00 0.815D+00 0.112D+00-0.775D-01 0.443D+00
 Coeff:     -0.721D+00 0.106D+01
 Gap=     0.084 Goal=   None    Shift=    0.000
 Gap=     0.084 Goal=   None    Shift=    0.000
 RMSDP=1.53D-03 MaxDP=2.46D-02 DE=-1.73D-03 OVMax= 1.16D-01

 Cycle  31  Pass 1  IDiag  1:
 E= -115.415720948724     Delta-E=        0.013855114840 Rises=F Damp=F
 DIIS: error= 2.68D-02 at cycle  31 NSaved=  20.
 NSaved=20 IEnMin=19 EnMin= -115.429576063564     IErMin= 8 ErrMin= 1.08D-03
 ErrMax= 2.68D-02  0.00D+00 EMaxC= 1.00D-01 BMatC= 4.29D-02 BMatP= 1.04D-04
 IDIUse=2 WtCom= 0.00D+00 WtEn= 1.00D+00
 Rare condition: small coef for last iteration:  0.000D+00
 Coeff-En:   0.000D+00 0.000D+00 0.000D+00 0.000D+00 0.000D+00 0.000D+00
 Coeff-En:   0.000D+00 0.000D+00 0.000D+00 0.000D+00 0.000D+00 0.000D+00
 Coeff-En:   0.000D+00 0.000D+00 0.000D+00 0.000D+00 0.316D+00 0.643D+00
 Coeff-En:   0.000D+00 0.408D-01
 Coeff:      0.000D+00 0.000D+00 0.000D+00 0.000D+00 0.000D+00 0.000D+00
 Coeff:      0.000D+00 0.000D+00 0.000D+00 0.000D+00 0.000D+00 0.000D+00
 Coeff:      0.000D+00 0.000D+00 0.000D+00 0.000D+00 0.316D+00 0.643D+00
 Coeff:      0.000D+00 0.408D-01
 Gap=     0.080 Goal=   None    Shift=    0.000
 Gap=     0.080 Goal=   None    Shift=    0.000
 RMSDP=1.58D-03 MaxDP=2.87D-02 DE= 1.39D-02 OVMax= 1.28D-01

 Cycle  32  Pass 1  IDiag  1:
 E= -115.430236958310     Delta-E=       -0.014516009587 Rises=F Damp=F
 DIIS: error= 2.99D-03 at cycle  32 NSaved=  20.
 NSaved=20 IEnMin=20 EnMin= -115.430236958310     IErMin= 8 ErrMin= 1.08D-03
 ErrMax= 2.99D-03  0.00D+00 EMaxC= 1.00D-01 BMatC= 3.45D-04 BMatP= 1.04D-04
 IDIUse=3 WtCom= 9.89D-01 WtEn= 1.08D-02
 Coeff-Com:  0.455D-01-0.789D-02-0.418D-01 0.269D+00-0.439D+00-0.687D+00
 Coeff-Com:  0.299D+01-0.263D+01-0.652D+00 0.113D+01 0.185D-01 0.203D+00
 Coeff-Com: -0.260D+01 0.263D+00 0.233D+01 0.660D-01 0.164D+01-0.182D+00
 Coeff-Com: -0.380D+00-0.337D+00
 Coeff-En:   0.000D+00 0.000D+00 0.000D+00 0.000D+00 0.000D+00 0.000D+00
 Coeff-En:   0.000D+00 0.000D+00 0.000D+00 0.000D+00 0.000D+00 0.000D+00
 Coeff-En:   0.000D+00 0.000D+00 0.000D+00 0.000D+00 0.000D+00 0.000D+00
 Coeff-En:   0.000D+00 0.100D+01
 Coeff:      0.450D-01-0.780D-02-0.413D-01 0.266D+00-0.434D+00-0.680D+00
 Coeff:      0.296D+01-0.260D+01-0.645D+00 0.112D+01 0.183D-01 0.201D+00
 Coeff:     -0.257D+01 0.260D+00 0.231D+01 0.653D-01 0.162D+01-0.180D+00
 Coeff:     -0.376D+00-0.323D+00
 Gap=     0.084 Goal=   None    Shift=    0.000
 Gap=     0.085 Goal=   None    Shift=    0.000
 RMSDP=7.75D-04 MaxDP=1.58D-02 DE=-1.45D-02 OVMax= 8.17D-02

 Cycle  33  Pass 1  IDiag  1:
 E= -115.427136337270     Delta-E=        0.003100621041 Rises=F Damp=F
 DIIS: error= 1.14D-02 at cycle  33 NSaved=  20.
 NSaved=20 IEnMin=19 EnMin= -115.430236958310     IErMin= 8 ErrMin= 1.08D-03
 ErrMax= 1.14D-02  0.00D+00 EMaxC= 1.00D-01 BMatC= 8.06D-03 BMatP= 1.04D-04
 IDIUse=2 WtCom= 0.00D+00 WtEn= 1.00D+00
 Rare condition: small coef for last iteration:  0.000D+00
 Coeff-En:   0.000D+00 0.000D+00 0.000D+00 0.000D+00 0.000D+00 0.000D+00
 Coeff-En:   0.000D+00 0.000D+00 0.000D+00 0.000D+00 0.000D+00 0.000D+00
 Coeff-En:   0.000D+00 0.000D+00 0.000D+00 0.128D-01 0.579D+00 0.000D+00
 Coeff-En:   0.000D+00 0.408D+00
 Coeff:      0.000D+00 0.000D+00 0.000D+00 0.000D+00 0.000D+00 0.000D+00
 Coeff:      0.000D+00 0.000D+00 0.000D+00 0.000D+00 0.000D+00 0.000D+00
 Coeff:      0.000D+00 0.000D+00 0.000D+00 0.128D-01 0.579D+00 0.000D+00
 Coeff:      0.000D+00 0.408D+00
 Gap=     0.084 Goal=   None    Shift=    0.000
 Gap=     0.082 Goal=   None    Shift=    0.000
 RMSDP=7.35D-04 MaxDP=1.53D-02 DE= 3.10D-03 OVMax= 7.78D-02

 Cycle  34  Pass 1  IDiag  1:
 E= -115.430183553735     Delta-E=       -0.003047216465 Rises=F Damp=F
 DIIS: error= 3.23D-03 at cycle  34 NSaved=  20.
 NSaved=20 IEnMin=20 EnMin= -115.430183553735     IErMin= 8 ErrMin= 1.08D-03
 ErrMax= 3.23D-03  0.00D+00 EMaxC= 1.00D-01 BMatC= 2.96D-04 BMatP= 1.04D-04
 IDIUse=3 WtCom= 9.89D-01 WtEn= 1.08D-02
 Coeff-Com:  0.251D-02-0.148D-01 0.131D-01 0.275D+00-0.125D+00-0.282D+00
 Coeff-Com:  0.922D+00-0.704D+00-0.190D+01 0.143D+01 0.511D-01-0.587D-01
 Coeff-Com: -0.165D+01 0.759D+00 0.185D+01-0.360D+00-0.282D+00-0.232D+00
 Coeff-Com:  0.165D+01-0.336D+00
 Coeff-En:   0.000D+00 0.000D+00 0.000D+00 0.000D+00 0.000D+00 0.000D+00
 Coeff-En:   0.000D+00 0.000D+00 0.000D+00 0.000D+00 0.000D+00 0.000D+00
 Coeff-En:   0.000D+00 0.000D+00 0.000D+00 0.000D+00 0.000D+00 0.000D+00
 Coeff-En:   0.000D+00 0.100D+01
 Coeff:      0.248D-02-0.146D-01 0.130D-01 0.272D+00-0.124D+00-0.279D+00
 Coeff:      0.912D+00-0.696D+00-0.188D+01 0.141D+01 0.505D-01-0.581D-01
 Coeff:     -0.164D+01 0.751D+00 0.183D+01-0.356D+00-0.279D+00-0.229D+00
 Coeff:      0.164D+01-0.321D+00
 Gap=     0.083 Goal=   None    Shift=    0.000
 Gap=     0.083 Goal=   None    Shift=    0.000
 RMSDP=6.95D-04 MaxDP=1.06D-02 DE=-3.05D-03 OVMax= 6.16D-02

 Cycle  35  Pass 1  IDiag  1:
 E= -115.429805089509     Delta-E=        0.000378464227 Rises=F Damp=F
 DIIS: error= 2.45D-03 at cycle  35 NSaved=  20.
 NSaved=20 IEnMin=19 EnMin= -115.430183553735     IErMin= 7 ErrMin= 1.08D-03
 ErrMax= 2.45D-03  0.00D+00 EMaxC= 1.00D-01 BMatC= 4.12D-04 BMatP= 1.04D-04
 IDIUse=3 WtCom= 9.89D-01 WtEn= 1.08D-02
 Rare condition: small coef for last iteration:  0.000D+00
 Coeff-Com:  0.993D-02 0.111D-01-0.795D-01 0.127D+00-0.983D-01 0.387D+00
 Coeff-Com: -0.733D+00 0.384D+00-0.305D+00 0.877D-01-0.206D+00 0.349D+00
 Coeff-Com:  0.565D-01-0.171D+00-0.103D+01 0.496D-01 0.192D-01 0.630D+00
 Coeff-Com: -0.100D+00 0.161D+01
 Coeff-En:   0.000D+00 0.000D+00 0.000D+00 0.000D+00 0.000D+00 0.000D+00
 Coeff-En:   0.000D+00 0.000D+00 0.000D+00 0.000D+00 0.000D+00 0.000D+00
 Coeff-En:   0.000D+00 0.000D+00 0.000D+00 0.000D+00 0.000D+00 0.000D+00
 Coeff-En:   0.000D+00 0.100D+01
 Coeff:      0.993D-02 0.111D-01-0.795D-01 0.127D+00-0.983D-01 0.387D+00
 Coeff:     -0.733D+00 0.384D+00-0.305D+00 0.877D-01-0.206D+00 0.349D+00
 Coeff:      0.565D-01-0.171D+00-0.103D+01 0.496D-01 0.192D-01 0.630D+00
 Coeff:     -0.100D+00 0.161D+01
 Gap=     0.086 Goal=   None    Shift=    0.000
 Gap=     0.086 Goal=   None    Shift=    0.000
 RMSDP=1.26D-03 MaxDP=1.88D-02 DE= 3.78D-04 OVMax= 9.71D-02

 Cycle  36  Pass 1  IDiag  1:
 E= -115.418266518502     Delta-E=        0.011538571006 Rises=F Damp=F
 DIIS: error= 2.47D-02 at cycle  36 NSaved=  20.
 NSaved=20 IEnMin=18 EnMin= -115.430183553735     IErMin= 7 ErrMin= 1.08D-03
 ErrMax= 2.47D-02  0.00D+00 EMaxC= 1.00D-01 BMatC= 3.51D-02 BMatP= 1.04D-04
 IDIUse=2 WtCom= 0.00D+00 WtEn= 1.00D+00
 Rare condition: small coef for last iteration:  0.000D+00
 Coeff-En:   0.000D+00 0.000D+00 0.000D+00 0.000D+00 0.000D+00 0.000D+00
 Coeff-En:   0.000D+00 0.000D+00 0.000D+00 0.000D+00 0.000D+00 0.000D+00
 Coeff-En:   0.000D+00 0.000D+00 0.000D+00 0.000D+00 0.000D+00 0.000D+00
 Coeff-En:   0.000D+00 0.100D+01
 Coeff:      0.000D+00 0.000D+00 0.000D+00 0.000D+00 0.000D+00 0.000D+00
 Coeff:      0.000D+00 0.000D+00 0.000D+00 0.000D+00 0.000D+00 0.000D+00
 Coeff:      0.000D+00 0.000D+00 0.000D+00 0.000D+00 0.000D+00 0.000D+00
 Coeff:      0.000D+00 0.100D+01
 Gap=     0.096 Goal=   None    Shift=    0.000
 Gap=     0.097 Goal=   None    Shift=    0.000
 RMSDP=4.57D-03 MaxDP=7.91D-02 DE= 1.15D-02 OVMax= 4.53D-01

 Cycle  37  Pass 1  IDiag  1:
 E= -115.238688815423     Delta-E=        0.179577703080 Rises=F Damp=F
 DIIS: error= 6.08D-02 at cycle  37 NSaved=  20.
 NSaved=20 IEnMin=18 EnMin= -115.430183553735     IErMin= 7 ErrMin= 1.08D-03
 ErrMax= 6.08D-02  0.00D+00 EMaxC= 1.00D-01 BMatC= 6.09D-01 BMatP= 1.04D-04
 IDIUse=2 WtCom= 0.00D+00 WtEn= 1.00D+00
 Coeff-En:   0.000D+00 0.000D+00 0.000D+00 0.000D+00 0.000D+00 0.000D+00
 Coeff-En:   0.000D+00 0.000D+00 0.000D+00 0.000D+00 0.000D+00 0.000D+00
 Coeff-En:   0.000D+00 0.000D+00 0.000D+00 0.000D+00 0.000D+00 0.000D+00
 Coeff-En:   0.857D+00 0.143D+00
 Coeff:      0.000D+00 0.000D+00 0.000D+00 0.000D+00 0.000D+00 0.000D+00
 Coeff:      0.000D+00 0.000D+00 0.000D+00 0.000D+00 0.000D+00 0.000D+00
 Coeff:      0.000D+00 0.000D+00 0.000D+00 0.000D+00 0.000D+00 0.000D+00
 Coeff:      0.857D+00 0.143D+00
 Gap=     0.089 Goal=   None    Shift=    0.000
 Gap=     0.091 Goal=   None    Shift=    0.000
 RMSDP=2.09D-03 MaxDP=3.41D-02 DE= 1.80D-01 OVMax= 2.01D-01

 Cycle  38  Pass 1  IDiag  1:
 E= -115.386122719963     Delta-E=       -0.147433904540 Rises=F Damp=F
 DIIS: error= 3.88D-02 at cycle  38 NSaved=  20.
 NSaved=20 IEnMin=17 EnMin= -115.430183553735     IErMin= 6 ErrMin= 1.08D-03
 ErrMax= 3.88D-02  0.00D+00 EMaxC= 1.00D-01 BMatC= 1.34D-01 BMatP= 1.04D-04
 IDIUse=2 WtCom= 0.00D+00 WtEn= 1.00D+00
 Coeff-En:   0.000D+00 0.000D+00 0.000D+00 0.000D+00 0.000D+00 0.000D+00
 Coeff-En:   0.000D+00 0.000D+00 0.000D+00 0.000D+00 0.000D+00 0.000D+00
 Coeff-En:   0.000D+00 0.000D+00 0.000D+00 0.000D+00 0.000D+00 0.683D+00
 Coeff-En:   0.000D+00 0.317D+00
 Coeff:      0.000D+00 0.000D+00 0.000D+00 0.000D+00 0.000D+00 0.000D+00
 Coeff:      0.000D+00 0.000D+00 0.000D+00 0.000D+00 0.000D+00 0.000D+00
 Coeff:      0.000D+00 0.000D+00 0.000D+00 0.000D+00 0.000D+00 0.683D+00
 Coeff:      0.000D+00 0.317D+00
 Gap=     0.083 Goal=   None    Shift=    0.000
 Gap=     0.085 Goal=   None    Shift=    0.000
 RMSDP=1.18D-03 MaxDP=2.07D-02 DE=-1.47D-01 OVMax= 1.24D-01

 Cycle  39  Pass 1  IDiag  1:
 E= -115.425067956395     Delta-E=       -0.038945236433 Rises=F Damp=F
 DIIS: error= 1.59D-02 at cycle  39 NSaved=  20.
 NSaved=20 IEnMin=17 EnMin= -115.430183553735     IErMin= 6 ErrMin= 1.08D-03
 ErrMax= 1.59D-02  0.00D+00 EMaxC= 1.00D-01 BMatC= 1.59D-02 BMatP= 1.04D-04
 IDIUse=2 WtCom= 0.00D+00 WtEn= 1.00D+00
 Coeff-En:   0.000D+00 0.000D+00 0.000D+00 0.000D+00 0.000D+00 0.000D+00
 Coeff-En:   0.000D+00 0.000D+00 0.000D+00 0.000D+00 0.000D+00 0.000D+00
 Coeff-En:   0.000D+00 0.000D+00 0.000D+00 0.000D+00 0.000D+00 0.381D+00
 Coeff-En:   0.000D+00 0.619D+00
 Coeff:      0.000D+00 0.000D+00 0.000D+00 0.000D+00 0.000D+00 0.000D+00
 Coeff:      0.000D+00 0.000D+00 0.000D+00 0.000D+00 0.000D+00 0.000D+00
 Coeff:      0.000D+00 0.000D+00 0.000D+00 0.000D+00 0.000D+00 0.381D+00
 Coeff:      0.000D+00 0.619D+00
 Gap=     0.081 Goal=   None    Shift=    0.000
 Gap=     0.084 Goal=   None    Shift=    0.000
 RMSDP=7.40D-04 MaxDP=1.55D-02 DE=-3.89D-02 OVMax= 9.12D-02

 Cycle  40  Pass 1  IDiag  1:
 E= -115.430285800633     Delta-E=       -0.005217844238 Rises=F Damp=F
 DIIS: error= 6.15D-03 at cycle  40 NSaved=  20.
 NSaved=20 IEnMin=20 EnMin= -115.430285800633     IErMin= 6 ErrMin= 1.08D-03
 ErrMax= 6.15D-03  0.00D+00 EMaxC= 1.00D-01 BMatC= 1.37D-03 BMatP= 1.04D-04
 IDIUse=3 WtCom= 9.89D-01 WtEn= 1.08D-02
 Coeff-Com: -0.198D-01 0.121D+00 0.271D+00-0.329D+00 0.800D+00-0.706D+00
 Coeff-Com: -0.110D+01 0.715D+00 0.266D+00-0.120D+01 0.509D-01 0.116D+01
 Coeff-Com: -0.449D+00-0.284D+00 0.813D-01 0.184D+01-0.950D-01-0.286D+00
 Coeff-Com:  0.136D+00 0.377D-01
 Coeff-En:   0.000D+00 0.000D+00 0.000D+00 0.000D+00 0.000D+00 0.000D+00
 Coeff-En:   0.000D+00 0.000D+00 0.000D+00 0.000D+00 0.000D+00 0.000D+00
 Coeff-En:   0.000D+00 0.000D+00 0.000D+00 0.000D+00 0.000D+00 0.000D+00
 Coeff-En:   0.114D+00 0.886D+00
 Coeff:     -0.196D-01 0.119D+00 0.268D+00-0.326D+00 0.792D+00-0.698D+00
 Coeff:     -0.109D+01 0.707D+00 0.263D+00-0.119D+01 0.503D-01 0.115D+01
 Coeff:     -0.444D+00-0.281D+00 0.804D-01 0.182D+01-0.939D-01-0.283D+00
 Coeff:      0.136D+00 0.469D-01
 Gap=     0.080 Goal=   None    Shift=    0.000
 Gap=     0.081 Goal=   None    Shift=    0.000
 RMSDP=9.46D-04 MaxDP=1.60D-02 DE=-5.22D-03 OVMax= 8.46D-02

 Cycle  41  Pass 1  IDiag  1:
 E= -115.428357274380     Delta-E=        0.001928526253 Rises=F Damp=F
 DIIS: error= 8.53D-03 at cycle  41 NSaved=  20.
 NSaved=20 IEnMin=19 EnMin= -115.430285800633     IErMin= 6 ErrMin= 1.08D-03
 ErrMax= 8.53D-03  0.00D+00 EMaxC= 1.00D-01 BMatC= 4.40D-03 BMatP= 1.04D-04
 IDIUse=3 WtCom= 9.89D-01 WtEn= 1.08D-02
 Rare condition: small coef for last iteration:  0.000D+00
 Coeff-Com:  0.203D-01-0.113D+00 0.492D+00-0.390D+00 0.139D+00-0.547D+00
 Coeff-Com:  0.163D+01-0.134D+01 0.155D+00 0.766D+00-0.543D+00-0.711D+00
 Coeff-Com: -0.119D+01-0.231D+00 0.182D+01 0.249D+00 0.234D-01 0.162D+00
 Coeff-Com: -0.369D-01 0.651D+00
 Coeff-En:   0.000D+00 0.000D+00 0.000D+00 0.000D+00 0.000D+00 0.000D+00
 Coeff-En:   0.000D+00 0.000D+00 0.000D+00 0.000D+00 0.000D+00 0.000D+00
 Coeff-En:   0.000D+00 0.000D+00 0.532D-01 0.000D+00 0.204D+00 0.000D+00
 Coeff-En:   0.000D+00 0.742D+00
 Coeff:      0.203D-01-0.113D+00 0.492D+00-0.390D+00 0.139D+00-0.547D+00
 Coeff:      0.163D+01-0.134D+01 0.155D+00 0.766D+00-0.543D+00-0.711D+00
 Coeff:     -0.119D+01-0.231D+00 0.182D+01 0.249D+00 0.234D-01 0.162D+00
 Coeff:     -0.369D-01 0.651D+00
 Gap=     0.084 Goal=   None    Shift=    0.000
 Gap=     0.083 Goal=   None    Shift=    0.000
 RMSDP=1.23D-03 MaxDP=1.79D-02 DE= 1.93D-03 OVMax= 9.39D-02

 Cycle  42  Pass 1  IDiag  1:
 E= -115.426331757730     Delta-E=        0.002025516650 Rises=F Damp=F
 DIIS: error= 1.39D-02 at cycle  42 NSaved=  20.
 NSaved=20 IEnMin=18 EnMin= -115.430285800633     IErMin= 6 ErrMin= 1.08D-03
 ErrMax= 1.39D-02  0.00D+00 EMaxC= 1.00D-01 BMatC= 1.14D-02 BMatP= 1.04D-04
 IDIUse=2 WtCom= 0.00D+00 WtEn= 1.00D+00
 Coeff-En:   0.000D+00 0.000D+00 0.000D+00 0.000D+00 0.000D+00 0.000D+00
 Coeff-En:   0.000D+00 0.000D+00 0.000D+00 0.000D+00 0.000D+00 0.000D+00
 Coeff-En:   0.000D+00 0.000D+00 0.000D+00 0.000D+00 0.000D+00 0.000D+00
 Coeff-En:   0.645D+00 0.355D+00
 Coeff:      0.000D+00 0.000D+00 0.000D+00 0.000D+00 0.000D+00 0.000D+00
 Coeff:      0.000D+00 0.000D+00 0.000D+00 0.000D+00 0.000D+00 0.000D+00
 Coeff:      0.000D+00 0.000D+00 0.000D+00 0.000D+00 0.000D+00 0.000D+00
 Coeff:      0.645D+00 0.355D+00
 Gap=     0.083 Goal=   None    Shift=    0.000
 Gap=     0.083 Goal=   None    Shift=    0.000
 RMSDP=6.05D-04 MaxDP=7.60D-03 DE= 2.03D-03 OVMax= 5.12D-02

 Cycle  43  Pass 1  IDiag  1:
 E= -115.429543707984     Delta-E=       -0.003211950254 Rises=F Damp=F
 DIIS: error= 5.25D-03 at cycle  43 NSaved=  20.
 NSaved=20 IEnMin=17 EnMin= -115.430285800633     IErMin= 5 ErrMin= 1.08D-03
 ErrMax= 5.25D-03  0.00D+00 EMaxC= 1.00D-01 BMatC= 2.04D-03 BMatP= 1.04D-04
 IDIUse=3 WtCom= 9.89D-01 WtEn= 1.08D-02
 Coeff-Com: -0.142D+00 0.405D+00-0.302D+00 0.462D+00-0.863D+00 0.179D+01
 Coeff-Com: -0.139D+01 0.105D+00 0.865D+00-0.634D+00-0.771D+00-0.104D+01
 Coeff-Com: -0.343D-02 0.129D+01 0.159D+00 0.188D+00-0.115D+00 0.598D+00
 Coeff-Com:  0.210D+00 0.194D+00
 Coeff-En:   0.000D+00 0.000D+00 0.000D+00 0.000D+00 0.000D+00 0.000D+00
 Coeff-En:   0.000D+00 0.000D+00 0.000D+00 0.000D+00 0.000D+00 0.000D+00
 Coeff-En:   0.000D+00 0.000D+00 0.000D+00 0.000D+00 0.000D+00 0.313D+00
 Coeff-En:   0.000D+00 0.687D+00
 Coeff:     -0.140D+00 0.400D+00-0.299D+00 0.457D+00-0.854D+00 0.177D+01
 Coeff:     -0.138D+01 0.103D+00 0.855D+00-0.627D+00-0.763D+00-0.103D+01
 Coeff:     -0.339D-02 0.127D+01 0.157D+00 0.186D+00-0.114D+00 0.595D+00
 Coeff:      0.208D+00 0.200D+00
 Gap=     0.086 Goal=   None    Shift=    0.000
 Gap=     0.085 Goal=   None    Shift=    0.000
 RMSDP=6.50D-04 MaxDP=7.97D-03 DE=-3.21D-03 OVMax= 5.87D-02

 Cycle  44  Pass 1  IDiag  1:
 E= -115.427224528834     Delta-E=        0.002319179150 Rises=F Damp=F
 DIIS: error= 1.22D-02 at cycle  44 NSaved=  20.
 NSaved=20 IEnMin=16 EnMin= -115.430285800633     IErMin= 5 ErrMin= 1.08D-03
 ErrMax= 1.22D-02  0.00D+00 EMaxC= 1.00D-01 BMatC= 8.72D-03 BMatP= 1.04D-04
 IDIUse=2 WtCom= 0.00D+00 WtEn= 1.00D+00
 Rare condition: small coef for last iteration:  0.000D+00
 Coeff-En:   0.000D+00 0.000D+00 0.000D+00 0.000D+00 0.000D+00 0.000D+00
 Coeff-En:   0.000D+00 0.000D+00 0.000D+00 0.000D+00 0.000D+00 0.000D+00
 Coeff-En:   0.000D+00 0.000D+00 0.000D+00 0.000D+00 0.608D+00 0.000D+00
 Coeff-En:   0.000D+00 0.392D+00
 Coeff:      0.000D+00 0.000D+00 0.000D+00 0.000D+00 0.000D+00 0.000D+00
 Coeff:      0.000D+00 0.000D+00 0.000D+00 0.000D+00 0.000D+00 0.000D+00
 Coeff:      0.000D+00 0.000D+00 0.000D+00 0.000D+00 0.608D+00 0.000D+00
 Coeff:      0.000D+00 0.392D+00
 Gap=     0.083 Goal=   None    Shift=    0.000
 Gap=     0.083 Goal=   None    Shift=    0.000
 RMSDP=6.16D-04 MaxDP=7.37D-03 DE= 2.32D-03 OVMax= 5.29D-02

 Cycle  45  Pass 1  IDiag  1:
 E= -115.429840739854     Delta-E=       -0.002616211020 Rises=F Damp=F
 DIIS: error= 3.78D-03 at cycle  45 NSaved=  20.
 NSaved=20 IEnMin=16 EnMin= -115.430285800633     IErMin= 5 ErrMin= 1.08D-03
 ErrMax= 3.78D-03  0.00D+00 EMaxC= 1.00D-01 BMatC= 1.06D-03 BMatP= 1.04D-04
 IDIUse=3 WtCom= 9.89D-01 WtEn= 1.08D-02
 EnCoef did   100 forward-backward iterations
 Coeff-Com: -0.409D-01 0.832D-02 0.294D-01-0.118D+00 0.647D-01-0.151D+00
 Coeff-Com: -0.109D+00 0.222D+00 0.176D+00-0.208D+00 0.931D-02 0.248D-01
 Coeff-Com:  0.285D+00-0.137D+00-0.868D-02-0.173D+00 0.357D+00-0.309D+01
 Coeff-Com:  0.330D+01 0.558D+00
 Coeff-En:   0.000D+00 0.000D+00 0.000D+00 0.000D+00 0.000D+00 0.000D+00
 Coeff-En:   0.000D+00 0.000D+00 0.000D+00 0.000D+00 0.000D+00 0.000D+00
 Coeff-En:   0.000D+00 0.000D+00 0.133D+00 0.000D+00 0.355D-02 0.000D+00
 Coeff-En:   0.000D+00 0.863D+00
 Coeff:     -0.405D-01 0.823D-02 0.290D-01-0.117D+00 0.640D-01-0.149D+00
 Coeff:     -0.108D+00 0.219D+00 0.174D+00-0.205D+00 0.921D-02 0.245D-01
 Coeff:      0.282D+00-0.136D+00-0.715D-02-0.171D+00 0.353D+00-0.306D+01
 Coeff:      0.327D+01 0.561D+00
 Gap=     0.086 Goal=   None    Shift=    0.000
 Gap=     0.086 Goal=   None    Shift=    0.000
 RMSDP=6.71D-04 MaxDP=8.09D-03 DE=-2.62D-03 OVMax= 5.61D-02

 Cycle  46  Pass 1  IDiag  1:
 E= -115.426824955988     Delta-E=        0.003015783866 Rises=F Damp=F
 DIIS: error= 1.30D-02 at cycle  46 NSaved=  20.
 NSaved=20 IEnMin=15 EnMin= -115.430285800633     IErMin= 5 ErrMin= 1.08D-03
 ErrMax= 1.30D-02  0.00D+00 EMaxC= 1.00D-01 BMatC= 9.79D-03 BMatP= 1.04D-04
 IDIUse=2 WtCom= 0.00D+00 WtEn= 1.00D+00
 EnCoef did   100 forward-backward iterations
 Rare condition: small coef for last iteration:  0.290D-15
 Coeff-En:   0.000D+00 0.000D+00 0.000D+00 0.000D+00 0.000D+00 0.000D+00
 Coeff-En:   0.000D+00 0.000D+00 0.000D+00 0.000D+00 0.000D+00 0.000D+00
 Coeff-En:   0.000D+00 0.000D+00 0.000D+00 0.637D+00 0.000D+00 0.000D+00
 Coeff-En:   0.000D+00 0.363D+00
 Coeff:      0.000D+00 0.000D+00 0.000D+00 0.000D+00 0.000D+00 0.000D+00
 Coeff:      0.000D+00 0.000D+00 0.000D+00 0.000D+00 0.000D+00 0.000D+00
 Coeff:      0.000D+00 0.000D+00 0.000D+00 0.637D+00 0.000D+00 0.000D+00
 Coeff:      0.000D+00 0.363D+00
 Gap=     0.082 Goal=   None    Shift=    0.000
 Gap=     0.082 Goal=   None    Shift=    0.000
 RMSDP=6.43D-04 MaxDP=7.80D-03 DE= 3.02D-03 OVMax= 5.89D-02

 Cycle  47  Pass 1  IDiag  1:
 E= -115.429342898257     Delta-E=       -0.002517942269 Rises=F Damp=F
 DIIS: error= 6.11D-03 at cycle  47 NSaved=  20.
 NSaved=20 IEnMin=15 EnMin= -115.430285800633     IErMin= 5 ErrMin= 1.08D-03
 ErrMax= 6.11D-03  0.00D+00 EMaxC= 1.00D-01 BMatC= 2.81D-03 BMatP= 1.04D-04
 IDIUse=3 WtCom= 9.89D-01 WtEn= 1.08D-02
 Coeff-Com: -0.337D-01-0.370D-01 0.250D-01 0.107D+00-0.186D+00-0.506D-02
 Coeff-Com: -0.702D-01 0.521D-01-0.592D-01 0.108D+00 0.682D-01 0.300D+00
 Coeff-Com: -0.161D+00 0.305D-01-0.170D+00 0.383D+00-0.311D+01 0.325D+01
 Coeff-Com:  0.691D-01 0.430D+00
 Coeff-En:   0.000D+00 0.000D+00 0.000D+00 0.000D+00 0.000D+00 0.000D+00
 Coeff-En:   0.000D+00 0.000D+00 0.000D+00 0.000D+00 0.000D+00 0.000D+00
 Coeff-En:   0.000D+00 0.000D+00 0.000D+00 0.360D+00 0.000D+00 0.000D+00
 Coeff-En:   0.000D+00 0.640D+00
 Coeff:     -0.333D-01-0.366D-01 0.247D-01 0.106D+00-0.184D+00-0.501D-02
 Coeff:     -0.694D-01 0.516D-01-0.586D-01 0.107D+00 0.674D-01 0.297D+00
 Coeff:     -0.159D+00 0.302D-01-0.168D+00 0.383D+00-0.307D+01 0.322D+01
 Coeff:      0.683D-01 0.432D+00
 Gap=     0.086 Goal=   None    Shift=    0.000
 Gap=     0.086 Goal=   None    Shift=    0.000
 RMSDP=5.92D-04 MaxDP=7.20D-03 DE=-2.52D-03 OVMax= 5.32D-02

 Cycle  48  Pass 1  IDiag  1:
 E= -115.427232400774     Delta-E=        0.002110497483 Rises=F Damp=F
 DIIS: error= 1.21D-02 at cycle  48 NSaved=  20.
 NSaved=20 IEnMin=14 EnMin= -115.430285800633     IErMin= 5 ErrMin= 1.08D-03
 ErrMax= 1.21D-02  0.00D+00 EMaxC= 1.00D-01 BMatC= 8.60D-03 BMatP= 1.04D-04
 IDIUse=2 WtCom= 0.00D+00 WtEn= 1.00D+00
 Rare condition: small coef for last iteration:  0.000D+00
 Coeff-En:   0.000D+00 0.000D+00 0.000D+00 0.000D+00 0.000D+00 0.000D+00
 Coeff-En:   0.000D+00 0.000D+00 0.000D+00 0.000D+00 0.000D+00 0.000D+00
 Coeff-En:   0.000D+00 0.000D+00 0.608D+00 0.000D+00 0.000D+00 0.000D+00
 Coeff-En:   0.000D+00 0.392D+00
 Coeff:      0.000D+00 0.000D+00 0.000D+00 0.000D+00 0.000D+00 0.000D+00
 Coeff:      0.000D+00 0.000D+00 0.000D+00 0.000D+00 0.000D+00 0.000D+00
 Coeff:      0.000D+00 0.000D+00 0.608D+00 0.000D+00 0.000D+00 0.000D+00
 Coeff:      0.000D+00 0.392D+00
 Gap=     0.083 Goal=   None    Shift=    0.000
 Gap=     0.083 Goal=   None    Shift=    0.000
 RMSDP=6.18D-04 MaxDP=7.30D-03 DE= 2.11D-03 OVMax= 5.31D-02

 Cycle  49  Pass 1  IDiag  1:
 E= -115.429830855576     Delta-E=       -0.002598454802 Rises=F Damp=F
 DIIS: error= 3.72D-03 at cycle  49 NSaved=  20.
 NSaved=20 IEnMin=14 EnMin= -115.430285800633     IErMin= 5 ErrMin= 1.08D-03
 ErrMax= 3.72D-03  0.00D+00 EMaxC= 1.00D-01 BMatC= 1.09D-03 BMatP= 1.04D-04
 IDIUse=3 WtCom= 9.89D-01 WtEn= 1.08D-02
 EnCoef did   100 forward-backward iterations
 Coeff-Com: -0.914D-02-0.723D-01 0.439D-01 0.283D-02-0.613D-01 0.687D-01
 Coeff-Com: -0.823D-01-0.105D-01 0.279D+00 0.124D-01-0.405D+00-0.979D-01
 Coeff-Com:  0.355D-01-0.109D+00 0.357D+00-0.141D+01 0.113D+01-0.337D+01
 Coeff-Com:  0.427D+01 0.428D+00
 Coeff-En:   0.000D+00 0.000D+00 0.000D+00 0.000D+00 0.000D+00 0.000D+00
 Coeff-En:   0.000D+00 0.000D+00 0.000D+00 0.000D+00 0.000D+00 0.000D+00
 Coeff-En:   0.135D+00 0.000D+00 0.408D-02 0.000D+00 0.000D+00 0.000D+00
 Coeff-En:   0.000D+00 0.861D+00
 Coeff:     -0.904D-02-0.715D-01 0.435D-01 0.280D-02-0.606D-01 0.680D-01
 Coeff:     -0.814D-01-0.104D-01 0.276D+00 0.123D-01-0.401D+00-0.968D-01
 Coeff:      0.366D-01-0.108D+00 0.353D+00-0.139D+01 0.112D+01-0.334D+01
 Coeff:      0.423D+01 0.432D+00
 Gap=     0.086 Goal=   None    Shift=    0.000
 Gap=     0.086 Goal=   None    Shift=    0.000
 RMSDP=6.27D-04 MaxDP=8.07D-03 DE=-2.60D-03 OVMax= 5.88D-02

 Cycle  50  Pass 1  IDiag  1:
 E= -115.428545848046     Delta-E=        0.001285007530 Rises=F Damp=F
 DIIS: error= 9.06D-03 at cycle  50 NSaved=  20.
 NSaved=20 IEnMin=13 EnMin= -115.430285800633     IErMin= 4 ErrMin= 1.08D-03
 ErrMax= 9.06D-03  0.00D+00 EMaxC= 1.00D-01 BMatC= 4.81D-03 BMatP= 1.04D-04
 IDIUse=3 WtCom= 9.89D-01 WtEn= 1.08D-02
 EnCoef did   100 forward-backward iterations
 Rare condition: small coef for last iteration: -0.222D-15
 Coeff-Com: -0.736D-01 0.486D-01 0.144D+00-0.228D+00 0.871D-01 0.253D-02
 Coeff-Com: -0.648D-01 0.140D+00-0.380D-01-0.491D-01-0.934D-01 0.648D-01
 Coeff-Com: -0.176D+00 0.211D+00-0.159D+00-0.515D+00 0.321D+00-0.129D+01
 Coeff-Com:  0.445D+00 0.222D+01
 Coeff-En:   0.000D+00 0.000D+00 0.000D+00 0.000D+00 0.000D+00 0.000D+00
 Coeff-En:   0.000D+00 0.000D+00 0.000D+00 0.000D+00 0.000D+00 0.735D-01
 Coeff-En:   0.000D+00 0.432D+00 0.000D+00 0.000D+00 0.000D+00 0.000D+00
 Coeff-En:   0.000D+00 0.495D+00
 Coeff:     -0.736D-01 0.486D-01 0.144D+00-0.228D+00 0.871D-01 0.253D-02
 Coeff:     -0.648D-01 0.140D+00-0.380D-01-0.491D-01-0.934D-01 0.648D-01
 Coeff:     -0.176D+00 0.211D+00-0.159D+00-0.515D+00 0.321D+00-0.129D+01
 Coeff:      0.445D+00 0.222D+01
 Gap=     0.086 Goal=   None    Shift=    0.000
 Gap=     0.086 Goal=   None    Shift=    0.000
 RMSDP=1.22D-04 MaxDP=1.72D-03 DE= 1.29D-03 OVMax= 1.03D-02

 Cycle  51  Pass 1  IDiag  1:
 E= -115.429343019796     Delta-E=       -0.000797171750 Rises=F Damp=F
 DIIS: error= 6.56D-03 at cycle  51 NSaved=  20.
 NSaved=20 IEnMin=12 EnMin= -115.430285800633     IErMin= 3 ErrMin= 1.08D-03
 ErrMax= 6.56D-03  0.00D+00 EMaxC= 1.00D-01 BMatC= 2.53D-03 BMatP= 1.04D-04
 IDIUse=3 WtCom= 9.89D-01 WtEn= 1.08D-02
 Coeff-Com:  0.782D-01-0.952D-01-0.468D-02 0.516D-01-0.162D-01-0.184D+00
 Coeff-Com: -0.384D-02 0.175D-01 0.321D+00-0.100D+00 0.543D-01-0.103D+00
 Coeff-Com:  0.521D-01-0.332D-01 0.979D-01 0.562D+00-0.290D+00 0.257D+00
 Coeff-Com: -0.332D+01 0.366D+01
 Coeff-En:   0.000D+00 0.000D+00 0.000D+00 0.000D+00 0.000D+00 0.000D+00
 Coeff-En:   0.000D+00 0.000D+00 0.000D+00 0.000D+00 0.251D+00 0.000D+00
 Coeff-En:   0.000D+00 0.000D+00 0.000D+00 0.000D+00 0.000D+00 0.000D+00
 Coeff-En:   0.000D+00 0.749D+00
 Coeff:      0.774D-01-0.942D-01-0.463D-02 0.511D-01-0.160D-01-0.182D+00
 Coeff:     -0.379D-02 0.173D-01 0.317D+00-0.992D-01 0.565D-01-0.102D+00
 Coeff:      0.515D-01-0.328D-01 0.969D-01 0.556D+00-0.287D+00 0.254D+00
 Coeff:     -0.329D+01 0.363D+01
 Gap=     0.085 Goal=   None    Shift=    0.000
 Gap=     0.085 Goal=   None    Shift=    0.000
 RMSDP=2.27D-04 MaxDP=3.36D-03 DE=-7.97D-04 OVMax= 2.01D-02

 Cycle  52  Pass 1  IDiag  1:
 E= -115.430179150351     Delta-E=       -0.000836130555 Rises=F Damp=F
 DIIS: error= 1.52D-03 at cycle  52 NSaved=  20.
 NSaved=20 IEnMin=11 EnMin= -115.430285800633     IErMin= 2 ErrMin= 1.08D-03
 ErrMax= 1.52D-03  0.00D+00 EMaxC= 1.00D-01 BMatC= 1.38D-04 BMatP= 1.04D-04
 IDIUse=3 WtCom= 9.89D-01 WtEn= 1.08D-02
 Coeff-Com:  0.560D-01-0.103D+00 0.615D-01 0.728D-01-0.900D-01 0.735D-01
 Coeff-Com: -0.388D-01-0.465D-01-0.789D-01 0.152D-01-0.113D+00-0.973D-02
 Coeff-Com: -0.271D+00 0.248D+00-0.626D+00 0.908D+00 0.246D+00-0.154D+00
 Coeff-Com: -0.448D+00 0.130D+01
 Coeff-En:   0.000D+00 0.000D+00 0.000D+00 0.000D+00 0.000D+00 0.000D+00
 Coeff-En:   0.000D+00 0.000D+00 0.000D+00 0.000D+00 0.000D+00 0.000D+00
 Coeff-En:   0.000D+00 0.000D+00 0.000D+00 0.000D+00 0.000D+00 0.000D+00
 Coeff-En:   0.000D+00 0.100D+01
 Coeff:      0.554D-01-0.102D+00 0.608D-01 0.720D-01-0.890D-01 0.727D-01
 Coeff:     -0.384D-01-0.460D-01-0.780D-01 0.150D-01-0.112D+00-0.962D-02
 Coeff:     -0.268D+00 0.245D+00-0.619D+00 0.898D+00 0.243D+00-0.153D+00
 Coeff:     -0.443D+00 0.130D+01
 Gap=     0.085 Goal=   None    Shift=    0.000
 Gap=     0.085 Goal=   None    Shift=    0.000
 RMSDP=6.10D-05 MaxDP=8.84D-04 DE=-8.36D-04 OVMax= 6.30D-03

 Cycle  53  Pass 1  IDiag  1:
 E= -115.430179109715     Delta-E=        0.000000040636 Rises=F Damp=F
 DIIS: error= 1.54D-03 at cycle  53 NSaved=  20.
 NSaved=20 IEnMin=10 EnMin= -115.430285800633     IErMin= 2 ErrMin= 1.08D-03
 ErrMax= 1.54D-03  0.00D+00 EMaxC= 1.00D-01 BMatC= 1.36D-04 BMatP= 1.04D-04
 IDIUse=3 WtCom= 9.89D-01 WtEn= 1.08D-02
 Rare condition: small coef for last iteration:  0.000D+00
 Coeff-Com: -0.234D-01 0.542D-02 0.775D-01 0.562D-01-0.138D+00 0.210D+00
 Coeff-Com: -0.324D-01-0.208D+00-0.694D-01-0.823D-01 0.578D-01 0.299D+00
 Coeff-Com: -0.812D-01-0.213D+01 0.270D+01 0.162D+00-0.195D+01 0.133D+01
 Coeff-Com: -0.206D+01 0.287D+01
 Coeff-En:   0.000D+00 0.000D+00 0.000D+00 0.000D+00 0.000D+00 0.000D+00
 Coeff-En:   0.000D+00 0.000D+00 0.000D+00 0.000D+00 0.000D+00 0.000D+00
 Coeff-En:   0.000D+00 0.000D+00 0.000D+00 0.000D+00 0.000D+00 0.000D+00
 Coeff-En:   0.000D+00 0.100D+01
 Coeff:     -0.234D-01 0.542D-02 0.775D-01 0.562D-01-0.138D+00 0.210D+00
 Coeff:     -0.324D-01-0.208D+00-0.694D-01-0.823D-01 0.578D-01 0.299D+00
 Coeff:     -0.812D-01-0.213D+01 0.270D+01 0.162D+00-0.195D+01 0.133D+01
 Coeff:     -0.206D+01 0.287D+01
 Gap=     0.085 Goal=   None    Shift=    0.000
 Gap=     0.085 Goal=   None    Shift=    0.000
 RMSDP=8.31D-05 MaxDP=1.34D-03 DE= 4.06D-08 OVMax= 7.70D-03

 Cycle  54  Pass 1  IDiag  1:
 E= -115.430225683669     Delta-E=       -0.000046573954 Rises=F Damp=F
 DIIS: error= 3.27D-04 at cycle  54 NSaved=  20.
 NSaved=20 IEnMin= 9 EnMin= -115.430285800633     IErMin=20 ErrMin= 3.27D-04
 ErrMax= 3.27D-04  0.00D+00 EMaxC= 1.00D-01 BMatC= 6.97D-06 BMatP= 1.04D-04
 IDIUse=3 WtCom= 9.97D-01 WtEn= 3.27D-03
 Coeff-Com: -0.438D-01 0.101D+00 0.965D-01-0.163D+00 0.862D-01-0.767D-01
 Coeff-Com: -0.137D+00-0.493D-01-0.103D+00 0.724D-01 0.865D+00-0.100D+01
 Coeff-Com: -0.323D+01 0.415D+01 0.211D+00-0.602D+00-0.116D+01-0.135D+01
 Coeff-Com:  0.511D+01-0.177D+01
 Coeff-En:   0.000D+00 0.000D+00 0.000D+00 0.000D+00 0.000D+00 0.000D+00
 Coeff-En:   0.000D+00 0.000D+00 0.000D+00 0.000D+00 0.000D+00 0.000D+00
 Coeff-En:   0.000D+00 0.000D+00 0.000D+00 0.000D+00 0.000D+00 0.000D+00
 Coeff-En:   0.890D-01 0.911D+00
 Coeff:     -0.437D-01 0.101D+00 0.962D-01-0.162D+00 0.860D-01-0.764D-01
 Coeff:     -0.137D+00-0.491D-01-0.103D+00 0.722D-01 0.862D+00-0.100D+01
 Coeff:     -0.322D+01 0.413D+01 0.210D+00-0.600D+00-0.116D+01-0.135D+01
 Coeff:      0.510D+01-0.176D+01
 Gap=     0.085 Goal=   None    Shift=    0.000
 Gap=     0.085 Goal=   None    Shift=    0.000
 RMSDP=5.36D-05 MaxDP=8.66D-04 DE=-4.66D-05 OVMax= 5.02D-03

 Cycle  55  Pass 1  IDiag  1:
 E= -115.430211233041     Delta-E=        0.000014450628 Rises=F Damp=F
 DIIS: error= 8.73D-04 at cycle  55 NSaved=  20.
 NSaved=20 IEnMin= 8 EnMin= -115.430285800633     IErMin=19 ErrMin= 3.27D-04
 ErrMax= 8.73D-04  0.00D+00 EMaxC= 1.00D-01 BMatC= 4.42D-05 BMatP= 6.97D-06
 IDIUse=3 WtCom= 9.97D-01 WtEn= 3.27D-03
 Coeff-Com:  0.515D-01-0.427D-03-0.974D-01 0.186D+00 0.270D-01-0.253D+00
 Coeff-Com: -0.485D-01-0.634D-01 0.260D-01 0.891D-01 0.192D+00-0.290D+01
 Coeff-Com:  0.393D+01 0.174D+00-0.153D+01-0.542D+00-0.156D+01 0.145D+01
 Coeff-Com: -0.267D+01 0.454D+01
 Coeff-En:   0.000D+00 0.000D+00 0.000D+00 0.000D+00 0.000D+00 0.000D+00
 Coeff-En:   0.000D+00 0.000D+00 0.000D+00 0.000D+00 0.000D+00 0.000D+00
 Coeff-En:   0.000D+00 0.000D+00 0.000D+00 0.000D+00 0.000D+00 0.000D+00
 Coeff-En:   0.810D+00 0.190D+00
 Coeff:      0.513D-01-0.425D-03-0.971D-01 0.185D+00 0.270D-01-0.252D+00
 Coeff:     -0.483D-01-0.632D-01 0.260D-01 0.888D-01 0.191D+00-0.289D+01
 Coeff:      0.392D+01 0.174D+00-0.152D+01-0.541D+00-0.155D+01 0.144D+01
 Coeff:     -0.266D+01 0.453D+01
 Gap=     0.085 Goal=   None    Shift=    0.000
 Gap=     0.085 Goal=   None    Shift=    0.000
 RMSDP=8.13D-05 MaxDP=1.19D-03 DE= 1.45D-05 OVMax= 6.97D-03

 Cycle  56  Pass 1  IDiag  1:
 E= -115.430209720217     Delta-E=        0.000001512824 Rises=F Damp=F
 DIIS: error= 8.37D-04 at cycle  56 NSaved=  20.
 NSaved=20 IEnMin= 7 EnMin= -115.430285800633     IErMin=18 ErrMin= 3.27D-04
 ErrMax= 8.37D-04  0.00D+00 EMaxC= 1.00D-01 BMatC= 4.30D-05 BMatP= 6.97D-06
 IDIUse=3 WtCom= 9.97D-01 WtEn= 3.27D-03
 Rare condition: small coef for last iteration:  0.000D+00
 Coeff-Com:  0.729D-02-0.575D-02 0.501D-03 0.277D-01-0.118D-01 0.417D-03
 Coeff-Com:  0.146D-01-0.402D-01 0.171D+00-0.199D-01 0.110D+00-0.302D+00
 Coeff-Com:  0.101D-01-0.686D+00 0.120D+01-0.895D+00 0.114D+01-0.550D+00
 Coeff-Com: -0.928D+00 0.176D+01
 Coeff-En:   0.000D+00 0.000D+00 0.000D+00 0.000D+00 0.000D+00 0.000D+00
 Coeff-En:   0.000D+00 0.000D+00 0.000D+00 0.000D+00 0.000D+00 0.000D+00
 Coeff-En:   0.000D+00 0.000D+00 0.000D+00 0.000D+00 0.000D+00 0.000D+00
 Coeff-En:   0.517D+00 0.483D+00
 Coeff:      0.729D-02-0.575D-02 0.501D-03 0.277D-01-0.118D-01 0.417D-03
 Coeff:      0.146D-01-0.402D-01 0.171D+00-0.199D-01 0.110D+00-0.302D+00
 Coeff:      0.101D-01-0.686D+00 0.120D+01-0.895D+00 0.114D+01-0.550D+00
 Coeff:     -0.928D+00 0.176D+01
 Gap=     0.085 Goal=   None    Shift=    0.000
 Gap=     0.085 Goal=   None    Shift=    0.000
 RMSDP=2.66D-05 MaxDP=5.03D-04 DE= 1.51D-06 OVMax= 3.63D-03

 Cycle  57  Pass 1  IDiag  1:
 E= -115.430214036660     Delta-E=       -0.000004316443 Rises=F Damp=F
 DIIS: error= 6.93D-04 at cycle  57 NSaved=  20.
 NSaved=20 IEnMin= 6 EnMin= -115.430285800633     IErMin=17 ErrMin= 3.27D-04
 ErrMax= 6.93D-04  0.00D+00 EMaxC= 1.00D-01 BMatC= 2.89D-05 BMatP= 6.97D-06
 IDIUse=3 WtCom= 9.97D-01 WtEn= 3.27D-03
 Rare condition: small coef for last iteration:  0.000D+00
 Coeff-Com: -0.889D-02 0.956D-02 0.130D-01-0.398D-01 0.397D-02 0.561D-02
 Coeff-Com: -0.152D-01 0.259D+00-0.353D+00-0.718D-01-0.510D-01 0.209D-02
 Coeff-Com:  0.340D+00-0.585D-01 0.434D-01 0.538D+00-0.343D+00-0.439D+00
 Coeff-Com:  0.161D+00 0.100D+01
 Coeff-En:   0.000D+00 0.000D+00 0.000D+00 0.000D+00 0.000D+00 0.000D+00
 Coeff-En:   0.000D+00 0.000D+00 0.000D+00 0.000D+00 0.000D+00 0.000D+00
 Coeff-En:   0.000D+00 0.000D+00 0.000D+00 0.000D+00 0.000D+00 0.452D+00
 Coeff-En:   0.000D+00 0.548D+00
 Coeff:     -0.889D-02 0.956D-02 0.130D-01-0.398D-01 0.397D-02 0.561D-02
 Coeff:     -0.152D-01 0.259D+00-0.353D+00-0.718D-01-0.510D-01 0.209D-02
 Coeff:      0.340D+00-0.585D-01 0.434D-01 0.538D+00-0.343D+00-0.439D+00
 Coeff:      0.161D+00 0.100D+01
 Gap=     0.085 Goal=   None    Shift=    0.000
 Gap=     0.085 Goal=   None    Shift=    0.000
 RMSDP=3.12D-05 MaxDP=5.39D-04 DE=-4.32D-06 OVMax= 3.12D-03

 Cycle  58  Pass 1  IDiag  1:
 E= -115.430224011781     Delta-E=       -0.000009975121 Rises=F Damp=F
 DIIS: error= 7.46D-05 at cycle  58 NSaved=  20.
 NSaved=20 IEnMin= 6 EnMin= -115.430285800633     IErMin=20 ErrMin= 7.46D-05
 ErrMax= 7.46D-05  0.00D+00 EMaxC= 1.00D-01 BMatC= 2.64D-07 BMatP= 6.97D-06
 IDIUse=1 WtCom= 1.00D+00 WtEn= 0.00D+00
 Coeff-Com: -0.560D-02 0.633D-02 0.707D-02-0.195D-01-0.650D-03 0.145D-02
 Coeff-Com: -0.579D-02-0.209D-01-0.467D-01 0.450D-01-0.151D-02 0.848D-01
 Coeff-Com:  0.201D-02 0.202D+00-0.287D+00 0.134D+00-0.162D+00 0.873D-01
 Coeff-Com:  0.223D-01 0.958D+00
 Coeff:     -0.560D-02 0.633D-02 0.707D-02-0.195D-01-0.650D-03 0.145D-02
 Coeff:     -0.579D-02-0.209D-01-0.467D-01 0.450D-01-0.151D-02 0.848D-01
 Coeff:      0.201D-02 0.202D+00-0.287D+00 0.134D+00-0.162D+00 0.873D-01
 Coeff:      0.223D-01 0.958D+00
 Gap=     0.085 Goal=   None    Shift=    0.000
 Gap=     0.085 Goal=   None    Shift=    0.000
 RMSDP=1.24D-06 MaxDP=2.07D-05 DE=-9.98D-06 OVMax= 1.47D-04

 Cycle  59  Pass 1  IDiag  1:
 E= -115.430224034688     Delta-E=       -0.000000022907 Rises=F Damp=F
 DIIS: error= 6.10D-05 at cycle  59 NSaved=  20.
 NSaved=20 IEnMin= 6 EnMin= -115.430285800633     IErMin=20 ErrMin= 6.10D-05
 ErrMax= 6.10D-05  0.00D+00 EMaxC= 1.00D-01 BMatC= 1.87D-07 BMatP= 2.64D-07
 IDIUse=1 WtCom= 1.00D+00 WtEn= 0.00D+00
 Coeff-Com:  0.855D-03 0.112D-02 0.226D-04-0.356D-03-0.528D-03 0.267D-03
 Coeff-Com: -0.842D-03 0.334D-02 0.122D-01-0.147D-02-0.745D-01 0.874D-01
 Coeff-Com:  0.444D-02-0.324D-01 0.324D-01-0.351D-01 0.145D-01 0.564D-01
 Coeff-Com: -0.521D+00 0.145D+01
 Coeff:      0.855D-03 0.112D-02 0.226D-04-0.356D-03-0.528D-03 0.267D-03
 Coeff:     -0.842D-03 0.334D-02 0.122D-01-0.147D-02-0.745D-01 0.874D-01
 Coeff:      0.444D-02-0.324D-01 0.324D-01-0.351D-01 0.145D-01 0.564D-01
 Coeff:     -0.521D+00 0.145D+01
 Gap=     0.085 Goal=   None    Shift=    0.000
 Gap=     0.085 Goal=   None    Shift=    0.000
 RMSDP=4.59D-06 MaxDP=7.99D-05 DE=-2.29D-08 OVMax= 4.71D-04

 Cycle  60  Pass 1  IDiag  1:
 E= -115.430224060977     Delta-E=       -0.000000026289 Rises=F Damp=F
 DIIS: error= 4.34D-05 at cycle  60 NSaved=  20.
 NSaved=20 IEnMin= 5 EnMin= -115.430285800633     IErMin=20 ErrMin= 4.34D-05
 ErrMax= 4.34D-05  0.00D+00 EMaxC= 1.00D-01 BMatC= 1.12D-07 BMatP= 1.87D-07
 IDIUse=1 WtCom= 1.00D+00 WtEn= 0.00D+00
 Coeff-Com: -0.141D-04-0.371D-03-0.542D-04 0.203D-03-0.224D-03-0.505D-03
 Coeff-Com: -0.169D-02 0.570D-02 0.125D-02 0.747D-02-0.285D-01 0.660D-02
 Coeff-Com:  0.300D-01-0.316D-01 0.187D-01-0.136D-01-0.233D-01-0.190D-01
 Coeff-Com:  0.199D-01 0.103D+01
 Coeff:     -0.141D-04-0.371D-03-0.542D-04 0.203D-03-0.224D-03-0.505D-03
 Coeff:     -0.169D-02 0.570D-02 0.125D-02 0.747D-02-0.285D-01 0.660D-02
 Coeff:      0.300D-01-0.316D-01 0.187D-01-0.136D-01-0.233D-01-0.190D-01
 Coeff:      0.199D-01 0.103D+01
 Gap=     0.085 Goal=   None    Shift=    0.000
 Gap=     0.085 Goal=   None    Shift=    0.000
 RMSDP=2.10D-06 MaxDP=3.78D-05 DE=-2.63D-08 OVMax= 2.19D-04

 Cycle  61  Pass 1  IDiag  1:
 E= -115.430224098405     Delta-E=       -0.000000037429 Rises=F Damp=F
 DIIS: error= 9.78D-06 at cycle  61 NSaved=  20.
 NSaved=20 IEnMin= 5 EnMin= -115.430285800633     IErMin=20 ErrMin= 9.78D-06
 ErrMax= 9.78D-06  0.00D+00 EMaxC= 1.00D-01 BMatC= 5.52D-09 BMatP= 1.12D-07
 IDIUse=1 WtCom= 1.00D+00 WtEn= 0.00D+00
 Coeff-Com: -0.359D-04 0.700D-04 0.138D-04-0.301D-04 0.890D-04 0.267D-03
 Coeff-Com: -0.406D-02-0.340D-04 0.644D-02 0.137D-02-0.545D-02-0.109D-02
 Coeff-Com:  0.101D-01-0.116D-01 0.460D-02 0.708D-02 0.357D-02-0.897D-01
 Coeff-Com: -0.180D+00 0.126D+01
 Coeff:     -0.359D-04 0.700D-04 0.138D-04-0.301D-04 0.890D-04 0.267D-03
 Coeff:     -0.406D-02-0.340D-04 0.644D-02 0.137D-02-0.545D-02-0.109D-02
 Coeff:      0.101D-01-0.116D-01 0.460D-02 0.708D-02 0.357D-02-0.897D-01
 Coeff:     -0.180D+00 0.126D+01
 Gap=     0.085 Goal=   None    Shift=    0.000
 Gap=     0.085 Goal=   None    Shift=    0.000
 RMSDP=5.45D-07 MaxDP=8.32D-06 DE=-3.74D-08 OVMax= 4.89D-05

 Cycle  62  Pass 1  IDiag  1:
 E= -115.430224100261     Delta-E=       -0.000000001856 Rises=F Damp=F
 DIIS: error= 2.29D-06 at cycle  62 NSaved=  20.
 NSaved=20 IEnMin= 4 EnMin= -115.430285800633     IErMin=20 ErrMin= 2.29D-06
 ErrMax= 2.29D-06  0.00D+00 EMaxC= 1.00D-01 BMatC= 2.87D-10 BMatP= 5.52D-09
 IDIUse=1 WtCom= 1.00D+00 WtEn= 0.00D+00
 Coeff-Com: -0.407D-04-0.903D-04 0.367D-04-0.561D-04 0.685D-04 0.941D-05
 Coeff-Com: -0.312D-03-0.355D-04 0.652D-03 0.364D-02-0.879D-02 0.720D-03
[...]
           D1           0.00000   0.00012   0.01057   0.00023   0.00985
           D2          -0.00000   0.00004   0.00021   0.00004   0.00017
           D3          -0.00000  -0.00010  -0.01059  -0.00020  -0.00993
                          A1        A2        A3        A4        A5
           A1           0.11547
           A2           0.03170   0.03700
           A3          -0.04494   0.03265   0.11463
           A4           0.00295   0.00160   0.00335   0.15410
           A5           0.00507   0.00851   0.00428   0.04662   0.11242
           A6           0.00291   0.00155   0.00333  -0.00644   0.04759
           A7          -0.00027   0.00069  -0.00029   0.00030   0.00004
           D1           0.00011   0.00031  -0.00011  -0.01058   0.01291
           D2          -0.00005   0.00008  -0.00005  -0.00015   0.00024
           D3          -0.00019  -0.00016   0.00003   0.01057  -0.01288
                          A6        A7        D1        D2        D3
           A6           0.15300
           A7           0.00031   0.01052
           D1          -0.01083   0.00011   0.01090
           D2          -0.00015  -0.00004   0.00012   0.00230
           D3           0.01082  -0.00019  -0.00863  -0.00012   0.01097
 ITU=  0  0  0  0  0  0  0  1  1  1  1  1  1  0
     Eigenvalues ---    0.00229   0.00496   0.01063   0.07325   0.09803
     Eigenvalues ---    0.11982   0.16000   0.34249   0.34837   0.46806
     Eigenvalues ---    0.593861000.000001000.000001000.000001000.00000
     Eigenvalues --- 1000.000001000.000001000.000001000.000001000.00000
 En-DIIS/RFO-DIIS/Sim-DIIS IScMMF=       -3 using points:    14   13   12   11   10    9    8    7    6    5
 RFO step:  Lambda=-7.06293286D-08.
 NNeg= 0 NGDIIS=10 SimSw=  2.50D-01 Rises=F DC= -1.50D-07 SmlDif=  1.00D-05
 NRisDI= 0 DoIntr=F SqrtH=F CThrHd= 10.0 CDAdj=  3.0
 RMS Error=  0.1941797522D-03 NUsed=10 OKEnD=F EnDIS=F
 InvSVX:  RCond= 3.21D-15 Info=           0 Equed=N FErr=  4.27D-05 BErr=  7.05D-17
 DIIS inversion failure, remove point  10.
 InvSVX:  RCond= 1.98D-13 Info=           0 Equed=N FErr=  5.11D-07 BErr=  4.62D-17
 DIIS inversion failure, remove point   9.
 InvSVX:  RCond= 4.56D-13 Info=           0 Equed=N FErr=  1.76D-07 BErr=  6.39D-17
 DIIS inversion failure, remove point   8.
 InvSVX:  RCond= 5.83D-13 Info=           0 Equed=N FErr=  1.45D-07 BErr=  4.00D-17
 DIIS inversion failure, remove point   7.
 InvSVX:  RCond= 3.61D-11 Info=           0 Equed=N FErr=  2.10D-09 BErr=  4.25D-17
 DIIS inversion failure, remove point   6.
 InvSVX:  RCond= 2.65D-10 Info=           0 Equed=N FErr=  1.43D-10 BErr=  1.44D-17
 DIIS inversion failure, remove point   5.
 InvSVX:  RCond= 6.12D-10 Info=           0 Equed=N FErr=  1.58D-11 BErr=  4.06D-17
 DIIS inversion failure, remove point   4.
 InvSVX:  RCond= 5.56D-08 Info=           0 Equed=N FErr=  6.11D-14 BErr=  3.37D-17
 DIIS inversion failure, remove point   3.
 InvSVX:  RCond= 2.55D-06 Info=           0 Equed=N FErr=  1.10D-15 BErr=  1.06D-17
 RFO-DIIS uses    2 points instead of   10
 DidBck=F Rises=F RFO-DIIS coefs:    1.04282   -0.04282    0.00000    0.00000    0.00000
                  RFO-DIIS coefs:    0.00000    0.00000    0.00000    0.00000    0.00000
 Iteration  1 RMS(Cart)=  0.00023166 RMS(Int)=  0.00000004
 Iteration  2 RMS(Cart)=  0.00000003 RMS(Int)=  0.00000002
 ITry= 1 IFail=0 DXMaxC= 5.81D-04 DCOld= 1.00D+10 DXMaxT= 8.49D-01 DXLimC= 3.00D+00 Rises=F
 Variable       Old X    -DE/DX   Delta X   Delta X   Delta X     New X
                                 (Linear)    (Quad)   (Total)
    X1       -3.93479  -0.00001  -0.00000   0.00000   0.00000  -3.93479
    Y1        0.00000   0.00007   0.00000   0.00000   0.00000   0.00000
    Z1        0.00000  -0.00000   0.00000   0.00000   0.00000   0.00000
    X2        3.93479  -0.00001   0.00000   0.00000   0.00000   3.93479
    Y2        0.00000   0.00003   0.00000   0.00000   0.00000   0.00000
    Z2        0.00000   0.00000   0.00000   0.00000   0.00000   0.00000
    R1        2.04399  -0.00006  -0.00000  -0.00013  -0.00013   2.04386
    R2        2.04417  -0.00007   0.00000  -0.00010  -0.00010   2.04407
    R3        2.04399  -0.00006  -0.00000  -0.00012  -0.00013   2.04386
    R4        1.82521  -0.00003   0.00000  -0.00003  -0.00003   1.82518
    A1        1.63939   0.00001   0.00005  -0.00007  -0.00002   1.63937
    A2        1.44831   0.00002  -0.00010   0.00031   0.00021   1.44852
    A3        1.63944   0.00001   0.00005  -0.00006  -0.00001   1.63943
    A4        2.09337  -0.00002  -0.00002  -0.00024  -0.00026   2.09312
    A5        2.09629   0.00004   0.00004   0.00048   0.00052   2.09681
    A6        2.09338  -0.00002  -0.00002  -0.00025  -0.00027   2.09312
    A7        1.68295  -0.00000   0.00001  -0.00027  -0.00026   1.68269
    D1        1.05382   0.00002   0.00003   0.00010   0.00013   1.05395
    D2       -3.14003   0.00000   0.00000  -0.00013  -0.00013  -3.14016
    D3       -1.05069  -0.00002  -0.00002  -0.00037  -0.00039  -1.05108
         Item               Value     Threshold  Converged?
 Maximum Force            0.000068     0.000450     YES
 RMS     Force            0.000035     0.000300     YES
 Maximum Displacement     0.000581     0.001800     YES
 RMS     Displacement     0.000232     0.001200     YES
 Predicted change in Energy=-3.531197D-08
 Optimization completed.
    -- Stationary point found.
                           ----------------------------
                           !   Optimized Parameters   !
                           ! (Angstroms and Degrees)  !
 --------------------------                            --------------------------
 ! Name  Definition              Value          Derivative Info.                !
 --------------------------------------------------------------------------------
 ! X1    R(1,-1)                -2.0822         -DE/DX =    0.0                 !
 ! Y1    R(1,-2)                 0.0            -DE/DX =    0.0001              !
 ! Z1    R(1,-3)                 0.0            -DE/DX =    0.0                 !
 ! X2    R(2,-1)                 2.0822         -DE/DX =    0.0                 !
 ! Y2    R(2,-2)                 0.0            -DE/DX =    0.0                 !
 ! Z2    R(2,-3)                 0.0            -DE/DX =    0.0                 !
 ! R1    R(1,4)                  1.0816         -DE/DX =   -0.0001              !
 ! R2    R(1,5)                  1.0817         -DE/DX =   -0.0001              !
 ! R3    R(1,6)                  1.0816         -DE/DX =   -0.0001              !
 ! R4    R(2,3)                  0.9659         -DE/DX =    0.0                 !
 ! A1    A(2,1,4)               93.9301         -DE/DX =    0.0                 !
 ! A2    A(2,1,5)               82.9822         -DE/DX =    0.0                 !
 ! A3    A(2,1,6)               93.9332         -DE/DX =    0.0                 !
 ! A4    A(4,1,5)              119.9415         -DE/DX =    0.0                 !
 ! A5    A(4,1,6)              120.1088         -DE/DX =    0.0                 !
 ! A6    A(5,1,6)              119.942          -DE/DX =    0.0                 !
 ! A7    A(1,2,3)               96.4261         -DE/DX =    0.0                 !
 ! D1    D(4,1,2,3)             60.3797         -DE/DX =    0.0                 !
 ! D2    D(5,1,2,3)           -179.9102         -DE/DX =    0.0                 !
 ! D3    D(6,1,2,3)            -60.2            -DE/DX =    0.0                 !
 --------------------------------------------------------------------------------
 Lowest energy point so far.  Saving SCF results.
 Largest change from initial coordinates is atom    5       0.343 Angstoms.
 GradGradGradGradGradGradGradGradGradGradGradGradGradGradGradGradGradGrad

 Leave Link  103 at Mon Apr 21 18:48:40 2025, MaxMem=   536870912 cpu:               0.3 elap:               0.1
 (Enter /home/szhao/Apps/g16/l202.exe)
                          Input orientation:                          
 ---------------------------------------------------------------------
 Center     Atomic      Atomic             Coordinates (Angstroms)
 Number     Number       Type             X           Y           Z
 ---------------------------------------------------------------------
      1          6           0       -2.082203    0.000000    0.000000
      2          8           0        2.082203    0.000000    0.000000
      3          1           0        2.190303   -0.959792   -0.000570
      4          1           0       -2.156338   -0.533897    0.937758
      5          1           0       -1.950041    1.073622   -0.001045
      6          1           0       -2.156396   -0.535722   -0.936712
 ---------------------------------------------------------------------
                    Distance matrix (angstroms):
                    1          2          3          4          5
     1  C    0.000000
     2  O    4.164405   0.000000
     3  H    4.378984   0.965861   0.000000
     4  H    1.081634   4.373747   4.467116   0.000000
     5  H    1.081727   4.172727   4.612723   1.872973   0.000000
     6  H    1.081634   4.373802   4.466541   1.874471   1.872977
                    6
     6  H    0.000000
 Symmetry turned off by external request.
 Stoichiometry    CH4O
 Framework group  C1[X(CH4O)]
 Deg. of freedom    12
 Full point group                 C1      NOp   1
 Rotational constants (GHZ):         115.2511840           3.5930870           3.5716578
 Leave Link  202 at Mon Apr 21 18:48:40 2025, MaxMem=   536870912 cpu:               0.1 elap:               0.0
 (Enter /home/szhao/Apps/g16/l601.exe)
 Copying SCF densities to generalized density rwf, IOpCl= 1 IROHF=0.

 **********************************************************************

            Population analysis using the SCF density.

 **********************************************************************

 Alpha  occ. eigenvalues --  -19.58173 -10.67235  -1.00661  -0.85288  -0.57350
 Alpha  occ. eigenvalues --   -0.57212  -0.45193  -0.32156  -0.26737
 Alpha virt. eigenvalues --   -0.18443   0.00223   0.03477   0.03656   0.06956
 Alpha virt. eigenvalues --    0.12937   0.14335   0.14496   0.17891   0.22612
 Alpha virt. eigenvalues --    0.23093   0.25035   0.29071   0.38742   0.38932
 Alpha virt. eigenvalues --    0.44531   0.53749   0.58799   0.59200   0.60123
 Alpha virt. eigenvalues --    0.72177   1.02598   1.02704   1.09459   1.13834
 Alpha virt. eigenvalues --    1.16278   1.37344   1.39973   1.40044   1.42363
 Alpha virt. eigenvalues --    1.45235   1.45779   1.48641   1.63581   1.88728
 Alpha virt. eigenvalues --    1.88848   1.90687   1.90722   2.12685   2.37428
 Alpha virt. eigenvalues --    2.40999   2.41206   2.53351   2.59572   2.59583
 Alpha virt. eigenvalues --    2.68743   2.73051   2.96103   2.96694   3.24745
 Alpha virt. eigenvalues --    3.26576   3.68174   3.68375   3.91832   5.11736
 Alpha virt. eigenvalues --    5.12248   5.59700  23.87483  49.95788
  Beta  occ. eigenvalues --  -19.58173 -10.67235  -1.00661  -0.85288  -0.57350
  Beta  occ. eigenvalues --   -0.57212  -0.45193  -0.32156  -0.26737
  Beta virt. eigenvalues --   -0.18443   0.00223   0.03477   0.03656   0.06956
  Beta virt. eigenvalues --    0.12937   0.14335   0.14496   0.17891   0.22612
  Beta virt. eigenvalues --    0.23093   0.25035   0.29071   0.38742   0.38932
  Beta virt. eigenvalues --    0.44531   0.53749   0.58799   0.59200   0.60123
  Beta virt. eigenvalues --    0.72177   1.02598   1.02704   1.09459   1.13834
  Beta virt. eigenvalues --    1.16278   1.37344   1.39973   1.40044   1.42363
  Beta virt. eigenvalues --    1.45235   1.45779   1.48641   1.63581   1.88728
  Beta virt. eigenvalues --    1.88848   1.90687   1.90722   2.12685   2.37428
  Beta virt. eigenvalues --    2.40999   2.41206   2.53351   2.59572   2.59583
  Beta virt. eigenvalues --    2.68743   2.73051   2.96103   2.96694   3.24745
  Beta virt. eigenvalues --    3.26576   3.68174   3.68375   3.91832   5.11736
  Beta virt. eigenvalues --    5.12248   5.59700  23.87483  49.95788
          Condensed to atoms (all electrons):
               1          2          3          4          5          6
     1  C    5.084904   0.041513  -0.000197   0.387148   0.389223   0.387146
     2  O    0.041513   8.285144   0.234865  -0.000697  -0.000509  -0.000697
     3  H   -0.000197   0.234865   0.550470   0.000004   0.000011   0.000004
     4  H    0.387148  -0.000697   0.000004   0.444071  -0.018505  -0.020193
     5  H    0.389223  -0.000509   0.000011  -0.018505   0.430102  -0.018507
     6  H    0.387146  -0.000697   0.000004  -0.020193  -0.018507   0.444087
          Atomic-Atomic Spin Densities.
               1          2          3          4          5          6
     1  C    0.000000   0.000000   0.000000  -0.000000   0.000000   0.000000
     2  O    0.000000  -0.000000  -0.000000  -0.000000   0.000000   0.000000
     3  H    0.000000  -0.000000   0.000000  -0.000000  -0.000000   0.000000
     4  H   -0.000000  -0.000000  -0.000000  -0.000000   0.000000  -0.000000
     5  H    0.000000   0.000000  -0.000000   0.000000  -0.000000  -0.000000
     6  H    0.000000   0.000000   0.000000  -0.000000  -0.000000  -0.000000
 Mulliken charges and spin densities:
               1          2
     1  C   -0.289737   0.000000
     2  O   -0.559620  -0.000000
     3  H    0.214842  -0.000000
     4  H    0.208170  -0.000000
     5  H    0.218184  -0.000000
     6  H    0.208159   0.000000
 Sum of Mulliken charges =  -0.00000   0.00000
 Mulliken charges and spin densities with hydrogens summed into heavy atoms:
               1          2
     1  C    0.344778   0.000000
     2  O   -0.344778  -0.000000
 Electronic spatial extent (au):  <R**2>=            324.9125
 Charge=             -0.0000 electrons
 Dipole moment (field-independent basis, Debye):
    X=             -6.8436    Y=             -1.5888    Z=             -0.0010  Tot=              7.0256
 Quadrupole moment (field-independent basis, Debye-Ang):
   XX=            -12.8953   YY=            -11.5287   ZZ=            -13.9256
   XY=             -3.5239   XZ=             -0.0024   YZ=              0.0014
 Traceless Quadrupole moment (field-independent basis, Debye-Ang):
   XX=             -0.1121   YY=              1.2545   ZZ=             -1.1424
   XY=             -3.5239   XZ=             -0.0024   YZ=              0.0014
 Octapole moment (field-independent basis, Debye-Ang**2):
  XXX=            -21.5908  YYY=              1.2844  ZZZ=              0.0045  XYY=              1.9359
  XXY=             -8.5603  XXZ=             -0.0040  XZZ=             -3.6417  YZZ=             -0.8011
  YYZ=             -0.0043  XYZ=              0.0027
 Hexadecapole moment (field-independent basis, Debye-Ang**3):
 XXXX=           -388.8663 YYYY=            -19.8505 ZZZZ=            -20.6768 XXXY=            -12.9521
 XXXZ=             -0.0111 YYYX=             -3.2397 YYYZ=              0.0007 ZZZX=             -0.0062
 ZZZY=             -0.0003 XXYY=            -55.9383 XXZZ=            -65.5315 YYZZ=             -7.0641
 XXYZ=              0.0080 YYXZ=              0.0064 ZZXY=              3.4969
 N-N= 2.416299141302D+01 E-N=-3.195864783599D+02  KE= 1.149925298774D+02
                          Isotropic Fermi Contact Couplings
        Atom                 a.u.       MegaHertz       Gauss      10(-4) cm-1
     1  C(13)              0.00000       0.00000       0.00000       0.00000
     2  O(17)             -0.00000       0.00000       0.00000       0.00000
     3  H(1)               0.00000       0.00000       0.00000       0.00000
     4  H(1)              -0.00000      -0.00000      -0.00000      -0.00000
     5  H(1)              -0.00000      -0.00000      -0.00000      -0.00000
     6  H(1)              -0.00000      -0.00000      -0.00000      -0.00000
 --------------------------------------------------------
       Center         ----  Spin Dipole Couplings  ----
                      3XX-RR        3YY-RR        3ZZ-RR
 --------------------------------------------------------
     1   Atom        0.000000     -0.000000     -0.000000
     2   Atom       -0.000000      0.000000      0.000000
     3   Atom        0.000000     -0.000000      0.000000
     4   Atom        0.000000     -0.000000      0.000000
     5   Atom        0.000000      0.000000     -0.000000
     6   Atom       -0.000000     -0.000000      0.000000
 --------------------------------------------------------
                        XY            XZ            YZ
 --------------------------------------------------------
     1   Atom       -0.000000     -0.000000      0.000000
     2   Atom       -0.000000      0.000006      0.000001
     3   Atom        0.000000      0.000000      0.000000
     4   Atom       -0.000000      0.000000     -0.000000
     5   Atom        0.000000     -0.000000     -0.000000
     6   Atom        0.000000      0.000000      0.000000
 --------------------------------------------------------


 ---------------------------------------------------------------------------------
              Anisotropic Spin Dipole Couplings in Principal Axis System
 ---------------------------------------------------------------------------------

       Atom             a.u.   MegaHertz   Gauss  10(-4) cm-1        Axes

              Baa    -0.0000    -0.000    -0.000    -0.000  0.1709  0.0822  0.9818
     1 C(13)  Bbb    -0.0000    -0.000    -0.000    -0.000  0.1083  0.9889 -0.1016
              Bcc     0.0000     0.000     0.000     0.000  0.9793 -0.1237 -0.1601
 
              Baa    -0.0000     0.000     0.000     0.000  0.7097  0.0756 -0.7004
     2 O(17)  Bbb     0.0000    -0.000    -0.000    -0.000 -0.1052  0.9945  0.0007
              Bcc     0.0000    -0.000    -0.000    -0.000  0.6966  0.0732  0.7137
 
              Baa    -0.0000    -0.000    -0.000    -0.000  0.7135  0.0475 -0.6990
     3 H(1)   Bbb    -0.0000    -0.000    -0.000    -0.000 -0.0681  0.9977 -0.0017
              Bcc     0.0000     0.000     0.000     0.000  0.6973  0.0489  0.7151
 
              Baa    -0.0000    -0.000    -0.000    -0.000  0.1214  0.8546  0.5050
     4 H(1)   Bbb    -0.0000    -0.000    -0.000    -0.000  0.9518  0.0441 -0.3034
              Bcc     0.0000     0.000     0.000     0.000  0.2815 -0.5175  0.8080
 
              Baa    -0.0000    -0.000    -0.000    -0.000  0.0194  0.0223  0.9996
     5 H(1)   Bbb    -0.0000    -0.000    -0.000    -0.000  0.9927 -0.1198 -0.0165
              Bcc     0.0000     0.000     0.000     0.000  0.1193  0.9926 -0.0244
 
              Baa    -0.0000    -0.000    -0.000    -0.000  0.1041  0.8672 -0.4869
     6 H(1)   Bbb    -0.0000    -0.000    -0.000    -0.000  0.9328 -0.2549 -0.2546
              Bcc     0.0000     0.000     0.000     0.000  0.3449  0.4277  0.8355
 

 ---------------------------------------------------------------------------------

 No NMR shielding tensors so no spin-rotation constants.
 Leave Link  601 at Mon Apr 21 18:48:41 2025, MaxMem=   536870912 cpu:               2.0 elap:               0.3
 (Enter /home/szhao/Apps/g16/l9999.exe)
 1\1\GINC-NODE05\FOpt\UM062X\6-311+G(d,p)\C1H4O1\SZHAO\21-Apr-2025\0\\#
 p opt UM062X/6-311+G** nosymm int=superfine\\Title Card Required\\0,1\
 C,-2.08220268,0.,0.\O,2.08220268,0.,0.\H,2.1903026735,-0.9597924181,-0
 .0005696241\H,-2.1563375328,-0.5338966667,0.9377583801\H,-1.9500405985
 ,1.0736220952,-0.0010447172\H,-2.1563960939,-0.5357221925,-0.936711573
 9\\Version=ES64L-G16RevA.03\HF=-115.4567014\S2=0.\S2-1=0.\S2A=0.\RMSD=
 6.226e-09\RMSF=3.066e-05\Dipole=-2.6924839,-0.6250912,-0.0003866\Quadr
 upole=-0.0833612,0.9327112,-0.84935,-2.6199553,-0.0017711,0.0010755\PG
 =C01 [X(C1H4O1)]\\@


 HE WHO LAUGHS LAST PROBABLY DIDN'T GET THE JOKE.
 Job cpu time:       0 days  0 hours 20 minutes  5.4 seconds.
 Elapsed time:       0 days  0 hours  2 minutes 46.3 seconds.
 File lengths (MBytes):  RWF=     22 Int=      0 D2E=      0 Chk=      2 Scr=      2
 Normal termination of Gaussian 16 at Mon Apr 21 18:48:41 2025.
