 Entering Gaussian System, Link 0=g16
 Initial command:
 /home/szhao/Apps/g16/l1.exe "/home/szhao/tmp/Gau-116052.inp" -scrdir="/home/szhao/tmp/"
 Default is to use a total of  16 processors:
                               16 via shared-memory
                                1 via Linda
 Entering Link 1 = /home/szhao/Apps/g16/l1.exe PID=    116056.
  
 Copyright (c) 1988,1990,1992,1993,1995,1998,2003,2009,2016,
            Gaussian, Inc.  All Rights Reserved.
  
 This is part of the Gaussian(R) 16 program.  It is based on
 the Gaussian(R) 09 system (copyright 2009, Gaussian, Inc.),
 the Gaussian(R) 03 system (copyright 2003, Gaussian, Inc.),
 the Gaussian(R) 98 system (copyright 1998, Gaussian, Inc.),
 the Gaussian(R) 94 system (copyright 1995, Gaussian, Inc.),
 the Gaussian 92(TM) system (copyright 1992, Gaussian, Inc.),
 the Gaussian 90(TM) system (copyright 1990, Gaussian, Inc.),
 the Gaussian 88(TM) system (copyright 1988, Gaussian, Inc.),
 the Gaussian 86(TM) system (copyright 1986, Carnegie Mellon
 University), and the Gaussian 82(TM) system (copyright 1983,
 Carnegie Mellon University). Gaussian is a federally registered
 trademark of Gaussian, Inc.
  
 This software contains proprietary and confidential information,
 including trade secrets, belonging to Gaussian, Inc.
  
 This software is provided under written license and may be
 used, copied, transmitted, or stored only in accord with that
 written license.
  
 The following legend is applicable only to US Government
 contracts under FAR:
  
                    RESTRICTED RIGHTS LEGEND
  
 Use, reproduction and disclosure by the US Government is
 subject to restrictions as set forth in subparagraphs (a)
 and (c) of the Commercial Computer Software - Restricted
 Rights clause in FAR 52.227-19.
  
 Gaussian, Inc.
 340 Quinnipiac St., Bldg. 40, Wallingford CT 06492
  
  
 ---------------------------------------------------------------
 Warning -- This program may not be used in any manner that
 competes with the business of Gaussian, Inc. or will provide
 assistance to any competitor of Gaussian, Inc.  The licensee
 of this program is prohibited from giving any competitor of
 Gaussian, Inc. access to this program.  By using this program,
 the user acknowledges that Gaussian, Inc. is engaged in the
 business of creating and licensing software in the field of
 computational chemistry and represents and warrants to the
 licensee that it is not a competitor of Gaussian, Inc. and that
 it will not use this program in any manner prohibited above.
 ---------------------------------------------------------------
  

 Cite this work as:
 Gaussian 16, Revision A.03,
 M. J. Frisch, G. W. Trucks, H. B. Schlegel, G. E. Scuseria, 
 M. A. Robb, J. R. Cheeseman, G. Scalmani, V. Barone, 
 G. A. Petersson, H. Nakatsuji, X. Li, M. Caricato, A. V. Marenich, 
 J. Bloino, B. G. Janesko, R. Gomperts, B. Mennucci, H. P. Hratchian, 
 J. V. Ortiz, A. F. Izmaylov, J. L. Sonnenberg, D. Williams-Young, 
 F. Ding, F. Lipparini, F. Egidi, J. Goings, B. Peng, A. Petrone, 
 T. Henderson, D. Ranasinghe, V. G. Zakrzewski, J. Gao, N. Rega, 
 G. Zheng, W. Liang, M. Hada, M. Ehara, K. Toyota, R. Fukuda, 
 J. Hasegawa, M. Ishida, T. Nakajima, Y. Honda, O. Kitao, H. Nakai, 
 T. Vreven, K. Throssell, J. A. Montgomery, Jr., J. E. Peralta, 
 F. Ogliaro, M. J. Bearpark, J. J. Heyd, E. N. Brothers, K. N. Kudin, 
 V. N. Staroverov, T. A. Keith, R. Kobayashi, J. Normand, 
 K. Raghavachari, A. P. Rendell, J. C. Burant, S. S. Iyengar, 
 J. Tomasi, M. Cossi, J. M. Millam, M. Klene, C. Adamo, R. Cammi, 
 J. W. Ochterski, R. L. Martin, K. Morokuma, O. Farkas, 
 J. B. Foresman, and D. J. Fox, Gaussian, Inc., Wallingford CT, 2016.
 
 ******************************************
 Gaussian 16:  ES64L-G16RevA.03 25-Dec-2016
                21-Apr-2025 
 ******************************************
 %chk=force.chk
 %mem=4GB
 %nprocshared=8
 Will use up to    8 processors via shared memory.
 ---------------------------------------------------
 #p UM062X/6-311+G** force int=superfine pop=saveNBO
 ---------------------------------------------------
 1/10=7,30=1,38=1/1,3;
 2/12=2,17=6,18=5,40=1/2;
 3/5=4,6=6,7=111,11=2,25=1,30=1,71=1,74=-55,75=-7,116=2/1,2,3;
 4//1;
 5/5=2,38=5/2;
 6/7=2,8=2,9=2,10=2,28=1,40=1,73=1/1,7;
 7/29=1/1,2,3,16;
 1/10=7,30=1/3;
 99//99;
 Leave Link    1 at Mon Apr 21 19:46:33 2025, MaxMem=   536870912 cpu:               1.5 elap:               0.2
 (Enter /home/szhao/Apps/g16/l101.exe)
 -------------------
 Title Card Required
 -------------------
 Symbolic Z-matrix:
 Charge =  0 Multiplicity = 1
 C                    -1.5143    0.        0. 
 S                     1.5143    0.        0. 
 
 ITRead=  0  0
 MicOpt= -1 -1
 NAtoms=      2 NQM=        2 NQMF=       0 NMMI=      0 NMMIF=      0
                NMic=       0 NMicF=      0.
                    Isotopes and Nuclear Properties:
 (Nuclear quadrupole moments (NQMom) in fm**2, nuclear magnetic moments (NMagM)
  in nuclear magnetons)

  Atom         1           2
 IAtWgt=          12          32
 AtmWgt=  12.0000000  31.9720718
 NucSpn=           0           0
 AtZEff=  -0.0000000  -0.0000000
 NQMom=    0.0000000   0.0000000
 NMagM=    0.0000000   0.0000000
 AtZNuc=   6.0000000  16.0000000
 Leave Link  101 at Mon Apr 21 19:46:34 2025, MaxMem=   536870912 cpu:               2.1 elap:               0.4
 (Enter /home/szhao/Apps/g16/l103.exe)

 GradGradGradGradGradGradGradGradGradGradGradGradGradGradGradGradGradGrad
 Berny optimization.
 Initialization pass.
 Trust Radius=3.00D-01 FncErr=1.00D-07 GrdErr=1.00D-07 EigMax=2.50D+02 EigMin=1.00D-04
 Number of steps in this run=      2 maximum allowed number of steps=      2.
 GradGradGradGradGradGradGradGradGradGradGradGradGradGradGradGradGradGrad

 Leave Link  103 at Mon Apr 21 19:46:34 2025, MaxMem=   536870912 cpu:               0.3 elap:               0.1
 (Enter /home/szhao/Apps/g16/l202.exe)
                          Input orientation:                          
 ---------------------------------------------------------------------
 Center     Atomic      Atomic             Coordinates (Angstroms)
 Number     Number       Type             X           Y           Z
 ---------------------------------------------------------------------
      1          6           0       -1.514296    0.000000    0.000000
      2         16           0        1.514296    0.000000    0.000000
 ---------------------------------------------------------------------
 Stoichiometry    CS
 Framework group  C*V[C*(CS)]
 Deg. of freedom     1
 Full point group                 C*V     NOp   4
 Largest Abelian subgroup         C2V     NOp   4
 Largest concise Abelian subgroup C1      NOp   1
                         Standard orientation:                         
 ---------------------------------------------------------------------
 Center     Atomic      Atomic             Coordinates (Angstroms)
 Number     Number       Type             X           Y           Z
 ---------------------------------------------------------------------
      1          6           0        0.000000    0.000000   -2.202612
      2         16           0        0.000000    0.000000    0.825980
 ---------------------------------------------------------------------
 Rotational constants (GHZ):           0.0000000           6.3148140           6.3148140
 Leave Link  202 at Mon Apr 21 19:46:34 2025, MaxMem=   536870912 cpu:               0.1 elap:               0.1
 (Enter /home/szhao/Apps/g16/l301.exe)
 Standard basis: 6-311+G(d,p) (5D, 7F)
 Ernie: Thresh=  0.10000D-02 Tol=  0.10000D-05 Strict=F.
 There are    28 symmetry adapted cartesian basis functions of A1  symmetry.
 There are     2 symmetry adapted cartesian basis functions of A2  symmetry.
 There are    12 symmetry adapted cartesian basis functions of B1  symmetry.
 There are    12 symmetry adapted cartesian basis functions of B2  symmetry.
 There are    26 symmetry adapted basis functions of A1  symmetry.
 There are     2 symmetry adapted basis functions of A2  symmetry.
 There are    12 symmetry adapted basis functions of B1  symmetry.
 There are    12 symmetry adapted basis functions of B2  symmetry.
    52 basis functions,    86 primitive gaussians,    54 cartesian basis functions
    11 alpha electrons       11 beta electrons
       nuclear repulsion energy        16.7738052033 Hartrees.
 IExCor= 4336 DFT=T Ex+Corr=M062X ExCW=0 ScaHFX=  0.540000
 ScaDFX=  1.000000  1.000000  1.000000  1.000000 ScalE2=  1.000000  1.000000
 IRadAn=      7 IRanWt=     -1 IRanGd=            0 ICorTp=0 IEmpDi=  4
 NAtoms=    2 NActive=    2 NUniq=    2 SFac= 1.00D+00 NAtFMM=   60 NAOKFM=F Big=F
 Integral buffers will be    131072 words long.
 Raffenetti 2 integral format.
 Two-electron integral symmetry is turned on.
 Leave Link  301 at Mon Apr 21 19:46:35 2025, MaxMem=   536870912 cpu:               0.5 elap:               0.1
 (Enter /home/szhao/Apps/g16/l302.exe)
 NPDir=0 NMtPBC=     1 NCelOv=     1 NCel=       1 NClECP=     1 NCelD=      1
         NCelK=      1 NCelE2=     1 NClLst=     1 CellRange=     0.0.
 One-electron integrals computed using PRISM.
 One-electron integral symmetry used in STVInt
 NBasis=    52 RedAO= T EigKep=  1.39D-02  NBF=    26     2    12    12
 NBsUse=    52 1.00D-06 EigRej= -1.00D+00 NBFU=    26     2    12    12
 Precomputing XC quadrature grid using
 IXCGrd= 4 IRadAn=           7 IRanWt=          -1 IRanGd=           0 AccXCQ= 0.00D+00.
 Generated NRdTot=       0 NPtTot=           0 NUsed=           0 NTot=          32
 NSgBfM=    53    53    53    53    53 MxSgAt=     2 MxSgA2=     2.
 Leave Link  302 at Mon Apr 21 19:46:36 2025, MaxMem=   536870912 cpu:               2.0 elap:               0.4
 (Enter /home/szhao/Apps/g16/l303.exe)
 DipDrv:  MaxL=1.
 Leave Link  303 at Mon Apr 21 19:46:36 2025, MaxMem=   536870912 cpu:               0.6 elap:               0.3
 (Enter /home/szhao/Apps/g16/l401.exe)
 ExpMin= 4.05D-02 ExpMax= 9.34D+04 ExpMxC= 3.17D+03 IAcc=3 IRadAn=         7 AccDes= 0.00D+00
 Harris functional with IExCor= 1009 and IRadAn=       7 diagonalized for initial guess.
 HarFok:  IExCor= 1009 AccDes= 0.00D+00 IRadAn=         7 IDoV= 1 UseB2=F ITyADJ=14
 ICtDFT=  3500011 ScaDFX=  1.000000  1.000000  1.000000  1.000000
 FoFCou: FMM=F IPFlag=           0 FMFlag=      100000 FMFlg1=           0
         NFxFlg=           0 DoJE=T BraDBF=F KetDBF=T FulRan=T
         wScrn=  0.000000 ICntrl=       500 IOpCl=  0 I1Cent=   200000004 NGrid=           0
         NMat0=    1 NMatS0=      1 NMatT0=    0 NMatD0=    1 NMtDS0=    0 NMtDT0=    0
 Petite list used in FoFCou.
 Harris En= -435.747407076153    
 JPrj=0 DoOrth=F DoCkMO=F.
 Initial guess orbital symmetries:
 Alpha Orbitals:
       Occupied  (SG) (SG) (SG) (SG) (PI) (PI) (SG) (SG) (SG) (PI)
                 (PI)
       Virtual   (PI) (PI) (SG) (SG) (SG) (PI) (PI) (SG) (PI) (PI)
                 (SG) (PI) (PI) (SG) (SG) (PI) (PI) (SG) (SG) (DLTA)
                 (DLTA) (PI) (PI) (SG) (DLTA) (DLTA) (PI) (PI)
                 (SG) (PI) (PI) (SG) (PI) (PI) (SG) (SG) (PI) (PI)
                 (SG) (SG) (SG)
 Beta  Orbitals:
       Occupied  (SG) (SG) (SG) (SG) (PI) (PI) (SG) (SG) (SG) (PI)
                 (PI)
       Virtual   (PI) (PI) (SG) (SG) (SG) (PI) (PI) (SG) (PI) (PI)
                 (SG) (PI) (PI) (SG) (SG) (PI) (PI) (SG) (SG) (DLTA)
                 (DLTA) (PI) (PI) (SG) (DLTA) (DLTA) (PI) (PI)
                 (SG) (PI) (PI) (SG) (PI) (PI) (SG) (SG) (PI) (PI)
                 (SG) (SG) (SG)
 The electronic state of the initial guess is 1-SG.
 Initial guess <Sx>= 0.0000 <Sy>= 0.0000 <Sz>= 0.0000 <S**2>=-0.0000 S=-0.0000
 Leave Link  401 at Mon Apr 21 19:46:37 2025, MaxMem=   536870912 cpu:               2.0 elap:               0.4
 (Enter /home/szhao/Apps/g16/l502.exe)
 Keep R1 and R2 ints in memory in symmetry-blocked form, NReq=7997257.
 FoFCou: FMM=F IPFlag=           0 FMFlag=           0 FMFlg1=           0
         NFxFlg=           0 DoJE=F BraDBF=F KetDBF=F FulRan=T
         wScrn=  0.000000 ICntrl=       600 IOpCl=  0 I1Cent=           0 NGrid=           0
         NMat0=    1 NMatS0=   1378 NMatT0=    0 NMatD0=    1 NMtDS0=    0 NMtDT0=    0
 Petite list used in FoFCou.
 UHF open shell SCF:
 Using DIIS extrapolation, IDIIS=  1040.
 NGot=   536870912 LenX=   536333382 LenY=   536330025
 Requested convergence on RMS density matrix=1.00D-08 within 128 cycles.
 Requested convergence on MAX density matrix=1.00D-06.
 Requested convergence on             energy=1.00D-06.
 No special actions if energy rises.

 Cycle   1  Pass 1  IDiag  1:
 E= -435.255474987911    
 DIIS: error= 6.41D-02 at cycle   1 NSaved=   1.
 NSaved= 1 IEnMin= 1 EnMin= -435.255474987911     IErMin= 1 ErrMin= 6.41D-02
 ErrMax= 6.41D-02  0.00D+00 EMaxC= 1.00D-01 BMatC= 8.87D-01 BMatP= 8.87D-01
 IDIUse=3 WtCom= 3.59D-01 WtEn= 6.41D-01
 Coeff-Com:  0.100D+01
 Coeff-En:   0.100D+01
 Coeff:      0.100D+01
 Gap=    -0.615 Goal=   None    Shift=    0.000
 Gap=    -0.615 Goal=   None    Shift=    0.000
 GapD=   -0.615 DampG=0.250 DampE=0.500 DampFc=0.2500 IDamp=-1.
 Damping current iteration by 2.50D-01
 RMSDP=2.78D-02 MaxDP=3.65D-01              OVMax= 9.90D-01

 Cycle   2  Pass 1  IDiag  1:
 E= -435.585195740988     Delta-E=       -0.329720753077 Rises=F Damp=T
 DIIS: error= 2.11D-02 at cycle   2 NSaved=   2.
 NSaved= 2 IEnMin= 2 EnMin= -435.585195740988     IErMin= 2 ErrMin= 2.11D-02
 ErrMax= 2.11D-02  0.00D+00 EMaxC= 1.00D-01 BMatC= 1.49D-01 BMatP= 8.87D-01
 IDIUse=3 WtCom= 7.89D-01 WtEn= 2.11D-01
 Coeff-Com:  0.146D+00 0.854D+00
 Coeff-En:   0.255D+00 0.745D+00
 Coeff:      0.169D+00 0.831D+00
 Gap=     0.188 Goal=   None    Shift=    0.000
 Gap=     0.188 Goal=   None    Shift=    0.000
 RMSDP=9.05D-03 MaxDP=9.15D-02 DE=-3.30D-01 OVMax= 8.52D-01

 Cycle   3  Pass 1  IDiag  1:
 E= -435.787915899568     Delta-E=       -0.202720158580 Rises=F Damp=F
 DIIS: error= 3.99D-02 at cycle   3 NSaved=   3.
 NSaved= 3 IEnMin= 3 EnMin= -435.787915899568     IErMin= 2 ErrMin= 2.11D-02
 ErrMax= 3.99D-02  0.00D+00 EMaxC= 1.00D-01 BMatC= 1.74D-01 BMatP= 1.49D-01
 IDIUse=2 WtCom= 0.00D+00 WtEn= 1.00D+00
 Coeff-En:   0.173D+00 0.000D+00 0.827D+00
 Coeff:      0.173D+00 0.000D+00 0.827D+00
 Gap=     0.131 Goal=   None    Shift=    0.000
 Gap=     0.131 Goal=   None    Shift=    0.000
 RMSDP=6.45D-03 MaxDP=8.82D-02 DE=-2.03D-01 OVMax= 2.48D-01

 Cycle   4  Pass 1  IDiag  1:
 E= -435.708386709117     Delta-E=        0.079529190451 Rises=F Damp=F
 DIIS: error= 4.20D-02 at cycle   4 NSaved=   4.
 NSaved= 4 IEnMin= 3 EnMin= -435.787915899568     IErMin= 2 ErrMin= 2.11D-02
 ErrMax= 4.20D-02  0.00D+00 EMaxC= 1.00D-01 BMatC= 3.59D-01 BMatP= 1.49D-01
 IDIUse=2 WtCom= 0.00D+00 WtEn= 1.00D+00
 Coeff-En:   0.000D+00 0.000D+00 0.630D+00 0.370D+00
 Coeff:      0.000D+00 0.000D+00 0.630D+00 0.370D+00
 Gap=     0.114 Goal=   None    Shift=    0.000
 Gap=     0.114 Goal=   None    Shift=    0.000
 RMSDP=3.41D-03 MaxDP=5.64D-02 DE= 7.95D-02 OVMax= 1.48D-01

 Cycle   5  Pass 1  IDiag  1:
 E= -435.843671844921     Delta-E=       -0.135285135804 Rises=F Damp=F
 DIIS: error= 5.79D-03 at cycle   5 NSaved=   5.
 NSaved= 5 IEnMin= 5 EnMin= -435.843671844921     IErMin= 5 ErrMin= 5.79D-03
 ErrMax= 5.79D-03  0.00D+00 EMaxC= 1.00D-01 BMatC= 6.79D-03 BMatP= 1.49D-01
 IDIUse=3 WtCom= 9.42D-01 WtEn= 5.79D-02
 Coeff-Com: -0.557D-02-0.120D-01 0.547D-01-0.976D-01 0.106D+01
 Coeff-En:   0.000D+00 0.000D+00 0.450D-01 0.000D+00 0.955D+00
 Coeff:     -0.524D-02-0.113D-01 0.541D-01-0.920D-01 0.105D+01
 Gap=     0.123 Goal=   None    Shift=    0.000
 Gap=     0.123 Goal=   None    Shift=    0.000
 RMSDP=1.07D-03 MaxDP=1.86D-02 DE=-1.35D-01 OVMax= 5.24D-02

 Cycle   6  Pass 1  IDiag  1:
 E= -435.847322908524     Delta-E=       -0.003651063603 Rises=F Damp=F
 DIIS: error= 4.64D-03 at cycle   6 NSaved=   6.
 NSaved= 6 IEnMin= 6 EnMin= -435.847322908524     IErMin= 6 ErrMin= 4.64D-03
 ErrMax= 4.64D-03  0.00D+00 EMaxC= 1.00D-01 BMatC= 3.06D-03 BMatP= 6.79D-03
 IDIUse=3 WtCom= 9.54D-01 WtEn= 4.64D-02
 Coeff-Com: -0.156D-01 0.590D-02 0.160D-01-0.740D-01 0.363D+00 0.705D+00
 Coeff-En:   0.000D+00 0.000D+00 0.000D+00 0.000D+00 0.000D+00 0.100D+01
 Coeff:     -0.149D-01 0.563D-02 0.153D-01-0.706D-01 0.346D+00 0.718D+00
 Gap=     0.125 Goal=   None    Shift=    0.000
 Gap=     0.125 Goal=   None    Shift=    0.000
 RMSDP=7.15D-04 MaxDP=8.82D-03 DE=-3.65D-03 OVMax= 2.71D-02

 Cycle   7  Pass 1  IDiag  1:
 E= -435.847957136096     Delta-E=       -0.000634227572 Rises=F Damp=F
 DIIS: error= 5.92D-03 at cycle   7 NSaved=   7.
 NSaved= 7 IEnMin= 7 EnMin= -435.847957136096     IErMin= 6 ErrMin= 4.64D-03
 ErrMax= 5.92D-03  0.00D+00 EMaxC= 1.00D-01 BMatC= 5.67D-03 BMatP= 3.06D-03
 IDIUse=3 WtCom= 9.54D-01 WtEn= 4.64D-02
 Coeff-Com: -0.958D-02 0.100D-01 0.309D-01-0.134D+00 0.417D+00-0.880D+00
 Coeff-Com:  0.157D+01
 Coeff-En:   0.000D+00 0.000D+00 0.000D+00 0.000D+00 0.000D+00 0.000D+00
 Coeff-En:   0.100D+01
 Coeff:     -0.914D-02 0.957D-02 0.294D-01-0.128D+00 0.398D+00-0.840D+00
 Coeff:      0.154D+01
 Gap=     0.125 Goal=   None    Shift=    0.000
 Gap=     0.125 Goal=   None    Shift=    0.000
 RMSDP=9.11D-04 MaxDP=1.55D-02 DE=-6.34D-04 OVMax= 4.58D-02

 Cycle   8  Pass 1  IDiag  1:
 E= -435.850728302001     Delta-E=       -0.002771165904 Rises=F Damp=F
 DIIS: error= 4.37D-03 at cycle   8 NSaved=   8.
 NSaved= 8 IEnMin= 8 EnMin= -435.850728302001     IErMin= 8 ErrMin= 4.37D-03
 ErrMax= 4.37D-03  0.00D+00 EMaxC= 1.00D-01 BMatC= 2.84D-03 BMatP= 3.06D-03
 IDIUse=3 WtCom= 9.56D-01 WtEn= 4.37D-02
 Coeff-Com: -0.190D-01 0.844D-02-0.670D-01 0.142D+00-0.236D+00 0.143D+01
 Coeff-Com: -0.604D+01 0.578D+01
 Coeff-En:   0.000D+00 0.000D+00 0.000D+00 0.000D+00 0.000D+00 0.000D+00
 Coeff-En:   0.000D+00 0.100D+01
 Coeff:     -0.182D-01 0.807D-02-0.641D-01 0.136D+00-0.225D+00 0.136D+01
 Coeff:     -0.577D+01 0.557D+01
 Gap=     0.130 Goal=   None    Shift=    0.000
 Gap=     0.130 Goal=   None    Shift=    0.000
 RMSDP=3.57D-03 MaxDP=5.36D-02 DE=-2.77D-03 OVMax= 1.74D-01

 Cycle   9  Pass 1  IDiag  1:
 E= -435.856219214881     Delta-E=       -0.005490912880 Rises=F Damp=F
 DIIS: error= 1.58D-03 at cycle   9 NSaved=   9.
 NSaved= 9 IEnMin= 9 EnMin= -435.856219214881     IErMin= 9 ErrMin= 1.58D-03
 ErrMax= 1.58D-03  0.00D+00 EMaxC= 1.00D-01 BMatC= 4.90D-04 BMatP= 2.84D-03
 IDIUse=3 WtCom= 9.84D-01 WtEn= 1.58D-02
 Coeff-Com: -0.655D-02-0.546D-03-0.412D-01 0.553D-01-0.101D+00 0.662D+00
 Coeff-Com: -0.282D+01 0.283D+01 0.414D+00
 Coeff-En:   0.000D+00 0.000D+00 0.000D+00 0.000D+00 0.000D+00 0.000D+00
 Coeff-En:   0.000D+00 0.000D+00 0.100D+01
 Coeff:     -0.645D-02-0.537D-03-0.406D-01 0.545D-01-0.996D-01 0.651D+00
 Coeff:     -0.277D+01 0.279D+01 0.424D+00
 Gap=     0.134 Goal=   None    Shift=    0.000
 Gap=     0.134 Goal=   None    Shift=    0.000
 RMSDP=1.77D-04 MaxDP=2.20D-03 DE=-5.49D-03 OVMax= 8.94D-03

 Cycle  10  Pass 1  IDiag  1:
 E= -435.856305599444     Delta-E=       -0.000086384563 Rises=F Damp=F
 DIIS: error= 8.21D-04 at cycle  10 NSaved=  10.
 NSaved=10 IEnMin=10 EnMin= -435.856305599444     IErMin=10 ErrMin= 8.21D-04
 ErrMax= 8.21D-04  0.00D+00 EMaxC= 1.00D-01 BMatC= 9.57D-05 BMatP= 4.90D-04
 IDIUse=3 WtCom= 9.92D-01 WtEn= 8.21D-03
 Coeff-Com:  0.439D-02-0.419D-03 0.332D-02-0.442D-01-0.466D-01 0.706D-01
 Coeff-Com:  0.234D+01-0.314D+01-0.177D+01 0.358D+01
 Coeff-En:   0.000D+00 0.000D+00 0.000D+00 0.000D+00 0.000D+00 0.000D+00
 Coeff-En:   0.000D+00 0.000D+00 0.000D+00 0.100D+01
 Coeff:      0.435D-02-0.415D-03 0.330D-02-0.439D-01-0.462D-01 0.700D-01
 Coeff:      0.232D+01-0.311D+01-0.175D+01 0.356D+01
 Gap=     0.138 Goal=   None    Shift=    0.000
 Gap=     0.138 Goal=   None    Shift=    0.000
 RMSDP=8.84D-04 MaxDP=9.42D-03 DE=-8.64D-05 OVMax= 3.36D-02

 Cycle  11  Pass 1  IDiag  1:
 E= -435.856715087249     Delta-E=       -0.000409487805 Rises=F Damp=F
 DIIS: error= 6.20D-04 at cycle  11 NSaved=  11.
 NSaved=11 IEnMin=11 EnMin= -435.856715087249     IErMin=11 ErrMin= 6.20D-04
 ErrMax= 6.20D-04  0.00D+00 EMaxC= 1.00D-01 BMatC= 7.20D-05 BMatP= 9.57D-05
 IDIUse=3 WtCom= 9.94D-01 WtEn= 6.20D-03
 Coeff-Com: -0.233D-02 0.267D-02-0.378D-02 0.121D-01-0.596D-01 0.128D+00
 Coeff-Com:  0.202D+00-0.543D+00-0.383D-01 0.430D+00 0.872D+00
 Coeff-En:   0.000D+00 0.000D+00 0.000D+00 0.000D+00 0.000D+00 0.000D+00
 Coeff-En:   0.000D+00 0.000D+00 0.000D+00 0.000D+00 0.100D+01
 Coeff:     -0.232D-02 0.266D-02-0.376D-02 0.120D-01-0.593D-01 0.127D+00
 Coeff:      0.201D+00-0.540D+00-0.381D-01 0.428D+00 0.873D+00
 Gap=     0.140 Goal=   None    Shift=    0.000
 Gap=     0.140 Goal=   None    Shift=    0.000
 RMSDP=5.27D-04 MaxDP=6.00D-03 DE=-4.09D-04 OVMax= 2.44D-02

 Cycle  12  Pass 1  IDiag  1:
 E= -435.856800550444     Delta-E=       -0.000085463195 Rises=F Damp=F
 DIIS: error= 1.58D-04 at cycle  12 NSaved=  12.
 NSaved=12 IEnMin=12 EnMin= -435.856800550444     IErMin=12 ErrMin= 1.58D-04
 ErrMax= 1.58D-04  0.00D+00 EMaxC= 1.00D-01 BMatC= 7.47D-06 BMatP= 7.20D-05
 IDIUse=3 WtCom= 9.98D-01 WtEn= 1.58D-03
 Coeff-Com: -0.453D-03 0.105D-02 0.302D-02-0.490D-02 0.107D-01-0.469D-01
 Coeff-Com:  0.256D+00-0.269D+00-0.527D-01 0.129D+00 0.297D+00 0.677D+00
 Coeff-En:   0.000D+00 0.000D+00 0.000D+00 0.000D+00 0.000D+00 0.000D+00
 Coeff-En:   0.000D+00 0.000D+00 0.000D+00 0.000D+00 0.000D+00 0.100D+01
 Coeff:     -0.453D-03 0.105D-02 0.302D-02-0.489D-02 0.107D-01-0.468D-01
 Coeff:      0.256D+00-0.269D+00-0.526D-01 0.129D+00 0.297D+00 0.678D+00
 Gap=     0.139 Goal=   None    Shift=    0.000
 Gap=     0.139 Goal=   None    Shift=    0.000
 RMSDP=1.71D-04 MaxDP=2.11D-03 DE=-8.55D-05 OVMax= 8.64D-03

 Cycle  13  Pass 1  IDiag  1:
 E= -435.856798478653     Delta-E=        0.000002071791 Rises=F Damp=F
 DIIS: error= 2.22D-04 at cycle  13 NSaved=  13.
 NSaved=13 IEnMin=12 EnMin= -435.856800550444     IErMin=12 ErrMin= 1.58D-04
 ErrMax= 2.22D-04  0.00D+00 EMaxC= 1.00D-01 BMatC= 8.45D-06 BMatP= 7.47D-06
 IDIUse=3 WtCom= 9.98D-01 WtEn= 1.58D-03
 Rare condition: small coef for last iteration:  0.000D+00
 Coeff-Com: -0.641D-03 0.546D-03-0.695D-03 0.160D-02-0.726D-03 0.104D+00
 Coeff-Com:  0.393D-01-0.222D+00-0.846D-01 0.200D+00-0.178D+00-0.580D-01
 Coeff-Com:  0.120D+01
 Coeff-En:   0.000D+00 0.000D+00 0.000D+00 0.000D+00 0.000D+00 0.000D+00
 Coeff-En:   0.000D+00 0.000D+00 0.000D+00 0.000D+00 0.000D+00 0.000D+00
 Coeff-En:   0.100D+01
 Coeff:     -0.641D-03 0.546D-03-0.695D-03 0.160D-02-0.726D-03 0.104D+00
 Coeff:      0.393D-01-0.222D+00-0.846D-01 0.200D+00-0.178D+00-0.580D-01
 Coeff:      0.120D+01
 Gap=     0.139 Goal=   None    Shift=    0.000
 Gap=     0.139 Goal=   None    Shift=    0.000
 RMSDP=8.66D-05 MaxDP=1.08D-03 DE= 2.07D-06 OVMax= 4.24D-03

 Cycle  14  Pass 1  IDiag  1:
 E= -435.856804882732     Delta-E=       -0.000006404079 Rises=F Damp=F
 DIIS: error= 5.54D-05 at cycle  14 NSaved=  14.
 NSaved=14 IEnMin=14 EnMin= -435.856804882732     IErMin=14 ErrMin= 5.54D-05
 ErrMax= 5.54D-05  0.00D+00 EMaxC= 1.00D-01 BMatC= 7.07D-07 BMatP= 7.47D-06
 IDIUse=1 WtCom= 1.00D+00 WtEn= 0.00D+00
 Coeff-Com:  0.321D-04 0.440D-04-0.303D-03 0.219D-03-0.136D-02-0.414D-02
 Coeff-Com:  0.135D-01-0.208D-01-0.618D-02 0.506D-01-0.649D-01-0.520D-01
 Coeff-Com: -0.510D-01 0.114D+01
 Coeff:      0.321D-04 0.440D-04-0.303D-03 0.219D-03-0.136D-02-0.414D-02
 Coeff:      0.135D-01-0.208D-01-0.618D-02 0.506D-01-0.649D-01-0.520D-01
 Coeff:     -0.510D-01 0.114D+01
 Gap=     0.139 Goal=   None    Shift=    0.000
 Gap=     0.139 Goal=   None    Shift=    0.000
 RMSDP=2.69D-05 MaxDP=3.19D-04 DE=-6.40D-06 OVMax= 1.45D-03

 Cycle  15  Pass 1  IDiag  1:
 E= -435.856805066905     Delta-E=       -0.000000184173 Rises=F Damp=F
 DIIS: error= 3.10D-05 at cycle  15 NSaved=  15.
 NSaved=15 IEnMin=15 EnMin= -435.856805066905     IErMin=15 ErrMin= 3.10D-05
 ErrMax= 3.10D-05  0.00D+00 EMaxC= 1.00D-01 BMatC= 1.86D-07 BMatP= 7.07D-07
 IDIUse=1 WtCom= 1.00D+00 WtEn= 0.00D+00
 Coeff-Com:  0.189D-05 0.113D-07-0.227D-04 0.615D-04-0.362D-03 0.262D-02
 Coeff-Com: -0.438D-02 0.266D-02-0.905D-02 0.906D-02-0.198D-02-0.394D-01
 Coeff-Com:  0.128D+00-0.122D+00 0.104D+01
 Coeff:      0.189D-05 0.113D-07-0.227D-04 0.615D-04-0.362D-03 0.262D-02
 Coeff:     -0.438D-02 0.266D-02-0.905D-02 0.906D-02-0.198D-02-0.394D-01
 Coeff:      0.128D+00-0.122D+00 0.104D+01
 Gap=     0.139 Goal=   None    Shift=    0.000
 Gap=     0.139 Goal=   None    Shift=    0.000
 RMSDP=1.56D-05 MaxDP=1.91D-04 DE=-1.84D-07 OVMax= 7.79D-04

 Cycle  16  Pass 1  IDiag  1:
 E= -435.856805217413     Delta-E=       -0.000000150508 Rises=F Damp=F
 DIIS: error= 1.18D-06 at cycle  16 NSaved=  16.
 NSaved=16 IEnMin=16 EnMin= -435.856805217413     IErMin=16 ErrMin= 1.18D-06
 ErrMax= 1.18D-06  0.00D+00 EMaxC= 1.00D-01 BMatC= 2.40D-10 BMatP= 1.86D-07
 IDIUse=1 WtCom= 1.00D+00 WtEn= 0.00D+00
 Coeff-Com:  0.867D-06-0.836D-06 0.161D-05 0.635D-05-0.345D-04-0.576D-03
 Coeff-Com: -0.278D-04 0.731D-03 0.117D-02-0.216D-02 0.291D-02 0.543D-02
 Coeff-Com: -0.131D-01-0.729D-02-0.483D-01 0.106D+01
 Coeff:      0.867D-06-0.836D-06 0.161D-05 0.635D-05-0.345D-04-0.576D-03
 Coeff:     -0.278D-04 0.731D-03 0.117D-02-0.216D-02 0.291D-02 0.543D-02
 Coeff:     -0.131D-01-0.729D-02-0.483D-01 0.106D+01
 Gap=     0.139 Goal=   None    Shift=    0.000
 Gap=     0.139 Goal=   None    Shift=    0.000
 RMSDP=1.32D-06 MaxDP=1.63D-05 DE=-1.51D-07 OVMax= 6.50D-05

 Cycle  17  Pass 1  IDiag  1:
 E= -435.856805217482     Delta-E=       -0.000000000069 Rises=F Damp=F
 DIIS: error= 1.22D-06 at cycle  17 NSaved=  17.
 NSaved=17 IEnMin=17 EnMin= -435.856805217482     IErMin=16 ErrMin= 1.18D-06
 ErrMax= 1.22D-06  0.00D+00 EMaxC= 1.00D-01 BMatC= 2.87D-10 BMatP= 2.40D-10
 IDIUse=1 WtCom= 1.00D+00 WtEn= 0.00D+00
 Coeff-Com:  0.226D-06-0.723D-07-0.131D-05-0.794D-06-0.316D-05-0.300D-04
 Coeff-Com: -0.634D-04 0.146D-03 0.436D-04 0.226D-04-0.205D-03-0.383D-03
 Coeff-Com: -0.112D-02 0.811D-02-0.327D-01 0.132D-01 0.101D+01
 Coeff:      0.226D-06-0.723D-07-0.131D-05-0.794D-06-0.316D-05-0.300D-04
 Coeff:     -0.634D-04 0.146D-03 0.436D-04 0.226D-04-0.205D-03-0.383D-03
 Coeff:     -0.112D-02 0.811D-02-0.327D-01 0.132D-01 0.101D+01
 Gap=     0.139 Goal=   None    Shift=    0.000
 Gap=     0.139 Goal=   None    Shift=    0.000
 RMSDP=5.86D-07 MaxDP=7.16D-06 DE=-6.86D-11 OVMax= 2.94D-05

 Cycle  18  Pass 1  IDiag  1:
 E= -435.856805217709     Delta-E=       -0.000000000227 Rises=F Damp=F
 DIIS: error= 1.63D-08 at cycle  18 NSaved=  18.
 NSaved=18 IEnMin=18 EnMin= -435.856805217709     IErMin=18 ErrMin= 1.63D-08
 ErrMax= 1.63D-08  0.00D+00 EMaxC= 1.00D-01 BMatC= 7.34D-14 BMatP= 2.40D-10
 IDIUse=1 WtCom= 1.00D+00 WtEn= 0.00D+00
 Coeff-Com: -0.229D-07 0.174D-07 0.987D-07-0.442D-06 0.211D-05 0.110D-04
 Coeff-Com:  0.133D-04-0.336D-04-0.440D-04 0.683D-04-0.355D-04-0.549D-04
 Coeff-Com:  0.711D-04 0.699D-03 0.767D-03-0.293D-01 0.258D-02 0.103D+01
 Coeff:     -0.229D-07 0.174D-07 0.987D-07-0.442D-06 0.211D-05 0.110D-04
 Coeff:      0.133D-04-0.336D-04-0.440D-04 0.683D-04-0.355D-04-0.549D-04
 Coeff:      0.711D-04 0.699D-03 0.767D-03-0.293D-01 0.258D-02 0.103D+01
 Gap=     0.139 Goal=   None    Shift=    0.000
 Gap=     0.139 Goal=   None    Shift=    0.000
 RMSDP=8.77D-09 MaxDP=1.39D-07 DE=-2.27D-10 OVMax= 2.09D-07

 SCF Done:  E(UM062X) =  -435.856805218     A.U. after   18 cycles
            NFock= 18  Conv=0.88D-08     -V/T= 2.0018
 <Sx>= 0.0000 <Sy>= 0.0000 <Sz>= 0.0000 <S**2>= 0.0000 S= 0.0000
 <L.S>=  0.00000000000    
 KE= 4.350777120708D+02 PE=-1.068548365373D+03 EE= 1.808400428808D+02
 Annihilation of the first spin contaminant:
 S**2 before annihilation     0.0000,   after     0.0000
 Leave Link  502 at Mon Apr 21 19:46:40 2025, MaxMem=   536870912 cpu:              14.4 elap:               2.3
 (Enter /home/szhao/Apps/g16/l601.exe)
 Copying SCF densities to generalized density rwf, IOpCl= 1 IROHF=0.

 **********************************************************************

            Population analysis using the SCF density.

 **********************************************************************

 Orbital symmetries:
 Alpha Orbitals:
       Occupied  (SG) (SG) (SG) (SG) (PI) (PI) (SG) (SG) (SG) (PI)
                 (PI)
       Virtual   (PI) (PI) (SG) (SG) (SG) (PI) (PI) (PI) (PI) (SG)
                 (SG) (PI) (PI) (SG) (SG) (PI) (PI) (SG) (SG) (PI)
                 (PI) (DLTA) (DLTA) (SG) (DLTA) (DLTA) (PI) (PI)
                 (SG) (PI) (PI) (SG) (PI) (PI) (SG) (SG) (PI) (PI)
                 (SG) (SG) (SG)
 Beta  Orbitals:
       Occupied  (SG) (SG) (SG) (SG) (PI) (PI) (SG) (SG) (SG) (PI)
                 (PI)
       Virtual   (PI) (PI) (SG) (SG) (SG) (PI) (PI) (PI) (PI) (SG)
                 (SG) (PI) (PI) (SG) (SG) (PI) (PI) (SG) (SG) (PI)
                 (PI) (DLTA) (DLTA) (SG) (DLTA) (DLTA) (PI) (PI)
                 (SG) (PI) (PI) (SG) (PI) (PI) (SG) (SG) (PI) (PI)
                 (SG) (SG) (SG)
 The electronic state is 1-SG.
 Alpha  occ. eigenvalues --  -89.92608 -10.79498  -8.28533  -6.21090  -6.19875
 Alpha  occ. eigenvalues --   -6.19875  -0.73557  -0.69756  -0.34046  -0.30205
 Alpha  occ. eigenvalues --   -0.30205
 Alpha virt. eigenvalues --   -0.16266  -0.16266  -0.14415   0.03081   0.05350
 Alpha virt. eigenvalues --    0.05884   0.05884   0.08761   0.08761   0.08797
 Alpha virt. eigenvalues --    0.14430   0.36437   0.36437   0.37290   0.51319
 Alpha virt. eigenvalues --    0.53556   0.53556   0.59386   0.72731   0.83143
 Alpha virt. eigenvalues --    0.83143   0.85623   0.85624   0.88851   1.25547
 Alpha virt. eigenvalues --    1.25549   1.28133   1.28133   1.32097   1.69811
 Alpha virt. eigenvalues --    1.69811   1.70893   2.61784   2.61784   2.65624
 Alpha virt. eigenvalues --    7.76984  17.45985  17.45985  17.47566  23.15290
 Alpha virt. eigenvalues --  189.02113
  Beta  occ. eigenvalues --  -89.92608 -10.79498  -8.28533  -6.21090  -6.19875
  Beta  occ. eigenvalues --   -6.19875  -0.73557  -0.69756  -0.34046  -0.30205
  Beta  occ. eigenvalues --   -0.30205
  Beta virt. eigenvalues --   -0.16266  -0.16266  -0.14415   0.03081   0.05350
  Beta virt. eigenvalues --    0.05884   0.05884   0.08761   0.08761   0.08797
  Beta virt. eigenvalues --    0.14430   0.36437   0.36437   0.37290   0.51319
  Beta virt. eigenvalues --    0.53556   0.53556   0.59386   0.72731   0.83143
  Beta virt. eigenvalues --    0.83143   0.85623   0.85624   0.88851   1.25547
  Beta virt. eigenvalues --    1.25549   1.28133   1.28133   1.32097   1.69811
  Beta virt. eigenvalues --    1.69811   1.70893   2.61784   2.61784   2.65624
  Beta virt. eigenvalues --    7.76984  17.45985  17.45985  17.47566  23.15290
  Beta virt. eigenvalues --  189.02113
          Condensed to atoms (all electrons):
               1          2
     1  C    5.669598   0.142630
     2  S    0.142630  16.045143
          Atomic-Atomic Spin Densities.
               1          2
     1  C   -0.000000   0.000000
     2  S    0.000000   0.000000
 Mulliken charges and spin densities:
               1          2
     1  C    0.187773  -0.000000
     2  S   -0.187773   0.000000
 Sum of Mulliken charges =   0.00000   0.00000
 Mulliken charges and spin densities with hydrogens summed into heavy atoms:
               1          2
     1  C    0.187773  -0.000000
     2  S   -0.187773   0.000000
 Electronic spatial extent (au):  <R**2>=            184.7070
 Charge=              0.0000 electrons
 Dipole moment (field-independent basis, Debye):
    X=              0.0000    Y=              0.0000    Z=             -2.7117  Tot=              2.7117
 Quadrupole moment (field-independent basis, Debye-Ang):
   XX=            -20.8275   YY=            -20.8275   ZZ=            -14.5345
   XY=              0.0000   XZ=              0.0000   YZ=              0.0000
 Traceless Quadrupole moment (field-independent basis, Debye-Ang):
   XX=             -2.0977   YY=             -2.0977   ZZ=              4.1954
   XY=              0.0000   XZ=              0.0000   YZ=              0.0000
 Octapole moment (field-independent basis, Debye-Ang**2):
  XXX=              0.0000  YYY=              0.0000  ZZZ=             13.8994  XYY=              0.0000
  XXY=              0.0000  XXZ=             -2.0986  XZZ=              0.0000  YZZ=              0.0000
  YYZ=             -2.0986  XYZ=              0.0000
 Hexadecapole moment (field-independent basis, Debye-Ang**3):
 XXXX=            -31.6188 YYYY=            -31.6188 ZZZZ=           -277.9945 XXXY=              0.0000
 XXXZ=              0.0000 YYYX=              0.0000 YYYZ=              0.0000 ZZZX=              0.0000
 ZZZY=              0.0000 XXYY=            -10.5396 XXZZ=            -43.3398 YYZZ=            -43.3398
 XXYZ=              0.0000 YYXZ=              0.0000 ZZXY=              0.0000
 N-N= 1.677380520332D+01 E-N=-1.068548366446D+03  KE= 4.350777120708D+02
 Symmetry A1   KE= 3.573129305365D+02
 Symmetry A2   KE=-6.931785083204D-53
 Symmetry B1   KE= 3.888239076715D+01
 Symmetry B2   KE= 3.888239076715D+01
 Symmetry A1   SP=-5.036974682197D-15
 Symmetry A2   SP= 3.525428879379D-53
 Symmetry B1   SP= 9.525286175142D-15
 Symmetry B2   SP= 3.768559117841D-15
                          Isotropic Fermi Contact Couplings
        Atom                 a.u.       MegaHertz       Gauss      10(-4) cm-1
     1  C(13)              0.00000       0.00000       0.00000       0.00000
     2  S(33)              0.00000       0.00000       0.00000       0.00000
 --------------------------------------------------------
       Center         ----  Spin Dipole Couplings  ----
                      3XX-RR        3YY-RR        3ZZ-RR
 --------------------------------------------------------
     1   Atom        0.000000      0.000000      0.000000
     2   Atom        0.000000      0.000000      0.000000
 --------------------------------------------------------
                        XY            XZ            YZ
 --------------------------------------------------------
     1   Atom        0.000000      0.000000      0.000000
     2   Atom        0.000000      0.000000      0.000000
 --------------------------------------------------------


 ---------------------------------------------------------------------------------
              Anisotropic Spin Dipole Couplings in Principal Axis System
 ---------------------------------------------------------------------------------

       Atom             a.u.   MegaHertz   Gauss  10(-4) cm-1        Axes

              Baa     0.0000     0.000     0.000     0.000  1.0000  0.0000  0.0000
     1 C(13)  Bbb     0.0000     0.000     0.000     0.000 -0.0000  1.0000  0.0000
              Bcc     0.0000     0.000     0.000     0.000  0.0000  0.0000  1.0000
 
              Baa     0.0000     0.000     0.000     0.000  1.0000  0.0000  0.0000
     2 S(33)  Bbb     0.0000     0.000     0.000     0.000 -0.0000  1.0000  0.0000
              Bcc     0.0000     0.000     0.000     0.000  0.0000  0.0000  1.0000
 

 ---------------------------------------------------------------------------------

 No NMR shielding tensors so no spin-rotation constants.
 Leave Link  601 at Mon Apr 21 19:46:40 2025, MaxMem=   536870912 cpu:               1.4 elap:               0.2
 (Enter /home/szhao/Apps/g16/l607.exe)
 ******************************Gaussian NBO Version 3.1******************************
             N A T U R A L   A T O M I C   O R B I T A L   A N D
          N A T U R A L   B O N D   O R B I T A L   A N A L Y S I S
 ******************************Gaussian NBO Version 3.1******************************
       /RESON  / : Allow strongly delocalized NBO set

 Analyzing the SCF density

 Job title: Title Card Required                                             

 Storage needed:      8530 in NPA,     11006 in NBO ( 536870884 available)
 GSVD:  LWork=         400 too small for GESVD, short by        3920 words or        3920 for optimal perf.


 NATURAL POPULATIONS:  Natural atomic orbital occupancies 
                                                          
   NAO  Atom  No  lang   Type(AO)    Occupancy
 --------------------------------------------
     1    C    1  S      Cor( 1S)     2.00000
     2    C    1  S      Val( 2S)     1.98761
     3    C    1  S      Ryd( 3S)     0.00009
     4    C    1  S      Ryd( 4S)     0.00001
     5    C    1  S      Ryd( 5S)     0.00000
     6    C    1  px     Val( 2p)     0.06796
     7    C    1  px     Ryd( 3p)     0.00009
     8    C    1  px     Ryd( 5p)     0.00000
     9    C    1  px     Ryd( 4p)     0.00000
    10    C    1  py     Val( 2p)     0.06796
    11    C    1  py     Ryd( 3p)     0.00009
    12    C    1  py     Ryd( 5p)     0.00000
    13    C    1  py     Ryd( 4p)     0.00000
    14    C    1  pz     Val( 2p)     1.59945
    15    C    1  pz     Ryd( 3p)     0.00004
    16    C    1  pz     Ryd( 4p)     0.00002
    17    C    1  pz     Ryd( 5p)     0.00001
    18    C    1  dxy    Ryd( 3d)     0.00000
    19    C    1  dxz    Ryd( 3d)     0.00004
    20    C    1  dyz    Ryd( 3d)     0.00004
    21    C    1  dx2y2  Ryd( 3d)     0.00000
    22    C    1  dz2    Ryd( 3d)     0.00050
 
    23    S    2  S      Cor( 1S)     2.00000
    24    S    2  S      Cor( 2S)     2.00000
    25    S    2  S      Val( 3S)     1.99671
    26    S    2  S      Ryd( 4S)     0.00002
    27    S    2  S      Ryd( 5S)     0.00000
    28    S    2  S      Ryd( 7S)     0.00000
    29    S    2  S      Ryd( 6S)     0.00000
    30    S    2  px     Cor( 2p)     2.00000
    31    S    2  px     Val( 3p)     1.93189
    32    S    2  px     Ryd( 4p)     0.00001
    33    S    2  px     Ryd( 5p)     0.00000
    34    S    2  px     Ryd( 6p)     0.00000
    35    S    2  px     Ryd( 7p)     0.00000
    36    S    2  py     Cor( 2p)     2.00000
    37    S    2  py     Val( 3p)     1.93189
    38    S    2  py     Ryd( 4p)     0.00001
    39    S    2  py     Ryd( 5p)     0.00000
    40    S    2  py     Ryd( 6p)     0.00000
    41    S    2  py     Ryd( 7p)     0.00000
    42    S    2  pz     Cor( 2p)     1.99999
    43    S    2  pz     Val( 3p)     0.41444
    44    S    2  pz     Ryd( 4p)     0.00016
    45    S    2  pz     Ryd( 6p)     0.00001
    46    S    2  pz     Ryd( 5p)     0.00001
    47    S    2  pz     Ryd( 7p)     0.00000
    48    S    2  dxy    Ryd( 3d)     0.00000
    49    S    2  dxz    Ryd( 3d)     0.00002
    50    S    2  dyz    Ryd( 3d)     0.00002
    51    S    2  dx2y2  Ryd( 3d)     0.00000
    52    S    2  dz2    Ryd( 3d)     0.00095


 Summary of Natural Population Analysis:                  
                                                          
                                       Natural Population 
                Natural  -----------------------------------------------
    Atom  No    Charge         Core      Valence    Rydberg      Total
 -----------------------------------------------------------------------
      C    1    0.27610      2.00000     3.72298    0.00093     5.72390
      S    2   -0.27610      9.99998     6.27492    0.00119    16.27610
 =======================================================================
   * Total *   -0.00000     11.99998     9.99790    0.00212    22.00000

                                 Natural Population      
 --------------------------------------------------------
   Core                      11.99998 ( 99.9998% of  12)
   Valence                    9.99790 ( 99.9790% of  10)
   Natural Minimal Basis     21.99788 ( 99.9904% of  22)
   Natural Rydberg Basis      0.00212 (  0.0096% of  22)
 --------------------------------------------------------

    Atom  No          Natural Electron Configuration
 ----------------------------------------------------------------------------
      C    1      [core]2S( 1.99)2p( 1.74)
      S    2      [core]3S( 2.00)3p( 4.28)


 ***************************************************
 *******         Alpha spin orbitals         *******
 ***************************************************


 NATURAL POPULATIONS:  Natural atomic orbital occupancies 
                                                          
   NAO  Atom  No  lang   Type(AO)    Occupancy      Energy
 ----------------------------------------------------------
     1    C    1  S      Cor( 1S)     1.00000     -10.76498
     2    C    1  S      Val( 2S)     0.99380      -0.72810
     3    C    1  S      Ryd( 4S)     0.00004       0.60078
     4    C    1  S      Ryd( 3S)     0.00001       0.16751
     5    C    1  S      Ryd( 5S)     0.00000      23.13169
     6    C    1  px     Val( 2p)     0.03398      -0.16562
     7    C    1  px     Ryd( 3p)     0.00005       0.31090
     8    C    1  px     Ryd( 4p)     0.00000       0.59408
     9    C    1  px     Ryd( 5p)     0.00000       2.31055
    10    C    1  py     Val( 2p)     0.03398      -0.16562
    11    C    1  py     Ryd( 3p)     0.00005       0.31090
    12    C    1  py     Ryd( 4p)     0.00000       0.59408
    13    C    1  py     Ryd( 5p)     0.00000       2.31055
    14    C    1  pz     Val( 2p)     0.79973      -0.30289
    15    C    1  pz     Ryd( 3p)     0.00002       0.32220
    16    C    1  pz     Ryd( 4p)     0.00001       0.60736
    17    C    1  pz     Ryd( 5p)     0.00001       2.36675
    18    C    1  dxy    Ryd( 3d)     0.00000       1.25549
    19    C    1  dxz    Ryd( 3d)     0.00002       1.28246
    20    C    1  dyz    Ryd( 3d)     0.00002       1.28246
    21    C    1  dx2y2  Ryd( 3d)     0.00000       1.25547
    22    C    1  dz2    Ryd( 3d)     0.00025       1.30558
 
    23    S    2  S      Cor( 1S)     1.00000     -89.74805
    24    S    2  S      Cor( 2S)     1.00000      -8.42455
    25    S    2  S      Val( 3S)     0.99836      -0.76599
    26    S    2  S      Ryd( 4S)     0.00001       0.24443
    27    S    2  S      Ryd( 5S)     0.00000       0.68762
    28    S    2  S      Ryd( 7S)     0.00000     185.56814
    29    S    2  S      Ryd( 6S)     0.00000      11.02867
    30    S    2  px     Cor( 2p)     1.00000      -6.19873
    31    S    2  px     Val( 3p)     0.96594      -0.29727
    32    S    2  px     Ryd( 4p)     0.00000       0.23278
    33    S    2  px     Ryd( 6p)     0.00000       1.99446
    34    S    2  px     Ryd( 5p)     0.00000       0.54678
    35    S    2  px     Ryd( 7p)     0.00000      16.83049
    36    S    2  py     Cor( 2p)     1.00000      -6.19873
    37    S    2  py     Val( 3p)     0.96594      -0.29727
    38    S    2  py     Ryd( 4p)     0.00000       0.23278
    39    S    2  py     Ryd( 6p)     0.00000       1.99446
    40    S    2  py     Ryd( 5p)     0.00000       0.54678
    41    S    2  py     Ryd( 7p)     0.00000      16.83049
    42    S    2  pz     Cor( 2p)     1.00000      -6.21085
    43    S    2  pz     Val( 3p)     0.20722      -0.18635
    44    S    2  pz     Ryd( 4p)     0.00008       0.23040
    45    S    2  pz     Ryd( 6p)     0.00000       1.99940
    46    S    2  pz     Ryd( 5p)     0.00000       0.54625
    47    S    2  pz     Ryd( 7p)     0.00000      16.87039
    48    S    2  dxy    Ryd( 3d)     0.00000       0.85623
    49    S    2  dxz    Ryd( 3d)     0.00001       0.83059
    50    S    2  dyz    Ryd( 3d)     0.00001       0.83059
    51    S    2  dx2y2  Ryd( 3d)     0.00000       0.85624
    52    S    2  dz2    Ryd( 3d)     0.00047       0.83759

 WARNING:  Population inversion found on atom  C    1
           Population inversion found on atom  S    2


 Summary of Natural Population Analysis:                  
                                                          
                                       Natural Population 
                Natural  -----------------------------------------------
    Atom  No    Charge         Core      Valence    Rydberg      Total
 -----------------------------------------------------------------------
      C    1    0.13805      1.00000     1.86149    0.00046     2.86195
      S    2   -0.13805      4.99999     3.13746    0.00060     8.13805
 =======================================================================
   * Total *   -0.00000      5.99999     4.99895    0.00106    11.00000

                                 Natural Population      
 --------------------------------------------------------
   Core                       5.99999 ( 99.9998% of   6)
   Valence                    4.99895 ( 99.9790% of   5)
   Natural Minimal Basis     10.99894 ( 99.9904% of  11)
   Natural Rydberg Basis      0.00106 (  0.0096% of  11)
 --------------------------------------------------------

    Atom  No          Natural Electron Configuration
 ----------------------------------------------------------------------------
      C    1      [core]2S( 0.99)2p( 0.87)
      S    2      [core]3S( 1.00)3p( 2.14)


 NATURAL BOND ORBITAL ANALYSIS, alpha spin orbitals:

                       Occupancies       Lewis Structure    Low   High
           Occ.    -------------------  -----------------   occ   occ
  Cycle   Thresh.   Lewis   Non-Lewis     CR  BD  3C  LP    (L)   (NL)   Dev
 =============================================================================
   1(1)    0.90    10.93187   0.06813      6   1   0   4     0      0    0.00
 -----------------------------------------------------------------------------

 Structure accepted: No low occupancy Lewis orbitals

 --------------------------------------------------------
   Core                      5.99999 (100.000% of   6)
   Valence Lewis             4.93188 ( 98.638% of   5)
  ==================       ============================
   Total Lewis              10.93187 ( 99.381% of  11)
  -----------------------------------------------------
   Valence non-Lewis         0.06809 (  0.619% of  11)
   Rydberg non-Lewis         0.00004 (  0.000% of  11)
  ==================       ============================
   Total non-Lewis           0.06813 (  0.619% of  11)
 --------------------------------------------------------


       (Occupancy)   Bond orbital/ Coefficients/ Hybrids
 ---------------------------------------------------------------------------------
     1. (1.00000) BD ( 1) C   1 - S   2  
                ( 79.38%)   0.8910* C   1 s(  2.91%)p33.37( 97.09%)d 0.00(  0.00%)
                                            0.0000  0.1704  0.0073 -0.0001 -0.0000
                                            0.0000  0.0000  0.0000  0.0000  0.0000
                                            0.0000  0.0000  0.0000  0.9853 -0.0034
                                            0.0005  0.0003  0.0000  0.0000  0.0000
                                            0.0000  0.0057
                ( 20.62%)   0.4540* S   2 s(  0.16%)p99.99( 99.74%)d 0.56(  0.09%)
                                            0.0000 -0.0000  0.0404 -0.0032 -0.0005
                                           -0.0000  0.0002  0.0000  0.0000  0.0000
                                            0.0000  0.0000  0.0000  0.0000  0.0000
                                            0.0000  0.0000  0.0000  0.0000  0.0000
                                           -0.9985  0.0195 -0.0001 -0.0006 -0.0002
                                            0.0000  0.0000  0.0000  0.0000  0.0303
     2. (1.00000) CR ( 1) C   1           s(100.00%)
                                            1.0000 -0.0000  0.0000 -0.0000 -0.0000
                                            0.0000  0.0000  0.0000  0.0000  0.0000
                                            0.0000  0.0000  0.0000  0.0000  0.0000
                                           -0.0000 -0.0000  0.0000  0.0000  0.0000
                                            0.0000  0.0000
     3. (1.00000) CR ( 1) S   2           s(100.00%)
                                            1.0000 -0.0000  0.0000  0.0000  0.0000
                                            0.0000 -0.0000  0.0000  0.0000  0.0000
                                            0.0000  0.0000  0.0000  0.0000  0.0000
                                            0.0000  0.0000  0.0000  0.0000  0.0000
                                            0.0000 -0.0000 -0.0000 -0.0000 -0.0000
                                            0.0000  0.0000  0.0000  0.0000  0.0000
     4. (1.00000) CR ( 2) S   2           s(100.00%)
                                           -0.0000  1.0000  0.0000  0.0000  0.0000
                                            0.0000 -0.0000  0.0000  0.0000  0.0000
                                            0.0000  0.0000  0.0000  0.0000  0.0000
                                            0.0000  0.0000  0.0000  0.0000  0.0000
                                            0.0000 -0.0000 -0.0000 -0.0000 -0.0000
                                            0.0000  0.0000  0.0000  0.0000  0.0000
     5. (1.00000) CR ( 3) S   2           s(  0.00%)p 1.00(100.00%)
                                            0.0000  0.0000  0.0000  0.0000  0.0000
                                            0.0000  0.0000  1.0000  0.0001  0.0000
                                           -0.0000 -0.0000 -0.0000  0.0000  0.0000
                                            0.0000  0.0000  0.0000  0.0000  0.0000
                                            0.0000  0.0000  0.0000  0.0000  0.0000
                                            0.0000 -0.0000  0.0000  0.0000  0.0000
     6. (1.00000) CR ( 4) S   2           s(  0.00%)p 1.00(100.00%)
                                            0.0000  0.0000  0.0000  0.0000  0.0000
                                            0.0000  0.0000  0.0000  0.0000  0.0000
                                            0.0000  0.0000  0.0000  1.0000  0.0001
                                            0.0000 -0.0000 -0.0000 -0.0000  0.0000
                                            0.0000  0.0000  0.0000  0.0000  0.0000
                                            0.0000  0.0000 -0.0000  0.0000  0.0000
     7. (1.00000) CR ( 5) S   2           s(  0.00%)p 1.00(100.00%)
                                            0.0000  0.0000 -0.0000 -0.0000 -0.0000
                                           -0.0000  0.0000  0.0000  0.0000  0.0000
                                            0.0000  0.0000  0.0000  0.0000  0.0000
                                            0.0000  0.0000  0.0000  0.0000  1.0000
                                           -0.0000  0.0000  0.0000  0.0000  0.0000
                                            0.0000  0.0000  0.0000  0.0000 -0.0000
     8. (0.99999) LP ( 1) C   1           s( 97.08%)p 0.03(  2.90%)d 0.00(  0.02%)
                                            0.0000  0.9853 -0.0010  0.0000  0.0000
                                            0.0000  0.0000  0.0000  0.0000  0.0000
                                            0.0000  0.0000  0.0000 -0.1703 -0.0010
                                            0.0031  0.0002  0.0000  0.0000  0.0000
                                            0.0000 -0.0149
     9. (0.03405) LP*( 2) C   1           s(  0.00%)p 1.00( 99.94%)d 0.00(  0.06%)
                                            0.0000  0.0000  0.0000  0.0000  0.0000
                                            0.9990  0.0366  0.0017 -0.0025  0.0000
                                            0.0000  0.0000  0.0000  0.0000  0.0000
                                            0.0000  0.0000  0.0000  0.0237  0.0000
                                            0.0000  0.0000
    10. (0.03405) LP*( 3) C   1           s(  0.00%)p 1.00( 99.94%)d 0.00(  0.06%)
                                            0.0000  0.0000  0.0000  0.0000  0.0000
                                            0.0000  0.0000  0.0000  0.0000  0.9990
                                            0.0366  0.0017 -0.0025  0.0000  0.0000
                                            0.0000  0.0000  0.0000  0.0000  0.0237
                                            0.0000  0.0000
    11. (0.99998) LP ( 1) S   2           s( 99.80%)p 0.00(  0.17%)d 0.00(  0.03%)
                                           -0.0000 -0.0000  0.9990  0.0000  0.0000
                                            0.0000 -0.0000  0.0000  0.0000  0.0000
                                            0.0000  0.0000  0.0000  0.0000  0.0000
                                            0.0000  0.0000  0.0000  0.0000  0.0000
                                            0.0409 -0.0014 -0.0003 -0.0015 -0.0002
                                            0.0000  0.0000  0.0000  0.0000  0.0168
    12. (0.96595) LP ( 2) S   2           s(  0.00%)p 1.00(100.00%)d 0.00(  0.00%)
                                            0.0000  0.0000  0.0000  0.0000  0.0000
                                            0.0000  0.0000 -0.0001  1.0000  0.0021
                                           -0.0000 -0.0000 -0.0000  0.0000  0.0000
                                            0.0000  0.0000  0.0000  0.0000  0.0000
                                            0.0000  0.0000  0.0000  0.0000  0.0000
                                            0.0000 -0.0028  0.0000  0.0000  0.0000
    13. (0.96595) LP ( 3) S   2           s(  0.00%)p 1.00(100.00%)d 0.00(  0.00%)
                                            0.0000  0.0000  0.0000  0.0000  0.0000
                                            0.0000  0.0000  0.0000  0.0000  0.0000
                                            0.0000  0.0000  0.0000 -0.0001  1.0000
                                            0.0021 -0.0000 -0.0000 -0.0000  0.0000
                                            0.0000  0.0000  0.0000  0.0000  0.0000
                                            0.0000  0.0000 -0.0028  0.0000  0.0000
    14. (0.00000) RY*( 1) C   1           s(100.00%)
    15. (0.00000) RY*( 2) C   1           s( 99.99%)p 0.00(  0.01%)
    16. (0.00000) RY*( 3) C   1           s(  0.00%)p 1.00(100.00%)
    17. (0.00000) RY*( 4) C   1           s(  0.00%)p 1.00(100.00%)
    18. (0.00000) RY*( 5) C   1           s(  0.00%)p 1.00(100.00%)
    19. (0.00001) RY*( 6) C   1           s(100.00%)p 0.00(  0.00%)
    20. (0.00000) RY*( 7) C   1           s(  0.00%)p 1.00(100.00%)
    21. (0.00000) RY*( 8) C   1           s(  0.00%)p 1.00(100.00%)
    22. (0.00000) RY*( 9) C   1           s(  0.00%)p 1.00(100.00%)
    23. (0.00001) RY*(10) C   1           s(  0.00%)p 1.00(100.00%)
    24. (0.00000) RY*(11) C   1           s(  0.00%)p 1.00(100.00%)
    25. (0.00001) RY*(12) C   1           s(  0.00%)p 1.00(100.00%)
    26. (0.00000) RY*(13) C   1           s(  0.00%)p 0.00(  0.00%)d 1.00(100.00%)
    27. (0.00000) RY*(14) C   1           s(  0.00%)p 1.00(  0.06%)d99.99( 99.94%)
    28. (0.00000) RY*(15) C   1           s(  0.00%)p 1.00(  0.06%)d99.99( 99.94%)
    29. (0.00000) RY*(16) C   1           s(  0.00%)p 0.00(  0.00%)d 1.00(100.00%)
    30. (0.00000) RY*(17) C   1           s(  0.02%)p 0.35(  0.01%)d99.99( 99.97%)
    31. (0.00001) RY*( 1) S   2           s(100.00%)p 0.00(  0.00%)
    32. (0.00000) RY*( 2) S   2           s(100.00%)p 0.00(  0.00%)
    33. (0.00000) RY*( 3) S   2           s(100.00%)
    34. (0.00000) RY*( 4) S   2           s(100.00%)p 0.00(  0.00%)
    35. (0.00000) RY*( 5) S   2           s(  0.00%)p 1.00(100.00%)
    36. (0.00000) RY*( 6) S   2           s(  0.00%)p 1.00(100.00%)
    37. (0.00000) RY*( 7) S   2           s(  0.00%)p 1.00(100.00%)
    38. (0.00000) RY*( 8) S   2           s(  0.00%)p 1.00(100.00%)
    39. (0.00000) RY*( 9) S   2           s(  0.00%)p 1.00(100.00%)
    40. (0.00000) RY*(10) S   2           s(  0.00%)p 1.00(100.00%)
    41. (0.00000) RY*(11) S   2           s(  0.00%)p 1.00(100.00%)
    42. (0.00000) RY*(12) S   2           s(  0.00%)p 1.00(100.00%)
    43. (0.00000) RY*(13) S   2           s(  0.00%)p 1.00(100.00%)d 0.00(  0.00%)
    44. (0.00000) RY*(14) S   2           s(  0.00%)p 1.00(100.00%)
    45. (0.00000) RY*(15) S   2           s(  0.00%)p 1.00(100.00%)
    46. (0.00000) RY*(16) S   2           s(  0.00%)p 1.00(100.00%)
    47. (0.00000) RY*(17) S   2           s(  0.00%)p 0.00(  0.00%)d 1.00(100.00%)
    48. (0.00000) RY*(18) S   2           s(  0.00%)p 0.00(  0.00%)d 1.00(100.00%)
    49. (0.00000) RY*(19) S   2           s(  0.00%)p 0.00(  0.00%)d 1.00(100.00%)
    50. (0.00000) RY*(20) S   2           s(  0.00%)p 0.00(  0.00%)d 1.00(100.00%)
    51. (0.00000) RY*(21) S   2           s(  0.03%)p 2.68(  0.09%)d99.99( 99.88%)
    52. (0.00000) BD*( 1) C   1 - S   2  
                ( 20.62%)   0.4540* C   1 s(  2.91%)p33.37( 97.09%)d 0.00(  0.00%)
                ( 79.38%)  -0.8910* S   2 s(  0.16%)p99.99( 99.74%)d 0.56(  0.09%)


 NHO Directionality and "Bond Bending" (deviations from line of nuclear centers)

         [Thresholds for printing:  angular deviation  >  1.0 degree]
                                    hybrid p-character > 25.0%
                                    orbital occupancy  >  0.10e

                                Line of Centers        Hybrid 1              Hybrid 2
                                ---------------  -------------------   ------------------
                NBO               Theta   Phi    Theta   Phi    Dev    Theta   Phi    Dev
 ========================================================================================
    12. LP (   2) S   2             --     --     90.0    0.0   --       --     --    --
    13. LP (   3) S   2             --     --     90.0   90.0   --       --     --    --


 Second Order Perturbation Theory Analysis of Fock Matrix in NBO Basis

     Threshold for printing:   0.25 kcal/mol
                                                                              E(2)  E(j)-E(i) F(i,j)
         Donor NBO (i)                     Acceptor NBO (j)                 kcal/mol   a.u.    a.u. 
 ===================================================================================================

 within unit  1
  12. LP (   2) S   2                /  9. LP*(   2) C   1                    3.11    0.13    0.026
  13. LP (   3) S   2                / 10. LP*(   3) C   1                    3.11    0.13    0.026


 Natural Bond Orbitals (Summary):

                                                            Principal Delocalizations
           NBO                        Occupancy    Energy   (geminal,vicinal,remote)
 ====================================================================================
 Molecular unit  1  (CS)
     1. BD (   1) C   1 - S   2          1.00000    -0.35830   
     2. CR (   1) C   1                  1.00000   -10.76498   
     3. CR (   1) S   2                  1.00000   -89.74805   
     4. CR (   2) S   2                  1.00000    -8.42455   
     5. CR (   3) S   2                  1.00000    -6.19873   
     6. CR (   4) S   2                  1.00000    -6.19873   
     7. CR (   5) S   2                  1.00000    -6.21085   
     8. LP (   1) C   1                  0.99999    -0.71802   
     9. LP*(   2) C   1                  0.03405    -0.16617   
    10. LP*(   3) C   1                  0.03405    -0.16617   
    11. LP (   1) S   2                  0.99998    -0.76603   
    12. LP (   2) S   2                  0.96595    -0.29728  9(v)
    13. LP (   3) S   2                  0.96595    -0.29728  10(v)
    14. RY*(   1) C   1                  0.00000    23.13169   
    15. RY*(   2) C   1                  0.00000     0.60081   
    16. RY*(   3) C   1                  0.00000     0.31209   
    17. RY*(   4) C   1                  0.00000     0.59412   
    18. RY*(   5) C   1                  0.00000     2.31051   
    19. RY*(   6) C   1                  0.00001     0.16751   
    20. RY*(   7) C   1                  0.00000     0.31209   
    21. RY*(   8) C   1                  0.00000     0.59412   
    22. RY*(   9) C   1                  0.00000     2.31051   
    23. RY*(  10) C   1                  0.00001     0.32219   
    24. RY*(  11) C   1                  0.00000     0.60737   
    25. RY*(  12) C   1                  0.00001     2.36675   
    26. RY*(  13) C   1                  0.00000     1.25549   
    27. RY*(  14) C   1                  0.00000     1.28182   
    28. RY*(  15) C   1                  0.00000     1.28182   
    29. RY*(  16) C   1                  0.00000     1.25547   
    30. RY*(  17) C   1                  0.00000     1.30595   
    31. RY*(   1) S   2                  0.00001     0.24441   
    32. RY*(   2) S   2                  0.00000     0.68762   
    33. RY*(   3) S   2                  0.00000   185.56814   
    34. RY*(   4) S   2                  0.00000    11.02867   
    35. RY*(   5) S   2                  0.00000     0.23278   
    36. RY*(   6) S   2                  0.00000     1.99446   
    37. RY*(   7) S   2                  0.00000     0.54678   
    38. RY*(   8) S   2                  0.00000    16.83049   
    39. RY*(   9) S   2                  0.00000     0.23278   
    40. RY*(  10) S   2                  0.00000     1.99446   
    41. RY*(  11) S   2                  0.00000     0.54678   
    42. RY*(  12) S   2                  0.00000    16.83049   
    43. RY*(  13) S   2                  0.00000     0.22984   
    44. RY*(  14) S   2                  0.00000     1.99940   
    45. RY*(  15) S   2                  0.00000     0.54626   
    46. RY*(  16) S   2                  0.00000    16.87039   
    47. RY*(  17) S   2                  0.00000     0.85623   
    48. RY*(  18) S   2                  0.00000     0.83059   
    49. RY*(  19) S   2                  0.00000     0.83059   
    50. RY*(  20) S   2                  0.00000     0.85624   
    51. RY*(  21) S   2                  0.00000     0.83718   
    52. BD*(   1) C   1 - S   2          0.00000    -0.14043   
       -------------------------------
              Total Lewis   10.93187  ( 99.3806%)
        Valence non-Lewis    0.06809  (  0.6190%)
        Rydberg non-Lewis    0.00004  (  0.0004%)
       -------------------------------
            Total unit  1   11.00000  (100.0000%)
           Charge unit  1    0.00000
 Sorting of NBOs:                    3    2    4    7    5    6   11    8    1   12
 Sorting of NBOs:                   13   10    9   52   19   43   39   35   31   20
 Sorting of NBOs:                   16   23   45   41   37   21   17   15   24   32
 Sorting of NBOs:                   49   48   51   47   50   29   26   27   28   30
 Sorting of NBOs:                   40   36   44   22   18   25   34   42   38   46
 Sorting of NBOs:                   14   33
 Reordering of NBOs for storage:     3    2    4    7    5    6   11    8    1   12
 Reordering of NBOs for storage:    13   10    9   52   19   43   39   35   31   20
 Reordering of NBOs for storage:    16   23   45   41   37   21   17   15   24   32
 Reordering of NBOs for storage:    49   48   51   47   50   29   26   27   28   30
 Reordering of NBOs for storage:    40   36   44   22   18   25   34   42   38   46
 Reordering of NBOs for storage:    14   33
 Labels of output orbitals:  CR  CR  CR  CR  CR  CR  LP  LP  BD  LP  LP  LP* LP* BD* RY* RY* RY* RY* RY* RY* 
 Labels of output orbitals:  RY* RY* RY* RY* RY* RY* RY* RY* RY* RY* RY* RY* RY* RY* RY* RY* RY* RY* RY* RY* 
 Labels of output orbitals:  RY* RY* RY* RY* RY* RY* RY* RY* RY* RY* RY* RY* 
 GSVD:  LWork=       -2009 too small for GESVD, short by        9020 words or        9020 for optimal perf.


 ***************************************************
 *******         Beta  spin orbitals         *******
 ***************************************************


 NATURAL POPULATIONS:  Natural atomic orbital occupancies 
                                                          
   NAO  Atom  No  lang   Type(AO)    Occupancy      Energy
 ----------------------------------------------------------
     1    C    1  S      Cor( 1S)     1.00000     -10.76498
     2    C    1  S      Val( 2S)     0.99380      -0.72810
     3    C    1  S      Ryd( 4S)     0.00004       0.60078
     4    C    1  S      Ryd( 3S)     0.00001       0.16751
     5    C    1  S      Ryd( 5S)     0.00000      23.13169
     6    C    1  px     Val( 2p)     0.03398      -0.16562
     7    C    1  px     Ryd( 3p)     0.00005       0.31090
     8    C    1  px     Ryd( 4p)     0.00000       0.59408
     9    C    1  px     Ryd( 5p)     0.00000       2.31055
    10    C    1  py     Val( 2p)     0.03398      -0.16562
    11    C    1  py     Ryd( 3p)     0.00005       0.31090
    12    C    1  py     Ryd( 4p)     0.00000       0.59408
    13    C    1  py     Ryd( 5p)     0.00000       2.31055
    14    C    1  pz     Val( 2p)     0.79973      -0.30289
    15    C    1  pz     Ryd( 3p)     0.00002       0.32220
    16    C    1  pz     Ryd( 4p)     0.00001       0.60736
    17    C    1  pz     Ryd( 5p)     0.00001       2.36675
    18    C    1  dxy    Ryd( 3d)     0.00000       1.25549
    19    C    1  dxz    Ryd( 3d)     0.00002       1.28246
    20    C    1  dyz    Ryd( 3d)     0.00002       1.28246
    21    C    1  dx2y2  Ryd( 3d)     0.00000       1.25547
    22    C    1  dz2    Ryd( 3d)     0.00025       1.30558
 
    23    S    2  S      Cor( 1S)     1.00000     -89.74805
    24    S    2  S      Cor( 2S)     1.00000      -8.42455
    25    S    2  S      Val( 3S)     0.99836      -0.76599
    26    S    2  S      Ryd( 4S)     0.00001       0.24443
    27    S    2  S      Ryd( 5S)     0.00000       0.68762
    28    S    2  S      Ryd( 7S)     0.00000     185.56814
    29    S    2  S      Ryd( 6S)     0.00000      11.02867
    30    S    2  px     Cor( 2p)     1.00000      -6.19873
    31    S    2  px     Val( 3p)     0.96594      -0.29727
    32    S    2  px     Ryd( 4p)     0.00000       0.23278
    33    S    2  px     Ryd( 6p)     0.00000       1.99446
    34    S    2  px     Ryd( 5p)     0.00000       0.54678
    35    S    2  px     Ryd( 7p)     0.00000      16.83049
    36    S    2  py     Cor( 2p)     1.00000      -6.19873
    37    S    2  py     Val( 3p)     0.96594      -0.29727
    38    S    2  py     Ryd( 4p)     0.00000       0.23278
    39    S    2  py     Ryd( 6p)     0.00000       1.99446
    40    S    2  py     Ryd( 5p)     0.00000       0.54678
    41    S    2  py     Ryd( 7p)     0.00000      16.83049
    42    S    2  pz     Cor( 2p)     1.00000      -6.21085
    43    S    2  pz     Val( 3p)     0.20722      -0.18635
    44    S    2  pz     Ryd( 4p)     0.00008       0.23040
    45    S    2  pz     Ryd( 6p)     0.00000       1.99940
    46    S    2  pz     Ryd( 5p)     0.00000       0.54625
    47    S    2  pz     Ryd( 7p)     0.00000      16.87039
    48    S    2  dxy    Ryd( 3d)     0.00000       0.85623
    49    S    2  dxz    Ryd( 3d)     0.00001       0.83059
    50    S    2  dyz    Ryd( 3d)     0.00001       0.83059
    51    S    2  dx2y2  Ryd( 3d)     0.00000       0.85624
    52    S    2  dz2    Ryd( 3d)     0.00047       0.83759

 WARNING:  Population inversion found on atom  C    1
           Population inversion found on atom  S    2


 Summary of Natural Population Analysis:                  
                                                          
                                       Natural Population 
                Natural  -----------------------------------------------
    Atom  No    Charge         Core      Valence    Rydberg      Total
 -----------------------------------------------------------------------
      C    1    0.13805      1.00000     1.86149    0.00046     2.86195
      S    2   -0.13805      4.99999     3.13746    0.00060     8.13805
 =======================================================================
   * Total *   -0.00000      5.99999     4.99895    0.00106    11.00000

                                 Natural Population      
 --------------------------------------------------------
   Core                       5.99999 ( 99.9998% of   6)
   Valence                    4.99895 ( 99.9790% of   5)
   Natural Minimal Basis     10.99894 ( 99.9904% of  11)
   Natural Rydberg Basis      0.00106 (  0.0096% of  11)
 --------------------------------------------------------

    Atom  No          Natural Electron Configuration
 ----------------------------------------------------------------------------
      C    1      [core]2S( 0.99)2p( 0.87)
      S    2      [core]3S( 1.00)3p( 2.14)


 NATURAL BOND ORBITAL ANALYSIS, beta spin orbitals:

                       Occupancies       Lewis Structure    Low   High
           Occ.    -------------------  -----------------   occ   occ
  Cycle   Thresh.   Lewis   Non-Lewis     CR  BD  3C  LP    (L)   (NL)   Dev
 =============================================================================
   1(1)    0.90    10.93187   0.06813      6   1   0   4     0      0    0.00
 -----------------------------------------------------------------------------

 Structure accepted: No low occupancy Lewis orbitals

 --------------------------------------------------------
   Core                      5.99999 (100.000% of   6)
   Valence Lewis             4.93188 ( 98.638% of   5)
  ==================       ============================
   Total Lewis              10.93187 ( 99.381% of  11)
  -----------------------------------------------------
   Valence non-Lewis         0.06809 (  0.619% of  11)
   Rydberg non-Lewis         0.00004 (  0.000% of  11)
  ==================       ============================
   Total non-Lewis           0.06813 (  0.619% of  11)
 --------------------------------------------------------


       (Occupancy)   Bond orbital/ Coefficients/ Hybrids
 ---------------------------------------------------------------------------------
     1. (1.00000) BD ( 1) C   1 - S   2  
                ( 79.38%)   0.8910* C   1 s(  2.91%)p33.37( 97.09%)d 0.00(  0.00%)
                                            0.0000  0.1704  0.0073 -0.0001 -0.0000
                                            0.0000  0.0000  0.0000  0.0000  0.0000
                                            0.0000  0.0000  0.0000  0.9853 -0.0034
                                            0.0005  0.0003  0.0000  0.0000  0.0000
                                            0.0000  0.0057
                ( 20.62%)   0.4540* S   2 s(  0.16%)p99.99( 99.74%)d 0.56(  0.09%)
                                            0.0000 -0.0000  0.0404 -0.0032 -0.0005
                                           -0.0000  0.0002  0.0000  0.0000  0.0000
                                            0.0000  0.0000  0.0000  0.0000  0.0000
                                            0.0000  0.0000  0.0000  0.0000  0.0000
                                           -0.9985  0.0195 -0.0001 -0.0006 -0.0002
                                            0.0000  0.0000  0.0000  0.0000  0.0303
     2. (1.00000) CR ( 1) C   1           s(100.00%)
                                            1.0000 -0.0000  0.0000 -0.0000 -0.0000
                                            0.0000  0.0000  0.0000  0.0000  0.0000
                                            0.0000  0.0000  0.0000  0.0000  0.0000
                                           -0.0000 -0.0000  0.0000  0.0000  0.0000
                                            0.0000  0.0000
     3. (1.00000) CR ( 1) S   2           s(100.00%)
                                            1.0000 -0.0000  0.0000  0.0000  0.0000
                                            0.0000 -0.0000  0.0000  0.0000  0.0000
                                            0.0000  0.0000  0.0000  0.0000  0.0000
                                            0.0000  0.0000  0.0000  0.0000  0.0000
                                            0.0000 -0.0000 -0.0000 -0.0000 -0.0000
                                            0.0000  0.0000  0.0000  0.0000  0.0000
     4. (1.00000) CR ( 2) S   2           s(100.00%)
                                           -0.0000  1.0000  0.0000  0.0000  0.0000
                                            0.0000 -0.0000  0.0000  0.0000  0.0000
                                            0.0000  0.0000  0.0000  0.0000  0.0000
                                            0.0000  0.0000  0.0000  0.0000  0.0000
                                            0.0000 -0.0000 -0.0000 -0.0000 -0.0000
                                            0.0000  0.0000  0.0000  0.0000  0.0000
     5. (1.00000) CR ( 3) S   2           s(  0.00%)p 1.00(100.00%)
                                            0.0000  0.0000  0.0000  0.0000  0.0000
                                            0.0000  0.0000  1.0000  0.0001  0.0000
                                           -0.0000 -0.0000 -0.0000  0.0000  0.0000
                                            0.0000  0.0000  0.0000  0.0000  0.0000
                                            0.0000  0.0000  0.0000  0.0000  0.0000
                                            0.0000 -0.0000  0.0000  0.0000  0.0000
     6. (1.00000) CR ( 4) S   2           s(  0.00%)p 1.00(100.00%)
                                            0.0000  0.0000  0.0000  0.0000  0.0000
                                            0.0000  0.0000  0.0000  0.0000  0.0000
                                            0.0000  0.0000  0.0000  1.0000  0.0001
                                            0.0000 -0.0000 -0.0000 -0.0000  0.0000
                                            0.0000  0.0000  0.0000  0.0000  0.0000
                                            0.0000  0.0000 -0.0000  0.0000  0.0000
     7. (1.00000) CR ( 5) S   2           s(  0.00%)p 1.00(100.00%)
                                            0.0000  0.0000 -0.0000 -0.0000 -0.0000
                                           -0.0000  0.0000  0.0000  0.0000  0.0000
                                            0.0000  0.0000  0.0000  0.0000  0.0000
                                            0.0000  0.0000  0.0000  0.0000  1.0000
                                           -0.0000  0.0000  0.0000  0.0000  0.0000
                                            0.0000  0.0000  0.0000  0.0000 -0.0000
     8. (0.99999) LP ( 1) C   1           s( 97.08%)p 0.03(  2.90%)d 0.00(  0.02%)
                                            0.0000  0.9853 -0.0010  0.0000  0.0000
                                            0.0000  0.0000  0.0000  0.0000  0.0000
                                            0.0000  0.0000  0.0000 -0.1703 -0.0010
                                            0.0031  0.0002  0.0000  0.0000  0.0000
                                            0.0000 -0.0149
     9. (0.03405) LP*( 2) C   1           s(  0.00%)p 1.00( 99.94%)d 0.00(  0.06%)
                                            0.0000  0.0000  0.0000  0.0000  0.0000
                                            0.9990  0.0366  0.0017 -0.0025  0.0000
                                            0.0000  0.0000  0.0000  0.0000  0.0000
                                            0.0000  0.0000  0.0000  0.0237  0.0000
                                            0.0000  0.0000
    10. (0.03405) LP*( 3) C   1           s(  0.00%)p 1.00( 99.94%)d 0.00(  0.06%)
                                            0.0000  0.0000  0.0000  0.0000  0.0000
                                            0.0000  0.0000  0.0000  0.0000  0.9990
                                            0.0366  0.0017 -0.0025  0.0000  0.0000
                                            0.0000  0.0000  0.0000  0.0000  0.0237
                                            0.0000  0.0000
    11. (0.99998) LP ( 1) S   2           s( 99.80%)p 0.00(  0.17%)d 0.00(  0.03%)
                                           -0.0000 -0.0000  0.9990  0.0000  0.0000
                                            0.0000 -0.0000  0.0000  0.0000  0.0000
                                            0.0000  0.0000  0.0000  0.0000  0.0000
                                            0.0000  0.0000  0.0000  0.0000  0.0000
                                            0.0409 -0.0014 -0.0003 -0.0015 -0.0002
                                            0.0000  0.0000  0.0000  0.0000  0.0168
    12. (0.96595) LP ( 2) S   2           s(  0.00%)p 1.00(100.00%)d 0.00(  0.00%)
                                            0.0000  0.0000  0.0000  0.0000  0.0000
                                            0.0000  0.0000 -0.0001  1.0000  0.0021
                                           -0.0000 -0.0000 -0.0000  0.0000  0.0000
                                            0.0000  0.0000  0.0000  0.0000  0.0000
                                            0.0000  0.0000  0.0000  0.0000  0.0000
                                            0.0000 -0.0028  0.0000  0.0000  0.0000
    13. (0.96595) LP ( 3) S   2           s(  0.00%)p 1.00(100.00%)d 0.00(  0.00%)
                                            0.0000  0.0000  0.0000  0.0000  0.0000
                                            0.0000  0.0000  0.0000  0.0000  0.0000
                                            0.0000  0.0000  0.0000 -0.0001  1.0000
                                            0.0021 -0.0000 -0.0000 -0.0000  0.0000
                                            0.0000  0.0000  0.0000  0.0000  0.0000
                                            0.0000  0.0000 -0.0028  0.0000  0.0000
    14. (0.00000) RY*( 1) C   1           s(100.00%)
    15. (0.00000) RY*( 2) C   1           s( 99.99%)p 0.00(  0.01%)
    16. (0.00000) RY*( 3) C   1           s(  0.00%)p 1.00(100.00%)
    17. (0.00000) RY*( 4) C   1           s(  0.00%)p 1.00(100.00%)
    18. (0.00000) RY*( 5) C   1           s(  0.00%)p 1.00(100.00%)
    19. (0.00001) RY*( 6) C   1           s(100.00%)p 0.00(  0.00%)
    20. (0.00000) RY*( 7) C   1           s(  0.00%)p 1.00(100.00%)
    21. (0.00000) RY*( 8) C   1           s(  0.00%)p 1.00(100.00%)
    22. (0.00000) RY*( 9) C   1           s(  0.00%)p 1.00(100.00%)
    23. (0.00001) RY*(10) C   1           s(  0.00%)p 1.00(100.00%)
    24. (0.00000) RY*(11) C   1           s(  0.00%)p 1.00(100.00%)
    25. (0.00001) RY*(12) C   1           s(  0.00%)p 1.00(100.00%)
    26. (0.00000) RY*(13) C   1           s(  0.00%)p 0.00(  0.00%)d 1.00(100.00%)
    27. (0.00000) RY*(14) C   1           s(  0.00%)p 1.00(  0.06%)d99.99( 99.94%)
    28. (0.00000) RY*(15) C   1           s(  0.00%)p 1.00(  0.06%)d99.99( 99.94%)
    29. (0.00000) RY*(16) C   1           s(  0.00%)p 0.00(  0.00%)d 1.00(100.00%)
    30. (0.00000) RY*(17) C   1           s(  0.02%)p 0.35(  0.01%)d99.99( 99.97%)
    31. (0.00001) RY*( 1) S   2           s(100.00%)p 0.00(  0.00%)
    32. (0.00000) RY*( 2) S   2           s(100.00%)p 0.00(  0.00%)
    33. (0.00000) RY*( 3) S   2           s(100.00%)
    34. (0.00000) RY*( 4) S   2           s(100.00%)p 0.00(  0.00%)
    35. (0.00000) RY*( 5) S   2           s(  0.00%)p 1.00(100.00%)
    36. (0.00000) RY*( 6) S   2           s(  0.00%)p 1.00(100.00%)
    37. (0.00000) RY*( 7) S   2           s(  0.00%)p 1.00(100.00%)
    38. (0.00000) RY*( 8) S   2           s(  0.00%)p 1.00(100.00%)
    39. (0.00000) RY*( 9) S   2           s(  0.00%)p 1.00(100.00%)
    40. (0.00000) RY*(10) S   2           s(  0.00%)p 1.00(100.00%)
    41. (0.00000) RY*(11) S   2           s(  0.00%)p 1.00(100.00%)
    42. (0.00000) RY*(12) S   2           s(  0.00%)p 1.00(100.00%)
    43. (0.00000) RY*(13) S   2           s(  0.00%)p 1.00(100.00%)d 0.00(  0.00%)
    44. (0.00000) RY*(14) S   2           s(  0.00%)p 1.00(100.00%)
    45. (0.00000) RY*(15) S   2           s(  0.00%)p 1.00(100.00%)
    46. (0.00000) RY*(16) S   2           s(  0.00%)p 1.00(100.00%)
    47. (0.00000) RY*(17) S   2           s(  0.00%)p 0.00(  0.00%)d 1.00(100.00%)
    48. (0.00000) RY*(18) S   2           s(  0.00%)p 0.00(  0.00%)d 1.00(100.00%)
    49. (0.00000) RY*(19) S   2           s(  0.00%)p 0.00(  0.00%)d 1.00(100.00%)
    50. (0.00000) RY*(20) S   2           s(  0.00%)p 0.00(  0.00%)d 1.00(100.00%)
    51. (0.00000) RY*(21) S   2           s(  0.03%)p 2.68(  0.09%)d99.99( 99.88%)
    52. (0.00000) BD*( 1) C   1 - S   2  
                ( 20.62%)   0.4540* C   1 s(  2.91%)p33.37( 97.09%)d 0.00(  0.00%)
                ( 79.38%)  -0.8910* S   2 s(  0.16%)p99.99( 99.74%)d 0.56(  0.09%)


 NHO Directionality and "Bond Bending" (deviations from line of nuclear centers)

         [Thresholds for printing:  angular deviation  >  1.0 degree]
                                    hybrid p-character > 25.0%
                                    orbital occupancy  >  0.10e

                                Line of Centers        Hybrid 1              Hybrid 2
                                ---------------  -------------------   ------------------
                NBO               Theta   Phi    Theta   Phi    Dev    Theta   Phi    Dev
 ========================================================================================
    12. LP (   2) S   2             --     --     90.0    0.0   --       --     --    --
    13. LP (   3) S   2             --     --     90.0   90.0   --       --     --    --


 Second Order Perturbation Theory Analysis of Fock Matrix in NBO Basis

     Threshold for printing:   0.25 kcal/mol
                                                                              E(2)  E(j)-E(i) F(i,j)
         Donor NBO (i)                     Acceptor NBO (j)                 kcal/mol   a.u.    a.u. 
 ===================================================================================================

 within unit  1
  12. LP (   2) S   2                /  9. LP*(   2) C   1                    3.11    0.13    0.026
  13. LP (   3) S   2                / 10. LP*(   3) C   1                    3.11    0.13    0.026


 Natural Bond Orbitals (Summary):

                                                            Principal Delocalizations
           NBO                        Occupancy    Energy   (geminal,vicinal,remote)
 ====================================================================================
 Molecular unit  1  (CS)
     1. BD (   1) C   1 - S   2          1.00000    -0.35830   
     2. CR (   1) C   1                  1.00000   -10.76498   
     3. CR (   1) S   2                  1.00000   -89.74805   
     4. CR (   2) S   2                  1.00000    -8.42455   
     5. CR (   3) S   2                  1.00000    -6.19873   
     6. CR (   4) S   2                  1.00000    -6.19873   
     7. CR (   5) S   2                  1.00000    -6.21085   
     8. LP (   1) C   1                  0.99999    -0.71802   
     9. LP*(   2) C   1                  0.03405    -0.16617   
    10. LP*(   3) C   1                  0.03405    -0.16617   
    11. LP (   1) S   2                  0.99998    -0.76603   
    12. LP (   2) S   2                  0.96595    -0.29728  9(v)
    13. LP (   3) S   2                  0.96595    -0.29728  10(v)
    14. RY*(   1) C   1                  0.00000    23.13169   
    15. RY*(   2) C   1                  0.00000     0.60081   
    16. RY*(   3) C   1                  0.00000     0.31209   
    17. RY*(   4) C   1                  0.00000     0.59412   
    18. RY*(   5) C   1                  0.00000     2.31051   
    19. RY*(   6) C   1                  0.00001     0.16751   
    20. RY*(   7) C   1                  0.00000     0.31209   
    21. RY*(   8) C   1                  0.00000     0.59412   
    22. RY*(   9) C   1                  0.00000     2.31051   
    23. RY*(  10) C   1                  0.00001     0.32219   
    24. RY*(  11) C   1                  0.00000     0.60737   
    25. RY*(  12) C   1                  0.00001     2.36675   
    26. RY*(  13) C   1                  0.00000     1.25549   
    27. RY*(  14) C   1                  0.00000     1.28182   
    28. RY*(  15) C   1                  0.00000     1.28182   
    29. RY*(  16) C   1                  0.00000     1.25547   
    30. RY*(  17) C   1                  0.00000     1.30595   
    31. RY*(   1) S   2                  0.00001     0.24441   
    32. RY*(   2) S   2                  0.00000     0.68762   
    33. RY*(   3) S   2                  0.00000   185.56814   
    34. RY*(   4) S   2                  0.00000    11.02867   
    35. RY*(   5) S   2                  0.00000     0.23278   
    36. RY*(   6) S   2                  0.00000     1.99446   
    37. RY*(   7) S   2                  0.00000     0.54678   
    38. RY*(   8) S   2                  0.00000    16.83049   
    39. RY*(   9) S   2                  0.00000     0.23278   
    40. RY*(  10) S   2                  0.00000     1.99446   
    41. RY*(  11) S   2                  0.00000     0.54678   
    42. RY*(  12) S   2                  0.00000    16.83049   
    43. RY*(  13) S   2                  0.00000     0.22984   
    44. RY*(  14) S   2                  0.00000     1.99940   
    45. RY*(  15) S   2                  0.00000     0.54626   
    46. RY*(  16) S   2                  0.00000    16.87039   
    47. RY*(  17) S   2                  0.00000     0.85623   
    48. RY*(  18) S   2                  0.00000     0.83059   
    49. RY*(  19) S   2                  0.00000     0.83059   
    50. RY*(  20) S   2                  0.00000     0.85624   
    51. RY*(  21) S   2                  0.00000     0.83718   
    52. BD*(   1) C   1 - S   2          0.00000    -0.14043   
       -------------------------------
              Total Lewis   10.93187  ( 99.3806%)
        Valence non-Lewis    0.06809  (  0.6190%)
        Rydberg non-Lewis    0.00004  (  0.0004%)
       -------------------------------
            Total unit  1   11.00000  (100.0000%)
           Charge unit  1    0.00000
 Sorting of NBOs:                    3    2    4    7    6    5   11    8    1   13
 Sorting of NBOs:                   12   10    9   52   19   43   39   35   31   20
 Sorting of NBOs:                   16   23   45   41   37   21   17   15   24   32
 Sorting of NBOs:                   49   48   51   47   50   29   26   27   28   30
 Sorting of NBOs:                   40   36   44   22   18   25   34   42   38   46
 Sorting of NBOs:                   14   33
 Reordering of NBOs for storage:     3    2    4    7    6    5   11    8    1   13
 Reordering of NBOs for storage:    12   10    9   52   19   43   39   35   31   20
 Reordering of NBOs for storage:    16   23   45   41   37   21   17   15   24   32
 Reordering of NBOs for storage:    49   48   51   47   50   29   26   27   28   30
 Reordering of NBOs for storage:    40   36   44   22   18   25   34   42   38   46
 Reordering of NBOs for storage:    14   33
 Labels of output orbitals:  CR  CR  CR  CR  CR  CR  LP  LP  BD  LP  LP  LP* LP* BD* RY* RY* RY* RY* RY* RY* 
 Labels of output orbitals:  RY* RY* RY* RY* RY* RY* RY* RY* RY* RY* RY* RY* RY* RY* RY* RY* RY* RY* RY* RY* 
 Labels of output orbitals:  RY* RY* RY* RY* RY* RY* RY* RY* RY* RY* RY* RY* 
 GSVD:  LWork=       -2009 too small for GESVD, short by        9020 words or        9020 for optimal perf.
 Leave Link  607 at Mon Apr 21 19:46:42 2025, MaxMem=   536870912 cpu:               9.5 elap:               1.3
 (Enter /home/szhao/Apps/g16/l701.exe)
 ... and contract with generalized density number  0.
 Compute integral first derivatives.
 Leave Link  701 at Mon Apr 21 19:46:43 2025, MaxMem=   536870912 cpu:               1.3 elap:               0.3
 (Enter /home/szhao/Apps/g16/l702.exe)
 L702 exits ... SP integral derivatives will be done elsewhere.
 Leave Link  702 at Mon Apr 21 19:46:44 2025, MaxMem=   536870912 cpu:               0.4 elap:               0.2
 (Enter /home/szhao/Apps/g16/l703.exe)
 Integral derivatives from FoFJK, PRISM(SPDF).
 Compute integral first derivatives, UseDBF=F ICtDFT=           0.
 Calling FoFJK, ICntrl=      2127 FMM=F ISym2X=1 I1Cent= 0 IOpClX= 1 NMat=1 NMatS=1 NMatT=0.
 FoFJK:  IHMeth= 1 ICntrl=    2127 DoSepK=F KAlg= 0 I1Cent=           0 FoldK=F
 IRaf=         0 NMat=       1 IRICut=       1 DoRegI=T DoRafI=F ISym2E= 1 IDoP0=0 IntGTp=1.
 FoFCou: FMM=F IPFlag=           0 FMFlag=      100000 FMFlg1=         800
         NFxFlg=           0 DoJE=F BraDBF=F KetDBF=F FulRan=T
         wScrn=  0.000000 ICntrl=      2127 IOpCl=  1 I1Cent=           0 NGrid=           0
         NMat0=    1 NMatS0=      1 NMatT0=    0 NMatD0=    1 NMtDS0=    0 NMtDT0=    0
 Petite list used in FoFCou.
 Leave Link  703 at Mon Apr 21 19:46:45 2025, MaxMem=   536870912 cpu:               3.2 elap:               0.5
 (Enter /home/szhao/Apps/g16/l716.exe)
 Dipole        = 0.00000000D+00 0.00000000D+00-1.06686714D+00
 ***** Axes restored to original set *****
 -------------------------------------------------------------------
 Center     Atomic                   Forces (Hartrees/Bohr)
 Number     Number              X              Y              Z
 -------------------------------------------------------------------
      1        6           0.044365617   -0.000000000   -0.000000000
      2       16          -0.044365617   -0.000000000   -0.000000000
 -------------------------------------------------------------------
 Cartesian Forces:  Max     0.044365617 RMS     0.025614501
 Z-matrix is all fixed cartesians, so copy forces.
 Force constants in Cartesian coordinates: 
                1             2             3             4             5 
      1  0.100000D+01
      2  0.000000D+00  0.100000D+01
      3  0.000000D+00  0.000000D+00  0.100000D+01
      4  0.000000D+00  0.000000D+00  0.000000D+00  0.100000D+01
      5  0.000000D+00  0.000000D+00  0.000000D+00  0.000000D+00  0.100000D+01
      6  0.000000D+00  0.000000D+00  0.000000D+00  0.000000D+00  0.000000D+00
                6 
      6  0.100000D+01
 Leave Link  716 at Mon Apr 21 19:46:45 2025, MaxMem=   536870912 cpu:               0.9 elap:               0.2
 (Enter /home/szhao/Apps/g16/l103.exe)

 GradGradGradGradGradGradGradGradGradGradGradGradGradGradGradGradGradGrad
 Berny optimization.
 Search for a local minimum.
 Step number   1 out of a maximum of    2
 All quantities printed in internal units (Hartrees-Bohrs-Radians)
 Second derivative matrix not updated -- first step.
 The second derivative matrix:
                          X1        Y1        Z1        X2        Y2
           X1           1.00000
           Y1           0.00000   1.00000
           Z1           0.00000   0.00000   1.00000
           X2           0.00000   0.00000   0.00000   1.00000
           Y2           0.00000   0.00000   0.00000   0.00000   1.00000
           Z2           0.00000   0.00000   0.00000   0.00000   0.00000
                          Z2
           Z2           1.00000
 ITU=  0
     Eigenvalues ---    1.00000   1.00000   1.00000   1.00000   1.00000
     Eigenvalues ---    1.00000
 Angle between quadratic step and forces=   0.00 degrees.
 ClnCor:  largest displacement from symmetrization is 0.00D+00 for atom     0.
 Linear search not attempted -- first point.
 ClnCor:  largest displacement from symmetrization is 4.44D-16 for atom     1.
 B after Tr=    -0.000000    0.000000    0.000000
         Rot=    1.000000    0.000000    0.000000    0.000000 Ang=   0.00 deg.
 Variable       Old X    -DE/DX   Delta X   Delta X   Delta X     New X
                                 (Linear)    (Quad)   (Total)
    X1       -2.86160   0.04437   0.00000   0.04437   0.04437  -2.81724
    Y1        0.00000  -0.00000   0.00000   0.00000   0.00000   0.00000
    Z1        0.00000  -0.00000   0.00000   0.00000   0.00000   0.00000
    X2        2.86160  -0.04437   0.00000  -0.04437  -0.04437   2.81724
    Y2        0.00000  -0.00000   0.00000   0.00000   0.00000   0.00000
    Z2        0.00000  -0.00000   0.00000   0.00000   0.00000   0.00000
         Item               Value     Threshold  Converged?
 Maximum Force            0.044366     0.000450     NO 
 RMS     Force            0.025615     0.000300     NO 
 Maximum Displacement     0.044366     0.001800     NO 
 RMS     Displacement     0.025615     0.001200     NO 
 Predicted change in Energy=-1.968308D-03
 GradGradGradGradGradGradGradGradGradGradGradGradGradGradGradGradGradGrad

 Leave Link  103 at Mon Apr 21 19:46:46 2025, MaxMem=   536870912 cpu:               0.7 elap:               0.5
 (Enter /home/szhao/Apps/g16/l9999.exe)
 1\1\GINC-NODE05\Force\UM062X\6-311+G(d,p)\C1S1\SZHAO\21-Apr-2025\0\\#p
  UM062X/6-311+G** force int=superfine pop=saveNBO\\Title Card Required
 \\0,1\C,-1.514296,0.,0.\S,1.514296,0.,0.\\Version=ES64L-G16RevA.03\Sta
 te=1-SG\HF=-435.8568052\S2=0.\S2-1=0.\S2A=0.\RMSD=8.767e-09\RMSF=2.561
 e-02\Dipole=-1.0668671,0.,0.\Quadrupole=3.1191598,-1.5595799,-1.559579
 9,0.,0.,0.\PG=C*V [C*(C1S1)]\\@


 ... FOR AFTERWARDS A MAN FINDS PLEASURE IN HIS PAINS,
 WHEN HE HAS SUFFERED LONG AND WANDERED FAR.

                                    -- HOMER
 Job cpu time:       0 days  0 hours  0 minutes 42.8 seconds.
 Elapsed time:       0 days  0 hours  0 minutes  8.0 seconds.
 File lengths (MBytes):  RWF=     17 Int=      0 D2E=      0 Chk=      2 Scr=      2
 Normal termination of Gaussian 16 at Mon Apr 21 19:46:47 2025.
