Title Card Required                                                     
FOpt      UM062X                                                      6-311+G(d,p)        
Number of atoms                            I                4
Info1-9                                    I   N=           9
          13          13           0           0           0         110
           2          18        -502
Full Title                                 C   N=           2
Title Card Required     
Route                                      C   N=           4
#p opt UM062X/6-311+G** nosymm int=superfine    
Charge                                     I                0
Multiplicity                               I                1
Number of electrons                        I               14
Number of alpha electrons                  I                7
Number of beta electrons                   I                7
Number of basis functions                  I               56
Number of independent functions            I               56
Number of point charges in /Mol/           I                0
Number of translation vectors              I                0
Atomic numbers                             I   N=           4
           6           6           1           1
Nuclear charges                            R   N=           4
  6.00000000E+00  6.00000000E+00  1.00000000E+00  1.00000000E+00
Current cartesian coordinates              R   N=          12
 -2.18759420E+00  0.00000000E+00  0.00000000E+00  2.18759420E+00  0.00000000E+00
  0.00000000E+00 -2.20257342E+00  6.32799067E-01  2.01611572E+00  2.20287145E+00
  1.92309753E+00 -8.75720651E-01
Number of symbols in /Mol/                 I                0
Force Field                                I                0
Atom Types                                 C   N=           4
                                                
Int Atom Types                             I   N=           4
           0           0           0           0
MM charges                                 R   N=           4
  0.00000000E+00  0.00000000E+00  0.00000000E+00  0.00000000E+00
Integer atomic weights                     I   N=           4
          12          12           1           1
Real atomic weights                        R   N=           4
  1.20000000E+01  1.20000000E+01  1.00782504E+00  1.00782504E+00
Atom fragment info                         I   N=           4
           0           0           0           0
Atom residue num                           I   N=           4
           0           0           0           0
Nuclear spins                              I   N=           4
           0           0           1           1
Nuclear ZEff                               R   N=           4
 -3.60000000E+00 -3.60000000E+00 -1.00000000E+00 -1.00000000E+00
Nuclear ZNuc                               R   N=           4
  6.00000000E+00  6.00000000E+00  1.00000000E+00  1.00000000E+00
Nuclear QMom                               R   N=           4
  0.00000000E+00  0.00000000E+00  0.00000000E+00  0.00000000E+00
Nuclear GFac                               R   N=           4
  0.00000000E+00  0.00000000E+00  2.79284600E+00  2.79284600E+00
MicOpt                                     I   N=           4
          -2          -2          -1          -1
Number of residues                         I                0
Number of secondary structures             I                0
Redundant internal dimensions              I   N=           4
          11           8           2           1
Redundant internal coordinate indices      I   N=          44
           1          -1           0           0           1          -2
           0           0           1          -3           0           0
           2          -1           0           0           2          -2
           0           0           2          -3           0           0
           1           3           0           0           2           4
           0           0           2           1           3           0
           1           2           4           0           3           1
           2           4
Redundant internal coordinates             R   N=          11
 -2.18759420E+00  0.00000000E+00  0.00000000E+00  2.18759420E+00  0.00000000E+00
  0.00000000E+00  2.11314496E+00  2.11315503E+00  1.57788497E+00  1.57802598E+00
 -1.69397398E+00
ZRed-IntVec                                I   N=          11
          -1          -1          -1          -1          -1          -1
           0           0           0           0           0
ZRed-FPVec                                 R   N=          11
  0.00000000E+00  0.00000000E+00  0.00000000E+00  0.00000000E+00  0.00000000E+00
  0.00000000E+00  0.00000000E+00  0.00000000E+00  0.00000000E+00  0.00000000E+00
  0.00000000E+00
ZRed-Constraint1                           R   N=          11
 -2.18759420E+00  0.00000000E+00  0.00000000E+00  2.18759420E+00  0.00000000E+00
  0.00000000E+00  2.11079913E+00  2.11070705E+00  1.67217611E+00  1.67276462E+00
 -1.65242814E+00
ZRed-Constraint2                           R   N=          11
 -2.18759420E+00  0.00000000E+00  0.00000000E+00  2.18759420E+00  0.00000000E+00
  0.00000000E+00  0.00000000E+00  0.00000000E+00  0.00000000E+00  0.00000000E+00
  0.00000000E+00
Number of contracted shells                I               20
Number of primitive shells                 I               38
Pure/Cartesian d shells                    I                0
Pure/Cartesian f shells                    I                0
Highest angular momentum                   I                2
Largest degree of contraction              I                6
Shell types                                I   N=          20
           0          -1          -1          -1          -1          -2
           0          -1          -1          -1          -1          -2
           0           0           0           1           0           0
           0           1
Number of primitives per shell             I   N=          20
           6           3           1           1           1           1
           6           3           1           1           1           1
           3           1           1           1           3           1
           1           1
Shell to atom map                          I   N=          20
           1           1           1           1           1           1
           2           2           2           2           2           2
           3           3           3           3           4           4
           4           4
Primitive exponents                        R   N=          38
  4.56324000E+03  6.82024000E+02  1.54973000E+02  4.44553000E+01  1.30290000E+01
  1.82773000E+00  2.09642000E+01  4.80331000E+00  1.45933000E+00  4.83456000E-01
  1.45585000E-01  4.38000000E-02  6.26000000E-01  4.56324000E+03  6.82024000E+02
  1.54973000E+02  4.44553000E+01  1.30290000E+01  1.82773000E+00  2.09642000E+01
  4.80331000E+00  1.45933000E+00  4.83456000E-01  1.45585000E-01  4.38000000E-02
  6.26000000E-01  3.38650000E+01  5.09479000E+00  1.15879000E+00  3.25840000E-01
  1.02741000E-01  7.50000000E-01  3.38650000E+01  5.09479000E+00  1.15879000E+00
  3.25840000E-01  1.02741000E-01  7.50000000E-01
Contraction coefficients                   R   N=          38
  1.96665025E-03  1.52306019E-02  7.61269097E-02  2.60801033E-01  6.16462078E-01
  2.21006028E-01  1.14660081E-01  9.19999648E-01 -3.03068213E-03  1.00000000E+00
  1.00000000E+00  1.00000000E+00  1.00000000E+00  1.96665025E-03  1.52306019E-02
  7.61269097E-02  2.60801033E-01  6.16462078E-01  2.21006028E-01  1.14660081E-01
  9.19999648E-01 -3.03068213E-03  1.00000000E+00  1.00000000E+00  1.00000000E+00
  1.00000000E+00  2.54938145E-02  1.90373109E-01  8.52161486E-01  1.00000000E+00
  1.00000000E+00  1.00000000E+00  2.54938145E-02  1.90373109E-01  8.52161486E-01
  1.00000000E+00  1.00000000E+00  1.00000000E+00
P(S=P) Contraction coefficients            R   N=          38
  0.00000000E+00  0.00000000E+00  0.00000000E+00  0.00000000E+00  0.00000000E+00
  0.00000000E+00  4.02486927E-02  2.37593957E-01  8.15853851E-01  1.00000000E+00
  1.00000000E+00  1.00000000E+00  0.00000000E+00  0.00000000E+00  0.00000000E+00
  0.00000000E+00  0.00000000E+00  0.00000000E+00  0.00000000E+00  4.02486927E-02
  2.37593957E-01  8.15853851E-01  1.00000000E+00  1.00000000E+00  1.00000000E+00
  0.00000000E+00  0.00000000E+00  0.00000000E+00  0.00000000E+00  0.00000000E+00
  0.00000000E+00  0.00000000E+00  0.00000000E+00  0.00000000E+00  0.00000000E+00
  0.00000000E+00  0.00000000E+00  0.00000000E+00
Coordinates of each shell                  R   N=          60
 -2.18759420E+00  0.00000000E+00  0.00000000E+00 -2.18759420E+00  0.00000000E+00
  0.00000000E+00 -2.18759420E+00  0.00000000E+00  0.00000000E+00 -2.18759420E+00
  0.00000000E+00  0.00000000E+00 -2.18759420E+00  0.00000000E+00  0.00000000E+00
 -2.18759420E+00  0.00000000E+00  0.00000000E+00  2.18759420E+00  0.00000000E+00
  0.00000000E+00  2.18759420E+00  0.00000000E+00  0.00000000E+00  2.18759420E+00
  0.00000000E+00  0.00000000E+00  2.18759420E+00  0.00000000E+00  0.00000000E+00
  2.18759420E+00  0.00000000E+00  0.00000000E+00  2.18759420E+00  0.00000000E+00
  0.00000000E+00 -2.20257342E+00  6.32799067E-01  2.01611572E+00 -2.20257342E+00
  6.32799067E-01  2.01611572E+00 -2.20257342E+00  6.32799067E-01  2.01611572E+00
 -2.20257342E+00  6.32799067E-01  2.01611572E+00  2.20287145E+00  1.92309753E+00
 -8.75720651E-01  2.20287145E+00  1.92309753E+00 -8.75720651E-01  2.20287145E+00
  1.92309753E+00 -8.75720651E-01  2.20287145E+00  1.92309753E+00 -8.75720651E-01
Num ILSW                                   I              100
ILSW                                       I   N=         100
           1           0           0           1           2           0
           0           0           0           0        4336          -1
           7           0           0           0           2           0
           0           0           0           0           1           0
           1           1           0           0           0           0
           0           0      100000           0          -1           0
           0           0           0           0           0           0
           0           0           0           1           0           0
           0 -2000000000           1           0           0           0
           0           0           4          52           0           0
           0           0          55           0           0           0
           0           0           0           4           0           1
           0           0           0           0           0           0
           0           0           0           0           0           0
           0           0           0           0           0           0
           0           0           0           0           0           0
           0           0           0           0
Num RLSW                                   I               52
RLSW                                       R   N=          52
  1.00000000E+00  1.00000000E+00  1.00000000E+00  1.00000000E+00  5.40000000E-01
  0.00000000E+00  0.00000000E+00  1.00000000E+00  0.00000000E+00  0.00000000E+00
  0.00000000E+00  0.00000000E+00  1.00000000E+00  0.00000000E+00  0.00000000E+00
  0.00000000E+00  0.00000000E+00  1.00000000E+00  0.00000000E+00  0.00000000E+00
  0.00000000E+00  0.00000000E+00  1.00000000E+00  0.00000000E+00  0.00000000E+00
  0.00000000E+00  0.00000000E+00  1.00000000E+00  0.00000000E+00  0.00000000E+00
  0.00000000E+00  0.00000000E+00  1.00000000E+00  0.00000000E+00  0.00000000E+00
  0.00000000E+00  0.00000000E+00  0.00000000E+00  1.00000000E+00  1.00000000E+00
  0.00000000E+00  1.00000000E+00  0.00000000E+00  0.00000000E+00  0.00000000E+00
  0.00000000E+00  0.00000000E+00  0.00000000E+00  0.00000000E+00  0.00000000E+00
  0.00000000E+00  0.00000000E+00
MxBond                                     I                2
NBond                                      I   N=           4
           2           2           1           1
IBond                                      I   N=           8
           2           3           1           4           1           0
           2           0
RBond                                      R   N=           8
  1.00000000E-01  1.00000000E+00  1.00000000E-01  1.00000000E+00  1.00000000E+00
  0.00000000E+00  1.00000000E+00  0.00000000E+00
Virial Ratio                               R      2.007295819930574E+00
SCF Energy                                 R     -7.698403095817751E+01
Total Energy                               R     -7.698403095817751E+01
S**2                                       R     -1.421085471520200E-14
S**2 after annihilation                    R     -2.069455717901282E-13
RMS Force                                  R      1.808998093870029E-06
RMS Density                                R      1.057175119104258E-09
Job Status                                 I                1
Nuclear derivative order                   I                1
External E-field                           R   N=          35
  0.00000000E+00  0.00000000E+00  0.00000000E+00  0.00000000E+00  0.00000000E+00
  0.00000000E+00  0.00000000E+00  0.00000000E+00  0.00000000E+00  0.00000000E+00
  0.00000000E+00  0.00000000E+00  0.00000000E+00  0.00000000E+00  0.00000000E+00
  0.00000000E+00  0.00000000E+00  0.00000000E+00  0.00000000E+00  0.00000000E+00
  0.00000000E+00  0.00000000E+00  0.00000000E+00  0.00000000E+00  0.00000000E+00
  0.00000000E+00  0.00000000E+00  0.00000000E+00  0.00000000E+00  0.00000000E+00
  0.00000000E+00  0.00000000E+00  0.00000000E+00  0.00000000E+00  0.00000000E+00
IOpCl                                      I                1
IROHF                                      I                0
Alpha Orbital Energies                     R   N=          56
 -1.06646822E+01 -1.06646086E+01 -7.52187865E-01 -6.93501915E-01 -3.97198188E-01
 -3.80383585E-01 -2.91319624E-01 -9.43699100E-02 -8.80760922E-02 -2.26298599E-02
  2.73944535E-02  6.19206105E-02  7.65236638E-02  7.81231475E-02  9.93008383E-02
  1.00906412E-01  1.03764005E-01  1.56463169E-01  1.65819171E-01  2.09528842E-01
  4.54038568E-01  4.72972353E-01  5.71302007E-01  5.72116435E-01  5.87061197E-01
  6.18602604E-01  6.29165175E-01  6.55141822E-01  7.20930545E-01  8.10493522E-01
  1.11916369E+00  1.11989989E+00  1.14999318E+00  1.16214205E+00  1.25998727E+00
  1.36358833E+00  1.37478154E+00  1.59268201E+00  1.60140226E+00  1.69935888E+00
  1.85262970E+00  1.85905150E+00  1.88715297E+00  1.91284694E+00  2.41077283E+00
  2.41536479E+00  2.49364642E+00  2.55165081E+00  2.71804599E+00  2.71887834E+00
  2.74932938E+00  2.80960227E+00  3.19124793E+00  3.19494134E+00  2.35184293E+01
  2.35516575E+01
Beta Orbital Energies                      R   N=          56
 -1.06646822E+01 -1.06646086E+01 -7.52187865E-01 -6.93501915E-01 -3.97198188E-01
 -3.80383585E-01 -2.91319624E-01 -9.43699100E-02 -8.80760922E-02 -2.26298599E-02
  2.73944535E-02  6.19206105E-02  7.65236638E-02  7.81231475E-02  9.93008383E-02
  1.00906412E-01  1.03764005E-01  1.56463169E-01  1.65819171E-01  2.09528842E-01
  4.54038568E-01  4.72972353E-01  5.71302007E-01  5.72116435E-01  5.87061197E-01
  6.18602604E-01  6.29165175E-01  6.55141822E-01  7.20930545E-01  8.10493522E-01
  1.11916369E+00  1.11989989E+00  1.14999318E+00  1.16214205E+00  1.25998727E+00
  1.36358833E+00  1.37478154E+00  1.59268201E+00  1.60140226E+00  1.69935888E+00
  1.85262970E+00  1.85905150E+00  1.88715297E+00  1.91284694E+00  2.41077283E+00
  2.41536479E+00  2.49364642E+00  2.55165081E+00  2.71804599E+00  2.71887834E+00
  2.74932938E+00  2.80960227E+00  3.19124793E+00  3.19494134E+00  2.35184293E+01
  2.35516575E+01
Alpha MO coefficients                      R   N=        3136
  4.06983614E-01  3.35208542E-01  7.90919494E-04  3.38878973E-04  1.09010677E-03
  6.80487263E-03 -1.85177619E-04  3.33820912E-04  1.00954411E-03 -2.79097523E-03
  1.54175237E-04 -5.96693042E-05 -1.83678661E-05  1.22841101E-04 -5.88532290E-05
 -8.78244574E-05 -6.23960633E-04  6.43099206E-04 -1.56382776E-05  3.76523495E-04
 -3.93483454E-05 -2.70467763E-05  3.90562846E-01  3.21685083E-01 -7.58972274E-04
  9.93979920E-04 -4.55575755E-04  6.51024245E-03  1.76230866E-04  9.43914835E-04
 -4.12880018E-04 -2.60631960E-03 -1.95119685E-04 -5.09832654E-05 -3.28838655E-05
 -6.29202286E-05  1.36148403E-04 -5.13327064E-04  3.48349361E-04 -1.96848003E-04
  1.04385490E-05 -4.77953708E-04 -4.96166347E-04  2.79104307E-05  2.23250216E-04
 -2.04874170E-03  1.93884417E-03  2.25065805E-05  4.17099746E-04  1.31787904E-03
  2.17756824E-04 -2.00013996E-03  1.90525871E-03 -1.89225928E-05  1.21236344E-03
 -5.48407082E-04 -3.90572243E-01 -3.21656139E-01 -7.59739039E-04 -3.33954267E-04
 -1.09825291E-03 -7.01874106E-03  2.20514146E-04 -2.50465138E-04 -7.40195746E-04
  4.42723440E-03  9.95425623E-04  2.60918084E-05  5.69328094E-05 -4.50458112E-03
 -1.87787803E-03  1.01911287E-04  2.13292716E-04 -6.40814613E-04  4.94944410E-05
 -2.80835569E-04  3.04880899E-04  1.58326862E-05  4.06992709E-01  3.35180655E-01
 -7.91633585E-04  1.08228627E-03 -5.04225516E-04  7.29291499E-03  2.28204535E-04
  7.57619846E-04 -3.25292843E-04 -4.53840091E-03  9.88175326E-04 -6.19540056E-05
  1.72889296E-05  4.50580537E-03 -1.87387929E-03 -2.48165947E-04  8.10651296E-05
  4.78368638E-06 -2.09705863E-05 -3.89925014E-04 -6.88398547E-04  4.87689235E-05
 -1.29439670E-04  1.14137364E-03 -7.78526024E-04 -8.21226140E-05 -3.66789737E-04
 -1.17171853E-03  1.38503670E-04 -1.22471282E-03  8.57712884E-04 -8.28520397E-05
  1.16788081E-03 -5.32689538E-04 -7.60324268E-02 -1.22592005E-01  1.49233525E-02
  1.57895744E-02  4.32695512E-02  3.42877859E-01  2.52835868E-02  2.40960541E-02
  6.51109538E-02  2.47207826E-01  1.87151310E-02  1.41382211E-02  2.79547209E-02
 -3.38363098E-05 -3.33340362E-03  1.21078278E-04  1.04834496E-03  6.02539736E-03
  1.03903722E-03  4.36557262E-03  7.05587586E-04  1.43129672E-03 -7.60296261E-02
 -1.22587486E-01 -1.49174873E-02  4.27454715E-02 -1.71494912E-02  3.42864984E-01
 -2.52759210E-02  6.45469964E-02 -2.55560912E-02  2.47200024E-01 -1.87126411E-02
  3.02470708E-02 -8.14909007E-03 -2.93427448E-05  3.33193947E-03  8.61694144E-04
 -6.10257147E-04 -3.07733181E-03 -3.73131723E-04 -5.06780068E-03 -4.54916749E-03
 -1.72679078E-03  9.48242202E-02  1.12072029E-01  9.76020052E-03  5.52005001E-04
 -3.94569193E-03 -1.32906701E-02  9.48175594E-02  1.12064297E-01  9.75795902E-03
 -5.53816108E-04 -1.25259095E-02  5.94060590E-03  7.59525021E-02  1.22899195E-01
  1.27655393E-02 -1.73115427E-02 -5.81199299E-02 -3.49665569E-01  1.98233651E-02
 -2.60813775E-02 -8.76306167E-02 -2.52716127E-01  7.76852088E-03 -1.09993844E-02
 -3.36705044E-02  3.17358873E-02  1.38173169E-02  8.31182950E-04  1.66478654E-03
 -1.20895522E-02  5.30016244E-04 -5.31087931E-03  6.31398443E-03  1.33073527E-03
 -7.59556019E-02 -1.22904231E-01  1.27746833E-02  5.48190188E-02 -2.59385561E-02
  3.49679791E-01  1.98363749E-02  8.26405282E-02 -3.91245872E-02  2.52726899E-01
  7.77237154E-03  3.24067673E-02 -1.43046107E-02 -3.17353769E-02  1.38170914E-02
 -1.79401100E-03  4.93344591E-04  5.01740554E-04  6.34441244E-04 -6.69888595E-03
 -1.30050104E-02  1.28647845E-03 -1.09027937E-01 -1.38689417E-01 -2.95963385E-02
  8.88117754E-04  4.51250632E-03  1.50532610E-02  1.09033731E-01  1.38696511E-01
  2.95971961E-02  8.85899534E-04 -1.42173299E-02  6.69672770E-03 -3.32187300E-02
 -5.46369066E-02  4.21676503E-02 -5.57392997E-02 -1.40927161E-01  1.56092979E-01
  6.82008505E-02 -8.12717213E-02 -2.00959924E-01  2.49014295E-01  6.11441112E-02
 -6.05049245E-02 -1.36154138E-01  2.43987640E-02 -3.60475483E-03 -4.18637764E-03
 -1.13017090E-02 -2.28512184E-02  7.51996010E-04 -1.29959865E-02  6.85669209E-03
 -4.26146603E-03 -3.32202599E-02 -5.46393291E-02 -4.21813283E-02 -1.42103383E-01
  5.26443402E-02  1.56100154E-01 -6.82197912E-02 -2.03831727E-01  7.37387122E-02
  2.49018521E-01 -6.11552556E-02 -1.41735587E-01  4.59091548E-02  2.44015826E-02
  3.60265265E-03 -1.12075107E-02  4.43286252E-03  4.03408598E-03  3.67590975E-03
  1.48659104E-02  2.23777473E-02  2.28305181E-03 -1.01991079E-01 -1.82457709E-01
 -1.03063195E-01  3.03485771E-03  1.10496330E-03  8.23609424E-03 -1.01987860E-01
 -1.82451644E-01 -1.03058766E-01 -3.03278233E-03  6.86721309E-03 -4.67875237E-03
 -4.57769964E-02 -7.55300058E-02 -2.53540635E-02 -2.93714159E-02 -1.45140904E-01
  2.22695185E-01 -3.72101345E-02 -4.04363726E-02 -2.08154837E-01  3.07673426E-01
 -3.60696164E-02 -1.69190580E-02 -1.50746553E-01  7.78827813E-02  7.68584044E-03
  1.97643069E-03 -6.96672428E-03 -1.85487638E-02 -8.48685470E-03 -1.16405525E-02
 -4.07360067E-03  2.24184203E-03  4.57734625E-02  7.55240882E-02 -2.53214547E-02
  1.27634499E-01 -7.50900450E-02 -2.22676090E-01 -3.71606529E-02  1.81921654E-01
 -1.08946739E-01 -3.07653637E-01 -3.60308361E-02  1.23491986E-01 -8.81056724E-02
 -7.78754297E-02  7.68418625E-03  3.86756876E-03 -6.12625602E-03 -8.83604054E-03
  7.33592588E-03 -1.67420333E-02 -1.17412399E-02 -4.81371164E-03 -8.68557579E-02
 -1.56549732E-01 -1.20907070E-01 -3.75209308E-03  2.34392556E-03  5.33805429E-03
  8.68580680E-02  1.56552328E-01  1.20898965E-01 -3.75129998E-03 -5.53796470E-03
  1.82112463E-03 -2.02089761E-02 -3.38842364E-02 -1.78629843E-01 -2.89853828E-02
 -2.65685414E-02  1.10702210E-01 -2.72169931E-01 -4.10317793E-02 -3.87479368E-02
  1.13961226E-01 -2.80332028E-01 -5.38244470E-02 -3.92766367E-02  3.51707360E-02
 -3.33693908E-02 -1.08585720E-02  4.21617255E-03  3.73232770E-03 -1.45994936E-02
 -4.96407149E-03 -1.41882372E-02 -8.53396772E-03 -2.02119760E-02 -3.38894365E-02
  1.78632453E-01 -3.91612672E-02 -3.80262278E-03  1.10720260E-01  2.72171986E-01
 -5.62850078E-02 -4.62112978E-03  1.13977222E-01  2.80344331E-01 -6.52234740E-02
 -1.37874131E-02  3.51589858E-02  3.33779534E-02 -4.12110917E-03 -1.08905047E-02
  1.17120209E-02 -3.40288740E-03  3.30811480E-03 -9.57822364E-03  1.65661994E-02
 -7.17679895E-03 -3.44429483E-03 -1.95132301E-02 -1.53600054E-02 -1.95000020E-03
 -1.25250094E-03 -7.18422284E-03 -3.45406059E-03 -1.95284959E-02  1.53595009E-02
 -2.23572325E-03 -6.12926152E-04 -3.65137893E-03 -6.07207239E-03 -1.85618931E-02
  1.54329105E-01 -7.87898016E-02  1.57722815E-02 -3.05889825E-02  2.40807657E-01
 -1.19130112E-01  4.76549301E-02 -2.96962258E-02  2.85947688E-01 -1.12860092E-01
  5.57594281E-02 -1.38000360E-03  1.45009284E-01 -5.52340894E-02 -1.01131434E-02
  3.37808802E-03  8.59837730E-03 -5.64496021E-03  4.67470435E-03 -3.65287859E-03
 -6.07449061E-03  1.85564082E-02  4.44371687E-02  1.67464303E-01  1.57781420E-02
  3.05808869E-02  7.21729034E-02  2.58757834E-01  4.76774740E-02  2.96886190E-02
  1.06996215E-01  2.88158338E-01  5.57862232E-02  1.36878232E-03  5.57471576E-02
  1.44798445E-01 -6.40598386E-03 -1.22011449E-03  1.24386242E-02 -3.50518359E-03
 -5.63725569E-03 -2.00388794E-02 -4.09742788E-02 -6.41895002E-02  2.19491371E-03
  1.68124474E-02 -1.47395733E-03 -2.00412127E-02 -4.09848934E-02 -6.42070298E-02
 -2.19388939E-03  1.01324462E-02  1.34946436E-02  3.70741349E-03  6.23855977E-03
  1.99403709E-02  1.74325606E-01 -2.60539479E-02 -1.91931576E-02  2.87548310E-02
  2.69548929E-01 -4.42364904E-02 -3.39574806E-02  4.33214841E-02  3.10179568E-01
 -6.13189149E-02  5.26685906E-02  4.03654772E-02  1.66514690E-01 -2.84870749E-02
 -3.03995190E-03 -4.79679387E-03  1.33484864E-02 -5.10429959E-03  8.34355291E-04
 -3.70777492E-03 -6.23922044E-03  1.99452380E-02 -9.70538071E-02 -1.47155792E-01
  1.91956048E-02  2.87619710E-02 -1.47127858E-01 -2.30176391E-01  3.39630209E-02
  4.33324902E-02 -1.61554417E-01 -2.71830784E-01 -5.26703729E-02  4.03700166E-02
 -9.00271632E-02 -1.42970548E-01  9.56001204E-03  3.82344427E-03 -6.59422923E-03
  8.86820407E-03 -3.01259656E-03  1.90945047E-02  3.48693707E-02  2.60056517E-02
 -2.38520242E-03  1.53307964E-02 -7.33438002E-03 -1.90923819E-02 -3.48693325E-02
 -2.60093008E-02 -2.38281702E-03 -4.78304535E-03 -1.63098140E-02 -2.71976865E-02
 -4.52314041E-02  1.87017042E-01 -1.67524155E-02 -8.89190363E-03  1.40326539E-01
  2.87418053E-01 -2.33346253E-02 -8.53797113E-03  2.51111737E-01  3.61666246E-01
 -3.29760402E-02 -1.71510851E-02  3.65592223E-01  4.81713688E-01 -9.55579762E-02
 -8.53381727E-02  6.03641422E-03  1.37795866E-02 -1.20530798E-03 -1.02534557E-02
  5.13433255E-03  2.71988519E-02  4.52332023E-02  1.87015378E-01  1.77933588E-02
  6.54194593E-03 -1.40330554E-01  2.87414321E-01  2.19195183E-02  1.16837058E-02
 -2.51128093E-01  3.61663246E-01  3.47548262E-02  1.31184482E-02 -3.65607979E-01
  4.81729197E-01  1.27311434E-01  1.41343126E-02 -6.97794740E-03 -5.38246101E-03
  2.31168463E-04  9.71209176E-03  1.36842966E-02  6.92281547E-03 -5.17365715E-03
  2.36610578E-02  1.91457151E-02 -1.94301598E-03 -2.38528977E-03 -6.91580339E-03
  5.18930692E-03 -2.36331767E-02  1.91473750E-02  3.07065389E-03 -1.45353945E-04
  2.32420028E-02  3.77944151E-02  1.52254271E-02 -3.69955917E-02 -2.29317613E-02
 -8.86587785E-02  1.02800699E-02 -6.05907756E-02 -7.10162884E-02 -5.02119409E-01
  3.84895149E-02 -9.82641144E-02 -1.11097485E-02  1.03908134E+00 -2.61783443E-02
  1.82896378E-01  5.10944493E-01 -1.01224263E-02  1.67717897E-04 -8.73316215E-03
 -5.62064414E-05 -2.13317335E-04  2.32425676E-02  3.77953614E-02 -1.52316632E-02
 -4.17795119E-02 -1.22159198E-02 -8.86610622E-02 -1.02927517E-02 -9.33268881E-02
  2.34220385E-03 -5.02134449E-01 -3.85065208E-02 -7.39094598E-02 -6.57072954E-02
  1.03915593E+00  2.62281081E-02  5.02480398E-01 -2.05157791E-01  5.83351535E-03
  2.72362232E-04  7.80333543E-03  9.15664382E-03  1.39156649E-05 -1.25573856E-02
  1.32169876E-01 -5.09870356E-01 -1.32653790E-03 -2.80792831E-04  1.96757126E-03
 -1.25594815E-02  1.32179056E-01 -5.09903789E-01  1.32557653E-03  1.27676245E-03
 -1.52347929E-03  1.83539569E-04  3.67692565E-04  7.21977269E-02  2.33906250E-02
 -6.53408666E-02  5.39308295E-03  8.80386764E-02  2.00076000E-02 -8.81820989E-02
 -7.60137856E-02  2.44757794E-01  9.13175394E-02 -2.36815507E-01  1.28546932E+00
  1.37192946E-01  1.54527809E-01  8.05149816E-01 -1.50041341E-02  2.12538680E-03
 -6.46473563E-03 -2.85527092E-03  1.29480741E-03 -1.81962699E-04 -3.65215107E-04
  7.21988852E-02  3.29968954E-02 -6.10547732E-02 -5.39819005E-03  8.80417668E-02
  5.22499835E-02 -7.37914197E-02  7.59742387E-02  2.44763843E-01  1.15232994E-01
 -2.26158352E-01 -1.28543105E+00  1.37092181E-01 -7.02396807E-01  4.22861783E-01
 -4.39603074E-03 -4.57877059E-04 -1.36414910E-02 -8.34503456E-03  2.44987073E-03
 -1.95093905E-02  1.03870424E-01 -4.51931373E-01  1.02233990E-03  1.19234686E-03
  3.23514078E-03  1.95117750E-02 -1.03861112E-01  4.51896078E-01  1.02263513E-03
 -3.20512812E-03  1.27401892E-03 -1.38956475E-02 -2.22304764E-02 -2.01909555E-02
 -7.47766780E-02 -9.99572233E-03  4.93087037E-02 -8.91269681E-03 -7.12656663E-02
  2.56873388E-03  3.28858241E-01 -9.81300276E-02 -3.11272554E-01 -5.21780848E-02
 -2.99534267E-01  2.92946208E-01  5.62970896E-01  3.61860680E-01 -3.09432418E-03
 -3.42388800E-03 -7.46758120E-03  2.17985049E-03 -3.40112225E-03 -1.38913776E-02
 -2.22233440E-02  2.01243464E-02 -5.73972936E-02 -4.89948157E-02  4.92857309E-02
  8.84147773E-03 -4.57060596E-02 -5.47731200E-02  3.28776450E-01  9.78621623E-02
 -2.46790037E-01 -1.96889224E-01 -3.00756318E-01 -2.91886588E-01  6.45327348E-01
  1.77489090E-01  4.85965513E-03  2.46676483E-04  7.72800438E-04  6.77292889E-03
  4.81356511E-03 -1.48589309E-02  1.77979146E-02 -2.77008311E-01 -1.22097694E-03
  1.77464659E-03  4.40670624E-03 -1.48512240E-02  1.77949934E-02 -2.76854775E-01
  1.22012570E-03  4.46588575E-03 -1.62305906E-03 -5.63555406E-03 -9.57260819E-03
 -1.08494533E-01  4.12704088E-02 -1.94798885E-02  3.32371098E-02 -1.18534658E-01
  4.52055945E-02 -1.15389944E-02  9.10878560E-02 -4.30224518E-01  1.63225950E-01
 -9.61195836E-02  1.80047420E+00  1.57633455E+00 -2.75032343E-01  2.80517455E-01
 -5.09960481E-03 -9.85288277E-03  4.08879580E-05 -2.94080553E-03 -2.04954873E-03
  5.64160609E-03  9.58241401E-03 -1.08508738E-01 -1.30246960E-02 -4.36927094E-02
 -3.32604427E-02 -1.18542724E-01 -2.15667238E-02 -4.13158236E-02 -9.12197501E-02
 -4.30296094E-01 -3.73072072E-02 -1.85539474E-01 -1.80031066E+00  1.57652674E+00
 -2.54266223E-02  3.91842003E-01 -5.15698285E-04  5.05468937E-03 -5.85658605E-03
 -3.03044589E-04 -8.70442719E-03 -1.06479002E-02  6.25247092E-03 -1.69996606E-01
 -1.98568082E-03 -2.52938808E-04 -6.64562649E-04  1.06507309E-02 -6.26635677E-03
  1.70105200E-01 -1.98578903E-03  6.61656819E-04 -2.55207255E-04 -1.06433115E-02
 -1.64514946E-02  3.82729754E-02  2.82489682E-02 -1.94270715E-02  2.55791100E-02
  3.03726535E-02  3.16608215E-02  5.01123493E-03  4.01420630E-01  2.13074919E-01
  1.24076299E-01 -1.36203950E-01  5.82834589E-02 -7.24713555E-01 -3.35145915E-01
  9.87025146E-01 -1.33525818E-02 -1.58085107E-03 -1.68364473E-03  8.63467538E-03
  3.72081506E-03 -1.06422514E-02 -1.64496271E-02 -3.82598795E-02  4.42529774E-03
  3.40180040E-02  2.55705052E-02 -3.03556856E-02  2.48919199E-02  2.02332664E-02
  4.01422529E-01 -2.13031532E-01 -1.84303243E-02  1.83399561E-01  5.77540903E-02
  7.24915790E-01  5.10306388E-01 -9.08862931E-01 -4.95435826E-03 -3.82541184E-03
  7.02149222E-03  1.34823570E-02 -1.31051030E-03 -2.60791193E-02 -9.43555567E-03
 -2.97876818E-01 -5.04684864E-03 -5.96169792E-04 -1.84291215E-04 -2.60723238E-02
 -9.44331265E-03 -2.97738792E-01  5.04842112E-03 -5.34318867E-04 -3.21476411E-04
  2.68274798E-03  4.75651594E-03  1.71895158E-02  7.75383146E-02 -6.73106462E-03
 -2.48828650E-02  1.23700355E-02  7.52503066E-02  5.06848673E-03  1.90120718E-02
  9.35548348E-02  3.40618560E-01 -6.73729687E-02 -2.50820568E+00 -1.29208199E+00
 -1.32051255E+00 -5.32220096E-01  5.18406065E-03  2.30435323E-03  1.08906766E-02
  9.25426710E-04  6.36563601E-03 -2.68609596E-03 -4.76169680E-03  1.71751075E-02
 -4.67832120E-02 -6.22034440E-02  2.48900915E-02  1.23585952E-02 -5.40292648E-02