Title Card Required                                                     
FOpt      UM062X                                                      6-311+G(d,p)        
Number of atoms                            I                4
Info1-9                                    I   N=           9
          15          14           0           0           0         110
           2          18        -502
Full Title                                 C   N=           2
Title Card Required     
Route                                      C   N=           8
#p opt UM062X/6-311+G** nosymm int=superfine SCF=(MaxCycle=2
00,NoVarAcc,noincfock) guess=read   
Charge                                     I                0
Multiplicity                               I                1
Number of electrons                        I               26
Number of alpha electrons                  I               13
Number of beta electrons                   I               13
Number of basis functions                  I               64
Number of independent functions            I               64
Number of point charges in /Mol/           I                0
Number of translation vectors              I                0
Atomic numbers                             I   N=           4
           8          16           1           1
Nuclear charges                            R   N=           4
  8.00000000E+00  1.60000000E+01  1.00000000E+00  1.00000000E+00
Current cartesian coordinates              R   N=          12
 -3.18609147E+00  0.00000000E+00 -1.32280829E-05  3.18609147E+00  0.00000000E+00
  1.32280829E-05 -3.14444765E+00 -1.57827674E-01  1.82596858E+00  2.74484087E+00
 -9.56053248E-03 -2.50651422E+00
Number of symbols in /Mol/                 I                0
Force Field                                I                0
Atom Types                                 C   N=           4
                                                
Int Atom Types                             I   N=           4
           0           0           0           0
MM charges                                 R   N=           4
  0.00000000E+00  0.00000000E+00  0.00000000E+00  0.00000000E+00
Integer atomic weights                     I   N=           4
          16          32           1           1
Real atomic weights                        R   N=           4
  1.59949146E+01  3.19720718E+01  1.00782504E+00  1.00782504E+00
Atom fragment info                         I   N=           4
           0           0           0           0
Atom residue num                           I   N=           4
           0           0           0           0
Nuclear spins                              I   N=           4
           0           0           1           1
Nuclear ZEff                               R   N=           4
 -5.60000000E+00 -1.36000000E+01 -1.00000000E+00 -1.00000000E+00
Nuclear ZNuc                               R   N=           4
  8.00000000E+00  1.60000000E+01  1.00000000E+00  1.00000000E+00
Nuclear QMom                               R   N=           4
  0.00000000E+00  0.00000000E+00  0.00000000E+00  0.00000000E+00
Nuclear GFac                               R   N=           4
  0.00000000E+00  0.00000000E+00  2.79284600E+00  2.79284600E+00
MicOpt                                     I   N=           4
          -2          -2          -1          -1
Number of residues                         I                0
Number of secondary structures             I                0
Redundant internal dimensions              I   N=           4
          11           8           2           1
Redundant internal coordinate indices      I   N=          44
           1          -1           0           0           1          -2
           0           0           1          -3           0           0
           2          -1           0           0           2          -2
           0           0           2          -3           0           0
           1           3           0           0           2           4
           0           0           2           1           3           0
           1           2           4           0           3           1
           2           4
Redundant internal coordinates             R   N=          11
 -3.18609147E+00  0.00000000E+00 -1.32280829E-05  3.18609147E+00  0.00000000E+00
  1.32280829E-05  1.83326303E+00  2.54508808E+00  1.54807455E+00  1.39653825E+00
  3.05155828E+00
ZRed-IntVec                                I   N=          11
          -1          -1          -1          -1          -1          -1
           0           0           0           0           0
ZRed-FPVec                                 R   N=          11
  0.00000000E+00  0.00000000E+00  0.00000000E+00  0.00000000E+00  0.00000000E+00
  0.00000000E+00  0.00000000E+00  0.00000000E+00  0.00000000E+00  0.00000000E+00
  0.00000000E+00
ZRed-Constraint1                           R   N=          11
 -3.18609147E+00  0.00000000E+00 -1.32280829E-05  3.18609147E+00  0.00000000E+00
  1.32280829E-05  2.25850840E+00  2.53586044E+00  1.56591838E+00  1.57106119E+00
  2.92217855E+00
ZRed-Constraint2                           R   N=          11
 -3.18609147E+00  0.00000000E+00 -1.32280829E-05  3.18609147E+00  0.00000000E+00
  1.32280829E-05  0.00000000E+00  0.00000000E+00  0.00000000E+00  0.00000000E+00
  0.00000000E+00
Number of contracted shells                I               27
Number of primitive shells                 I               49
Pure/Cartesian d shells                    I                0
Pure/Cartesian f shells                    I                0
Highest angular momentum                   I                2
Largest degree of contraction              I                6
Shell types                                I   N=          27
           0          -1          -1          -1          -1          -2
           0           0           0           0           0           0
          -1           1           1           1           1           1
          -2           0           0           0           1           0
           0           0           1
Number of primitives per shell             I   N=          27
           6           3           1           1           1           1
           6           3           1           1           1           1
           1           4           2           1           1           1
           1           3           1           1           1           3
           1           1           1
Shell to atom map                          I   N=          27
           1           1           1           1           1           1
           2           2           2           2           2           2
           2           2           2           2           2           2
           2           3           3           3           3           4
           4           4           4
Primitive exponents                        R   N=          49
  8.58850000E+03  1.29723000E+03  2.99296000E+02  8.73771000E+01  2.56789000E+01
  3.74004000E+00  4.21175000E+01  9.62837000E+00  2.85332000E+00  9.05661000E-01
  2.55611000E-01  8.45000000E-02  1.29200000E+00  9.34134000E+04  1.39617000E+04
  3.16991000E+03  9.02456000E+02  2.97158000E+02  1.08702000E+02  1.08702000E+02
  4.31553000E+01  1.81079000E+01  5.56009000E+00  2.13183000E+00  4.20403000E-01
  1.36045000E-01  4.05000000E-02  4.95040000E+02  1.17221000E+02  3.77749000E+01
  1.40584000E+01  5.56574000E+00  2.26297000E+00  8.07994000E-01  2.77460000E-01
  7.71410000E-02  6.50000000E-01  3.38650000E+01  5.09479000E+00  1.15879000E+00
  3.25840000E-01  1.02741000E-01  7.50000000E-01  3.38650000E+01  5.09479000E+00
  1.15879000E+00  3.25840000E-01  1.02741000E-01  7.50000000E-01
Contraction coefficients                   R   N=          49
  1.89515008E-03  1.43859006E-02  7.07320031E-02  2.40001011E-01  5.94797026E-01
  2.80802012E-01  1.13889012E-01  9.20811101E-01 -3.27447036E-03  1.00000000E+00
  1.00000000E+00  1.00000000E+00  1.00000000E+00  7.42999957E-04  5.79299966E-03
  2.99539983E-02  1.19027993E-01  3.68431979E-01  5.77298966E-01  1.43186060E-01
  6.24465262E-01  2.83366119E-01  1.00000000E+00  1.00000000E+00  1.00000000E+00
  1.00000000E+00  1.00000000E+00  8.30900251E-03  6.40240194E-02  2.77614084E-01
  7.45076225E-01  6.13711672E-01  4.43817763E-01  1.00000000E+00  1.00000000E+00
  1.00000000E+00  1.00000000E+00  2.54938145E-02  1.90373109E-01  8.52161486E-01
  1.00000000E+00  1.00000000E+00  1.00000000E+00  2.54938145E-02  1.90373109E-01
  8.52161486E-01  1.00000000E+00  1.00000000E+00  1.00000000E+00
P(S=P) Contraction coefficients            R   N=          49
  0.00000000E+00  0.00000000E+00  0.00000000E+00  0.00000000E+00  0.00000000E+00
  0.00000000E+00  3.65113974E-02  2.37152983E-01  8.19701941E-01  1.00000000E+00
  1.00000000E+00  1.00000000E+00  0.00000000E+00  0.00000000E+00  0.00000000E+00
  0.00000000E+00  0.00000000E+00  0.00000000E+00  0.00000000E+00  0.00000000E+00
  0.00000000E+00  0.00000000E+00  0.00000000E+00  0.00000000E+00  0.00000000E+00
  0.00000000E+00  1.00000000E+00  0.00000000E+00  0.00000000E+00  0.00000000E+00
  0.00000000E+00  0.00000000E+00  0.00000000E+00  0.00000000E+00  0.00000000E+00
  0.00000000E+00  0.00000000E+00  0.00000000E+00  0.00000000E+00  0.00000000E+00
  0.00000000E+00  0.00000000E+00  0.00000000E+00  0.00000000E+00  0.00000000E+00
  0.00000000E+00  0.00000000E+00  0.00000000E+00  0.00000000E+00
Coordinates of each shell                  R   N=          81
 -3.18609147E+00  0.00000000E+00 -1.32280829E-05 -3.18609147E+00  0.00000000E+00
 -1.32280829E-05 -3.18609147E+00  0.00000000E+00 -1.32280829E-05 -3.18609147E+00
  0.00000000E+00 -1.32280829E-05 -3.18609147E+00  0.00000000E+00 -1.32280829E-05
 -3.18609147E+00  0.00000000E+00 -1.32280829E-05  3.18609147E+00  0.00000000E+00
  1.32280829E-05  3.18609147E+00  0.00000000E+00  1.32280829E-05  3.18609147E+00
  0.00000000E+00  1.32280829E-05  3.18609147E+00  0.00000000E+00  1.32280829E-05
  3.18609147E+00  0.00000000E+00  1.32280829E-05  3.18609147E+00  0.00000000E+00
  1.32280829E-05  3.18609147E+00  0.00000000E+00  1.32280829E-05  3.18609147E+00
  0.00000000E+00  1.32280829E-05  3.18609147E+00  0.00000000E+00  1.32280829E-05
  3.18609147E+00  0.00000000E+00  1.32280829E-05  3.18609147E+00  0.00000000E+00
  1.32280829E-05  3.18609147E+00  0.00000000E+00  1.32280829E-05  3.18609147E+00
  0.00000000E+00  1.32280829E-05 -3.14444765E+00 -1.57827674E-01  1.82596858E+00
 -3.14444765E+00 -1.57827674E-01  1.82596858E+00 -3.14444765E+00 -1.57827674E-01
  1.82596858E+00 -3.14444765E+00 -1.57827674E-01  1.82596858E+00  2.74484087E+00
 -9.56053248E-03 -2.50651422E+00  2.74484087E+00 -9.56053248E-03 -2.50651422E+00
  2.74484087E+00 -9.56053248E-03 -2.50651422E+00  2.74484087E+00 -9.56053248E-03
 -2.50651422E+00
Num ILSW                                   I              100
ILSW                                       I   N=         100
           1           0           0           1           2           0
           0           0           0           0        4336          -1
           7           0           0           0           2           0
           0           0           0           0           1           0
           1           1           0           0           0           0
           0           0      100000           0          -1           0
           0           0           0           0           0           0
           0           0           0           1           0           0
           0 -2000000000           1           0           0           0
           0           0           4          52           0           0
           0           0          55           0           0           0
           0           0           0           4           0           1
           0           0           0           0           0           0
           0           0           0           0           0           0
           0           0           0           0           0           0
           0           0           0           0           0           0
           0           0           0           0
Num RLSW                                   I               52
RLSW                                       R   N=          52
  1.00000000E+00  1.00000000E+00  1.00000000E+00  1.00000000E+00  5.40000000E-01
  0.00000000E+00  0.00000000E+00  1.00000000E+00  0.00000000E+00  0.00000000E+00
  0.00000000E+00  0.00000000E+00  1.00000000E+00  0.00000000E+00  0.00000000E+00
  0.00000000E+00  0.00000000E+00  1.00000000E+00  0.00000000E+00  0.00000000E+00
  0.00000000E+00  0.00000000E+00  1.00000000E+00  0.00000000E+00  0.00000000E+00
  0.00000000E+00  0.00000000E+00  1.00000000E+00  0.00000000E+00  0.00000000E+00
  0.00000000E+00  0.00000000E+00  1.00000000E+00  0.00000000E+00  0.00000000E+00
  0.00000000E+00  0.00000000E+00  0.00000000E+00  1.00000000E+00  1.00000000E+00
  0.00000000E+00  1.00000000E+00  0.00000000E+00  0.00000000E+00  0.00000000E+00
  0.00000000E+00  0.00000000E+00  0.00000000E+00  0.00000000E+00  0.00000000E+00
  0.00000000E+00  0.00000000E+00
MxBond                                     I                2
NBond                                      I   N=           4
           2           2           1           1
IBond                                      I   N=           8
           2           3           1           4           1           0
           2           0
RBond                                      R   N=           8
  1.00000000E-01  1.00000000E-01  1.00000000E-01  1.00000000E+00  1.00000000E-01
  0.00000000E+00  1.00000000E+00  0.00000000E+00
Virial Ratio                               R      2.001731769115353E+00
SCF Energy                                 R     -4.743811098507752E+02
Total Energy                               R     -4.743811098507752E+02
S**2                                       R      1.215246570041018E-09
S**2 after annihilation                    R     -1.039168751680575E-12
RMS Force                                  R      8.153611202939177E-06
RMS Density                                R      8.291841730878348E-09
Job Status                                 I                1
Nuclear derivative order                   I                1
External E-field                           R   N=          35
  0.00000000E+00  0.00000000E+00  0.00000000E+00  0.00000000E+00  0.00000000E+00
  0.00000000E+00  0.00000000E+00  0.00000000E+00  0.00000000E+00  0.00000000E+00
  0.00000000E+00  0.00000000E+00  0.00000000E+00  0.00000000E+00  0.00000000E+00
  0.00000000E+00  0.00000000E+00  0.00000000E+00  0.00000000E+00  0.00000000E+00
  0.00000000E+00  0.00000000E+00  0.00000000E+00  0.00000000E+00  0.00000000E+00
  0.00000000E+00  0.00000000E+00  0.00000000E+00  0.00000000E+00  0.00000000E+00
  0.00000000E+00  0.00000000E+00  0.00000000E+00  0.00000000E+00  0.00000000E+00
IOpCl                                      I                1
IROHF                                      I                0
Alpha Orbital Energies                     R   N=          64
 -8.99784325E+01 -1.96728806E+01 -8.33991328E+00 -6.26205670E+00 -6.25836141E+00
 -6.25269090E+00 -1.08458348E+00 -8.38010044E-01 -5.25544980E-01 -4.96668375E-01
 -3.97710234E-01 -3.56881253E-01 -3.44123594E-01 -2.21129948E-01  1.61942981E-02
  3.83306063E-02  4.73143778E-02  5.45667193E-02  6.97459554E-02  1.34858744E-01
  1.92660933E-01  1.99427015E-01  2.10974777E-01  2.57988172E-01  3.08067915E-01
  3.40287186E-01  3.44992555E-01  3.90770001E-01  5.34894652E-01  5.94114953E-01
  7.00527065E-01  7.14806432E-01  7.86244344E-01  8.02693971E-01  9.68373005E-01
  1.04019814E+00  1.08104556E+00  1.09631832E+00  1.37491261E+00  1.39346963E+00
  1.39850380E+00  1.45881836E+00  1.46832660E+00  1.64094550E+00  1.66182888E+00
  1.67910572E+00  2.05847552E+00  2.09047081E+00  2.47719058E+00  2.53042274E+00
  2.88197813E+00  2.88701692E+00  3.16513061E+00  3.18779930E+00  3.84358020E+00
  5.03490973E+00  5.04389973E+00  5.51262088E+00  7.81633589E+00  1.74058549E+01
  1.74209486E+01  1.74529722E+01  4.98710351E+01  1.89076505E+02
Beta Orbital Energies                      R   N=          64
 -8.99784325E+01 -1.96728806E+01 -8.33991328E+00 -6.26205669E+00 -6.25836141E+00
 -6.25269090E+00 -1.08458348E+00 -8.38010040E-01 -5.25544983E-01 -4.96668374E-01
 -3.97710242E-01 -3.56881217E-01 -3.44123630E-01 -2.21129950E-01  1.61942964E-02
  3.83306121E-02  4.73143686E-02  5.45667230E-02  6.97459559E-02  1.34858744E-01
  1.92660940E-01  1.99426997E-01  2.10974774E-01  2.57988181E-01  3.08067915E-01
  3.40287186E-01  3.44992552E-01  3.90770000E-01  5.34894652E-01  5.94114957E-01
  7.00527068E-01  7.14806434E-01  7.86244365E-01  8.02693959E-01  9.68373005E-01
  1.04019814E+00  1.08104557E+00  1.09631831E+00  1.37491261E+00  1.39346963E+00
  1.39850380E+00  1.45881836E+00  1.46832660E+00  1.64094551E+00  1.66182889E+00
  1.67910574E+00  2.05847552E+00  2.09047081E+00  2.47719058E+00  2.53042274E+00
  2.88197810E+00  2.88701695E+00  3.16513061E+00  3.18779930E+00  3.84358019E+00
  5.03490975E+00  5.04389971E+00  5.51262088E+00  7.81633589E+00  1.74058549E+01
  1.74209487E+01  1.74529722E+01  4.98710351E+01  1.89076505E+02
Alpha MO coefficients                      R   N=        4096
  2.11905780E-07 -9.00679941E-07  1.16598014E-06 -2.77499564E-09 -5.08740946E-07
  7.27549570E-06 -3.36115651E-06 -3.06163252E-08  2.09785833E-06 -3.45929350E-05
 -5.79586213E-06  2.45763191E-07 -6.83378613E-06  1.95554253E-04  4.72489184E-05
 -8.20651949E-06  9.89835336E-05  4.52954830E-07  1.68005779E-06 -2.36748982E-07
  1.83705695E-06 -1.58363192E-07  4.10786346E-01  6.54412141E-01  1.53472959E-02
 -4.34269362E-03  1.60457413E-03 -9.01399938E-04  1.25404689E-04 -2.58581840E-05
 -1.46055656E-07 -2.11868651E-05 -3.17001637E-05 -4.18783316E-07 -7.40692641E-05
  8.14253704E-06  1.30423259E-07  2.45180204E-05  2.80032204E-06  6.31742364E-09
  7.42072071E-06 -4.29705018E-05 -6.78051426E-07 -1.77102601E-04  8.57204492E-05
  9.19417932E-07  1.85216962E-04  8.55021440E-05  2.49063817E-05  5.64925521E-07
  5.35453242E-06  2.30926472E-08 -5.16043585E-07  1.36512072E-05 -2.01700622E-04
 -6.33607454E-06 -2.51192439E-07  1.95349873E-06  2.68622566E-05 -2.18464786E-04
  2.82844320E-04 -3.14071666E-05 -6.11304004E-07 -1.70978951E-04  5.52844153E-01
  4.69701428E-01  2.18748151E-04 -1.07460252E-04  1.23571847E-03  8.03233966E-03
 -2.86038437E-05  1.07756450E-05 -1.20864773E-04 -3.06155850E-03 -1.19900054E-04
 -1.50624159E-05  1.68638219E-04  2.47694695E-03  3.43275624E-04 -3.31461661E-05
  3.88464407E-04  1.39842143E-04  7.32258573E-06 -1.94331611E-05 -1.90598372E-05
 -7.97814252E-07  4.70352685E-08 -7.01259304E-07  6.14817759E-06 -1.53592086E-05
  5.22978920E-05 -6.70617699E-05 -4.68388677E-04  3.22883926E-04 -2.08756869E-06
  2.16053914E-05 -8.33104279E-07 -7.93652947E-09 -2.87600500E-07  1.60231358E-05
 -2.99142616E-08 -7.97596798E-07 -5.45567013E-05  7.29382226E-08  1.50978033E-06
  7.73534589E-05 -6.40234020E-08 -2.85932047E-06  1.60301654E-05  1.96682429E-06
  1.41335606E-04  5.93066501E-06 -2.48587036E-06 -2.02022366E-07 -2.86079658E-05
 -2.01153603E-08  5.93132538E-05  1.42039938E-05 -1.10136958E-03  1.18531351E-05
 -3.81506705E-05  4.40342239E-04  1.33037809E-05 -3.13850783E-05  2.80110099E-04
  5.84521421E-06  2.26422894E-07  1.02906478E-06 -7.03636154E-07 -2.98568012E-06
  3.53715773E-05  2.81539076E-07 -7.12845384E-06  3.68792917E-05 -5.89694737E-05
 -1.10156744E-06  3.18936367E-05 -2.82846062E-04  4.78143829E-05  3.64622148E-07
 -5.08474623E-05  2.41836297E-03  5.38277295E-04 -1.08177573E-04  1.30065479E-03
  1.03139188E-05  2.06079597E-05 -3.89774617E-06  2.61069928E-05 -1.84326274E-06
 -1.19758641E-01 -3.20471564E-01  5.15954218E-01  5.99046357E-01  4.28497910E-02
 -1.49175070E-02  2.30894544E-03 -4.00644191E-04 -1.83057124E-06 -2.43626798E-04
 -8.23010533E-04 -1.12360129E-05 -1.83253842E-03 -1.89877914E-03 -2.53687195E-05
 -4.14568800E-03 -1.67576947E-04 -3.26345568E-06 -3.57807189E-04 -4.64717946E-04
 -7.13036170E-06 -1.91013393E-03  1.10232507E-03  1.17422598E-05  2.33722960E-03
  9.59911468E-04  1.66161862E-04  8.75037181E-06  6.02449379E-04 -3.47708123E-06
 -1.24610868E-05  1.19447752E-04 -2.64970642E-03 -8.42910623E-05 -4.70186424E-06
  4.43612622E-05  1.61042064E-04 -2.06872674E-03  3.59964401E-03 -3.04272442E-04
 -5.79440647E-06 -1.62226992E-03  2.85057098E-06  1.46317577E-05  1.25982457E-05
  3.13023184E-07 -5.67026858E-07 -1.43697582E-04 -8.64083718E-05 -1.20217963E-06
  4.79324973E-07  3.36626871E-04  2.55342768E-04 -4.52240857E-06  8.68777081E-05
  6.15225517E-05  1.97607367E-04 -1.10254627E-05  8.84874110E-05  6.02388511E-06
 -3.98242698E-07 -3.04644301E-06  2.51155791E-05  1.61172086E-07 -1.58481822E-04
 -4.35455900E-04  8.22393005E-04  6.08445584E-04  1.08406075E-04 -4.83087496E-05
 -1.18241271E-04 -2.47759985E-03  8.85924437E-06  4.94616426E-04  3.69852896E-01
 -1.50081451E-03 -8.18394680E-02  6.92245963E-01 -2.80943991E-03 -1.53150540E-01
  5.36814182E-02 -2.17373728E-04 -1.18601143E-02 -7.51973649E-03  2.95059302E-05
  1.59361098E-03  4.71160761E-03 -1.64628695E-05 -8.83912012E-04  2.23501041E-04
 -4.62566514E-04  2.76402415E-06 -1.56856139E-04 -2.89061620E-06 -4.24663028E-05
 -4.78769829E-05 -2.70513662E-04  1.11584413E-05 -2.51671926E-06  2.62322994E-05
  1.77248450E-05 -1.94097831E-06  6.53397487E-05  6.23630663E-05 -4.49281634E-07
 -6.10670877E-05  5.78890830E-07  2.41730788E-06  3.18383589E-06  7.13867048E-08
 -9.14748499E-06 -2.21092868E-05 -2.65791249E-05 -5.29590462E-07  4.22966050E-05
  4.71547297E-05  8.81807293E-05 -4.87916997E-07 -8.68580730E-05  1.77851489E-04
  3.66722733E-05 -5.75262433E-06  1.61452569E-04 -3.54690950E-07  4.96487127E-08
 -5.30924756E-07  4.77109031E-06 -5.09181608E-07 -7.71022220E-04 -2.08637538E-03
  3.69320594E-03  3.73856264E-03 -6.70960554E-04 -3.43253665E-04 -4.88787653E-04
 -4.25145165E-04 -6.69807702E-06 -1.97179368E-03  8.19658704E-02  1.25628207E-03
  3.70511409E-01  1.53151334E-01  2.34683412E-03  6.92171496E-01  1.16454009E-02
  1.78226017E-04  5.25847180E-02 -1.55353841E-03 -2.31073821E-05 -6.82827244E-03
  1.01530786E-03  1.49524810E-05  4.32525476E-03 -6.64267125E-04 -3.24563291E-04
 -5.84339104E-06 -7.82707675E-05 -1.33402335E-06  7.64350301E-06 -4.74114422E-06
 -1.48506771E-04 -2.56162034E-05 -8.24778799E-07  1.44716607E-05 -5.56887869E-04
 -9.89091024E-05  1.15420416E-03  9.14901111E-05  2.27691025E-06  6.42538603E-04
  1.23143320E-08  8.57812307E-08  4.26292932E-08 -7.03879520E-06  1.08846435E-07
 -7.54560995E-07 -2.56656753E-07  3.09845953E-05 -7.24265247E-07 -6.97532641E-08
 -3.97205014E-07 -7.55716544E-05  1.58177459E-07  4.74424495E-06  9.95080522E-07
  7.24921131E-05  2.31618188E-06 -2.92826864E-07 -5.25102948E-07 -1.88463345E-06
 -1.08328519E-07 -5.82364479E-06 -2.51190769E-06 -6.87095579E-06  1.26418849E-05
  1.09556358E-05 -1.24999889E-06  2.94052579E-07 -1.13541010E-06 -7.53727171E-06
 -2.13872894E-03  8.81559041E-06  1.19935214E-03  3.80270900E-01 -1.55471036E-03
  2.23623359E-03  7.09181607E-01 -2.89934885E-03  1.64086026E-04  5.19178408E-02
 -2.12231546E-04 -2.27047557E-05 -6.97869396E-03  2.79170333E-05  1.45428932E-05
  4.03426746E-03 -1.60981526E-05  4.13319378E-06 -5.98021811E-07 -4.15025121E-04
  2.06491488E-06 -1.62598519E-04 -1.70452092E-06  1.97720298E-06 -5.96270138E-06
  2.50004802E-06  8.79575518E-06 -3.88880718E-07 -1.49125037E-07 -8.82046512E-07
  1.20205307E-06  1.95814529E-07  9.53002052E-05 -6.80549479E-07 -1.18701873E-01
 -1.95625629E-01  1.43998310E-03 -4.09752958E-03  4.71295896E-02  5.74870545E-01
  2.58364279E-03 -6.56609177E-03  7.55328820E-02  4.19223315E-01  3.35004343E-03
 -2.48983884E-03  2.81025167E-02 -2.04040043E-02 -5.06603071E-03  5.38700932E-04
 -6.33776502E-03  9.57323064E-03  4.22905876E-04 -1.88655892E-03  5.09675185E-03
 -4.78792282E-06  3.58150516E-04  1.02056755E-03 -2.16452555E-03 -3.70941222E-03
  5.06837476E-03  7.56238793E-03  7.84512838E-03 -4.55310569E-03  1.77793251E-06
  1.39207787E-04  8.26878614E-04 -1.77424956E-07 -1.70145387E-05  1.47913510E-03
 -5.22466427E-07 -3.11475650E-05 -1.27732274E-03  2.21288290E-06  1.33800953E-04
 -6.56094894E-03  3.85104691E-06 -4.63958906E-05 -3.16355926E-03 -3.74973847E-05
 -2.62599236E-03 -3.42790448E-04  9.66241401E-05  2.04902570E-06  1.37660854E-03
  4.27499008E-06  1.10515687E-01  8.94089632E-02  1.74341332E-02 -7.05450155E-04
  2.25329642E-03 -2.60123017E-02  7.64626373E-04  1.95597455E-04 -4.75219123E-03
 -4.83842631E-05  9.46725871E-08 -2.16596883E-05  1.91603290E-03  3.19352898E-03
  4.92224150E-03  1.47615649E-04 -1.71439511E-03 -1.00796843E-02  7.74121294E-03
  2.23691192E-04 -2.61777473E-03 -4.66131139E-03  7.16867731E-03  9.63787915E-05
 -8.97991795E-04 -1.02094643E-02 -1.68581505E-03  4.55571574E-04 -5.56029273E-03
 -4.60532418E-04  2.16246708E-04  4.02909392E-05  3.37645308E-04 -1.83583033E-05
  3.34282114E-02  9.49894812E-02 -1.99354149E-01 -3.69006675E-01  6.69529181E-01
  4.07622726E-01 -1.01332434E-02  3.69003620E-04  6.25845416E-05 -1.45128204E-03
  2.12729906E-03  8.59888520E-05  1.67676784E-02  4.34202938E-03  1.70366942E-04
  3.35132172E-02 -6.55905718E-03 -2.24719207E-04 -4.67911952E-02 -4.13009543E-03
 -3.79747579E-04 -6.22719706E-02 -1.74694945E-03 -2.21611504E-04 -8.85786296E-03
  2.11930483E-02  3.52435063E-03  1.86578374E-04  1.11700853E-02 -2.53818953E-05
 -2.48834089E-03 -3.25958325E-03  1.16246229E-02  9.75204551E-04 -5.01079513E-05
  5.99795393E-04  1.01008147E-01  1.33626295E-01  1.69798122E-03  5.09482865E-03
  8.41959273E-05  2.32031456E-02  3.92397504E-02  6.57054596E-02  5.13237264E-03
 -2.15284306E-02  2.50411821E-01 -2.00438399E-01  7.44491449E-03 -3.10000104E-02
  3.60602956E-01 -2.85971715E-01  3.34209916E-03 -2.07054880E-02  2.41637945E-01
 -5.99233027E-02  1.24920306E-03 -2.14961193E-03  2.59337024E-02  1.88553036E-02
  1.50900034E-03 -2.70050535E-03 -1.75671436E-03 -1.37171099E-04  9.90730244E-04
  2.82494456E-03 -6.02217770E-03 -1.12497485E-02  2.17974140E-02  1.94480554E-02
  1.58398480E-03 -1.90479233E-03  1.39624178E-06 -1.32335397E-03 -1.99487657E-03
  8.90156376E-05 -4.90624705E-03 -3.83874769E-03  1.71338826E-04 -9.52730905E-03
  5.20640436E-03 -2.43731937E-04  1.36246564E-02  1.12700832E-02 -4.80351684E-04
  2.45502556E-02  6.41578485E-03 -4.20711566E-04  8.41361865E-03 -2.53364304E-03
 -2.06309464E-03 -1.51667659E-05 -4.00906424E-04  7.17084475E-05  1.65766492E-01
  2.59025664E-01  8.07847851E-02 -1.33058813E-04  2.56973393E-03 -2.97257897E-02
 -9.35281134E-03 -1.42545449E-02 -9.72367366E-03  3.06142048E-04 -2.06366678E-05
 -1.37046026E-03 -2.42166366E-03 -4.06161059E-03  3.89485047E-03  2.14630590E-03
 -1.83528033E-02  1.23952671E-02  6.27474253E-03  3.11729925E-03 -2.64830163E-02
  1.83344753E-02  4.83639629E-03  2.23187890E-03 -1.79319202E-02  8.77598709E-03
  4.77651574E-03  1.47552162E-04  1.05741975E-03 -1.50771050E-03  3.18112807E-04
  2.28870312E-04  2.79399788E-04 -4.31285644E-06  1.21268113E-02  3.46465387E-02
 -7.44753362E-02 -1.36136829E-01  2.50124008E-01  2.97126736E-01  2.39296751E-02
 -4.27250515E-03 -4.19539323E-05 -2.41298402E-02 -1.44987170E-02 -2.76785259E-04
 -8.15606337E-02 -2.82426872E-02 -5.39442099E-04 -1.58808331E-01  4.12940062E-02
  7.93714918E-04  2.31296238E-01  7.24077189E-02  1.33674479E-03  4.04732822E-01
  1.96281125E-02  2.18850240E-04  1.09139341E-01 -4.98678658E-02 -1.58800563E-02
 -3.68012775E-04  4.00555656E-03 -8.97998094E-05 -1.21241004E-02 -1.98303028E-02
 -8.35782296E-03  1.06927596E-03 -1.25276175E-04  2.24278849E-03 -1.57374110E-01
 -2.84630256E-01 -1.31101498E-01 -6.39114946E-03 -7.86181291E-05 -2.60617304E-02
 -3.59795410E-05 -6.04601884E-05 -1.29956594E-03  3.03071202E-01  2.61833522E-02
  2.02063520E-04 -1.91634923E-03  4.44250180E-01  3.83795528E-02  2.25294618E-04
 -1.72737831E-03  4.00576622E-01  3.45807337E-02 -5.02040589E-04 -4.94883343E-04
  8.72258065E-02  7.46389995E-03  2.15091147E-03  3.69923015E-05  1.41908415E-02
  1.24656790E-03  1.18218223E-03 -2.00016515E-05 -5.75123726E-05  1.26919840E-04
  2.16139801E-04 -3.48434747E-04 -8.02709884E-04 -4.46915878E-04  6.75580365E-05
 -1.61594171E-03  3.31588494E-04 -3.88954319E-05 -7.18565931E-03  2.72876061E-04
 -7.47778081E-05 -1.38276058E-02  5.32187762E-04  9.91275320E-05  2.01210767E-02
 -7.97135683E-04  2.49313029E-04  4.14450874E-02 -1.43993293E-03  2.03207425E-04
  2.27561841E-02 -1.14713398E-04  2.07362002E-04 -8.55190834E-05 -1.09510838E-03
 -2.24854922E-05 -1.53814753E-03 -9.96459003E-06  2.99059226E-05  3.03799333E-04
 -1.51689891E-04  3.57894272E-02  3.07777274E-03  4.96108331E-04  7.83197809E-04
  9.73318296E-04  1.12148637E-04  1.51271355E-03  7.17380432E-05  4.26924967E-07
  7.63013270E-07 -2.09474189E-03 -2.57367728E-02 -1.61611228E-03  5.57217771E-07
 -3.16550792E-03 -3.74976349E-02 -2.36344506E-03 -1.32514292E-06 -2.89793011E-03
 -3.52494165E-02 -2.32125503E-03 -7.20382502E-04 -8.49441391E-04 -6.80302450E-03
 -9.21728969E-04 -1.16280081E-04 -1.19587374E-04 -1.21565511E-03 -1.36073955E-04
  2.89968981E-04  3.56122817E-05  1.01150016E-04 -2.12323530E-04 -4.32770215E-04
  1.04043891E-03  2.65353665E-04 -9.33131394E-04 -5.26707605E-04 -6.01464827E-02
  2.05963059E-04 -1.04317137E-03 -1.03218011E-01  5.07130618E-04 -2.01525127E-03
 -1.98817212E-01  9.79367213E-04  2.86169024E-03  2.93033069E-01 -1.43515887E-03
  6.14059858E-03  6.03199075E-01 -2.92686816E-03  3.77841722E-03  3.32106210E-01
 -1.47671809E-03  2.24292032E-04 -1.59071113E-04 -1.63475038E-02  4.95072307E-05
 -1.49196326E-03  3.51114411E-04  4.71017509E-04  7.16276916E-04 -3.25048996E-04
 -2.80664289E-03 -3.29312470E-04 -5.04385571E-05 -3.92126969E-05  4.77258011E-04
  1.91796565E-04  2.15907856E-02 -8.99978704E-05 -3.87285916E-03 -6.52751575E-03
 -2.12598848E-01 -1.08963471E-03  3.15164645E-03  2.09843926E-02 -3.20733956E-01
 -1.67333123E-03  5.52676116E-03  2.83097283E-02 -2.98205569E-01 -1.02352941E-03