 Entering Gaussian System, Link 0=g16
 Initial command:
 /home/szhao/Apps/g16/l1.exe "/home/szhao/tmp/Gau-64798.inp" -scrdir="/home/szhao/tmp/"
 Default is to use a total of  16 processors:
                               16 via shared-memory
                                1 via Linda
 Entering Link 1 = /home/szhao/Apps/g16/l1.exe PID=     64799.
  
 Copyright (c) 1988,1990,1992,1993,1995,1998,2003,2009,2016,
            Gaussian, Inc.  All Rights Reserved.
  
 This is part of the Gaussian(R) 16 program.  It is based on
 the Gaussian(R) 09 system (copyright 2009, Gaussian, Inc.),
 the Gaussian(R) 03 system (copyright 2003, Gaussian, Inc.),
 the Gaussian(R) 98 system (copyright 1998, Gaussian, Inc.),
 the Gaussian(R) 94 system (copyright 1995, Gaussian, Inc.),
 the Gaussian 92(TM) system (copyright 1992, Gaussian, Inc.),
 the Gaussian 90(TM) system (copyright 1990, Gaussian, Inc.),
 the Gaussian 88(TM) system (copyright 1988, Gaussian, Inc.),
 the Gaussian 86(TM) system (copyright 1986, Carnegie Mellon
 University), and the Gaussian 82(TM) system (copyright 1983,
 Carnegie Mellon University). Gaussian is a federally registered
 trademark of Gaussian, Inc.
  
 This software contains proprietary and confidential information,
 including trade secrets, belonging to Gaussian, Inc.
  
 This software is provided under written license and may be
 used, copied, transmitted, or stored only in accord with that
 written license.
  
 The following legend is applicable only to US Government
 contracts under FAR:
  
                    RESTRICTED RIGHTS LEGEND
  
 Use, reproduction and disclosure by the US Government is
 subject to restrictions as set forth in subparagraphs (a)
 and (c) of the Commercial Computer Software - Restricted
 Rights clause in FAR 52.227-19.
  
 Gaussian, Inc.
 340 Quinnipiac St., Bldg. 40, Wallingford CT 06492
  
  
 ---------------------------------------------------------------
 Warning -- This program may not be used in any manner that
 competes with the business of Gaussian, Inc. or will provide
 assistance to any competitor of Gaussian, Inc.  The licensee
 of this program is prohibited from giving any competitor of
 Gaussian, Inc. access to this program.  By using this program,
 the user acknowledges that Gaussian, Inc. is engaged in the
 business of creating and licensing software in the field of
 computational chemistry and represents and warrants to the
 licensee that it is not a competitor of Gaussian, Inc. and that
 it will not use this program in any manner prohibited above.
 ---------------------------------------------------------------
  

 Cite this work as:
 Gaussian 16, Revision A.03,
 M. J. Frisch, G. W. Trucks, H. B. Schlegel, G. E. Scuseria, 
 M. A. Robb, J. R. Cheeseman, G. Scalmani, V. Barone, 
 G. A. Petersson, H. Nakatsuji, X. Li, M. Caricato, A. V. Marenich, 
 J. Bloino, B. G. Janesko, R. Gomperts, B. Mennucci, H. P. Hratchian, 
 J. V. Ortiz, A. F. Izmaylov, J. L. Sonnenberg, D. Williams-Young, 
 F. Ding, F. Lipparini, F. Egidi, J. Goings, B. Peng, A. Petrone, 
 T. Henderson, D. Ranasinghe, V. G. Zakrzewski, J. Gao, N. Rega, 
 G. Zheng, W. Liang, M. Hada, M. Ehara, K. Toyota, R. Fukuda, 
 J. Hasegawa, M. Ishida, T. Nakajima, Y. Honda, O. Kitao, H. Nakai, 
 T. Vreven, K. Throssell, J. A. Montgomery, Jr., J. E. Peralta, 
 F. Ogliaro, M. J. Bearpark, J. J. Heyd, E. N. Brothers, K. N. Kudin, 
 V. N. Staroverov, T. A. Keith, R. Kobayashi, J. Normand, 
 K. Raghavachari, A. P. Rendell, J. C. Burant, S. S. Iyengar, 
 J. Tomasi, M. Cossi, J. M. Millam, M. Klene, C. Adamo, R. Cammi, 
 J. W. Ochterski, R. L. Martin, K. Morokuma, O. Farkas, 
 J. B. Foresman, and D. J. Fox, Gaussian, Inc., Wallingford CT, 2016.
 
 ******************************************
 Gaussian 16:  ES64L-G16RevA.03 25-Dec-2016
                21-Apr-2025 
 ******************************************
 %chk=opt.chk
 %mem=4GB
 %nprocshared=8
 Will use up to    8 processors via shared memory.
 --------------------------------------------
 #p opt UM062X/6-311+G** nosymm int=superfine
 --------------------------------------------
 1/18=20,19=15,26=5,38=1/1,3;
 2/9=110,12=2,15=1,17=6,18=5,40=1/2;
 3/5=4,6=6,7=111,11=2,25=1,30=1,71=1,74=-55,75=-7,116=2/1,2,3;
 4//1;
 5/5=2,38=5/2;
 6/7=2,8=2,9=2,10=2,28=1/1;
 7/30=1/1,2,3,16;
 1/18=20,19=15,26=5/3(2);
 2/9=110,15=1/2;
 99//99;
 2/9=110,15=1/2;
 3/5=4,6=6,7=111,11=2,25=1,30=1,71=1,74=-55,75=-7,116=2/1,2,3;
 4/5=5,16=3,69=1/1;
 5/5=2,38=5/2;
 7/30=1/1,2,3,16;
 1/18=20,19=15,26=5/3(-5);
 2/9=110,15=1/2;
 6/7=2,8=2,9=2,10=2,19=2,28=1/1;
 99/9=1/99;
 Leave Link    1 at Mon Apr 21 21:17:51 2025, MaxMem=   536870912 cpu:               4.5 elap:               0.6
 (Enter /home/szhao/Apps/g16/l101.exe)
 -------------------
 Title Card Required
 -------------------
 Symbolic Z-matrix:
 Charge =  0 Multiplicity = 1
 S                    -1   -2.34319   0.        0. 
 S                    -1    2.34319   0.        0. 
 H                    0    -2.52683  -1.33225   0. 
 H                    0     2.52683   0.02841   1.33195 
 
 Add virtual bond connecting atoms S2         and S1         Dist= 8.86D+00.
 ITRead=  2  2  0  0
 MicOpt= -2 -2 -1 -1
 NAtoms=      4 NQM=        2 NQMF=       2 NMMI=      0 NMMIF=      0
                NMic=       0 NMicF=      0.
                    Isotopes and Nuclear Properties:
 (Nuclear quadrupole moments (NQMom) in fm**2, nuclear magnetic moments (NMagM)
  in nuclear magnetons)

  Atom         1           2           3           4
 IAtWgt=          32          32           1           1
 AtmWgt=  31.9720718  31.9720718   1.0078250   1.0078250
 NucSpn=           0           0           1           1
 AtZEff=  -0.0000000  -0.0000000  -0.0000000  -0.0000000
 NQMom=    0.0000000   0.0000000   0.0000000   0.0000000
 NMagM=    0.0000000   0.0000000   2.7928460   2.7928460
 AtZNuc=  16.0000000  16.0000000   1.0000000   1.0000000
 Leave Link  101 at Mon Apr 21 21:17:53 2025, MaxMem=   536870912 cpu:               3.0 elap:               0.5
 (Enter /home/szhao/Apps/g16/l103.exe)

 GradGradGradGradGradGradGradGradGradGradGradGradGradGradGradGradGradGrad
 Berny optimization.
 Initialization pass.
                           ----------------------------
                           !    Initial Parameters    !
                           ! (Angstroms and Degrees)  !
 --------------------------                            --------------------------
 ! Name  Definition              Value          Derivative Info.                !
 --------------------------------------------------------------------------------
 ! X1    R(1,-1)                -2.3432         Frozen                          !
 ! Y1    R(1,-2)                 0.0            Frozen                          !
 ! Z1    R(1,-3)                 0.0            Frozen                          !
 ! X2    R(2,-1)                 2.3432         Frozen                          !
 ! Y2    R(2,-2)                 0.0            Frozen                          !
 ! Z2    R(2,-3)                 0.0            Frozen                          !
 ! R1    R(1,3)                  1.3448         estimate D2E/DX2                !
 ! R2    R(2,4)                  1.3448         estimate D2E/DX2                !
 ! A1    A(2,1,3)               97.8484         estimate D2E/DX2                !
 ! A2    A(1,2,4)               97.8484         estimate D2E/DX2                !
 ! D1    D(3,1,2,4)            -91.2217         estimate D2E/DX2                !
 --------------------------------------------------------------------------------
 Trust Radius=3.00D-01 FncErr=1.00D-07 GrdErr=1.00D-07 EigMax=2.50D+02 EigMin=1.00D-04
 Number of steps in this run=     21 maximum allowed number of steps=    100.
 GradGradGradGradGradGradGradGradGradGradGradGradGradGradGradGradGradGrad

 Leave Link  103 at Mon Apr 21 21:17:53 2025, MaxMem=   536870912 cpu:               0.3 elap:               0.2
 (Enter /home/szhao/Apps/g16/l202.exe)
                          Input orientation:                          
 ---------------------------------------------------------------------
 Center     Atomic      Atomic             Coordinates (Angstroms)
 Number     Number       Type             X           Y           Z
 ---------------------------------------------------------------------
      1         16           0       -2.343191    0.000000    0.000000
      2         16           0        2.343191    0.000000    0.000000
      3          1           0       -2.526833   -1.332250    0.000000
      4          1           0        2.526833    0.028406    1.331947
 ---------------------------------------------------------------------
                    Distance matrix (angstroms):
                    1          2          3          4
     1  S    0.000000
     2  S    4.686383   0.000000
     3  H    1.344848   5.048963   0.000000
     4  H    5.048963   1.344848   5.400464   0.000000
 Symmetry turned off by external request.
 Stoichiometry    H2S2
 Framework group  C2[X(H2S2)]
 Deg. of freedom     4
 Full point group                 C2      NOp   2
 Rotational constants (GHZ):         146.0993661           1.3818742           1.3816292
 Leave Link  202 at Mon Apr 21 21:17:53 2025, MaxMem=   536870912 cpu:               0.7 elap:               0.3
 (Enter /home/szhao/Apps/g16/l301.exe)
 Standard basis: 6-311+G(d,p) (5D, 7F)
 Ernie: Thresh=  0.10000D-02 Tol=  0.10000D-05 Strict=F.
    72 basis functions,   116 primitive gaussians,    74 cartesian basis functions
    17 alpha electrons       17 beta electrons
       nuclear repulsion energy        44.9504178086 Hartrees.
 IExCor= 4336 DFT=T Ex+Corr=M062X ExCW=0 ScaHFX=  0.540000
 ScaDFX=  1.000000  1.000000  1.000000  1.000000 ScalE2=  1.000000  1.000000
 IRadAn=      7 IRanWt=     -1 IRanGd=            0 ICorTp=0 IEmpDi=  4
 NAtoms=    4 NActive=    4 NUniq=    4 SFac= 1.00D+00 NAtFMM=   60 NAOKFM=F Big=F
 Integral buffers will be    131072 words long.
 Raffenetti 2 integral format.
 Two-electron integral symmetry is turned off.
 Leave Link  301 at Mon Apr 21 21:17:54 2025, MaxMem=   536870912 cpu:               0.7 elap:               0.3
 (Enter /home/szhao/Apps/g16/l302.exe)
 NPDir=0 NMtPBC=     1 NCelOv=     1 NCel=       1 NClECP=     1 NCelD=      1
         NCelK=      1 NCelE2=     1 NClLst=     1 CellRange=     0.0.
 One-electron integrals computed using PRISM.
 NBasis=    72 RedAO= T EigKep=  1.65D-02  NBF=    72
 NBsUse=    72 1.00D-06 EigRej= -1.00D+00 NBFU=    72
 Precomputing XC quadrature grid using
 IXCGrd= 4 IRadAn=           7 IRanWt=          -1 IRanGd=           0 AccXCQ= 0.00D+00.
 Generated NRdTot=       0 NPtTot=           0 NUsed=           0 NTot=          32
 NSgBfM=    63    63    63    63    63 MxSgAt=     4 MxSgA2=     4.
 Leave Link  302 at Mon Apr 21 21:17:55 2025, MaxMem=   536870912 cpu:               3.2 elap:               0.7
 (Enter /home/szhao/Apps/g16/l303.exe)
 DipDrv:  MaxL=1.
 Leave Link  303 at Mon Apr 21 21:17:56 2025, MaxMem=   536870912 cpu:               0.9 elap:               0.4
 (Enter /home/szhao/Apps/g16/l401.exe)
 ExpMin= 4.05D-02 ExpMax= 9.34D+04 ExpMxC= 3.17D+03 IAcc=3 IRadAn=         7 AccDes= 0.00D+00
 Harris functional with IExCor= 1009 and IRadAn=       7 diagonalized for initial guess.
 HarFok:  IExCor= 1009 AccDes= 0.00D+00 IRadAn=         7 IDoV= 1 UseB2=F ITyADJ=14
 ICtDFT=  3500011 ScaDFX=  1.000000  1.000000  1.000000  1.000000
 FoFCou: FMM=F IPFlag=           0 FMFlag=      100000 FMFlg1=           0
         NFxFlg=           0 DoJE=T BraDBF=F KetDBF=T FulRan=T
         wScrn=  0.000000 ICntrl=       500 IOpCl=  0 I1Cent=   200000004 NGrid=           0
         NMat0=    1 NMatS0=      1 NMatT0=    0 NMatD0=    1 NMtDS0=    0 NMtDT0=    0
 Symmetry not used in FoFCou.
 Harris En= -797.046953419853    
 JPrj=0 DoOrth=F DoCkMO=F.
 Initial guess <Sx>= 0.0000 <Sy>= 0.0000 <Sz>= 0.0000 <S**2>=-0.0000 S=-0.0000
 Leave Link  401 at Mon Apr 21 21:17:57 2025, MaxMem=   536870912 cpu:               2.7 elap:               0.4
 (Enter /home/szhao/Apps/g16/l502.exe)
 Keep R1 and R2 ints in memory in canonical form, NReq=14118010.
 FoFCou: FMM=F IPFlag=           0 FMFlag=           0 FMFlg1=           0
         NFxFlg=           0 DoJE=F BraDBF=F KetDBF=F FulRan=T
         wScrn=  0.000000 ICntrl=       600 IOpCl=  0 I1Cent=           0 NGrid=           0
         NMat0=    1 NMatS0=   2628 NMatT0=    0 NMatD0=    1 NMtDS0=    0 NMtDT0=    0
 Symmetry not used in FoFCou.
 Two-electron integral symmetry not used.
 UHF open shell SCF:
 Using DIIS extrapolation, IDIIS=  1040.
 NGot=   536870912 LenX=   529949706 LenY=   529943789
 Requested convergence on RMS density matrix=1.00D-08 within 128 cycles.
 Requested convergence on MAX density matrix=1.00D-06.
 Requested convergence on             energy=1.00D-06.
 No special actions if energy rises.

 Cycle   1  Pass 1  IDiag  1:
 E= -797.371080975296    
 DIIS: error= 2.28D-02 at cycle   1 NSaved=   1.
 NSaved= 1 IEnMin= 1 EnMin= -797.371080975296     IErMin= 1 ErrMin= 2.28D-02
 ErrMax= 2.28D-02  0.00D+00 EMaxC= 1.00D-01 BMatC= 2.56D-01 BMatP= 2.56D-01
 IDIUse=3 WtCom= 7.72D-01 WtEn= 2.28D-01
 Coeff-Com:  0.100D+01
 Coeff-En:   0.100D+01
 Coeff:      0.100D+01
 Gap=     0.105 Goal=   None    Shift=    0.000
 Gap=     0.105 Goal=   None    Shift=    0.000
 GapD=    0.105 DampG=1.000 DampE=0.500 DampFc=0.5000 IDamp=-1.
 Damping current iteration by 5.00D-01
 RMSDP=1.65D-03 MaxDP=2.66D-02              OVMax= 2.18D-02

 Cycle   2  Pass 1  IDiag  1:
 E= -797.376529260053     Delta-E=       -0.005448284757 Rises=F Damp=T
 DIIS: error= 9.85D-03 at cycle   2 NSaved=   2.
 NSaved= 2 IEnMin= 2 EnMin= -797.376529260053     IErMin= 2 ErrMin= 9.85D-03
 ErrMax= 9.85D-03  0.00D+00 EMaxC= 1.00D-01 BMatC= 4.16D-02 BMatP= 2.56D-01
 IDIUse=3 WtCom= 9.01D-01 WtEn= 9.85D-02
 Coeff-Com: -0.619D+00 0.162D+01
 Coeff-En:   0.000D+00 0.100D+01
 Coeff:     -0.558D+00 0.156D+01
 Gap=     0.074 Goal=   None    Shift=    0.000
 Gap=     0.074 Goal=   None    Shift=    0.000
 RMSDP=8.20D-04 MaxDP=9.98D-03 DE=-5.45D-03 OVMax= 8.21D-03

 Cycle   3  Pass 1  IDiag  1:
 E= -797.381643412909     Delta-E=       -0.005114152857 Rises=F Damp=F
 DIIS: error= 4.38D-04 at cycle   3 NSaved=   3.
 NSaved= 3 IEnMin= 3 EnMin= -797.381643412909     IErMin= 3 ErrMin= 4.38D-04
 ErrMax= 4.38D-04  0.00D+00 EMaxC= 1.00D-01 BMatC= 1.07D-04 BMatP= 4.16D-02
 IDIUse=3 WtCom= 9.96D-01 WtEn= 4.38D-03
 Coeff-Com: -0.423D-01 0.833D-01 0.959D+00
 Coeff-En:   0.000D+00 0.000D+00 0.100D+01
 Coeff:     -0.421D-01 0.829D-01 0.959D+00
 Gap=     0.074 Goal=   None    Shift=    0.000
 Gap=     0.074 Goal=   None    Shift=    0.000
 RMSDP=1.38D-04 MaxDP=3.30D-03 DE=-5.11D-03 OVMax= 2.79D-03

 Cycle   4  Pass 1  IDiag  1:
 E= -797.381669445811     Delta-E=       -0.000026032902 Rises=F Damp=F
 DIIS: error= 2.63D-04 at cycle   4 NSaved=   4.
 NSaved= 4 IEnMin= 4 EnMin= -797.381669445811     IErMin= 4 ErrMin= 2.63D-04
 ErrMax= 2.63D-04  0.00D+00 EMaxC= 1.00D-01 BMatC= 2.35D-05 BMatP= 1.07D-04
 IDIUse=3 WtCom= 9.97D-01 WtEn= 2.63D-03
 Coeff-Com:  0.713D-02-0.191D-01 0.300D+00 0.712D+00
 Coeff-En:   0.000D+00 0.000D+00 0.000D+00 0.100D+01
 Coeff:      0.711D-02-0.190D-01 0.299D+00 0.713D+00
 Gap=     0.074 Goal=   None    Shift=    0.000
 Gap=     0.074 Goal=   None    Shift=    0.000
 RMSDP=4.12D-05 MaxDP=8.93D-04 DE=-2.60D-05 OVMax= 1.29D-03

 Cycle   5  Pass 1  IDiag  1:
 E= -797.381675736863     Delta-E=       -0.000006291051 Rises=F Damp=F
 DIIS: error= 7.46D-05 at cycle   5 NSaved=   5.
 NSaved= 5 IEnMin= 5 EnMin= -797.381675736863     IErMin= 5 ErrMin= 7.46D-05
 ErrMax= 7.46D-05  0.00D+00 EMaxC= 1.00D-01 BMatC= 1.07D-06 BMatP= 2.35D-05
 IDIUse=1 WtCom= 1.00D+00 WtEn= 0.00D+00
 Coeff-Com:  0.199D-02-0.524D-02 0.537D-01 0.186D+00 0.764D+00
 Coeff:      0.199D-02-0.524D-02 0.537D-01 0.186D+00 0.764D+00
 Gap=     0.074 Goal=   None    Shift=    0.000
 Gap=     0.074 Goal=   None    Shift=    0.000
 RMSDP=3.92D-05 MaxDP=1.14D-03 DE=-6.29D-06 OVMax= 3.08D-03

 Cycle   6  Pass 1  IDiag  1:
 E= -797.381669364918     Delta-E=        0.000006371945 Rises=F Damp=F
 DIIS: error= 3.31D-04 at cycle   6 NSaved=   6.
 NSaved= 6 IEnMin= 5 EnMin= -797.381675736863     IErMin= 5 ErrMin= 7.46D-05
 ErrMax= 3.31D-04  0.00D+00 EMaxC= 1.00D-01 BMatC= 1.53D-05 BMatP= 1.07D-06
 IDIUse=1 WtCom= 1.00D+00 WtEn= 0.00D+00
 Coeff-Com: -0.976D-03 0.265D-02-0.755D-01-0.106D+00 0.957D+00 0.223D+00
 Coeff:     -0.976D-03 0.265D-02-0.755D-01-0.106D+00 0.957D+00 0.223D+00
 Gap=     0.074 Goal=   None    Shift=    0.000
 Gap=     0.074 Goal=   None    Shift=    0.000
 RMSDP=3.20D-05 MaxDP=9.30D-04 DE= 6.37D-06 OVMax= 2.54D-03

 Cycle   7  Pass 1  IDiag  1:
 E= -797.381676972185     Delta-E=       -0.000007607266 Rises=F Damp=F
 DIIS: error= 3.10D-05 at cycle   7 NSaved=   7.
 NSaved= 7 IEnMin= 7 EnMin= -797.381676972185     IErMin= 7 ErrMin= 3.10D-05
 ErrMax= 3.10D-05  0.00D+00 EMaxC= 1.00D-01 BMatC= 7.36D-08 BMatP= 1.07D-06
 IDIUse=1 WtCom= 1.00D+00 WtEn= 0.00D+00
 Coeff-Com:  0.119D-03-0.264D-03 0.906D-02 0.447D-02-0.219D+00-0.358D-01
 Coeff-Com:  0.124D+01
 Coeff:      0.119D-03-0.264D-03 0.906D-02 0.447D-02-0.219D+00-0.358D-01
 Coeff:      0.124D+01
 Gap=     0.074 Goal=   None    Shift=    0.000
 Gap=     0.074 Goal=   None    Shift=    0.000
 RMSDP=1.53D-05 MaxDP=2.23D-04 DE=-7.61D-06 OVMax= 1.23D-03

 Cycle   8  Pass 1  IDiag  1:
 E= -797.381677489946     Delta-E=       -0.000000517761 Rises=F Damp=F
 DIIS: error= 2.75D-05 at cycle   8 NSaved=   8.
 NSaved= 8 IEnMin= 8 EnMin= -797.381677489946     IErMin= 8 ErrMin= 2.75D-05
 ErrMax= 2.75D-05  0.00D+00 EMaxC= 1.00D-01 BMatC= 5.78D-08 BMatP= 7.36D-08
 IDIUse=1 WtCom= 1.00D+00 WtEn= 0.00D+00
 Coeff-Com:  0.309D-03-0.832D-03 0.224D-01 0.344D-01-0.245D+00-0.620D-01
 Coeff-Com: -0.401D+00 0.165D+01
 Coeff:      0.309D-03-0.832D-03 0.224D-01 0.344D-01-0.245D+00-0.620D-01
 Coeff:     -0.401D+00 0.165D+01
 Gap=     0.074 Goal=   None    Shift=    0.000
 Gap=     0.074 Goal=   None    Shift=    0.000
 RMSDP=2.30D-05 MaxDP=3.38D-04 DE=-5.18D-07 OVMax= 1.86D-03

 Cycle   9  Pass 1  IDiag  1:
 E= -797.381678178266     Delta-E=       -0.000000688321 Rises=F Damp=F
 DIIS: error= 2.34D-05 at cycle   9 NSaved=   9.
 NSaved= 9 IEnMin= 9 EnMin= -797.381678178266     IErMin= 9 ErrMin= 2.34D-05
 ErrMax= 2.34D-05  0.00D+00 EMaxC= 1.00D-01 BMatC= 4.39D-08 BMatP= 5.78D-08
 IDIUse=1 WtCom= 1.00D+00 WtEn= 0.00D+00
 Coeff-Com: -0.543D-03 0.128D-02-0.290D-01-0.282D-01 0.529D+00 0.103D+00
 Coeff-Com: -0.165D+01-0.103D+01 0.310D+01
 Coeff:     -0.543D-03 0.128D-02-0.290D-01-0.282D-01 0.529D+00 0.103D+00
 Coeff:     -0.165D+01-0.103D+01 0.310D+01
 Gap=     0.074 Goal=   None    Shift=    0.000
 Gap=     0.074 Goal=   None    Shift=    0.000
 RMSDP=6.27D-05 MaxDP=9.24D-04 DE=-6.88D-07 OVMax= 5.07D-03

 Cycle  10  Pass 1  IDiag  1:
 E= -797.381679582268     Delta-E=       -0.000001404001 Rises=F Damp=F
 DIIS: error= 1.37D-05 at cycle  10 NSaved=  10.
 NSaved=10 IEnMin=10 EnMin= -797.381679582268     IErMin=10 ErrMin= 1.37D-05
 ErrMax= 1.37D-05  0.00D+00 EMaxC= 1.00D-01 BMatC= 1.65D-08 BMatP= 4.39D-08
 IDIUse=1 WtCom= 1.00D+00 WtEn= 0.00D+00
 Coeff-Com:  0.194D-04 0.559D-04-0.705D-02-0.140D-01 0.251D-01 0.127D-01
 Coeff-Com:  0.590D+00-0.681D+00-0.144D+01 0.251D+01
 Coeff:      0.194D-04 0.559D-04-0.705D-02-0.140D-01 0.251D-01 0.127D-01
 Coeff:      0.590D+00-0.681D+00-0.144D+01 0.251D+01
 Gap=     0.074 Goal=   None    Shift=    0.000
 Gap=     0.074 Goal=   None    Shift=    0.000
 RMSDP=8.78D-05 MaxDP=1.29D-03 DE=-1.40D-06 OVMax= 7.11D-03

 Cycle  11  Pass 1  IDiag  1:
 E= -797.381680389819     Delta-E=       -0.000000807551 Rises=F Damp=F
 DIIS: error= 1.93D-06 at cycle  11 NSaved=  11.
 NSaved=11 IEnMin=11 EnMin= -797.381680389819     IErMin=11 ErrMin= 1.93D-06
 ErrMax= 1.93D-06  0.00D+00 EMaxC= 1.00D-01 BMatC= 8.32D-10 BMatP= 1.65D-08
 IDIUse=1 WtCom= 1.00D+00 WtEn= 0.00D+00
 Coeff-Com:  0.640D-04-0.118D-03 0.102D-02 0.225D-03-0.200D-01-0.151D-02
 Coeff-Com:  0.303D+00-0.116D+00-0.665D+00 0.683D+00 0.815D+00
 Coeff:      0.640D-04-0.118D-03 0.102D-02 0.225D-03-0.200D-01-0.151D-02
 Coeff:      0.303D+00-0.116D+00-0.665D+00 0.683D+00 0.815D+00
 Gap=     0.074 Goal=   None    Shift=    0.000
 Gap=     0.074 Goal=   None    Shift=    0.000
 RMSDP=7.25D-06 MaxDP=1.07D-04 DE=-8.08D-07 OVMax= 5.87D-04

 Cycle  12  Pass 1  IDiag  1:
 E= -797.381680396036     Delta-E=       -0.000000006218 Rises=F Damp=F
 DIIS: error= 2.54D-07 at cycle  12 NSaved=  12.
 NSaved=12 IEnMin=12 EnMin= -797.381680396036     IErMin=12 ErrMin= 2.54D-07
 ErrMax= 2.54D-07  0.00D+00 EMaxC= 1.00D-01 BMatC= 2.35D-11 BMatP= 8.32D-10
 IDIUse=1 WtCom= 1.00D+00 WtEn= 0.00D+00
 Coeff-Com: -0.100D-04 0.131D-04 0.739D-03 0.123D-02-0.302D-02-0.124D-02
 Coeff-Com: -0.670D-01 0.473D-01 0.166D+00-0.228D+00-0.525D-01 0.114D+01
 Coeff:     -0.100D-04 0.131D-04 0.739D-03 0.123D-02-0.302D-02-0.124D-02
 Coeff:     -0.670D-01 0.473D-01 0.166D+00-0.228D+00-0.525D-01 0.114D+01
 Gap=     0.074 Goal=   None    Shift=    0.000
 Gap=     0.074 Goal=   None    Shift=    0.000
 RMSDP=9.56D-07 MaxDP=1.40D-05 DE=-6.22D-09 OVMax= 7.71D-05

 Cycle  13  Pass 1  IDiag  1:
 E= -797.381680396133     Delta-E=       -0.000000000097 Rises=F Damp=F
 DIIS: error= 5.35D-08 at cycle  13 NSaved=  13.
 NSaved=13 IEnMin=13 EnMin= -797.381680396133     IErMin=13 ErrMin= 5.35D-08
 ErrMax= 5.35D-08  0.00D+00 EMaxC= 1.00D-01 BMatC= 7.20D-13 BMatP= 2.35D-11
 IDIUse=1 WtCom= 1.00D+00 WtEn= 0.00D+00
 Coeff-Com: -0.131D-05 0.222D-05 0.111D-04-0.263D-05-0.399D-03-0.326D-04
 Coeff-Com: -0.468D-02 0.549D-02 0.113D-01-0.206D-01 0.187D-02 0.152D+00
 Coeff-Com:  0.855D+00
 Coeff:     -0.131D-05 0.222D-05 0.111D-04-0.263D-05-0.399D-03-0.326D-04
 Coeff:     -0.468D-02 0.549D-02 0.113D-01-0.206D-01 0.187D-02 0.152D+00
 Coeff:      0.855D+00
 Gap=     0.074 Goal=   None    Shift=    0.000
 Gap=     0.074 Goal=   None    Shift=    0.000
 RMSDP=3.95D-08 MaxDP=5.80D-07 DE=-9.69D-11 OVMax= 3.14D-06

 Cycle  14  Pass 1  IDiag  1:
 E= -797.381680396134     Delta-E=       -0.000000000000 Rises=F Damp=F
 DIIS: error= 5.64D-09 at cycle  14 NSaved=  14.
 NSaved=14 IEnMin=14 EnMin= -797.381680396134     IErMin=14 ErrMin= 5.64D-09
 ErrMax= 5.64D-09  0.00D+00 EMaxC= 1.00D-01 BMatC= 1.07D-14 BMatP= 7.20D-13
 IDIUse=1 WtCom= 1.00D+00 WtEn= 0.00D+00
 Coeff-Com:  0.155D-06-0.286D-06-0.439D-05-0.694D-05-0.308D-04-0.280D-05
 Coeff-Com:  0.564D-03-0.181D-03-0.116D-02 0.101D-02 0.218D-02-0.651D-02
 Coeff-Com: -0.280D-01 0.103D+01
 Coeff:      0.155D-06-0.286D-06-0.439D-05-0.694D-05-0.308D-04-0.280D-05
 Coeff:      0.564D-03-0.181D-03-0.116D-02 0.101D-02 0.218D-02-0.651D-02
 Coeff:     -0.280D-01 0.103D+01
 Gap=     0.074 Goal=   None    Shift=    0.000
 Gap=     0.074 Goal=   None    Shift=    0.000
 RMSDP=8.19D-09 MaxDP=1.30D-07 DE=-2.27D-13 OVMax= 6.38D-07

 SCF Done:  E(UM062X) =  -797.381680396     A.U. after   14 cycles
            NFock= 14  Conv=0.82D-08     -V/T= 2.0012
 <Sx>= 0.0000 <Sy>= 0.0000 <Sz>= 0.0000 <S**2>=-0.0000 S=-0.0000
 <L.S>=  0.00000000000    
 KE= 7.963938566879D+02 PE=-1.986453436800D+03 EE= 3.477274819078D+02
 Annihilation of the first spin contaminant:
 S**2 before annihilation     0.0000,   after    -0.0000
 Leave Link  502 at Mon Apr 21 21:18:05 2025, MaxMem=   536870912 cpu:              56.7 elap:               7.4
 (Enter /home/szhao/Apps/g16/l601.exe)
 Copying SCF densities to generalized density rwf, IOpCl= 1 IROHF=0.

 **********************************************************************

            Population analysis using the SCF density.

 **********************************************************************

 Alpha  occ. eigenvalues --  -89.94214 -89.94213  -8.30478  -8.30477  -6.22617
 Alpha  occ. eigenvalues --   -6.22616  -6.22377  -6.22377  -6.21806  -6.21806
 Alpha  occ. eigenvalues --   -0.81289  -0.81098  -0.47289  -0.47210  -0.33239
 Alpha  occ. eigenvalues --   -0.33235  -0.29870
 Alpha virt. eigenvalues --   -0.22438   0.01892   0.02944   0.04682   0.04684
 Alpha virt. eigenvalues --    0.06724   0.06737   0.06792   0.07744   0.08647
 Alpha virt. eigenvalues --    0.12932   0.31159   0.32092   0.32344   0.35651
 Alpha virt. eigenvalues --    0.35661   0.38053   0.40764   0.41335   0.59919
 Alpha virt. eigenvalues --    0.60935   0.72393   0.72501   0.74039   0.74039
 Alpha virt. eigenvalues --    0.80895   0.81457   0.81466   0.81673   0.99529
 Alpha virt. eigenvalues --    0.99618   1.46042   1.47629   1.47715   1.47869
 Alpha virt. eigenvalues --    1.66404   1.66438   1.67245   1.68920   1.68932
 Alpha virt. eigenvalues --    1.71220   2.10771   2.10797   2.54440   2.54859
 Alpha virt. eigenvalues --    7.84288   7.84881  17.42849  17.44028  17.44045
 Alpha virt. eigenvalues --   17.46694  17.48825  17.48934 189.10435 189.11168
  Beta  occ. eigenvalues --  -89.94214 -89.94213  -8.30478  -8.30477  -6.22617
  Beta  occ. eigenvalues --   -6.22616  -6.22377  -6.22377  -6.21806  -6.21806
  Beta  occ. eigenvalues --   -0.81289  -0.81098  -0.47289  -0.47210  -0.33239
  Beta  occ. eigenvalues --   -0.33235  -0.29870
  Beta virt. eigenvalues --   -0.22438   0.01892   0.02944   0.04682   0.04684
  Beta virt. eigenvalues --    0.06724   0.06737   0.06792   0.07744   0.08647
  Beta virt. eigenvalues --    0.12932   0.31159   0.32092   0.32344   0.35651
  Beta virt. eigenvalues --    0.35661   0.38053   0.40764   0.41335   0.59919
  Beta virt. eigenvalues --    0.60935   0.72393   0.72501   0.74039   0.74039
  Beta virt. eigenvalues --    0.80895   0.81457   0.81466   0.81673   0.99529
  Beta virt. eigenvalues --    0.99618   1.46042   1.47629   1.47715   1.47869
  Beta virt. eigenvalues --    1.66404   1.66438   1.67245   1.68920   1.68932
  Beta virt. eigenvalues --    1.71220   2.10771   2.10797   2.54440   2.54859
  Beta virt. eigenvalues --    7.84288   7.84881  17.42849  17.44028  17.44045
  Beta virt. eigenvalues --   17.46694  17.48825  17.48934 189.10435 189.11168
          Condensed to atoms (all electrons):
               1          2          3          4
     1  S   15.783736   0.040596   0.253385   0.000158
     2  S    0.040596  15.783733   0.000159   0.253383
     3  H    0.253385   0.000159   0.668582   0.000002
     4  H    0.000158   0.253383   0.000002   0.668583
          Atomic-Atomic Spin Densities.
               1          2          3          4
     1  S    0.000000   0.000000   0.000000   0.000000
     2  S    0.000000   0.000000   0.000000   0.000000
     3  H    0.000000   0.000000   0.000000   0.000000
     4  H    0.000000   0.000000   0.000000   0.000000
 Mulliken charges and spin densities:
               1          2
     1  S   -0.077876   0.000000
     2  S   -0.077870   0.000000
     3  H    0.077872   0.000000
     4  H    0.077874   0.000000
 Sum of Mulliken charges =  -0.00000   0.00000
 Mulliken charges and spin densities with hydrogens summed into heavy atoms:
               1          2
     1  S   -0.000004   0.000000
     2  S    0.000004   0.000000
 Electronic spatial extent (au):  <R**2>=            745.0186
 Charge=             -0.0000 electrons
 Dipole moment (field-independent basis, Debye):
    X=              0.0001    Y=             -1.0486    Z=              1.0711  Tot=              1.4989
 Quadrupole moment (field-independent basis, Debye-Ang):
   XX=            -23.5025   YY=            -28.1361   ZZ=            -28.1399
   XY=              2.9215   XZ=              2.8613   YZ=              0.0885
 Traceless Quadrupole moment (field-independent basis, Debye-Ang):
   XX=              3.0903   YY=             -1.5433   ZZ=             -1.5471
   XY=              2.9215   XZ=              2.8613   YZ=              0.0885
 Octapole moment (field-independent basis, Debye-Ang**2):
  XXX=              0.0012  YYY=              0.8081  ZZZ=             -0.8599  XYY=             -9.5822
  XXY=             -6.1462  XXZ=              6.2718  XZZ=              9.5825  YZZ=              0.8134
  YYZ=             -0.7971  XYZ=              0.2047
 Hexadecapole moment (field-independent basis, Debye-Ang**3):
 XXXX=           -883.7792 YYYY=            -46.1039 ZZZZ=            -46.1085 XXXY=             13.2268
 XXXZ=             12.9734 YYYX=             -1.7173 YYYZ=              0.0120 ZZZX=             -1.5944
 ZZZY=              0.0884 XXYY=           -167.0645 XXZZ=           -167.0863 YYZZ=            -16.5631
 XXYZ=              0.5051 YYXZ=             -1.9064 ZZXY=             -1.8622
 N-N= 4.495041780859D+01 E-N=-1.986453437072D+03  KE= 7.963938566879D+02
                          Isotropic Fermi Contact Couplings
        Atom                 a.u.       MegaHertz       Gauss      10(-4) cm-1
     1  S(33)              0.00000       0.00000       0.00000       0.00000
     2  S(33)              0.00000       0.00000       0.00000       0.00000
     3  H(1)               0.00000       0.00000       0.00000       0.00000
     4  H(1)               0.00000       0.00000       0.00000       0.00000
 --------------------------------------------------------
       Center         ----  Spin Dipole Couplings  ----
                      3XX-RR        3YY-RR        3ZZ-RR
 --------------------------------------------------------
     1   Atom        0.000000      0.000000      0.000000
     2   Atom        0.000000      0.000000      0.000000
     3   Atom        0.000000      0.000000      0.000000
     4   Atom        0.000000      0.000000      0.000000
 --------------------------------------------------------
                        XY            XZ            YZ
 --------------------------------------------------------
     1   Atom        0.000000      0.000000      0.000000
     2   Atom        0.000000      0.000000      0.000000
     3   Atom        0.000000      0.000000      0.000000
     4   Atom        0.000000      0.000000      0.000000
 --------------------------------------------------------


 ---------------------------------------------------------------------------------
              Anisotropic Spin Dipole Couplings in Principal Axis System
 ---------------------------------------------------------------------------------

       Atom             a.u.   MegaHertz   Gauss  10(-4) cm-1        Axes

              Baa     0.0000     0.000     0.000     0.000  1.0000  0.0000  0.0000
     1 S(33)  Bbb     0.0000     0.000     0.000     0.000 -0.0000  1.0000  0.0000
              Bcc     0.0000     0.000     0.000     0.000  0.0000  0.0000  1.0000
 
              Baa     0.0000     0.000     0.000     0.000  1.0000  0.0000  0.0000
     2 S(33)  Bbb     0.0000     0.000     0.000     0.000 -0.0000  1.0000  0.0000
              Bcc     0.0000     0.000     0.000     0.000  0.0000  0.0000  1.0000
 
              Baa     0.0000     0.000     0.000     0.000  1.0000  0.0000  0.0000
     3 H(1)   Bbb     0.0000     0.000     0.000     0.000 -0.0000  1.0000  0.0000
              Bcc     0.0000     0.000     0.000     0.000  0.0000  0.0000  1.0000
 
              Baa     0.0000     0.000     0.000     0.000  1.0000  0.0000  0.0000
     4 H(1)   Bbb     0.0000     0.000     0.000     0.000 -0.0000  1.0000  0.0000
              Bcc     0.0000     0.000     0.000     0.000  0.0000  0.0000  1.0000
 

 ---------------------------------------------------------------------------------

 No NMR shielding tensors so no spin-rotation constants.
 Leave Link  601 at Mon Apr 21 21:18:05 2025, MaxMem=   536870912 cpu:               1.3 elap:               0.2
 (Enter /home/szhao/Apps/g16/l701.exe)
 ... and contract with generalized density number  0.
 Compute integral first derivatives.
 Leave Link  701 at Mon Apr 21 21:18:06 2025, MaxMem=   536870912 cpu:               1.3 elap:               0.2
 (Enter /home/szhao/Apps/g16/l702.exe)
 L702 exits ... SP integral derivatives will be done elsewhere.
 Leave Link  702 at Mon Apr 21 21:18:06 2025, MaxMem=   536870912 cpu:               0.4 elap:               0.1
 (Enter /home/szhao/Apps/g16/l703.exe)
 Integral derivatives from FoFJK, PRISM(SPDF).
 Compute integral first derivatives, UseDBF=F ICtDFT=           0.
 Calling FoFJK, ICntrl=      2127 FMM=F ISym2X=0 I1Cent= 0 IOpClX= 1 NMat=1 NMatS=1 NMatT=0.
 FoFJK:  IHMeth= 1 ICntrl=    2127 DoSepK=F KAlg= 0 I1Cent=           0 FoldK=F
 IRaf=         0 NMat=       1 IRICut=       1 DoRegI=T DoRafI=F ISym2E= 0 IDoP0=0 IntGTp=1.
 FoFCou: FMM=F IPFlag=           0 FMFlag=      100000 FMFlg1=         800
         NFxFlg=           0 DoJE=F BraDBF=F KetDBF=F FulRan=T
         wScrn=  0.000000 ICntrl=      2127 IOpCl=  1 I1Cent=           0 NGrid=           0
         NMat0=    1 NMatS0=      1 NMatT0=    0 NMatD0=    1 NMtDS0=    0 NMtDT0=    0
 Symmetry not used in FoFCou.
 Leave Link  703 at Mon Apr 21 21:18:07 2025, MaxMem=   536870912 cpu:               5.8 elap:               0.9
 (Enter /home/szhao/Apps/g16/l716.exe)
 Dipole        = 4.06670886D-05-4.12552820D-01 4.21401832D-01
 -------------------------------------------------------------------
 Center     Atomic                   Forces (Hartrees/Bohr)
 Number     Number              X              Y              Z
 -------------------------------------------------------------------
      1       16          -0.000000000   -0.000000000   -0.000000000
      2       16          -0.000000000   -0.000000000   -0.000000000
      3        1           0.000942807   -0.000914021   -0.000042624
      4        1          -0.000952872    0.000001131    0.000944615
 -------------------------------------------------------------------
 Cartesian Forces:  Max     0.000952872 RMS     0.000542095
 Leave Link  716 at Mon Apr 21 21:18:08 2025, MaxMem=   536870912 cpu:               0.6 elap:               0.3
 (Enter /home/szhao/Apps/g16/l103.exe)

 GradGradGradGradGradGradGradGradGradGradGradGradGradGradGradGradGradGrad
 Berny optimization.
 FormGI is forming the generalized inverse of G from B-inverse, IUseBI=4.
 Internal  Forces:  Max     0.002726687 RMS     0.001382140
 Search for a local minimum.
 Step number   1 out of a maximum of   21
 All quantities printed in internal units (Hartrees-Bohrs-Radians)
 RMS Force = .17848D-02 SwitMx=.10000D-02 MixMth= 1
 Mixed Optimization -- RFO/linear search
 Second derivative matrix not updated -- first step.
 The second derivative matrix:
                          X1        Y1        Z1        X2        Y2
           X1           0.50000
           Y1           0.00000   0.50000
           Z1           0.00000   0.00000   0.50000
           X2           0.00000   0.00000   0.00000   0.50000
           Y2           0.00000   0.00000   0.00000   0.00000   0.50000
           Z2           0.00000   0.00000   0.00000   0.00000   0.00000
           R1           0.00000   0.00000   0.00000   0.00000   0.00000
           R2           0.00000   0.00000   0.00000   0.00000   0.00000
           A1           0.00000   0.00000   0.00000   0.00000   0.00000
           A2           0.00000   0.00000   0.00000   0.00000   0.00000
           D1           0.00000   0.00000   0.00000   0.00000   0.00000
                          Z2        R1        R2        A1        A2
           Z2           0.50000
           R1           0.00000   0.26038
           R2           0.00000   0.00000   0.26038
           A1           0.00000   0.00000   0.00000   0.16000
           A2           0.00000   0.00000   0.00000   0.00000   0.16000
           D1           0.00000   0.00000   0.00000   0.00000   0.00000
                          D1
           D1           0.00230
 ITU=  0
     Eigenvalues ---    0.00230   0.16000   0.16000   0.26038   0.26038
     Eigenvalues --- 1000.000001000.000001000.000001000.000001000.00000
     Eigenvalues --- 1000.00000
 RFO step:  Lambda=-9.68398963D-05 EMin= 2.30000000D-03
 Linear search not attempted -- first point.
 Iteration  1 RMS(Cart)=  0.01950731 RMS(Int)=  0.00017477
 Iteration  2 RMS(Cart)=  0.00018657 RMS(Int)=  0.00000001
 Iteration  3 RMS(Cart)=  0.00000001 RMS(Int)=  0.00000000
 ITry= 1 IFail=0 DXMaxC= 4.26D-02 DCOld= 1.00D+10 DXMaxT= 3.00D-01 DXLimC= 3.00D+00 Rises=F
 Variable       Old X    -DE/DX   Delta X   Delta X   Delta X     New X
                                 (Linear)    (Quad)   (Total)
    X1       -4.42799   0.00094   0.00000   0.00000   0.00000  -4.42799
    Y1        0.00000  -0.00122   0.00000   0.00000   0.00000   0.00000
    Z1        0.00000  -0.00032   0.00000   0.00000   0.00000   0.00000
    X2        4.42799  -0.00095   0.00000   0.00000   0.00000   4.42799
    Y2        0.00000   0.00034   0.00000   0.00000   0.00000   0.00000
    Z2        0.00000   0.00125   0.00000   0.00000   0.00000   0.00000
    R1        2.54139   0.00078   0.00000   0.00298   0.00298   2.54438
    R2        2.54139   0.00081   0.00000   0.00309   0.00309   2.54449
    A1        1.70778  -0.00269   0.00000  -0.01681  -0.01681   1.69097
    A2        1.70778  -0.00273   0.00000  -0.01703  -0.01703   1.69075
    D1       -1.59212  -0.00003   0.00000  -0.01240  -0.01240  -1.60452
         Item               Value     Threshold  Converged?
 Maximum Force            0.002727     0.000450     NO 
 RMS     Force            0.001785     0.000300     NO 
 Maximum Displacement     0.042556     0.001800     NO 
 RMS     Displacement     0.019564     0.001200     NO 
 Predicted change in Energy=-4.845604D-05
 Lowest energy point so far.  Saving SCF results.
 GradGradGradGradGradGradGradGradGradGradGradGradGradGradGradGradGradGrad

 Leave Link  103 at Mon Apr 21 21:18:08 2025, MaxMem=   536870912 cpu:               0.6 elap:               0.1
 (Enter /home/szhao/Apps/g16/l202.exe)
                          Input orientation:                          
 ---------------------------------------------------------------------
 Center     Atomic      Atomic             Coordinates (Angstroms)
 Number     Number       Type             X           Y           Z
 ---------------------------------------------------------------------
      1         16           0       -2.343191    0.000000    0.000000
      2         16           0        2.343191    0.000000    0.000000
      3          1           0       -2.504606   -1.336691   -0.008057
      4          1           0        2.504313    0.037022    1.336296
 ---------------------------------------------------------------------
                    Distance matrix (angstroms):
                    1          2          3          4
     1  S    0.000000
     2  S    4.686383   0.000000
     3  H    1.346425   5.028712   0.000000
     4  H    5.028455   1.346484   5.365039   0.000000
 Symmetry turned off by external request.
 Stoichiometry    H2S2
 Framework group  C1[X(H2S2)]
 Deg. of freedom     6
 Full point group                 C1      NOp   1
 Rotational constants (GHZ):         145.0728005           1.3827700           1.3823554
 Leave Link  202 at Mon Apr 21 21:18:08 2025, MaxMem=   536870912 cpu:               0.1 elap:               0.0
 (Enter /home/szhao/Apps/g16/l301.exe)
 Standard basis: 6-311+G(d,p) (5D, 7F)
 Ernie: Thresh=  0.10000D-02 Tol=  0.10000D-05 Strict=F.
    72 basis functions,   116 primitive gaussians,    74 cartesian basis functions
    17 alpha electrons       17 beta electrons
       nuclear repulsion energy        44.9496279712 Hartrees.
 IExCor= 4336 DFT=T Ex+Corr=M062X ExCW=0 ScaHFX=  0.540000
 ScaDFX=  1.000000  1.000000  1.000000  1.000000 ScalE2=  1.000000  1.000000
 IRadAn=      7 IRanWt=     -1 IRanGd=            0 ICorTp=0 IEmpDi=  4
 NAtoms=    4 NActive=    4 NUniq=    4 SFac= 1.00D+00 NAtFMM=   60 NAOKFM=F Big=F
 Integral buffers will be    131072 words long.
 Raffenetti 2 integral format.
 Two-electron integral symmetry is turned off.
 Leave Link  301 at Mon Apr 21 21:18:09 2025, MaxMem=   536870912 cpu:               0.8 elap:               0.3
 (Enter /home/szhao/Apps/g16/l302.exe)
 NPDir=0 NMtPBC=     1 NCelOv=     1 NCel=       1 NClECP=     1 NCelD=      1
         NCelK=      1 NCelE2=     1 NClLst=     1 CellRange=     0.0.
 One-electron integrals computed using PRISM.
 NBasis=    72 RedAO= T EigKep=  1.65D-02  NBF=    72
 NBsUse=    72 1.00D-06 EigRej= -1.00D+00 NBFU=    72
 Precomputing XC quadrature grid using
 IXCGrd= 4 IRadAn=           7 IRanWt=          -1 IRanGd=           0 AccXCQ= 0.00D+00.
 Generated NRdTot=       0 NPtTot=           0 NUsed=           0 NTot=          32
 NSgBfM=    63    63    63    63    63 MxSgAt=     4 MxSgA2=     4.
 Leave Link  302 at Mon Apr 21 21:18:09 2025, MaxMem=   536870912 cpu:               1.8 elap:               0.3
 (Enter /home/szhao/Apps/g16/l303.exe)
 DipDrv:  MaxL=1.
 Leave Link  303 at Mon Apr 21 21:18:10 2025, MaxMem=   536870912 cpu:               1.0 elap:               0.3
 (Enter /home/szhao/Apps/g16/l401.exe)
 Initial guess from the checkpoint file:  "opt.chk"
 B after Tr=    -0.000016    0.000219   -0.000219
         Rot=    1.000000    0.000088    0.000163   -0.000165 Ang=   0.03 deg.
 Guess basis will be translated and rotated to current coordinates.
 JPrj=2 DoOrth=T DoCkMO=T.
 Initial guess <Sx>= 0.0000 <Sy>= 0.0000 <Sz>= 0.0000 <S**2>=-0.0000 S=-0.0000
 Generating alternative initial guess.
 ExpMin= 4.05D-02 ExpMax= 9.34D+04 ExpMxC= 3.17D+03 IAcc=3 IRadAn=         5 AccDes= 0.00D+00
 Harris functional with IExCor= 1009 and IRadAn=       5 diagonalized for initial guess.
 HarFok:  IExCor= 1009 AccDes= 0.00D+00 IRadAn=         5 IDoV= 1 UseB2=F ITyADJ=14
 ICtDFT=  3500011 ScaDFX=  1.000000  1.000000  1.000000  1.000000
 FoFCou: FMM=F IPFlag=           0 FMFlag=      100000 FMFlg1=           0
         NFxFlg=           0 DoJE=T BraDBF=F KetDBF=T FulRan=T
         wScrn=  0.000000 ICntrl=       500 IOpCl=  0 I1Cent=   200000004 NGrid=           0
         NMat0=    1 NMatS0=      1 NMatT0=    0 NMatD0=    1 NMtDS0=    0 NMtDT0=    0
 Symmetry not used in FoFCou.
 Harris En= -797.046524553995    
 Leave Link  401 at Mon Apr 21 21:18:11 2025, MaxMem=   536870912 cpu:               3.6 elap:               0.6
 (Enter /home/szhao/Apps/g16/l502.exe)
 Keep R1 and R2 ints in memory in canonical form, NReq=14118010.
 FoFCou: FMM=F IPFlag=           0 FMFlag=           0 FMFlg1=           0
         NFxFlg=           0 DoJE=F BraDBF=F KetDBF=F FulRan=T
         wScrn=  0.000000 ICntrl=       600 IOpCl=  0 I1Cent=           0 NGrid=           0
         NMat0=    1 NMatS0=   2628 NMatT0=    0 NMatD0=    1 NMtDS0=    0 NMtDT0=    0
 Symmetry not used in FoFCou.
 Two-electron integral symmetry not used.
 UHF open shell SCF:
 Using DIIS extrapolation, IDIIS=  1040.
 NGot=   536870912 LenX=   529949706 LenY=   529943789
 Requested convergence on RMS density matrix=1.00D-08 within 128 cycles.
 Requested convergence on MAX density matrix=1.00D-06.
 Requested convergence on             energy=1.00D-06.
 No special actions if energy rises.

 Cycle   1  Pass 1  IDiag  1:
 E= -797.381683070401    
 DIIS: error= 7.80D-04 at cycle   1 NSaved=   1.
 NSaved= 1 IEnMin= 1 EnMin= -797.381683070401     IErMin= 1 ErrMin= 7.80D-04
 ErrMax= 7.80D-04  0.00D+00 EMaxC= 1.00D-01 BMatC= 1.27D-04 BMatP= 1.27D-04
 IDIUse=3 WtCom= 9.92D-01 WtEn= 7.80D-03
 Coeff-Com:  0.100D+01
 Coeff-En:   0.100D+01
 Coeff:      0.100D+01
 Gap=     0.466 Goal=   None    Shift=    0.000
 Gap=     0.466 Goal=   None    Shift=    0.000
 RMSDP=1.34D-04 MaxDP=1.63D-03              OVMax= 5.63D-03

 Cycle   2  Pass 1  IDiag  1:
 E= -797.381763108852     Delta-E=       -0.000080038451 Rises=F Damp=F
 DIIS: error= 1.94D-04 at cycle   2 NSaved=   2.
 NSaved= 2 IEnMin= 2 EnMin= -797.381763108852     IErMin= 2 ErrMin= 1.94D-04
 ErrMax= 1.94D-04  0.00D+00 EMaxC= 1.00D-01 BMatC= 6.77D-06 BMatP= 1.27D-04
 IDIUse=3 WtCom= 9.98D-01 WtEn= 1.94D-03
 Coeff-Com: -0.146D+00 0.115D+01
 Coeff-En:   0.000D+00 0.100D+01
 Coeff:     -0.146D+00 0.115D+01
 Gap=     0.074 Goal=   None    Shift=    0.000
 Gap=     0.074 Goal=   None    Shift=    0.000
 RMSDP=4.71D-05 MaxDP=6.00D-04 DE=-8.00D-05 OVMax= 2.69D-03

 Cycle   3  Pass 1  IDiag  1:
 E= -797.381771144358     Delta-E=       -0.000008035506 Rises=F Damp=F
 DIIS: error= 4.70D-05 at cycle   3 NSaved=   3.
 NSaved= 3 IEnMin= 3 EnMin= -797.381771144358     IErMin= 3 ErrMin= 4.70D-05
 ErrMax= 4.70D-05  0.00D+00 EMaxC= 1.00D-01 BMatC= 4.65D-07 BMatP= 6.77D-06
 IDIUse=1 WtCom= 1.00D+00 WtEn= 0.00D+00
 Coeff-Com: -0.277D-01 0.331D-01 0.995D+00
 Coeff:     -0.277D-01 0.331D-01 0.995D+00
 Gap=     0.074 Goal=   None    Shift=    0.000
 Gap=     0.074 Goal=   None    Shift=    0.000
 RMSDP=1.62D-05 MaxDP=1.73D-04 DE=-8.04D-06 OVMax= 9.97D-04

 Cycle   4  Pass 1  IDiag  1:
 E= -797.381771898176     Delta-E=       -0.000000753818 Rises=F Damp=F
 DIIS: error= 2.86D-05 at cycle   4 NSaved=   4.
 NSaved= 4 IEnMin= 4 EnMin= -797.381771898176     IErMin= 4 ErrMin= 2.86D-05
 ErrMax= 2.86D-05  0.00D+00 EMaxC= 1.00D-01 BMatC= 1.62D-07 BMatP= 4.65D-07
 IDIUse=1 WtCom= 1.00D+00 WtEn= 0.00D+00
 Coeff-Com:  0.152D-01-0.176D+00 0.204D+00 0.957D+00
 Coeff:      0.152D-01-0.176D+00 0.204D+00 0.957D+00
 Gap=     0.074 Goal=   None    Shift=    0.000
 Gap=     0.074 Goal=   None    Shift=    0.000
 RMSDP=7.66D-06 MaxDP=1.36D-04 DE=-7.54D-07 OVMax= 4.34D-04

 Cycle   5  Pass 1  IDiag  1:
 E= -797.381771943576     Delta-E=       -0.000000045399 Rises=F Damp=F
 DIIS: error= 3.81D-05 at cycle   5 NSaved=   5.
 NSaved= 5 IEnMin= 5 EnMin= -797.381771943576     IErMin= 4 ErrMin= 2.86D-05
 ErrMax= 3.81D-05  0.00D+00 EMaxC= 1.00D-01 BMatC= 2.04D-07 BMatP= 1.62D-07
 IDIUse=1 WtCom= 1.00D+00 WtEn= 0.00D+00
 Coeff-Com:  0.134D-01-0.146D+00 0.139D+00 0.779D+00 0.214D+00
 Coeff:      0.134D-01-0.146D+00 0.139D+00 0.779D+00 0.214D+00
 Gap=     0.074 Goal=   None    Shift=    0.000
 Gap=     0.074 Goal=   None    Shift=    0.000
 RMSDP=5.26D-06 MaxDP=1.55D-04 DE=-4.54D-08 OVMax= 4.30D-04

 Cycle   6  Pass 1  IDiag  1:
 E= -797.381772020075     Delta-E=       -0.000000076500 Rises=F Damp=F
 DIIS: error= 1.90D-05 at cycle   6 NSaved=   6.
 NSaved= 6 IEnMin= 6 EnMin= -797.381772020075     IErMin= 6 ErrMin= 1.90D-05
 ErrMax= 1.90D-05  0.00D+00 EMaxC= 1.00D-01 BMatC= 5.28D-08 BMatP= 1.62D-07
 IDIUse=1 WtCom= 1.00D+00 WtEn= 0.00D+00
 Coeff-Com:  0.150D-03 0.101D-01-0.394D-01-0.861D-01 0.361D+00 0.755D+00
 Coeff:      0.150D-03 0.101D-01-0.394D-01-0.861D-01 0.361D+00 0.755D+00
 Gap=     0.074 Goal=   None    Shift=    0.000
 Gap=     0.074 Goal=   None    Shift=    0.000
 RMSDP=3.03D-06 MaxDP=5.42D-05 DE=-7.65D-08 OVMax= 1.82D-04

 Cycle   7  Pass 1  IDiag  1:
 E= -797.381772059005     Delta-E=       -0.000000038930 Rises=F Damp=F
 DIIS: error= 4.87D-06 at cycle   7 NSaved=   7.
 NSaved= 7 IEnMin= 7 EnMin= -797.381772059005     IErMin= 7 ErrMin= 4.87D-06
 ErrMax= 4.87D-06  0.00D+00 EMaxC= 1.00D-01 BMatC= 1.96D-09 BMatP= 5.28D-08
 IDIUse=1 WtCom= 1.00D+00 WtEn= 0.00D+00
 Coeff-Com: -0.101D-02 0.128D-01-0.175D-01-0.760D-01 0.329D-01 0.106D+00
 Coeff-Com:  0.943D+00
 Coeff:     -0.101D-02 0.128D-01-0.175D-01-0.760D-01 0.329D-01 0.106D+00
 Coeff:      0.943D+00
 Gap=     0.074 Goal=   None    Shift=    0.000
 Gap=     0.074 Goal=   None    Shift=    0.000
 RMSDP=2.02D-06 MaxDP=3.05D-05 DE=-3.89D-08 OVMax= 1.62D-04

 Cycle   8  Pass 1  IDiag  1:
 E= -797.381772070047     Delta-E=       -0.000000011041 Rises=F Damp=F
 DIIS: error= 4.49D-06 at cycle   8 NSaved=   8.
 NSaved= 8 IEnMin= 8 EnMin= -797.381772070047     IErMin= 8 ErrMin= 4.49D-06
 ErrMax= 4.49D-06  0.00D+00 EMaxC= 1.00D-01 BMatC= 1.54D-09 BMatP= 1.96D-09
 IDIUse=1 WtCom= 1.00D+00 WtEn= 0.00D+00
 Coeff-Com:  0.129D-02-0.216D-01 0.404D-01 0.141D+00-0.196D+00-0.461D+00
 Coeff-Com: -0.126D+01 0.276D+01
 Coeff:      0.129D-02-0.216D-01 0.404D-01 0.141D+00-0.196D+00-0.461D+00
 Coeff:     -0.126D+01 0.276D+01
 Gap=     0.074 Goal=   None    Shift=    0.000
 Gap=     0.074 Goal=   None    Shift=    0.000
 RMSDP=5.80D-06 MaxDP=8.81D-05 DE=-1.10D-08 OVMax= 4.70D-04

 Cycle   9  Pass 1  IDiag  1:
 E= -797.381772097655     Delta-E=       -0.000000027608 Rises=F Damp=F
 DIIS: error= 3.59D-06 at cycle   9 NSaved=   9.
 NSaved= 9 IEnMin= 9 EnMin= -797.381772097655     IErMin= 9 ErrMin= 3.59D-06
 ErrMax= 3.59D-06  0.00D+00 EMaxC= 1.00D-01 BMatC= 1.02D-09 BMatP= 1.54D-09
 IDIUse=1 WtCom= 1.00D+00 WtEn= 0.00D+00
 Coeff-Com:  0.156D-02-0.174D-01 0.210D-01 0.831D-01 0.502D-02-0.317D-01
 Coeff-Com: -0.720D+00-0.177D+01 0.343D+01
 Coeff:      0.156D-02-0.174D-01 0.210D-01 0.831D-01 0.502D-02-0.317D-01
 Coeff:     -0.720D+00-0.177D+01 0.343D+01
 Gap=     0.074 Goal=   None    Shift=    0.000
 Gap=     0.074 Goal=   None    Shift=    0.000
 RMSDP=1.55D-05 MaxDP=2.36D-04 DE=-2.76D-08 OVMax= 1.26D-03

 Cycle  10  Pass 1  IDiag  1:
 E= -797.381772142505     Delta-E=       -0.000000044851 Rises=F Damp=F
 DIIS: error= 1.29D-06 at cycle  10 NSaved=  10.
 NSaved=10 IEnMin=10 EnMin= -797.381772142505     IErMin=10 ErrMin= 1.29D-06
 ErrMax= 1.29D-06  0.00D+00 EMaxC= 1.00D-01 BMatC= 1.57D-10 BMatP= 1.02D-09
 IDIUse=1 WtCom= 1.00D+00 WtEn= 0.00D+00
 Coeff-Com: -0.203D-03 0.488D-02-0.101D-01-0.387D-01 0.658D-01 0.154D+00
 Coeff-Com:  0.444D+00-0.139D+01 0.456D+00 0.132D+01
 Coeff:     -0.203D-03 0.488D-02-0.101D-01-0.387D-01 0.658D-01 0.154D+00
 Coeff:      0.444D+00-0.139D+01 0.456D+00 0.132D+01
 Gap=     0.074 Goal=   None    Shift=    0.000
 Gap=     0.074 Goal=   None    Shift=    0.000
 RMSDP=7.93D-06 MaxDP=1.20D-04 DE=-4.49D-08 OVMax= 6.44D-04

 Cycle  11  Pass 1  IDiag  1:
 E= -797.381772148965     Delta-E=       -0.000000006459 Rises=F Damp=F
 DIIS: error= 1.03D-07 at cycle  11 NSaved=  11.
 NSaved=11 IEnMin=11 EnMin= -797.381772148965     IErMin=11 ErrMin= 1.03D-07
 ErrMax= 1.03D-07  0.00D+00 EMaxC= 1.00D-01 BMatC= 4.87D-12 BMatP= 1.57D-10
 IDIUse=1 WtCom= 1.00D+00 WtEn= 0.00D+00
 Coeff-Com: -0.752D-04 0.887D-03-0.128D-02-0.373D-02-0.304D-02-0.357D-02
 Coeff-Com:  0.566D-01 0.126D+00-0.278D+00 0.110D+00 0.997D+00
 Coeff:     -0.752D-04 0.887D-03-0.128D-02-0.373D-02-0.304D-02-0.357D-02
 Coeff:      0.566D-01 0.126D+00-0.278D+00 0.110D+00 0.997D+00
 Gap=     0.074 Goal=   None    Shift=    0.000
 Gap=     0.074 Goal=   None    Shift=    0.000
 RMSDP=5.81D-07 MaxDP=8.78D-06 DE=-6.46D-09 OVMax= 4.71D-05

 Cycle  12  Pass 1  IDiag  1:
 E= -797.381772149002     Delta-E=       -0.000000000037 Rises=F Damp=F
 DIIS: error= 2.39D-08 at cycle  12 NSaved=  12.
 NSaved=12 IEnMin=12 EnMin= -797.381772149002     IErMin=12 ErrMin= 2.39D-08
 ErrMax= 2.39D-08  0.00D+00 EMaxC= 1.00D-01 BMatC= 3.83D-13 BMatP= 4.87D-12
 IDIUse=1 WtCom= 1.00D+00 WtEn= 0.00D+00
 Coeff-Com: -0.184D-05-0.134D-03 0.312D-03 0.158D-02-0.528D-02-0.117D-01
 Coeff-Com: -0.689D-02 0.104D+00-0.839D-01-0.603D-01 0.188D+00 0.874D+00
 Coeff:     -0.184D-05-0.134D-03 0.312D-03 0.158D-02-0.528D-02-0.117D-01
 Coeff:     -0.689D-02 0.104D+00-0.839D-01-0.603D-01 0.188D+00 0.874D+00
 Gap=     0.074 Goal=   None    Shift=    0.000
 Gap=     0.074 Goal=   None    Shift=    0.000
 RMSDP=5.00D-08 MaxDP=7.29D-07 DE=-3.68D-11 OVMax= 3.96D-06

 Cycle  13  Pass 1  IDiag  1:
 E= -797.381772149003     Delta-E=       -0.000000000002 Rises=F Damp=F
 DIIS: error= 7.47D-09 at cycle  13 NSaved=  13.
 NSaved=13 IEnMin=13 EnMin= -797.381772149003     IErMin=13 ErrMin= 7.47D-09
 ErrMax= 7.47D-09  0.00D+00 EMaxC= 1.00D-01 BMatC= 1.95D-14 BMatP= 3.83D-13
 IDIUse=1 WtCom= 1.00D+00 WtEn= 0.00D+00
 Coeff-Com:  0.638D-05-0.812D-04 0.155D-03 0.446D-03-0.199D-03-0.715D-03
 Coeff-Com: -0.166D-02-0.838D-02 0.178D-01-0.802D-02-0.738D-01 0.575D-01
 Coeff-Com:  0.102D+01
 Coeff:      0.638D-05-0.812D-04 0.155D-03 0.446D-03-0.199D-03-0.715D-03
 Coeff:     -0.166D-02-0.838D-02 0.178D-01-0.802D-02-0.738D-01 0.575D-01
 Coeff:      0.102D+01
 Gap=     0.074 Goal=   None    Shift=    0.000
 Gap=     0.074 Goal=   None    Shift=    0.000
 RMSDP=4.10D-09 MaxDP=3.84D-08 DE=-1.59D-12 OVMax= 1.82D-07

 SCF Done:  E(UM062X) =  -797.381772149     A.U. after   13 cycles
            NFock= 13  Conv=0.41D-08     -V/T= 2.0012
 <Sx>= 0.0000 <Sy>= 0.0000 <Sz>= 0.0000 <S**2>= 0.0000 S= 0.0000
 <L.S>=  0.00000000000    
 KE= 7.963894496195D+02 PE=-1.986445550462D+03 EE= 3.477247007225D+02
 Annihilation of the first spin contaminant:
 S**2 before annihilation     0.0000,   after     0.0000
 Leave Link  502 at Mon Apr 21 21:18:18 2025, MaxMem=   536870912 cpu:              54.5 elap:               7.3
 (Enter /home/szhao/Apps/g16/l701.exe)
 ... and contract with generalized density number  0.
 Compute integral first derivatives.
 Leave Link  701 at Mon Apr 21 21:18:19 2025, MaxMem=   536870912 cpu:               1.6 elap:               0.3
 (Enter /home/szhao/Apps/g16/l702.exe)
 L702 exits ... SP integral derivatives will be done elsewhere.
 Leave Link  702 at Mon Apr 21 21:18:19 2025, MaxMem=   536870912 cpu:               0.5 elap:               0.1
 (Enter /home/szhao/Apps/g16/l703.exe)
 Integral derivatives from FoFJK, PRISM(SPDF).
 Compute integral first derivatives, UseDBF=F ICtDFT=           0.
 Calling FoFJK, ICntrl=      2127 FMM=F ISym2X=0 I1Cent= 0 IOpClX= 1 NMat=1 NMatS=1 NMatT=0.
 FoFJK:  IHMeth= 1 ICntrl=    2127 DoSepK=F KAlg= 0 I1Cent=           0 FoldK=F
 IRaf=         0 NMat=       1 IRICut=       1 DoRegI=T DoRafI=F ISym2E= 0 IDoP0=0 IntGTp=1.
 FoFCou: FMM=F IPFlag=           0 FMFlag=      100000 FMFlg1=         800
         NFxFlg=           0 DoJE=F BraDBF=F KetDBF=F FulRan=T
         wScrn=  0.000000 ICntrl=      2127 IOpCl=  1 I1Cent=           0 NGrid=           0
         NMat0=    1 NMatS0=      1 NMatT0=    0 NMatD0=    1 NMtDS0=    0 NMtDT0=    0
 Symmetry not used in FoFCou.
 Leave Link  703 at Mon Apr 21 21:18:20 2025, MaxMem=   536870912 cpu:               5.9 elap:               0.8
 (Enter /home/szhao/Apps/g16/l716.exe)
 Dipole        = 2.97149780D-05-4.11403286D-01 4.20413296D-01
 -------------------------------------------------------------------
 Center     Atomic                   Forces (Hartrees/Bohr)
 Number     Number              X              Y              Z
 -------------------------------------------------------------------
      1       16          -0.000000000   -0.000000000   -0.000000000
      2       16          -0.000000000   -0.000000000   -0.000000000
      3        1           0.000992139   -0.000067293   -0.000034265
      4        1          -0.001010315    0.000008295    0.000091093
 -------------------------------------------------------------------
 Cartesian Forces:  Max     0.001010315 RMS     0.000410198
 Leave Link  716 at Mon Apr 21 21:18:20 2025, MaxMem=   536870912 cpu:               0.5 elap:               0.2
 (Enter /home/szhao/Apps/g16/l103.exe)

 GradGradGradGradGradGradGradGradGradGradGradGradGradGradGradGradGradGrad
 Berny optimization.
 Using GEDIIS/GDIIS optimizer.
 FormGI is forming the generalized inverse of G from B-inverse, IUseBI=4.
 Internal  Forces:  Max     0.002580056 RMS     0.001188173
 Search for a local minimum.
 Step number   2 out of a maximum of   21
 All quantities printed in internal units (Hartrees-Bohrs-Radians)
 RMS Force = .16154D-02 SwitMx=.10000D-02 MixMth= 1
 Mixed Optimization -- RFO/linear search
 Update second derivatives using D2CorX and points    1    2
 DE= -9.18D-05 DEPred=-4.85D-05 R= 1.89D+00
 TightC=F SS=  1.41D+00  RLast= 2.73D-02 DXNew= 5.0454D-01 8.1874D-02
 Trust test= 1.89D+00 RLast= 2.73D-02 DXMaxT set to 3.00D-01
 The second derivative matrix:
                          X1        Y1        Z1        X2        Y2
           X1           0.50024
           Y1           0.00424   0.57413
           Z1           0.00003   0.00054   0.50000
           X2          -0.00028  -0.00493  -0.00004   0.50033
           Y2          -0.00013  -0.00227  -0.00002   0.00015   0.50007
           Z2          -0.00426  -0.07451  -0.00054   0.00496   0.00228
           R1          -0.00406  -0.07114  -0.00052   0.00473   0.00218
           R2          -0.00410  -0.07175  -0.00052   0.00477   0.00220
           A1           0.00080   0.01408   0.00010  -0.00094  -0.00043
           A2           0.00072   0.01259   0.00009  -0.00084  -0.00039
           D1          -0.00010  -0.00175  -0.00001   0.00012   0.00005
                          Z2        R1        R2        A1        A2
           Z2           0.57490
           R1           0.07151   0.32242
           R2           0.07212   0.06240   0.32313
           A1          -0.01416   0.00806   0.00874   0.08794
           A2          -0.01265   0.00978   0.01049  -0.07334   0.08540
           D1           0.00175   0.00190   0.00193  -0.00112  -0.00110
                          D1
           D1           0.00233
 ITU=  1  0
 Use linear search instead of GDIIS.
     Eigenvalues ---    0.00203   0.01268   0.16001   0.26038   0.38613
     Eigenvalues --- 1000.000001000.000001000.000001000.000001000.00000
     Eigenvalues --- 1000.00000
 RFO step:  Lambda=-4.20381225D-04 EMin= 2.03420773D-03
 Quartic linear search produced a step of  2.00000.
 Iteration  1 RMS(Cart)=  0.11960503 RMS(Int)=  0.04407451
 Iteration  2 RMS(Cart)=  0.07895820 RMS(Int)=  0.00285721
 Iteration  3 RMS(Cart)=  0.00287934 RMS(Int)=  0.00000054
 Iteration  4 RMS(Cart)=  0.00000103 RMS(Int)=  0.00000000
 Iteration  5 RMS(Cart)=  0.00000000 RMS(Int)=  0.00000000
 ITry= 1 IFail=0 DXMaxC= 4.32D-01 DCOld= 1.00D+10 DXMaxT= 3.00D-01 DXLimC= 3.00D+00 Rises=F
 Variable       Old X    -DE/DX   Delta X   Delta X   Delta X     New X
                                 (Linear)    (Quad)   (Total)
    X1       -4.42799   0.00099   0.00000   0.00000   0.00000  -4.42799
    Y1        0.00000  -0.00036   0.00000   0.00000   0.00000   0.00000
    Z1        0.00000  -0.00031   0.00000   0.00000   0.00000   0.00000
    X2        4.42799  -0.00101   0.00000   0.00000   0.00000   4.42799
    Y2        0.00000   0.00032   0.00000   0.00000   0.00000   0.00000
    Z2        0.00000   0.00038   0.00000   0.00000   0.00000   0.00000
    R1        2.54438  -0.00005   0.00596  -0.00626  -0.00030   2.54408
    R2        2.54449  -0.00003   0.00618  -0.00620  -0.00002   2.54447
    A1        1.69097  -0.00253  -0.03361  -0.01463  -0.04824   1.64273
    A2        1.69075  -0.00258  -0.03406  -0.01521  -0.04927   1.64147
    D1       -1.60452  -0.00005  -0.02480   0.36688   0.34208  -1.26244
         Item               Value     Threshold  Converged?
 Maximum Force            0.002580     0.000450     NO 
 RMS     Force            0.001615     0.000300     NO 
 Maximum Displacement     0.432305     0.001800     NO 
 RMS     Displacement     0.191870     0.001200     NO 
 Predicted change in Energy=-2.658117D-05
 Lowest energy point so far.  Saving SCF results.
 GradGradGradGradGradGradGradGradGradGradGradGradGradGradGradGradGradGrad

 Leave Link  103 at Mon Apr 21 21:18:20 2025, MaxMem=   536870912 cpu:               0.4 elap:               0.1
 (Enter /home/szhao/Apps/g16/l202.exe)
                          Input orientation:                          
 ---------------------------------------------------------------------
 Center     Atomic      Atomic             Coordinates (Angstroms)
 Number     Number       Type             X           Y           Z
 ---------------------------------------------------------------------
      1         16           0       -2.343191    0.000000    0.000000
      2         16           0        2.343191    0.000000    0.000000
      3          1           0       -2.439946   -1.324527    0.220695
      4          1           0        2.438275   -0.191744    1.329355
 ---------------------------------------------------------------------
                    Distance matrix (angstroms):
                    1          2          3          4
     1  S    0.000000
     2  S    4.686383   0.000000
     3  H    1.346269   4.968046   0.000000
     4  H    4.966525   1.346473   5.129266   0.000000
 Symmetry turned off by external request.
 Stoichiometry    H2S2
 Framework group  C1[X(H2S2)]
 Deg. of freedom     6
 Full point group                 C1      NOp   1
 Rotational constants (GHZ):         143.5369564           1.3870860           1.3830137
 Leave Link  202 at Mon Apr 21 21:18:21 2025, MaxMem=   536870912 cpu:               0.1 elap:               0.1
 (Enter /home/szhao/Apps/g16/l301.exe)
 Standard basis: 6-311+G(d,p) (5D, 7F)
 Ernie: Thresh=  0.10000D-02 Tol=  0.10000D-05 Strict=F.
    72 basis functions,   116 primitive gaussians,    74 cartesian basis functions
    17 alpha electrons       17 beta electrons
       nuclear repulsion energy        44.9964963717 Hartrees.
 IExCor= 4336 DFT=T Ex+Corr=M062X ExCW=0 ScaHFX=  0.540000
 ScaDFX=  1.000000  1.000000  1.000000  1.000000 ScalE2=  1.000000  1.000000
 IRadAn=      7 IRanWt=     -1 IRanGd=            0 ICorTp=0 IEmpDi=  4
 NAtoms=    4 NActive=    4 NUniq=    4 SFac= 1.00D+00 NAtFMM=   60 NAOKFM=F Big=F
 Integral buffers will be    131072 words long.
 Raffenetti 2 integral format.
 Two-electron integral symmetry is turned off.
 Leave Link  301 at Mon Apr 21 21:18:21 2025, MaxMem=   536870912 cpu:               0.5 elap:               0.1
 (Enter /home/szhao/Apps/g16/l302.exe)
 NPDir=0 NMtPBC=     1 NCelOv=     1 NCel=       1 NClECP=     1 NCelD=      1
         NCelK=      1 NCelE2=     1 NClLst=     1 CellRange=     0.0.
 One-electron integrals computed using PRISM.
 NBasis=    72 RedAO= T EigKep=  1.63D-02  NBF=    72
 NBsUse=    72 1.00D-06 EigRej= -1.00D+00 NBFU=    72
 Precomputing XC quadrature grid using
 IXCGrd= 4 IRadAn=           7 IRanWt=          -1 IRanGd=           0 AccXCQ= 0.00D+00.
 Generated NRdTot=       0 NPtTot=           0 NUsed=           0 NTot=          32
 NSgBfM=    63    63    63    63    63 MxSgAt=     4 MxSgA2=     4.
 Leave Link  302 at Mon Apr 21 21:18:21 2025, MaxMem=   536870912 cpu:               1.9 elap:               0.3
 (Enter /home/szhao/Apps/g16/l303.exe)
 DipDrv:  MaxL=1.
 Leave Link  303 at Mon Apr 21 21:18:22 2025, MaxMem=   536870912 cpu:               0.5 elap:               0.1
 (Enter /home/szhao/Apps/g16/l401.exe)
 Initial guess from the checkpoint file:  "opt.chk"
 B after Tr=    -0.000076   -0.012044    0.012323
         Rot=    0.999998    0.000036   -0.001323    0.001358 Ang=   0.22 deg.
 Guess basis will be translated and rotated to current coordinates.
 JPrj=2 DoOrth=T DoCkMO=T.
 Initial guess <Sx>= 0.0000 <Sy>= 0.0000 <Sz>= 0.0000 <S**2>= 0.0000 S= 0.0000
 Generating alternative initial guess.
 ExpMin= 4.05D-02 ExpMax= 9.34D+04 ExpMxC= 3.17D+03 IAcc=3 IRadAn=         5 AccDes= 0.00D+00
 Harris functional with IExCor= 1009 and IRadAn=       5 diagonalized for initial guess.
 HarFok:  IExCor= 1009 AccDes= 0.00D+00 IRadAn=         5 IDoV= 1 UseB2=F ITyADJ=14
 ICtDFT=  3500011 ScaDFX=  1.000000  1.000000  1.000000  1.000000
 FoFCou: FMM=F IPFlag=           0 FMFlag=      100000 FMFlg1=           0
         NFxFlg=           0 DoJE=T BraDBF=F KetDBF=T FulRan=T
         wScrn=  0.000000 ICntrl=       500 IOpCl=  0 I1Cent=   200000004 NGrid=           0
         NMat0=    1 NMatS0=      1 NMatT0=    0 NMatD0=    1 NMtDS0=    0 NMtDT0=    0
 Symmetry not used in FoFCou.
 Harris En= -797.046646344647    
 Leave Link  401 at Mon Apr 21 21:18:22 2025, MaxMem=   536870912 cpu:               2.6 elap:               0.4
 (Enter /home/szhao/Apps/g16/l502.exe)
 Keep R1 and R2 ints in memory in canonical form, NReq=14118010.
 FoFCou: FMM=F IPFlag=           0 FMFlag=           0 FMFlg1=           0
         NFxFlg=           0 DoJE=F BraDBF=F KetDBF=F FulRan=T
         wScrn=  0.000000 ICntrl=       600 IOpCl=  0 I1Cent=           0 NGrid=           0
         NMat0=    1 NMatS0=   2628 NMatT0=    0 NMatD0=    1 NMtDS0=    0 NMtDT0=    0
 Symmetry not used in FoFCou.
 Two-electron integral symmetry not used.
 UHF open shell SCF:
 Using DIIS extrapolation, IDIIS=  1040.
 NGot=   536870912 LenX=   529949706 LenY=   529943789
 Requested convergence on RMS density matrix=1.00D-08 within 128 cycles.
 Requested convergence on MAX density matrix=1.00D-06.
 Requested convergence on             energy=1.00D-06.
 No special actions if energy rises.

 Cycle   1  Pass 1  IDiag  1:
 E= -797.372465722915    
 DIIS: error= 9.63D-03 at cycle   1 NSaved=   1.
 NSaved= 1 IEnMin= 1 EnMin= -797.372465722915     IErMin= 1 ErrMin= 9.63D-03
 ErrMax= 9.63D-03  0.00D+00 EMaxC= 1.00D-01 BMatC= 1.72D-02 BMatP= 1.72D-02
 IDIUse=3 WtCom= 9.04D-01 WtEn= 9.63D-02
 Coeff-Com:  0.100D+01
 Coeff-En:   0.100D+01
 Coeff:      0.100D+01
 Gap=     0.457 Goal=   None    Shift=    0.000
 Gap=     0.457 Goal=   None    Shift=    0.000
 GapD=    0.457 DampG=2.000 DampE=1.000 DampFc=2.0000 IDamp=-1.
 RMSDP=1.49D-03 MaxDP=2.20D-02              OVMax= 4.26D-02

 Cycle   2  Pass 1  IDiag  1:
 E= -797.381223795448     Delta-E=       -0.008758072532 Rises=F Damp=F
 DIIS: error= 1.95D-03 at cycle   2 NSaved=   2.
 NSaved= 2 IEnMin= 2 EnMin= -797.381223795448     IErMin= 2 ErrMin= 1.95D-03
 ErrMax= 1.95D-03  0.00D+00 EMaxC= 1.00D-01 BMatC= 7.82D-04 BMatP= 1.72D-02
 IDIUse=3 WtCom= 9.81D-01 WtEn= 1.95D-02
 Coeff-Com: -0.128D+00 0.113D+01
 Coeff-En:   0.000D+00 0.100D+01
 Coeff:     -0.125D+00 0.113D+01
 Gap=     0.075 Goal=   None    Shift=    0.000
 Gap=     0.075 Goal=   None    Shift=    0.000
 RMSDP=5.12D-04 MaxDP=6.99D-03 DE=-8.76D-03 OVMax= 1.42D-02

 Cycle   3  Pass 1  IDiag  1:
 E= -797.381867489190     Delta-E=       -0.000643693742 Rises=F Damp=F
 DIIS: error= 4.46D-04 at cycle   3 NSaved=   3.
 NSaved= 3 IEnMin= 3 EnMin= -797.381867489190     IErMin= 3 ErrMin= 4.46D-04
 ErrMax= 4.46D-04  0.00D+00 EMaxC= 1.00D-01 BMatC= 4.21D-05 BMatP= 7.82D-04
 IDIUse=3 WtCom= 9.96D-01 WtEn= 4.46D-03
 Coeff-Com: -0.225D-01 0.197D-01 0.100D+01
 Coeff-En:   0.000D+00 0.000D+00 0.100D+01
 Coeff:     -0.224D-01 0.196D-01 0.100D+01
 Gap=     0.075 Goal=   None    Shift=    0.000
 Gap=     0.075 Goal=   None    Shift=    0.000
 RMSDP=1.80D-04 MaxDP=2.72D-03 DE=-6.44D-04 OVMax= 4.33D-03

 Cycle   4  Pass 1  IDiag  1:
 E= -797.381912206226     Delta-E=       -0.000044717036 Rises=F Damp=F
 DIIS: error= 1.49D-04 at cycle   4 NSaved=   4.
 NSaved= 4 IEnMin= 4 EnMin= -797.381912206226     IErMin= 4 ErrMin= 1.49D-04
 ErrMax= 1.49D-04  0.00D+00 EMaxC= 1.00D-01 BMatC= 9.05D-06 BMatP= 4.21D-05
 IDIUse=3 WtCom= 9.99D-01 WtEn= 1.49D-03
 Coeff-Com:  0.850D-02-0.113D+00 0.192D+00 0.913D+00
 Coeff-En:   0.000D+00 0.000D+00 0.000D+00 0.100D+01
 Coeff:      0.849D-02-0.113D+00 0.191D+00 0.913D+00
 Gap=     0.075 Goal=   None    Shift=    0.000
 Gap=     0.075 Goal=   None    Shift=    0.000
 RMSDP=6.20D-05 MaxDP=9.93D-04 DE=-4.47D-05 OVMax= 1.41D-03

 Cycle   5  Pass 1  IDiag  1:
 E= -797.381915925610     Delta-E=       -0.000003719384 Rises=F Damp=F
 DIIS: error= 1.46D-04 at cycle   5 NSaved=   5.
 NSaved= 5 IEnMin= 5 EnMin= -797.381915925610     IErMin= 5 ErrMin= 1.46D-04
 ErrMax= 1.46D-04  0.00D+00 EMaxC= 1.00D-01 BMatC= 3.24D-06 BMatP= 9.05D-06
 IDIUse=3 WtCom= 9.99D-01 WtEn= 1.46D-03
 Coeff-Com:  0.624D-02-0.752D-01 0.984D-01 0.577D+00 0.394D+00
 Coeff-En:   0.000D+00 0.000D+00 0.000D+00 0.000D+00 0.100D+01
 Coeff:      0.623D-02-0.751D-01 0.982D-01 0.576D+00 0.395D+00
 Gap=     0.075 Goal=   None    Shift=    0.000
 Gap=     0.075 Goal=   None    Shift=    0.000
 RMSDP=3.75D-05 MaxDP=1.11D-03 DE=-3.72D-06 OVMax= 3.04D-03

 Cycle   6  Pass 1  IDiag  1:
 E= -797.381913089623     Delta-E=        0.000002835987 Rises=F Damp=F
 DIIS: error= 2.60D-04 at cycle   6 NSaved=   6.
 NSaved= 6 IEnMin= 5 EnMin= -797.381915925610     IErMin= 5 ErrMin= 1.46D-04
 ErrMax= 2.60D-04  0.00D+00 EMaxC= 1.00D-01 BMatC= 9.30D-06 BMatP= 3.24D-06
 IDIUse=3 WtCom= 9.99D-01 WtEn= 1.46D-03
 Coeff-Com:  0.241D-02-0.204D-01-0.883D-02 0.107D+00 0.593D+00 0.327D+00
 Coeff-En:   0.000D+00 0.000D+00 0.000D+00 0.000D+00 0.654D+00 0.346D+00
 Coeff:      0.241D-02-0.204D-01-0.882D-02 0.106D+00 0.593D+00 0.327D+00
 Gap=     0.075 Goal=   None    Shift=    0.000
 Gap=     0.075 Goal=   None    Shift=    0.000
 RMSDP=2.55D-05 MaxDP=7.36D-04 DE= 2.84D-06 OVMax= 2.00D-03

 Cycle   7  Pass 1  IDiag  1:
 E= -797.381917614124     Delta-E=       -0.000004524501 Rises=F Damp=F
 DIIS: error= 1.07D-05 at cycle   7 NSaved=   7.
 NSaved= 7 IEnMin= 7 EnMin= -797.381917614124     IErMin= 7 ErrMin= 1.07D-05
 ErrMax= 1.07D-05  0.00D+00 EMaxC= 1.00D-01 BMatC= 3.82D-08 BMatP= 3.24D-06
 IDIUse=1 WtCom= 1.00D+00 WtEn= 0.00D+00
 Coeff-Com: -0.557D-03 0.852D-02-0.140D-01-0.775D-01 0.509D-01 0.648D-01
 Coeff-Com:  0.968D+00
 Coeff:     -0.557D-03 0.852D-02-0.140D-01-0.775D-01 0.509D-01 0.648D-01
 Coeff:      0.968D+00
 Gap=     0.075 Goal=   None    Shift=    0.000
 Gap=     0.075 Goal=   None    Shift=    0.000
 RMSDP=5.79D-06 MaxDP=7.40D-05 DE=-4.52D-06 OVMax= 4.21D-04

 Cycle   8  Pass 1  IDiag  1:
 E= -797.381917702131     Delta-E=       -0.000000088007 Rises=F Damp=F
 DIIS: error= 1.06D-05 at cycle   8 NSaved=   8.
 NSaved= 8 IEnMin= 8 EnMin= -797.381917702131     IErMin= 8 ErrMin= 1.06D-05
 ErrMax= 1.06D-05  0.00D+00 EMaxC= 1.00D-01 BMatC= 1.00D-08 BMatP= 3.82D-08
 IDIUse=1 WtCom= 1.00D+00 WtEn= 0.00D+00
 Coeff-Com:  0.470D-04-0.156D-02 0.454D-02 0.173D-01-0.364D-01-0.321D-01
 Coeff-Com: -0.331D+00 0.138D+01
 Coeff:      0.470D-04-0.156D-02 0.454D-02 0.173D-01-0.364D-01-0.321D-01
 Coeff:     -0.331D+00 0.138D+01
 Gap=     0.075 Goal=   None    Shift=    0.000
 Gap=     0.075 Goal=   None    Shift=    0.000
 RMSDP=6.39D-06 MaxDP=9.36D-05 DE=-8.80D-08 OVMax= 5.15D-04

 Cycle   9  Pass 1  IDiag  1:
 E= -797.381917782460     Delta-E=       -0.000000080330 Rises=F Damp=F
 DIIS: error= 1.00D-05 at cycle   9 NSaved=   9.
 NSaved= 9 IEnMin= 9 EnMin= -797.381917782460     IErMin= 9 ErrMin= 1.00D-05
 ErrMax= 1.00D-05  0.00D+00 EMaxC= 1.00D-01 BMatC= 7.95D-09 BMatP= 1.00D-08
 IDIUse=1 WtCom= 1.00D+00 WtEn= 0.00D+00
 Coeff-Com:  0.174D-03-0.252D-02 0.426D-02 0.204D-01-0.104D-01-0.137D-01
 Coeff-Com: -0.197D+00-0.352D+00 0.155D+01
 Coeff:      0.174D-03-0.252D-02 0.426D-02 0.204D-01-0.104D-01-0.137D-01
 Coeff:     -0.197D+00-0.352D+00 0.155D+01
 Gap=     0.075 Goal=   None    Shift=    0.000
 Gap=     0.075 Goal=   None    Shift=    0.000
 RMSDP=8.17D-06 MaxDP=1.21D-04 DE=-8.03D-08 OVMax= 6.62D-04

 Cycle  10  Pass 1  IDiag  1:
 E= -797.381917873624     Delta-E=       -0.000000091164 Rises=F Damp=F
 DIIS: error= 8.95D-06 at cycle  10 NSaved=  10.
 NSaved=10 IEnMin=10 EnMin= -797.381917873624     IErMin=10 ErrMin= 8.95D-06
 ErrMax= 8.95D-06  0.00D+00 EMaxC= 1.00D-01 BMatC= 6.06D-09 BMatP= 7.95D-09
 IDIUse=1 WtCom= 1.00D+00 WtEn= 0.00D+00
 Coeff-Com: -0.101D-03 0.314D-02-0.787D-02-0.379D-01 0.491D-01 0.522D-01
 Coeff-Com:  0.692D+00-0.241D+01-0.146D+01 0.412D+01
 Coeff:     -0.101D-03 0.314D-02-0.787D-02-0.379D-01 0.491D-01 0.522D-01
 Coeff:      0.692D+00-0.241D+01-0.146D+01 0.412D+01
 Gap=     0.075 Goal=   None    Shift=    0.000
 Gap=     0.075 Goal=   None    Shift=    0.000
 RMSDP=3.37D-05 MaxDP=5.02D-04 DE=-9.12D-08 OVMax= 2.73D-03

 Cycle  11  Pass 1  IDiag  1:
 E= -797.381918119383     Delta-E=       -0.000000245759 Rises=F Damp=F
 DIIS: error= 3.85D-06 at cycle  11 NSaved=  11.
 NSaved=11 IEnMin=11 EnMin= -797.381918119383     IErMin=11 ErrMin= 3.85D-06
 ErrMax= 3.85D-06  0.00D+00 EMaxC= 1.00D-01 BMatC= 1.29D-09 BMatP= 6.06D-09
 IDIUse=1 WtCom= 1.00D+00 WtEn= 0.00D+00
 Coeff-Com: -0.201D-04-0.343D-05 0.554D-03 0.492D-02-0.155D-01-0.123D-01
 Coeff-Com: -0.113D+00 0.120D+01-0.990D+00-0.884D+00 0.181D+01
 Coeff:     -0.201D-04-0.343D-05 0.554D-03 0.492D-02-0.155D-01-0.123D-01
 Coeff:     -0.113D+00 0.120D+01-0.990D+00-0.884D+00 0.181D+01
 Gap=     0.075 Goal=   None    Shift=    0.000
 Gap=     0.075 Goal=   None    Shift=    0.000
 RMSDP=2.09D-05 MaxDP=3.13D-04 DE=-2.46D-07 OVMax= 1.70D-03

 Cycle  12  Pass 1  IDiag  1:
 E= -797.381918167129     Delta-E=       -0.000000047746 Rises=F Damp=F
 DIIS: error= 3.52D-07 at cycle  12 NSaved=  12.
 NSaved=12 IEnMin=12 EnMin= -797.381918167129     IErMin=12 ErrMin= 3.52D-07
 ErrMax= 3.52D-07  0.00D+00 EMaxC= 1.00D-01 BMatC= 3.69D-11 BMatP= 1.29D-09
 IDIUse=1 WtCom= 1.00D+00 WtEn= 0.00D+00
 Coeff-Com: -0.303D-05-0.111D-03 0.388D-03 0.254D-02-0.711D-02-0.575D-02
 Coeff-Com: -0.477D-01 0.328D+00-0.150D+00-0.311D+00 0.306D+00 0.885D+00
 Coeff:     -0.303D-05-0.111D-03 0.388D-03 0.254D-02-0.711D-02-0.575D-02
 Coeff:     -0.477D-01 0.328D+00-0.150D+00-0.311D+00 0.306D+00 0.885D+00
 Gap=     0.075 Goal=   None    Shift=    0.000
 Gap=     0.075 Goal=   None    Shift=    0.000
 RMSDP=1.66D-06 MaxDP=2.48D-05 DE=-4.77D-08 OVMax= 1.34D-04

 Cycle  13  Pass 1  IDiag  1:
 E= -797.381918167449     Delta-E=       -0.000000000319 Rises=F Damp=F
 DIIS: error= 9.40D-08 at cycle  13 NSaved=  13.
 NSaved=13 IEnMin=13 EnMin= -797.381918167449     IErMin=13 ErrMin= 9.40D-08
 ErrMax= 9.40D-08  0.00D+00 EMaxC= 1.00D-01 BMatC= 2.71D-12 BMatP= 3.69D-11
 IDIUse=1 WtCom= 1.00D+00 WtEn= 0.00D+00
 Coeff-Com:  0.219D-05-0.267D-04 0.630D-04-0.408D-04 0.489D-03 0.313D-03
 Coeff-Com:  0.438D-02-0.683D-01 0.624D-01 0.659D-01-0.157D+00 0.661D-01
 Coeff-Com:  0.103D+01
 Coeff:      0.219D-05-0.267D-04 0.630D-04-0.408D-04 0.489D-03 0.313D-03
 Coeff:      0.438D-02-0.683D-01 0.624D-01 0.659D-01-0.157D+00 0.661D-01
 Coeff:      0.103D+01
 Gap=     0.075 Goal=   None    Shift=    0.000
 Gap=     0.075 Goal=   None    Shift=    0.000
 RMSDP=1.50D-07 MaxDP=2.28D-06 DE=-3.19D-10 OVMax= 1.19D-05

 Cycle  14  Pass 1  IDiag  1:
 E= -797.381918167452     Delta-E=       -0.000000000003 Rises=F Damp=F
 DIIS: error= 1.21D-08 at cycle  14 NSaved=  14.
 NSaved=14 IEnMin=14 EnMin= -797.381918167452     IErMin=14 ErrMin= 1.21D-08
 ErrMax= 1.21D-08  0.00D+00 EMaxC= 1.00D-01 BMatC= 3.44D-14 BMatP= 2.71D-12
 IDIUse=1 WtCom= 1.00D+00 WtEn= 0.00D+00
 Coeff-Com:  0.861D-07 0.217D-05-0.549D-05-0.832D-04 0.171D-03 0.132D-03
 Coeff-Com:  0.133D-02-0.855D-02 0.254D-02 0.104D-01-0.110D-01-0.888D-02
 Coeff-Com:  0.184D-01 0.996D+00
 Coeff:      0.861D-07 0.217D-05-0.549D-05-0.832D-04 0.171D-03 0.132D-03
 Coeff:      0.133D-02-0.855D-02 0.254D-02 0.104D-01-0.110D-01-0.888D-02
 Coeff:      0.184D-01 0.996D+00
 Gap=     0.075 Goal=   None    Shift=    0.000
 Gap=     0.075 Goal=   None    Shift=    0.000
 RMSDP=6.54D-09 MaxDP=1.06D-07 DE=-2.96D-12 OVMax= 4.10D-07

 SCF Done:  E(UM062X) =  -797.381918167     A.U. after   14 cycles
            NFock= 14  Conv=0.65D-08     -V/T= 2.0012
 <Sx>= 0.0000 <Sy>= 0.0000 <Sz>= 0.0000 <S**2>= 0.0000 S= 0.0000
 <L.S>=  0.00000000000    
 KE= 7.963893711487D+02 PE=-1.986529580198D+03 EE= 3.477617945100D+02
 Annihilation of the first spin contaminant:
 S**2 before annihilation     0.0000,   after    -0.0000
 Leave Link  502 at Mon Apr 21 21:18:30 2025, MaxMem=   536870912 cpu:              56.8 elap:               7.5
 (Enter /home/szhao/Apps/g16/l701.exe)
 ... and contract with generalized density number  0.
 Compute integral first derivatives.
 Leave Link  701 at Mon Apr 21 21:18:30 2025, MaxMem=   536870912 cpu:               1.1 elap:               0.2
 (Enter /home/szhao/Apps/g16/l702.exe)
 L702 exits ... SP integral derivatives will be done elsewhere.
 Leave Link  702 at Mon Apr 21 21:18:31 2025, MaxMem=   536870912 cpu:               0.4 elap:               0.1
 (Enter /home/szhao/Apps/g16/l703.exe)
 Integral derivatives from FoFJK, PRISM(SPDF).
 Compute integral first derivatives, UseDBF=F ICtDFT=           0.
 Calling FoFJK, ICntrl=      2127 FMM=F ISym2X=0 I1Cent= 0 IOpClX= 1 NMat=1 NMatS=1 NMatT=0.
 FoFJK:  IHMeth= 1 ICntrl=    2127 DoSepK=F KAlg= 0 I1Cent=           0 FoldK=F
 IRaf=         0 NMat=       1 IRICut=       1 DoRegI=T DoRafI=F ISym2E= 0 IDoP0=0 IntGTp=1.
 FoFCou: FMM=F IPFlag=           0 FMFlag=      100000 FMFlg1=         800
         NFxFlg=           0 DoJE=F BraDBF=F KetDBF=F FulRan=T
         wScrn=  0.000000 ICntrl=      2127 IOpCl=  1 I1Cent=           0 NGrid=           0
         NMat0=    1 NMatS0=      1 NMatT0=    0 NMatD0=    1 NMtDS0=    0 NMtDT0=    0
 Symmetry not used in FoFCou.
 Leave Link  703 at Mon Apr 21 21:18:31 2025, MaxMem=   536870912 cpu:               5.9 elap:               0.8
 (Enter /home/szhao/Apps/g16/l716.exe)
 Dipole        =-2.65954896D-04-4.81849049D-01 4.92592002D-01
 -------------------------------------------------------------------
 Center     Atomic                   Forces (Hartrees/Bohr)
 Number     Number              X              Y              Z
 -------------------------------------------------------------------
      1       16          -0.000000000   -0.000000000   -0.000000000
      2       16          -0.000000000   -0.000000000   -0.000000000
      3        1           0.000764528   -0.000180116   -0.000089951
      4        1          -0.000765432    0.000097268    0.000082536
 -------------------------------------------------------------------
 Cartesian Forces:  Max     0.000765432 RMS     0.000319791
 Leave Link  716 at Mon Apr 21 21:18:32 2025, MaxMem=   536870912 cpu:               0.5 elap:               0.1
 (Enter /home/szhao/Apps/g16/l103.exe)

 GradGradGradGradGradGradGradGradGradGradGradGradGradGradGradGradGradGrad
 Berny optimization.
 Using GEDIIS/GDIIS optimizer.
 FormGI is forming the generalized inverse of G from B-inverse, IUseBI=4.
 Internal  Forces:  Max     0.001969773 RMS     0.000921132
 Search for a local minimum.
 Step number   3 out of a maximum of   21
 All quantities printed in internal units (Hartrees-Bohrs-Radians)
 RMS Force = .12487D-02 SwitMx=.10000D-02 MixMth= 1
 Mixed Optimization -- RFO/linear search
 Update second derivatives using D2CorX and points    1    2    3
 DE= -1.46D-04 DEPred=-2.66D-05 R= 5.49D+00
 TightC=F SS=  1.41D+00  RLast= 3.49D-01 DXNew= 5.0454D-01 1.0469D+00
 Trust test= 5.49D+00 RLast= 3.49D-01 DXMaxT set to 5.05D-01
 The second derivative matrix:
                          X1        Y1        Z1        X2        Y2
           X1           0.50048
           Y1           0.00259   0.56187
           Z1          -0.00005   0.00063   0.50002
           X2          -0.00053  -0.00310   0.00005   0.50059
           Y2          -0.00004  -0.00199  -0.00003   0.00006   0.50007
           Z2          -0.00242  -0.06271  -0.00068   0.00292   0.00204
           R1          -0.00323  -0.07127  -0.00068   0.00383   0.00227
           R2          -0.00308  -0.07228  -0.00073   0.00368   0.00232
           A1          -0.00049   0.01017   0.00028   0.00047  -0.00042
           A2          -0.00066   0.00879   0.00029   0.00066  -0.00039
           D1           0.00050   0.00266  -0.00005  -0.00055  -0.00005
                          Z2        R1        R2        A1        A2
           Z2           0.56368
           R1           0.07211   0.32411
           R2           0.07323   0.06451   0.32578
           A1          -0.01081   0.00662   0.00678   0.08799
           A2          -0.00947   0.00816   0.00830  -0.07309   0.08586
           D1          -0.00248   0.00193   0.00210   0.00026   0.00024
                          D1
           D1           0.00077
 ITU=  1  1  0
 Use linear search instead of GDIIS.
     Eigenvalues ---    0.00074   0.01323   0.16002   0.26043   0.39009
     Eigenvalues --- 1000.000001000.000001000.000001000.000001000.00000
     Eigenvalues --- 1000.00000
 RFO step:  Lambda=-1.66833237D-04 EMin= 7.40489525D-04
 Quartic linear search produced a step of  2.00000.
 Iteration  1 RMS(Cart)=  0.19676367 RMS(Int)=  0.07673244
 Iteration  2 RMS(Cart)=  0.11176812 RMS(Int)=  0.01463194
 Iteration  3 RMS(Cart)=  0.02502839 RMS(Int)=  0.00028224
 Iteration  4 RMS(Cart)=  0.00030051 RMS(Int)=  0.00000002
 Iteration  5 RMS(Cart)=  0.00000003 RMS(Int)=  0.00000000
 ITry= 1 IFail=0 DXMaxC= 5.49D-01 DCOld= 1.00D+10 DXMaxT= 5.05D-01 DXLimC= 3.00D+00 Rises=F
 Variable       Old X    -DE/DX   Delta X   Delta X   Delta X     New X
                                 (Linear)    (Quad)   (Total)
    X1       -4.42799   0.00076   0.00000   0.00000   0.00000  -4.42799
    Y1        0.00000  -0.00037   0.00000   0.00000   0.00000   0.00000
    Z1        0.00000  -0.00027   0.00000   0.00000   0.00000   0.00000
    X2        4.42799  -0.00077   0.00000   0.00000   0.00000   4.42799
    Y2        0.00000   0.00029   0.00000   0.00000   0.00000   0.00000
    Z2        0.00000   0.00027   0.00000   0.00000   0.00000   0.00000
[...]
 <Sx>= 0.0000 <Sy>= 0.0000 <Sz>= 0.0000 <S**2>=-0.0000 S=-0.0000
 <L.S>=  0.00000000000    
 KE= 7.963872358664D+02 PE=-1.986859656558D+03 EE= 3.479151540966D+02
 Annihilation of the first spin contaminant:
 S**2 before annihilation    -0.0000,   after     0.0000
 Leave Link  502 at Mon Apr 21 21:20:23 2025, MaxMem=   536870912 cpu:              59.9 elap:               7.8
 (Enter /home/szhao/Apps/g16/l701.exe)
 ... and contract with generalized density number  0.
 Compute integral first derivatives.
 Leave Link  701 at Mon Apr 21 21:20:24 2025, MaxMem=   536870912 cpu:               1.5 elap:               0.3
 (Enter /home/szhao/Apps/g16/l702.exe)
 L702 exits ... SP integral derivatives will be done elsewhere.
 Leave Link  702 at Mon Apr 21 21:20:24 2025, MaxMem=   536870912 cpu:               0.4 elap:               0.1
 (Enter /home/szhao/Apps/g16/l703.exe)
 Integral derivatives from FoFJK, PRISM(SPDF).
 Compute integral first derivatives, UseDBF=F ICtDFT=           0.
 Calling FoFJK, ICntrl=      2127 FMM=F ISym2X=0 I1Cent= 0 IOpClX= 1 NMat=1 NMatS=1 NMatT=0.
 FoFJK:  IHMeth= 1 ICntrl=    2127 DoSepK=F KAlg= 0 I1Cent=           0 FoldK=F
 IRaf=         0 NMat=       1 IRICut=       1 DoRegI=T DoRafI=F ISym2E= 0 IDoP0=0 IntGTp=1.
 FoFCou: FMM=F IPFlag=           0 FMFlag=      100000 FMFlg1=         800
         NFxFlg=           0 DoJE=F BraDBF=F KetDBF=F FulRan=T
         wScrn=  0.000000 ICntrl=      2127 IOpCl=  1 I1Cent=           0 NGrid=           0
         NMat0=    1 NMatS0=      1 NMatT0=    0 NMatD0=    1 NMtDS0=    0 NMtDT0=    0
 Symmetry not used in FoFCou.
 Leave Link  703 at Mon Apr 21 21:20:25 2025, MaxMem=   536870912 cpu:               5.7 elap:               0.7
 (Enter /home/szhao/Apps/g16/l716.exe)
 Dipole        = 2.75271689D-03-2.19165455D-01 2.24320983D-01
 -------------------------------------------------------------------
 Center     Atomic                   Forces (Hartrees/Bohr)
 Number     Number              X              Y              Z
 -------------------------------------------------------------------
      1       16          -0.000000000   -0.000000000   -0.000000000
      2       16          -0.000000000   -0.000000000   -0.000000000
      3        1          -0.000004037    0.000032471   -0.000008692
      4        1           0.000002593   -0.000027999   -0.000008070
 -------------------------------------------------------------------
 Cartesian Forces:  Max     0.000032471 RMS     0.000012916
 Leave Link  716 at Mon Apr 21 21:20:25 2025, MaxMem=   536870912 cpu:               0.4 elap:               0.1
 (Enter /home/szhao/Apps/g16/l103.exe)

 GradGradGradGradGradGradGradGradGradGradGradGradGradGradGradGradGradGrad
 Berny optimization.
 Using GEDIIS/GDIIS optimizer.
 FormGI is forming the generalized inverse of G from B-inverse, IUseBI=4.
 Internal  Forces:  Max     0.000026678 RMS     0.000014135
 Search for a local minimum.
 Step number  12 out of a maximum of   21
 All quantities printed in internal units (Hartrees-Bohrs-Radians)
 RMS Force = .14750D-04 SwitMx=.10000D-02 MixMth= 2
 Mixed Optimization -- En-DIIS/RFO-DIIS
 Swapping is turned off.
 Update second derivatives using D2CorX and points    6    7    8    9   10
                                                     11   12
 DE= -4.08D-08 DEPred=-5.93D-08 R= 6.88D-01
 Trust test= 6.88D-01 RLast= 3.95D-03 DXMaxT set to 7.14D-01
 The second derivative matrix:
                          X1        Y1        Z1        X2        Y2
           X1           0.50305
           Y1          -0.01067   0.59855
           Z1          -0.00517   0.04502   0.52361
           X2          -0.00169   0.01427   0.00649   0.50365
           Y2           0.00560  -0.04458  -0.02561  -0.00562   0.52979
           Z2           0.01044  -0.09437  -0.04679  -0.01263   0.04973
           R1           0.01052  -0.10563  -0.05018  -0.01265   0.04832
           R2           0.01299  -0.12136  -0.06073  -0.01717   0.06796
           A1          -0.00465  -0.00100  -0.00201   0.00064   0.00269
           A2          -0.00080   0.00214  -0.00041   0.00483   0.00373
           D1          -0.00159   0.00203   0.00241   0.00099  -0.00327
                          Z2        R1        R2        A1        A2
           Z2           0.59581
           R1           0.09833   0.24953
           R2           0.12959   0.00592   0.28545
           A1           0.00354   0.00401   0.00737   0.01388
           A2           0.00267   0.00298   0.00407   0.00373   0.01364
           D1          -0.00315  -0.00365  -0.00231   0.00265   0.00162
                          D1
           D1           0.00186
 ITU=  0  0  0  0 -1  1  0  1  1  1  1  0
     Eigenvalues ---    0.00110   0.01007   0.01778   0.24868   0.28673
     Eigenvalues --- 1000.000001000.000001000.000001000.000001000.00000
     Eigenvalues --- 1000.00000
 En-DIIS/RFO-DIIS/Sim-DIIS IScMMF=       -3 using points:    12   11   10    9    8    7    6    5    4
 RFO step:  Lambda=-3.61165871D-09.
 NNeg= 0 NGDIIS= 9 SimSw=  2.50D-01 Rises=F DC= -4.08D-08 SmlDif=  1.00D-05
 NRisDI= 0 DoIntr=F SqrtH=F CThrHd= 10.0 CDAdj=  3.0
 RMS Error=  0.1073234662D-03 NUsed= 9 OKEnD=F EnDIS=F
 InvSVX:  RCond= 8.40D-21 Info=          11 Equed=N FErr=  0.00D+00 BErr=  0.00D+00
 DIIS inversion failure, remove point   9.
 InvSVX:  RCond= 4.98D-19 Info=          10 Equed=N FErr=  0.00D+00 BErr=  0.00D+00
 DIIS inversion failure, remove point   8.
 InvSVX:  RCond= 2.08D-18 Info=           9 Equed=N FErr=  0.00D+00 BErr=  0.00D+00
 DIIS inversion failure, remove point   7.
 InvSVX:  RCond= 6.81D-11 Info=           0 Equed=N FErr=  6.76D-11 BErr=  7.16D-17
 DIIS inversion failure, remove point   6.
 InvSVX:  RCond= 3.70D-09 Info=           0 Equed=N FErr=  1.41D-12 BErr=  9.99D-17
 DIIS inversion failure, remove point   5.
 InvSVX:  RCond= 4.78D-08 Info=           0 Equed=N FErr=  4.85D-14 BErr=  4.71D-17
 DIIS inversion failure, remove point   4.
 InvSVX:  RCond= 6.97D-06 Info=           0 Equed=N FErr=  1.24D-15 BErr=  3.48D-17
 RFO-DIIS uses    3 points instead of    9
 DidBck=F Rises=F RFO-DIIS coefs:    0.92042    0.09567   -0.01610    0.00000    0.00000
                  RFO-DIIS coefs:    0.00000    0.00000    0.00000    0.00000
 Iteration  1 RMS(Cart)=  0.00018642 RMS(Int)=  0.00000002
 Iteration  2 RMS(Cart)=  0.00000002 RMS(Int)=  0.00000000
 ITry= 1 IFail=0 DXMaxC= 4.25D-04 DCOld= 1.00D+10 DXMaxT= 7.14D-01 DXLimC= 3.00D+00 Rises=F
 Variable       Old X    -DE/DX   Delta X   Delta X   Delta X     New X
                                 (Linear)    (Quad)   (Total)
    X1       -4.42799  -0.00000   0.00000   0.00000   0.00000  -4.42799
    Y1        0.00000   0.00002   0.00000   0.00000   0.00000   0.00000
    Z1        0.00000   0.00001   0.00000   0.00000   0.00000   0.00000
    X2        4.42799   0.00000   0.00000   0.00000   0.00000   4.42799
    Y2        0.00000  -0.00001   0.00000   0.00000   0.00000   0.00000
    Z2        0.00000  -0.00002   0.00000   0.00000   0.00000   0.00000
    R1        2.54410  -0.00003  -0.00001  -0.00009  -0.00011   2.54400
    R2        2.54422  -0.00002  -0.00002  -0.00005  -0.00007   2.54415
    A1        1.44984   0.00000   0.00013   0.00003   0.00016   1.45000
    A2        1.45946   0.00000   0.00000   0.00006   0.00006   1.45952
    D1       -2.40753   0.00000   0.00025  -0.00002   0.00023  -2.40730
         Item               Value     Threshold  Converged?
 Maximum Force            0.000027     0.000450     YES
 RMS     Force            0.000015     0.000300     YES
 Maximum Displacement     0.000425     0.001800     YES
 RMS     Displacement     0.000186     0.001200     YES
 Predicted change in Energy=-2.443823D-09
 Optimization completed.
    -- Stationary point found.
                           ----------------------------
                           !   Optimized Parameters   !
                           ! (Angstroms and Degrees)  !
 --------------------------                            --------------------------
 ! Name  Definition              Value          Derivative Info.                !
 --------------------------------------------------------------------------------
 ! X1    R(1,-1)                -2.3432         -DE/DX =    0.0                 !
 ! Y1    R(1,-2)                 0.0            -DE/DX =    0.0                 !
 ! Z1    R(1,-3)                 0.0            -DE/DX =    0.0                 !
 ! X2    R(2,-1)                 2.3432         -DE/DX =    0.0                 !
 ! Y2    R(2,-2)                 0.0            -DE/DX =    0.0                 !
 ! Z2    R(2,-3)                 0.0            -DE/DX =    0.0                 !
 ! R1    R(1,3)                  1.3463         -DE/DX =    0.0                 !
 ! R2    R(2,4)                  1.3463         -DE/DX =    0.0                 !
 ! A1    A(2,1,3)               83.0695         -DE/DX =    0.0                 !
 ! A2    A(1,2,4)               83.6211         -DE/DX =    0.0                 !
 ! D1    D(3,1,2,4)           -137.9414         -DE/DX =    0.0                 !
 --------------------------------------------------------------------------------
 Lowest energy point so far.  Saving SCF results.
 Largest change from initial coordinates is atom    3       0.636 Angstoms.
 GradGradGradGradGradGradGradGradGradGradGradGradGradGradGradGradGradGrad

 Leave Link  103 at Mon Apr 21 21:20:26 2025, MaxMem=   536870912 cpu:               0.3 elap:               0.1
 (Enter /home/szhao/Apps/g16/l202.exe)
                          Input orientation:                          
 ---------------------------------------------------------------------
 Center     Atomic      Atomic             Coordinates (Angstroms)
 Number     Number       Type             X           Y           Z
 ---------------------------------------------------------------------
      1         16           0       -2.343191    0.000000    0.000000
      2         16           0        2.343191    0.000000    0.000000
      3          1           0       -2.180743   -1.227435   -0.528664
      4          1           0        2.193608    0.557826    1.216180
 ---------------------------------------------------------------------
                    Distance matrix (angstroms):
                    1          2          3          4
     1  S    0.000000
     2  S    4.686383   0.000000
     3  H    1.346281   4.717209   0.000000
     4  H    4.729990   1.346343   5.036524   0.000000
 Symmetry turned off by external request.
 Stoichiometry    H2S2
 Framework group  C1[X(H2S2)]
 Deg. of freedom     6
 Full point group                 C1      NOp   1
 Rotational constants (GHZ):         144.1677522           1.3989140           1.3888967
 Leave Link  202 at Mon Apr 21 21:20:26 2025, MaxMem=   536870912 cpu:               0.3 elap:               0.1
 (Enter /home/szhao/Apps/g16/l601.exe)
 Copying SCF densities to generalized density rwf, IOpCl= 1 IROHF=0.

 **********************************************************************

            Population analysis using the SCF density.

 **********************************************************************

 Alpha  occ. eigenvalues --  -89.94339 -89.94336  -8.30601  -8.30597  -6.22743
 Alpha  occ. eigenvalues --   -6.22739  -6.22499  -6.22496  -6.21930  -6.21927
 Alpha  occ. eigenvalues --   -0.81362  -0.81155  -0.47356  -0.47323  -0.33401
 Alpha  occ. eigenvalues --   -0.33282  -0.30031
 Alpha virt. eigenvalues --   -0.22524   0.01860   0.02933   0.04347   0.04930
 Alpha virt. eigenvalues --    0.06457   0.06515   0.07299   0.07442   0.08345
 Alpha virt. eigenvalues --    0.12948   0.31219   0.31482   0.32752   0.34936
 Alpha virt. eigenvalues --    0.36103   0.38077   0.40700   0.41362   0.59392
 Alpha virt. eigenvalues --    0.60909   0.72324   0.72347   0.73950   0.73954
 Alpha virt. eigenvalues --    0.80779   0.81318   0.81352   0.81624   0.99336
 Alpha virt. eigenvalues --    0.99481   1.45997   1.47515   1.47657   1.47829
 Alpha virt. eigenvalues --    1.65969   1.66888   1.67140   1.68275   1.69187
 Alpha virt. eigenvalues --    1.70862   2.10468   2.10654   2.54743   2.54805
 Alpha virt. eigenvalues --    7.83798   7.84891  17.42762  17.43540  17.44363
 Alpha virt. eigenvalues --   17.46620  17.48311  17.48977 189.09869 189.11177
  Beta  occ. eigenvalues --  -89.94339 -89.94336  -8.30601  -8.30597  -6.22743
  Beta  occ. eigenvalues --   -6.22739  -6.22499  -6.22496  -6.21930  -6.21927
  Beta  occ. eigenvalues --   -0.81362  -0.81155  -0.47356  -0.47323  -0.33401
  Beta  occ. eigenvalues --   -0.33282  -0.30031
  Beta virt. eigenvalues --   -0.22524   0.01860   0.02933   0.04347   0.04930
  Beta virt. eigenvalues --    0.06457   0.06515   0.07299   0.07442   0.08345
  Beta virt. eigenvalues --    0.12948   0.31219   0.31482   0.32752   0.34936
  Beta virt. eigenvalues --    0.36103   0.38077   0.40700   0.41362   0.59392
  Beta virt. eigenvalues --    0.60909   0.72324   0.72347   0.73950   0.73954
  Beta virt. eigenvalues --    0.80779   0.81318   0.81352   0.81624   0.99336
  Beta virt. eigenvalues --    0.99481   1.45997   1.47515   1.47657   1.47829
  Beta virt. eigenvalues --    1.65969   1.66888   1.67140   1.68275   1.69187
  Beta virt. eigenvalues --    1.70862   2.10468   2.10654   2.54743   2.54805
  Beta virt. eigenvalues --    7.83798   7.84891  17.42762  17.43540  17.44363
  Beta virt. eigenvalues --   17.46620  17.48311  17.48977 189.09869 189.11177
          Condensed to atoms (all electrons):
               1          2          3          4
     1  S   15.783831   0.041854   0.255024   0.000244
     2  S    0.041854  15.784356   0.000255   0.255019
     3  H    0.255024   0.000255   0.663478   0.000005
     4  H    0.000244   0.255019   0.000005   0.663531
          Atomic-Atomic Spin Densities.
               1          2          3          4
     1  S    0.000000   0.000000   0.000000   0.000000
     2  S    0.000000   0.000000   0.000000   0.000000
     3  H    0.000000   0.000000   0.000000   0.000000
     4  H    0.000000   0.000000   0.000000   0.000000
 Mulliken charges and spin densities:
               1          2
     1  S   -0.080954   0.000000
     2  S   -0.081484   0.000000
     3  H    0.081238   0.000000
     4  H    0.081200   0.000000
 Sum of Mulliken charges =  -0.00000   0.00000
 Mulliken charges and spin densities with hydrogens summed into heavy atoms:
               1          2
     1  S    0.000284   0.000000
     2  S   -0.000284   0.000000
 Electronic spatial extent (au):  <R**2>=            735.4711
 Charge=             -0.0000 electrons
 Dipole moment (field-independent basis, Debye):
    X=              0.0070    Y=             -0.5571    Z=              0.5702  Tot=              0.7972
 Quadrupole moment (field-independent basis, Debye-Ang):
   XX=            -25.9834   YY=            -28.0341   ZZ=            -28.1727
   XY=              3.3441   XZ=              3.2791   YZ=              2.9958
 Traceless Quadrupole moment (field-independent basis, Debye-Ang):
   XX=              1.4133   YY=             -0.6374   ZZ=             -0.7760
   XY=              3.3441   XZ=              3.2791   YZ=              2.9958
 Octapole moment (field-independent basis, Debye-Ang**2):
  XXX=              0.0988  YYY=              0.0356  ZZZ=             -0.0892  XYY=             -6.2554
  XXY=             -2.7751  XXZ=              2.9146  XZZ=              6.2560  YZZ=              0.7094
  YYZ=             -0.6789  XYZ=              0.1538
 Hexadecapole moment (field-independent basis, Debye-Ang**3):
 XXXX=           -901.6513 YYYY=            -46.9743 ZZZZ=            -47.1010 XXXY=              9.9312
 XXXZ=              9.8689 YYYX=             -3.6885 YYYZ=              1.3473 ZZZX=             -3.6351
 ZZZY=              1.3428 XXYY=           -166.4057 XXZZ=           -167.0968 YYZZ=            -15.5553
 XXYZ=             15.7680 YYXZ=             -0.5025 ZZXY=             -0.5493
 N-N= 4.517482748251D+01 E-N=-1.986859656587D+03  KE= 7.963872358664D+02
                          Isotropic Fermi Contact Couplings
        Atom                 a.u.       MegaHertz       Gauss      10(-4) cm-1
     1  S(33)              0.00000       0.00000       0.00000       0.00000
     2  S(33)              0.00000       0.00000       0.00000       0.00000
     3  H(1)               0.00000       0.00000       0.00000       0.00000
     4  H(1)               0.00000       0.00000       0.00000       0.00000
 --------------------------------------------------------
       Center         ----  Spin Dipole Couplings  ----
                      3XX-RR        3YY-RR        3ZZ-RR
 --------------------------------------------------------
     1   Atom        0.000000      0.000000      0.000000
     2   Atom        0.000000      0.000000      0.000000
     3   Atom        0.000000      0.000000      0.000000
     4   Atom        0.000000      0.000000      0.000000
 --------------------------------------------------------
                        XY            XZ            YZ
 --------------------------------------------------------
     1   Atom        0.000000      0.000000      0.000000
     2   Atom        0.000000      0.000000      0.000000
     3   Atom        0.000000      0.000000      0.000000
     4   Atom        0.000000      0.000000      0.000000
 --------------------------------------------------------


 ---------------------------------------------------------------------------------
              Anisotropic Spin Dipole Couplings in Principal Axis System
 ---------------------------------------------------------------------------------

       Atom             a.u.   MegaHertz   Gauss  10(-4) cm-1        Axes

              Baa     0.0000     0.000     0.000     0.000  1.0000  0.0000  0.0000
     1 S(33)  Bbb     0.0000     0.000     0.000     0.000 -0.0000  1.0000  0.0000
              Bcc     0.0000     0.000     0.000     0.000  0.0000  0.0000  1.0000
 
              Baa     0.0000     0.000     0.000     0.000  1.0000  0.0000  0.0000
     2 S(33)  Bbb     0.0000     0.000     0.000     0.000 -0.0000  1.0000  0.0000
              Bcc     0.0000     0.000     0.000     0.000  0.0000  0.0000  1.0000
 
              Baa     0.0000     0.000     0.000     0.000  1.0000  0.0000  0.0000
     3 H(1)   Bbb     0.0000     0.000     0.000     0.000 -0.0000  1.0000  0.0000
              Bcc     0.0000     0.000     0.000     0.000  0.0000  0.0000  1.0000
 
              Baa     0.0000     0.000     0.000     0.000  1.0000  0.0000  0.0000
     4 H(1)   Bbb     0.0000     0.000     0.000     0.000 -0.0000  1.0000  0.0000
              Bcc     0.0000     0.000     0.000     0.000  0.0000  0.0000  1.0000
 

 ---------------------------------------------------------------------------------

 No NMR shielding tensors so no spin-rotation constants.
 Leave Link  601 at Mon Apr 21 21:20:26 2025, MaxMem=   536870912 cpu:               1.7 elap:               0.3
 (Enter /home/szhao/Apps/g16/l9999.exe)
 1\1\GINC-NODE06\FOpt\UM062X\6-311+G(d,p)\H2S2\SZHAO\21-Apr-2025\0\\#p 
 opt UM062X/6-311+G** nosymm int=superfine\\Title Card Required\\0,1\S,
 -2.34319129,0.,0.\S,2.34319129,0.,0.\H,-2.1807428194,-1.2274347957,-0.
 5286641365\H,2.1936075666,0.5578255221,1.2161804172\\Version=ES64L-G16
 RevA.03\HF=-797.3824391\S2=0.\S2-1=0.\S2A=0.\RMSD=4.032e-09\RMSF=1.292
 e-05\Dipole=0.0027527,-0.2191655,0.224321\Quadrupole=1.0507773,-0.4738
 716,-0.5769057,2.4862389,2.4379238,2.2273159\PG=C01 [X(H2S2)]\\@


 WORK FAITHFULLY FOR EIGHT HOURS A DAY AND DON'T WORRY.
 IN TIME YOU MAY BECOME BOSS AND WORK TWELVE HOURS A DAY
 AND HAVE ALL THE WORRY.
 Job cpu time:       0 days  0 hours 14 minutes 46.5 seconds.
 Elapsed time:       0 days  0 hours  2 minutes  6.2 seconds.
 File lengths (MBytes):  RWF=     22 Int=      0 D2E=      0 Chk=      2 Scr=      2
 Normal termination of Gaussian 16 at Mon Apr 21 21:20:28 2025.
