Title Card Required                                                     
FOpt      UM062X                                                      6-311+G(d,p)        
Number of atoms                            I                4
Info1-9                                    I   N=           9
          13          13           0           0           0         110
           2          18        -502
Full Title                                 C   N=           2
Title Card Required     
Route                                      C   N=           4
#p opt UM062X/6-311+G** nosymm int=superfine    
Charge                                     I                0
Multiplicity                               I                1
Number of electrons                        I               14
Number of alpha electrons                  I                7
Number of beta electrons                   I                7
Number of basis functions                  I               56
Number of independent functions            I               56
Number of point charges in /Mol/           I                0
Number of translation vectors              I                0
Atomic numbers                             I   N=           4
           6           6           1           1
Nuclear charges                            R   N=           4
  6.00000000E+00  6.00000000E+00  1.00000000E+00  1.00000000E+00
Current cartesian coordinates              R   N=          12
 -1.68523527E+00  0.00000000E+00  0.00000000E+00  1.68523527E+00  0.00000000E+00
  0.00000000E+00 -3.72457298E+00 -1.33879948E-05 -1.32213567E-05  3.72448616E+00
 -2.05522744E-05 -2.07125912E-05
Number of symbols in /Mol/                 I                0
Force Field                                I                0
Atom Types                                 C   N=           4
                                                
Int Atom Types                             I   N=           4
           0           0           0           0
MM charges                                 R   N=           4
  0.00000000E+00  0.00000000E+00  0.00000000E+00  0.00000000E+00
Integer atomic weights                     I   N=           4
          12          12           1           1
Real atomic weights                        R   N=           4
  1.20000000E+01  1.20000000E+01  1.00782504E+00  1.00782504E+00
Atom fragment info                         I   N=           4
           0           0           0           0
Atom residue num                           I   N=           4
           0           0           0           0
Nuclear spins                              I   N=           4
           0           0           1           1
Nuclear ZEff                               R   N=           4
 -3.60000000E+00 -3.60000000E+00 -1.00000000E+00 -1.00000000E+00
Nuclear ZNuc                               R   N=           4
  6.00000000E+00  6.00000000E+00  1.00000000E+00  1.00000000E+00
Nuclear QMom                               R   N=           4
  0.00000000E+00  0.00000000E+00  0.00000000E+00  0.00000000E+00
Nuclear GFac                               R   N=           4
  0.00000000E+00  0.00000000E+00  2.79284600E+00  2.79284600E+00
MicOpt                                     I   N=           4
          -2          -2          -1          -1
Number of residues                         I                0
Number of secondary structures             I                0
Redundant internal dimensions              I   N=           4
          12           8           4           0
Redundant internal coordinate indices      I   N=          48
           1          -1           0           0           1          -2
           0           0           1          -3           0           0
           2          -1           0           0           2          -2
           0           0           2          -3           0           0
           1           3           0           0           2           4
           0           0           2           1           3          -4
           1           2           4          -4           2           1
           3          -8           1           2           4          -8
Redundant internal coordinates             R   N=          12
 -1.68523527E+00  0.00000000E+00  0.00000000E+00  1.68523527E+00  0.00000000E+00
  0.00000000E+00  2.03933771E+00  2.03925089E+00  3.14159914E+00  3.14158250E+00
  3.14158609E+00  3.14160273E+00
ZRed-IntVec                                I   N=          12
          -1          -1          -1          -1          -1          -1
           0           0           0           0           0           0
ZRed-FPVec                                 R   N=          12
  0.00000000E+00  0.00000000E+00  0.00000000E+00  0.00000000E+00  0.00000000E+00
  0.00000000E+00  0.00000000E+00  0.00000000E+00  0.00000000E+00  0.00000000E+00
  0.00000000E+00  0.00000000E+00
ZRed-Constraint1                           R   N=          12
 -1.68523527E+00  0.00000000E+00  0.00000000E+00  1.68523527E+00  0.00000000E+00
  0.00000000E+00  2.99704783E+00  2.99700276E+00  3.14159265E+00  3.14159265E+00
  3.14159265E+00  3.14159265E+00
ZRed-Constraint2                           R   N=          12
 -1.68523527E+00  0.00000000E+00  0.00000000E+00  1.68523527E+00  0.00000000E+00
  0.00000000E+00  0.00000000E+00  0.00000000E+00  0.00000000E+00  0.00000000E+00
  0.00000000E+00  0.00000000E+00
Number of contracted shells                I               20
Number of primitive shells                 I               38
Pure/Cartesian d shells                    I                0
Pure/Cartesian f shells                    I                0
Highest angular momentum                   I                2
Largest degree of contraction              I                6
Shell types                                I   N=          20
           0          -1          -1          -1          -1          -2
           0          -1          -1          -1          -1          -2
           0           0           0           1           0           0
           0           1
Number of primitives per shell             I   N=          20
           6           3           1           1           1           1
           6           3           1           1           1           1
           3           1           1           1           3           1
           1           1
Shell to atom map                          I   N=          20
           1           1           1           1           1           1
           2           2           2           2           2           2
           3           3           3           3           4           4
           4           4
Primitive exponents                        R   N=          38
  4.56324000E+03  6.82024000E+02  1.54973000E+02  4.44553000E+01  1.30290000E+01
  1.82773000E+00  2.09642000E+01  4.80331000E+00  1.45933000E+00  4.83456000E-01
  1.45585000E-01  4.38000000E-02  6.26000000E-01  4.56324000E+03  6.82024000E+02
  1.54973000E+02  4.44553000E+01  1.30290000E+01  1.82773000E+00  2.09642000E+01
  4.80331000E+00  1.45933000E+00  4.83456000E-01  1.45585000E-01  4.38000000E-02
  6.26000000E-01  3.38650000E+01  5.09479000E+00  1.15879000E+00  3.25840000E-01
  1.02741000E-01  7.50000000E-01  3.38650000E+01  5.09479000E+00  1.15879000E+00
  3.25840000E-01  1.02741000E-01  7.50000000E-01
Contraction coefficients                   R   N=          38
  1.96665025E-03  1.52306019E-02  7.61269097E-02  2.60801033E-01  6.16462078E-01
  2.21006028E-01  1.14660081E-01  9.19999648E-01 -3.03068213E-03  1.00000000E+00
  1.00000000E+00  1.00000000E+00  1.00000000E+00  1.96665025E-03  1.52306019E-02
  7.61269097E-02  2.60801033E-01  6.16462078E-01  2.21006028E-01  1.14660081E-01
  9.19999648E-01 -3.03068213E-03  1.00000000E+00  1.00000000E+00  1.00000000E+00
  1.00000000E+00  2.54938145E-02  1.90373109E-01  8.52161486E-01  1.00000000E+00
  1.00000000E+00  1.00000000E+00  2.54938145E-02  1.90373109E-01  8.52161486E-01
  1.00000000E+00  1.00000000E+00  1.00000000E+00
P(S=P) Contraction coefficients            R   N=          38
  0.00000000E+00  0.00000000E+00  0.00000000E+00  0.00000000E+00  0.00000000E+00
  0.00000000E+00  4.02486927E-02  2.37593957E-01  8.15853851E-01  1.00000000E+00
  1.00000000E+00  1.00000000E+00  0.00000000E+00  0.00000000E+00  0.00000000E+00
  0.00000000E+00  0.00000000E+00  0.00000000E+00  0.00000000E+00  4.02486927E-02
  2.37593957E-01  8.15853851E-01  1.00000000E+00  1.00000000E+00  1.00000000E+00
  0.00000000E+00  0.00000000E+00  0.00000000E+00  0.00000000E+00  0.00000000E+00
  0.00000000E+00  0.00000000E+00  0.00000000E+00  0.00000000E+00  0.00000000E+00
  0.00000000E+00  0.00000000E+00  0.00000000E+00
Coordinates of each shell                  R   N=          60
 -1.68523527E+00  0.00000000E+00  0.00000000E+00 -1.68523527E+00  0.00000000E+00
  0.00000000E+00 -1.68523527E+00  0.00000000E+00  0.00000000E+00 -1.68523527E+00
  0.00000000E+00  0.00000000E+00 -1.68523527E+00  0.00000000E+00  0.00000000E+00
 -1.68523527E+00  0.00000000E+00  0.00000000E+00  1.68523527E+00  0.00000000E+00
  0.00000000E+00  1.68523527E+00  0.00000000E+00  0.00000000E+00  1.68523527E+00
  0.00000000E+00  0.00000000E+00  1.68523527E+00  0.00000000E+00  0.00000000E+00
  1.68523527E+00  0.00000000E+00  0.00000000E+00  1.68523527E+00  0.00000000E+00
  0.00000000E+00 -3.72457298E+00 -1.33879948E-05 -1.32213567E-05 -3.72457298E+00
 -1.33879948E-05 -1.32213567E-05 -3.72457298E+00 -1.33879948E-05 -1.32213567E-05
 -3.72457298E+00 -1.33879948E-05 -1.32213567E-05  3.72448616E+00 -2.05522744E-05
 -2.07125912E-05  3.72448616E+00 -2.05522744E-05 -2.07125912E-05  3.72448616E+00
 -2.05522744E-05 -2.07125912E-05  3.72448616E+00 -2.05522744E-05 -2.07125912E-05
Num ILSW                                   I              100
ILSW                                       I   N=         100
           1           0           0           0           2           0
           0           0           0           0        4336          -1
           7           0           0           0           2           0
           0           0           0           0           1           0
           1           1           0           0           0           0
           0           0      100000           0          -1           0
           0           0           0           0           0           0
           0           0           0           1           0           0
           0 -2000000000           1           0           0           0
           0           0           4          52           0           0
           0           0          55           0           0           0
           0           0           0           4           0           1
           0           0           0           0           0           0
           0           0           0           0           0           0
           0           0           0           0           0           0
           0           0           0           0           0           0
           0           0           0           0
Num RLSW                                   I               52
RLSW                                       R   N=          52
  1.00000000E+00  1.00000000E+00  1.00000000E+00  1.00000000E+00  5.40000000E-01
  0.00000000E+00  0.00000000E+00  1.00000000E+00  0.00000000E+00  0.00000000E+00
  0.00000000E+00  0.00000000E+00  1.00000000E+00  0.00000000E+00  0.00000000E+00
  0.00000000E+00  0.00000000E+00  1.00000000E+00  0.00000000E+00  0.00000000E+00
  0.00000000E+00  0.00000000E+00  1.00000000E+00  0.00000000E+00  0.00000000E+00
  0.00000000E+00  0.00000000E+00  1.00000000E+00  0.00000000E+00  0.00000000E+00
  0.00000000E+00  0.00000000E+00  1.00000000E+00  0.00000000E+00  0.00000000E+00
  0.00000000E+00  0.00000000E+00  0.00000000E+00  1.00000000E+00  1.00000000E+00
  0.00000000E+00  1.00000000E+00  0.00000000E+00  0.00000000E+00  0.00000000E+00
  0.00000000E+00  0.00000000E+00  0.00000000E+00  0.00000000E+00  0.00000000E+00
  0.00000000E+00  0.00000000E+00
MxBond                                     I                2
NBond                                      I   N=           4
           2           2           1           1
IBond                                      I   N=           8
           2           3           1           4           1           0
           2           0
RBond                                      R   N=           8
  1.00000000E+00  1.00000000E-01  1.00000000E+00  1.00000000E-01  1.00000000E-01
  0.00000000E+00  1.00000000E-01  0.00000000E+00
Virial Ratio                               R      2.016843320331091E+00
SCF Energy                                 R     -7.703935912455968E+01
Total Energy                               R     -7.703935912455968E+01
S**2                                       R     -2.309263891220326E-14
S**2 after annihilation                    R      1.003641614261136E-13
RMS Force                                  R      9.871560182612804E-05
RMS Density                                R      2.518593487627624E-09
Job Status                                 I                1
Nuclear derivative order                   I                1
External E-field                           R   N=          35
  0.00000000E+00  0.00000000E+00  0.00000000E+00  0.00000000E+00  0.00000000E+00
  0.00000000E+00  0.00000000E+00  0.00000000E+00  0.00000000E+00  0.00000000E+00
  0.00000000E+00  0.00000000E+00  0.00000000E+00  0.00000000E+00  0.00000000E+00
  0.00000000E+00  0.00000000E+00  0.00000000E+00  0.00000000E+00  0.00000000E+00
  0.00000000E+00  0.00000000E+00  0.00000000E+00  0.00000000E+00  0.00000000E+00
  0.00000000E+00  0.00000000E+00  0.00000000E+00  0.00000000E+00  0.00000000E+00
  0.00000000E+00  0.00000000E+00  0.00000000E+00  0.00000000E+00  0.00000000E+00
IOpCl                                      I                1
IROHF                                      I                0
Alpha Orbital Energies                     R   N=          56
 -1.06698682E+01 -1.06696123E+01 -7.70650885E-01 -7.02367508E-01 -5.19946106E-01
 -2.96221335E-01 -2.96221335E-01 -5.90926920E-02 -5.90926919E-02 -2.18919380E-02
  2.28019064E-02  4.43847441E-02  8.51987192E-02  8.51987192E-02  9.64280723E-02
  1.08845939E-01  1.08845939E-01  1.74071857E-01  2.22120121E-01  2.63057722E-01
  4.68878570E-01  5.81482722E-01  5.81482722E-01  6.00439605E-01  6.03965774E-01
  6.03965774E-01  6.83707077E-01  7.52452425E-01  8.13493897E-01  9.83558760E-01
  1.01651432E+00  1.01651432E+00  1.29421589E+00  1.29421625E+00  1.31033844E+00
  1.31033844E+00  1.40992767E+00  1.40992805E+00  1.49168554E+00  1.74241137E+00
  1.74241137E+00  1.81757271E+00  2.09814286E+00  2.09814286E+00  2.31060438E+00
  2.53952547E+00  2.68425406E+00  2.70539940E+00  2.70539940E+00  2.76742532E+00
  2.76742532E+00  3.08302289E+00  3.29881754E+00  3.42070153E+00  2.35661470E+01
  2.37094080E+01
Beta Orbital Energies                      R   N=          56
 -1.06698682E+01 -1.06696123E+01 -7.70650885E-01 -7.02367508E-01 -5.19946106E-01
 -2.96221335E-01 -2.96221335E-01 -5.90926920E-02 -5.90926919E-02 -2.18919380E-02
  2.28019064E-02  4.43847441E-02  8.51987192E-02  8.51987192E-02  9.64280723E-02
  1.08845939E-01  1.08845939E-01  1.74071857E-01  2.22120121E-01  2.63057722E-01
  4.68878570E-01  5.81482722E-01  5.81482722E-01  6.00439605E-01  6.03965774E-01
  6.03965774E-01  6.83707077E-01  7.52452425E-01  8.13493897E-01  9.83558760E-01
  1.01651432E+00  1.01651432E+00  1.29421589E+00  1.29421625E+00  1.31033844E+00
  1.31033844E+00  1.40992767E+00  1.40992805E+00  1.49168554E+00  1.74241137E+00
  1.74241137E+00  1.81757271E+00  2.09814286E+00  2.09814286E+00  2.31060438E+00
  2.53952547E+00  2.68425406E+00  2.70539940E+00  2.70539940E+00  2.76742532E+00
  2.76742532E+00  3.08302289E+00  3.29881754E+00  3.42070153E+00  2.35661470E+01
  2.37094080E+01
Alpha MO coefficients                      R   N=        3136
  4.02088929E-01  3.30701332E-01  6.01595079E-04  1.18704524E-08  1.20189532E-08
  7.42581737E-03 -2.23795570E-03 -1.97509469E-08 -1.96397051E-08 -3.46714010E-03
  5.81196785E-04  4.66331261E-09  4.65102386E-09 -4.19835244E-04  1.41801953E-03
  1.27203430E-09  1.09683607E-09 -4.69367325E-04  1.13401789E-08  7.26136731E-14
  8.12968054E-04  1.14918392E-08  3.95983360E-01  3.25680775E-01 -5.96560188E-04
  5.30003670E-09  5.15054349E-09  7.30761484E-03  2.20610193E-03 -2.41268842E-08
 -2.42277672E-08 -3.38838303E-03 -6.50364021E-04  5.39925993E-09  5.41097113E-09
 -4.91860955E-04 -1.38718198E-03  8.89096399E-09  9.06399250E-09 -4.58256037E-04
 -1.77629644E-08  1.98412936E-13  7.93722739E-04 -1.76195353E-08  7.70213642E-05
 -2.86032088E-03  3.18515123E-03 -1.72397181E-03 -9.89160566E-09 -9.75488939E-09
  7.47448398E-05 -2.79215095E-03  3.17563298E-03  1.69238247E-03 -1.53931708E-08
 -1.55217763E-08 -3.96015869E-01 -3.25637409E-01 -3.26813812E-04 -1.03045049E-08
 -1.04429080E-08 -7.69810772E-03  2.09717137E-03  1.63544851E-08  1.62006227E-08
  5.11555134E-03  4.52540121E-03  1.07896769E-08  1.07067067E-08 -4.64202811E-03
 -1.98718155E-03  1.39110589E-10  1.54935558E-10  7.30137520E-04 -1.85249750E-08
 -1.12289467E-13 -1.26463528E-03 -1.87134966E-08  4.02120921E-01  3.30658526E-01
 -3.36015276E-04  4.32999893E-09  4.18654819E-09  7.81129505E-03  2.13173397E-03
 -2.33376989E-08 -2.34857607E-08 -5.16768122E-03  4.51605347E-03 -1.42367981E-08
 -1.43150143E-08  4.63494269E-03 -2.00863598E-03  6.87542280E-10  7.05986506E-10
 -7.37357301E-04 -2.72553710E-08  2.67861186E-13  1.27714031E-03 -2.70730734E-08
 -1.40289498E-04  4.47884797E-03 -6.23713327E-04  2.07292036E-03  1.52437346E-08
  1.50179872E-08  1.41296896E-04 -4.52286236E-03  6.72512795E-04  2.09939602E-03
 -2.52115086E-08 -2.54318014E-08 -8.15663427E-02 -1.31832849E-01 -1.23484037E-02
 -2.50812598E-07 -2.47218659E-07  3.64031207E-01 -1.10086541E-02 -2.90162309E-07
 -2.83968067E-07  2.55151224E-01 -8.47439056E-03 -1.27132815E-07 -1.24945748E-07
  2.85622107E-03 -1.30741865E-02 -1.08735538E-08 -9.64766049E-09 -9.18125814E-03
  1.18737742E-07  1.59836738E-12  1.59024056E-02  1.19809496E-07 -8.15762272E-02
 -1.31848703E-01  1.23622261E-02 -4.05434036E-07 -4.08906983E-07  3.64073467E-01
  1.10251858E-02 -5.57229479E-07 -5.63267394E-07  2.55177820E-01  8.47916337E-03
 -2.21412514E-07 -2.23535212E-07  2.84996550E-03  1.30765739E-02 -6.42482585E-08
 -6.54601680E-08 -9.18235415E-03 -1.66835211E-07  9.66652328E-13  1.59043039E-02
 -1.65816359E-07  8.71779526E-02  1.06707831E-01 -3.91756114E-03  1.23112198E-02
  6.36682112E-08  6.28682749E-08  8.71996449E-02  1.06731589E-01 -3.91591470E-03
 -1.23141752E-02  9.81211576E-08  9.88912107E-08 -6.82301907E-02 -1.10296526E-01
 -8.12596417E-02 -3.50862797E-07 -3.44575550E-07  3.06755296E-01 -1.10802991E-01
 -4.05476243E-07 -3.95900211E-07  2.19071849E-01 -5.29488984E-02 -2.02940772E-07
 -1.99451316E-07 -9.91838756E-02 -3.98386512E-02 -8.25295571E-08 -8.22416693E-08
 -6.31114494E-03  1.54594072E-07  1.63229636E-12  1.09312237E-02  1.56389752E-07
  6.82178731E-02  1.10276397E-01 -8.12685768E-02  6.22136857E-07  6.28243122E-07
 -3.06697528E-01 -1.10813742E-01  8.19262075E-07  8.28609894E-07 -2.19022757E-01
 -5.29506937E-02  3.53469308E-07  3.56854852E-07  9.91850034E-02 -3.98353224E-02
  9.44043761E-08  9.46590939E-08  6.30973677E-03  2.35155284E-07 -1.51813686E-12
 -1.09287847E-02  2.33432147E-07  1.25175528E-01  1.60205038E-01  1.46921814E-02
  1.79047043E-02  1.33797224E-07  1.32355552E-07 -1.25173068E-01 -1.60197094E-01
 -1.46945072E-02  1.79041355E-02 -1.95656875E-07 -1.97037278E-07 -1.91608112E-02
 -3.18938111E-02  1.70184460E-01  6.51440395E-07  6.43924832E-07  9.42120313E-02
  2.46312276E-01  9.21777529E-07  9.12783834E-07  9.79445316E-02  1.30062903E-01
  4.60799314E-07  4.54380055E-07  1.16425921E-03  1.44404585E-03 -4.33915759E-09
 -4.97170731E-09 -2.51949486E-03 -1.92920904E-08 -5.51922668E-14  4.36389311E-03
 -2.17939152E-08 -1.91637426E-02 -3.18987756E-02 -1.70182615E-01  9.73621178E-07
  9.80834430E-07  9.42271816E-02 -2.46306514E-01  1.30632433E-06  1.31490329E-06
  9.79627010E-02 -1.30057557E-01  7.36052371E-07  7.42248845E-07  1.15342544E-03
 -1.43870483E-03  2.31743865E-08  2.38033566E-08 -2.51976146E-03  1.32873501E-07
 -1.63314838E-12  4.36435488E-03  1.30400090E-07 -1.15162844E-01 -1.71708798E-01
 -5.13890455E-02 -1.61818065E-02 -1.47102052E-07 -1.45183577E-07 -1.15159193E-01
 -1.71698432E-01 -5.13871279E-02  1.61812030E-02 -2.29690410E-07 -2.31538800E-07
 -1.06254783E-08 -1.28359348E-08 -1.61679334E-06  1.27827014E-01  1.29063901E-01
 -3.67664895E-08 -2.59701609E-06  1.99754302E-01  2.01687177E-01  5.39059361E-07
 -1.52788092E-06  1.95863096E-01  1.97758318E-01  7.02389253E-07 -1.23323034E-07
  2.75413148E-02  2.78078118E-02  1.84237467E-08  7.79008583E-03  2.11156373E-08
 -2.92301892E-08  7.71542932E-03 -3.79737314E-07 -6.33342513E-07  1.57510621E-06
  1.27827176E-01  1.29064065E-01  1.84628291E-06  2.73666264E-06  1.99754763E-01
  2.01687642E-01  2.98326182E-06  2.37915918E-06  1.95863399E-01  1.97758624E-01
 -1.83682109E-07  6.38216786E-07  2.75408382E-02  2.78073305E-02 -3.85147044E-09
 -7.79011276E-03 -8.88939000E-08  3.34516992E-09 -7.71545600E-03  8.03654015E-09
  2.81882265E-07  5.24592708E-07 -1.92403444E-07  1.24028301E-02  1.25228431E-02
 -4.79625467E-07 -8.63237183E-07 -2.93791447E-07  3.97933884E-07  1.24034825E-02
  1.25235019E-02 -4.19912392E-09 -7.03464655E-09 -7.44602393E-09  1.29063901E-01
 -1.27827014E-01  2.09770730E-08 -1.42871945E-08  2.01687177E-01 -1.99754302E-01
  3.01492234E-08 -1.70124529E-08  1.97758318E-01 -1.95863096E-01 -6.33791571E-09
 -6.32331799E-09  2.78078118E-02 -2.75413148E-02 -1.82403949E-08 -7.71542932E-03
  1.34008780E-09 -1.02165885E-08  7.79008583E-03  2.28325665E-09  3.86321929E-09
  8.21959198E-09  1.29064065E-01 -1.27827176E-01 -1.20962614E-08  1.18897650E-08
  2.01687642E-01 -1.99754763E-01 -1.28624945E-08  2.16275334E-09  1.97758624E-01
 -1.95863399E-01  8.88375090E-09 -2.58606987E-09  2.78073305E-02 -2.75408382E-02
  7.74724079E-08  7.71545600E-03 -1.66012025E-09  4.42457028E-08 -7.79011276E-03
 -5.43752703E-09 -1.14904505E-08 -6.63673672E-09 -3.24971347E-09  1.25228431E-02
 -1.24028301E-02  3.12295924E-09  8.63699886E-09  7.76900626E-09 -3.52583718E-10
  1.25235019E-02 -1.24034825E-02 -2.86781525E-06 -4.80022685E-06  3.25959058E-06
  1.36892736E-01  1.36903239E-01  1.44406747E-05  4.30306707E-06  2.06429322E-01
  2.06445160E-01  2.67764700E-05 -2.93537441E-06  2.66636028E-01  2.66656484E-01
  6.21288232E-05  2.51455550E-05  2.15734006E-01  2.15750557E-01  6.23773988E-07
 -1.69224251E-02 -5.81439969E-09 -1.07776377E-06 -1.69211269E-02  2.98240849E-06
  4.99090529E-06  2.49465282E-06 -1.36892444E-01 -1.36902946E-01 -1.49083552E-05
  3.03369036E-06 -2.06429038E-01 -2.06444875E-01 -2.86273222E-05 -4.58705289E-06
 -2.66635719E-01 -2.66656175E-01 -6.33105410E-05  2.42331183E-05 -2.15732852E-01
 -2.15749404E-01 -6.01716682E-07 -1.69223886E-02  1.23097025E-07  1.04483414E-06
 -1.69210904E-02 -4.48600712E-06 -1.25998105E-05 -1.52139566E-05 -8.99404134E-08
  1.89911977E-02  1.89926548E-02  4.84356703E-06  1.35327463E-05  1.63426216E-05
 -2.23596622E-07 -1.89914784E-02 -1.89929354E-02 -1.66243752E-09 -2.77011485E-09
 -8.14854906E-09  1.36903239E-01 -1.36892736E-01  7.14542124E-09 -1.36721292E-08
  2.06445160E-01 -2.06429323E-01  2.42611283E-08 -1.89019882E-08  2.66656484E-01
 -2.66636028E-01  2.14106881E-08 -6.90318967E-09  2.15750557E-01 -2.15734006E-01
  5.09824936E-09  1.69211269E-02  1.32072526E-09  3.27191581E-09 -1.69224251E-02
 -8.93122838E-10 -1.48263918E-09  8.90510507E-09 -1.36902946E-01  1.36892444E-01
  3.28613685E-09  1.46369672E-08 -2.06444875E-01  2.06429038E-01  1.69760227E-08
  1.79131614E-08 -2.66656176E-01  2.66635720E-01  4.91162525E-09  1.33987521E-08
 -2.15749404E-01  2.15732853E-01 -1.07229417E-07  1.69210904E-02  1.31366134E-09
 -6.12083349E-08 -1.69223886E-02 -4.59271197E-09 -1.21136180E-08 -1.46484503E-08
 -1.51047180E-09  1.89926548E-02 -1.89911978E-02 -3.36595526E-09 -8.67736109E-09
 -1.04984873E-08  1.46939732E-09 -1.89929354E-02  1.89914784E-02  6.38753831E-02
  1.07110102E-01 -8.24941019E-02  5.08124005E-06  5.07219597E-06 -3.23279137E-01
 -1.03548523E-01  7.70001764E-06  7.68301207E-06 -6.46633599E-01 -1.25609016E-01
  1.11923340E-05  1.11673020E-05 -3.48532770E+00 -1.56665683E+00  9.04083141E-06
  9.03634397E-06 -1.57923669E-02 -6.59128157E-07 -1.66944775E-12  2.73531819E-02
 -6.56547068E-07 -6.38724101E-02 -1.07105285E-01 -8.25072239E-02 -5.43309511E-06
 -5.44017944E-06  3.23264861E-01 -1.03565380E-01 -8.37664861E-06 -8.39065805E-06
  6.46608828E-01 -1.25634962E-01 -1.21918569E-05 -1.22125310E-05  3.48538503E+00
 -1.56658293E+00 -9.16225214E-06 -9.16335351E-06  1.57918438E-02 -5.36078460E-07
  3.18838780E-12 -2.73522757E-02 -5.38882350E-07  8.65782037E-02  2.42520560E-01
  2.07470616E-01 -1.00975087E-02  8.33297123E-07  8.31652179E-07 -8.65737146E-02
 -2.42498020E-01 -2.07470422E-01 -1.00946177E-02 -8.98211775E-07 -8.99534424E-07
  1.80416119E-02  3.12513669E-02  3.21226316E-02  1.31162809E-07  1.31509965E-07
 -1.08334022E-01  6.71201048E-02  3.60874971E-07  3.58159559E-07 -9.03088393E-02
  3.20856426E-02 -3.39442245E-08 -2.50561416E-08  1.10957981E+00 -9.99585906E-01
 -1.04234406E-06 -9.40083484E-07  7.15151121E-03 -1.47676121E-07 -1.81300602E-12
 -1.23867808E-02 -1.49183556E-07  1.80454595E-02  3.12581186E-02 -3.21182276E-02
  1.15159173E-07  1.14766377E-07 -1.08358529E-01 -6.71207764E-02  4.76707812E-07
  4.79268304E-07 -9.03290319E-02 -3.20408994E-02 -4.21079286E-07 -4.29883581E-07
  1.10920875E+00  9.99809152E-01 -5.49746114E-06 -5.59850635E-06  7.15148513E-03
  2.15294297E-07 -2.39140650E-12 -1.23867356E-02  2.13854352E-07 -2.52952322E-02
  1.03149810E-01 -6.85809584E-01 -7.10998932E-03 -2.30845026E-08 -2.21141242E-08
 -2.52933937E-02  1.03163436E-01 -6.85878028E-01  7.10906402E-03 -6.51761857E-08
 -6.61299529E-08 -2.44600196E-02 -3.99648997E-02  8.51976383E-02 -1.09499959E-06
 -1.09257418E-06  9.43499796E-02  1.39734578E-01 -1.54478358E-06 -1.54042150E-06
  5.28439422E-01 -9.99228337E-02 -4.02833122E-06 -4.00798078E-06 -4.49772228E+00
 -2.75258267E+00 -1.60042000E-05 -1.59588703E-05  1.32479617E-02  1.38579954E-07
  7.37652089E-14 -2.29461427E-02  1.36160894E-07  2.44603260E-02  3.99655143E-02
  8.51996193E-02  1.19147004E-06  1.19346927E-06 -9.43514451E-02  1.39735327E-01
  1.72155904E-06  1.72531267E-06 -5.28465467E-01 -9.99280695E-02  4.88351199E-06
  4.90220285E-06  4.49781672E+00 -2.75248734E+00  1.78509569E-05  1.78899777E-05
 -1.32468749E-02  2.72115343E-08  1.08860094E-12  2.29442604E-02  2.96613169E-08
 -7.68695145E-02 -1.21201675E-01 -1.04674491E+00 -1.08800215E-02 -4.09029144E-07
 -4.06851870E-07  7.68647881E-02  1.21208906E-01  1.04667647E+00 -1.08795083E-02
  5.00667643E-07  5.02675572E-07  7.78429217E-08  1.35619479E-07  2.20940173E-07
 -5.63712023E-02 -5.56578410E-02 -5.86112109E-07  1.38511226E-07 -4.91278216E-02
 -4.85061233E-02  9.87377714E-07  1.03448978E-06 -2.49021495E-01 -2.45870200E-01
  1.74278314E-05 -3.32587534E-07  4.81549017E-01  4.75455153E-01 -5.68478474E-08
 -2.21252578E-03  3.29344507E-09  9.74028883E-08 -2.24088351E-03  3.85421833E-08
  6.98453790E-08 -3.43992892E-07 -5.63692605E-02 -5.56559238E-02 -4.39285743E-07
 -3.64466204E-07 -4.91258046E-02 -4.85041318E-02  2.44879544E-06  1.15245130E-06
 -2.49014487E-01 -2.45863281E-01 -9.62883292E-06  1.27405945E-05  4.81525225E-01
  4.75431663E-01 -5.04629804E-08  2.21244556E-03  4.83949324E-08  8.77939237E-08
  2.24080226E-03  1.61163550E-07 -2.70864506E-07 -1.53006311E-06 -1.40541916E-08
  2.45214841E-03  2.42111718E-03  1.67716923E-07 -1.40476804E-06 -4.65379041E-06
  2.15649694E-08  2.45166328E-03  2.42063819E-03  9.30649538E-10  1.59091461E-09
  4.94953389E-12  5.56578410E-02 -5.63712023E-02 -5.33169035E-09 -1.66896541E-09
  4.85061232E-02 -4.91278216E-02 -1.02053050E-08  3.09845000E-08  2.45870200E-01
 -2.49021495E-01  4.12773924E-07  1.37053511E-07 -4.75455153E-01  4.81549016E-01
  2.51448593E-09 -2.24088351E-03  5.29067683E-10  2.42221492E-09  2.21252578E-03
 -2.00337291E-10 -3.01667417E-10 -3.54002456E-09  5.56559238E-02 -5.63692605E-02
 -1.10216709E-09 -4.82509852E-09  4.85041318E-02 -4.91258046E-02  3.17659520E-08
  3.17246372E-08  2.45863281E-01 -2.49014487E-01 -3.63840887E-07  2.19079017E-07
 -4.75431663E-01  4.81525225E-01  4.17851939E-08  2.24080227E-03 -1.95120836E-10
  2.47051775E-08 -2.21244556E-03  9.41451684E-10  1.10109012E-08  2.54119478E-08
 -5.53462902E-12 -2.42111718E-03  2.45214841E-03  1.12247874E-09 -2.15254352E-08
 -6.42104533E-08  2.18034629E-10 -2.42063819E-03  2.45166328E-03 -7.41820258E-03
 -1.17003063E-02  6.76824042E-02  1.91612472E-07  1.86623221E-07  1.99621607E-02
  4.53603490E-02  9.49580937E-08  9.11188371E-08  2.07193060E-01  3.20899984E-01
  1.17770095E-06  1.15131627E-06 -4.79161534E-01 -8.30444514E-01 -5.01992435E-07
 -5.26420686E-07 -1.56626336E-02  2.07401575E-07  1.80289953E-12  2.71284772E-02
  2.08431632E-07 -7.41507854E-03 -1.16952686E-02 -6.76717801E-02  4.08580382E-07
  4.13458015E-07  1.99497946E-02 -4.53420081E-02  2.62696501E-07  2.66469094E-07
  2.07137020E-01 -3.20879917E-01  2.32293851E-06  2.34867317E-06 -4.79324825E-01
  8.30502081E-01  5.55114754E-07  5.79532895E-07 -1.56645682E-02 -2.52724127E-07
  2.57873738E-12  2.71318280E-02 -2.51779363E-07  2.74219898E-02  6.74467443E-02
  4.49490734E-01 -2.65531244E-02 -9.46572575E-08 -9.44322792E-08  2.74233141E-02
  6.74494310E-02  4.49519557E-01  2.65551653E-02 -1.03745109E-07 -1.03933263E-07
  1.85427889E-07  2.98651943E-07 -6.29351245E-07  7.07085834E-02  6.85302990E-02
 -4.49115334E-07 -5.25751633E-07  6.90271217E-02  6.69006373E-02 -6.92090355E-06
 -3.42484216E-06  3.20503889E-01  3.10630284E-01  7.12572337E-05  3.00855382E-05
 -1.24091211E+00 -1.20268395E+00 -4.08286823E-09 -1.74858623E-03 -9.36258697E-09