 Entering Gaussian System, Link 0=g16
 Initial command:
 /home/szhao/Apps/g16/l1.exe "/home/szhao/tmp/Gau-191028.inp" -scrdir="/home/szhao/tmp/"
 Default is to use a total of  16 processors:
                               16 via shared-memory
                                1 via Linda
 Entering Link 1 = /home/szhao/Apps/g16/l1.exe PID=    191036.
  
 Copyright (c) 1988,1990,1992,1993,1995,1998,2003,2009,2016,
            Gaussian, Inc.  All Rights Reserved.
  
 This is part of the Gaussian(R) 16 program.  It is based on
 the Gaussian(R) 09 system (copyright 2009, Gaussian, Inc.),
 the Gaussian(R) 03 system (copyright 2003, Gaussian, Inc.),
 the Gaussian(R) 98 system (copyright 1998, Gaussian, Inc.),
 the Gaussian(R) 94 system (copyright 1995, Gaussian, Inc.),
 the Gaussian 92(TM) system (copyright 1992, Gaussian, Inc.),
 the Gaussian 90(TM) system (copyright 1990, Gaussian, Inc.),
 the Gaussian 88(TM) system (copyright 1988, Gaussian, Inc.),
 the Gaussian 86(TM) system (copyright 1986, Carnegie Mellon
 University), and the Gaussian 82(TM) system (copyright 1983,
 Carnegie Mellon University). Gaussian is a federally registered
 trademark of Gaussian, Inc.
  
 This software contains proprietary and confidential information,
 including trade secrets, belonging to Gaussian, Inc.
  
 This software is provided under written license and may be
 used, copied, transmitted, or stored only in accord with that
 written license.
  
 The following legend is applicable only to US Government
 contracts under FAR:
  
                    RESTRICTED RIGHTS LEGEND
  
 Use, reproduction and disclosure by the US Government is
 subject to restrictions as set forth in subparagraphs (a)
 and (c) of the Commercial Computer Software - Restricted
 Rights clause in FAR 52.227-19.
  
 Gaussian, Inc.
 340 Quinnipiac St., Bldg. 40, Wallingford CT 06492
  
  
 ---------------------------------------------------------------
 Warning -- This program may not be used in any manner that
 competes with the business of Gaussian, Inc. or will provide
 assistance to any competitor of Gaussian, Inc.  The licensee
 of this program is prohibited from giving any competitor of
 Gaussian, Inc. access to this program.  By using this program,
 the user acknowledges that Gaussian, Inc. is engaged in the
 business of creating and licensing software in the field of
 computational chemistry and represents and warrants to the
 licensee that it is not a competitor of Gaussian, Inc. and that
 it will not use this program in any manner prohibited above.
 ---------------------------------------------------------------
  

 Cite this work as:
 Gaussian 16, Revision A.03,
 M. J. Frisch, G. W. Trucks, H. B. Schlegel, G. E. Scuseria, 
 M. A. Robb, J. R. Cheeseman, G. Scalmani, V. Barone, 
 G. A. Petersson, H. Nakatsuji, X. Li, M. Caricato, A. V. Marenich, 
 J. Bloino, B. G. Janesko, R. Gomperts, B. Mennucci, H. P. Hratchian, 
 J. V. Ortiz, A. F. Izmaylov, J. L. Sonnenberg, D. Williams-Young, 
 F. Ding, F. Lipparini, F. Egidi, J. Goings, B. Peng, A. Petrone, 
 T. Henderson, D. Ranasinghe, V. G. Zakrzewski, J. Gao, N. Rega, 
 G. Zheng, W. Liang, M. Hada, M. Ehara, K. Toyota, R. Fukuda, 
 J. Hasegawa, M. Ishida, T. Nakajima, Y. Honda, O. Kitao, H. Nakai, 
 T. Vreven, K. Throssell, J. A. Montgomery, Jr., J. E. Peralta, 
 F. Ogliaro, M. J. Bearpark, J. J. Heyd, E. N. Brothers, K. N. Kudin, 
 V. N. Staroverov, T. A. Keith, R. Kobayashi, J. Normand, 
 K. Raghavachari, A. P. Rendell, J. C. Burant, S. S. Iyengar, 
 J. Tomasi, M. Cossi, J. M. Millam, M. Klene, C. Adamo, R. Cammi, 
 J. W. Ochterski, R. L. Martin, K. Morokuma, O. Farkas, 
 J. B. Foresman, and D. J. Fox, Gaussian, Inc., Wallingford CT, 2016.
 
 ******************************************
 Gaussian 16:  ES64L-G16RevA.03 25-Dec-2016
                21-Apr-2025 
 ******************************************
 %chk=opt.chk
 %mem=4GB
 %nprocshared=8
 Will use up to    8 processors via shared memory.
 --------------------------------------------
 #p opt UM062X/6-311+G** nosymm int=superfine
 --------------------------------------------
 1/18=20,19=15,26=5,38=1/1,3;
 2/9=110,12=2,15=1,17=6,18=5,40=1/2;
 3/5=4,6=6,7=111,11=2,25=1,30=1,71=1,74=-55,75=-7,116=2/1,2,3;
 4//1;
 5/5=2,38=5/2;
 6/7=2,8=2,9=2,10=2,28=1/1;
 7/30=1/1,2,3,16;
 1/18=20,19=15,26=5/3(2);
 2/9=110,15=1/2;
 99//99;
 2/9=110,15=1/2;
 3/5=4,6=6,7=111,11=2,25=1,30=1,71=1,74=-55,75=-7,116=2/1,2,3;
 4/5=5,16=3,69=1/1;
 5/5=2,38=5/2;
 7/30=1/1,2,3,16;
 1/18=20,19=15,26=5/3(-5);
 2/9=110,15=1/2;
 6/7=2,8=2,9=2,10=2,19=2,28=1/1;
 99/9=1/99;
 Leave Link    1 at Mon Apr 21 20:28:47 2025, MaxMem=   536870912 cpu:               2.0 elap:               0.4
 (Enter /home/szhao/Apps/g16/l101.exe)
 -------------------
 Title Card Required
 -------------------
 Symbolic Z-matrix:
 Charge =  0 Multiplicity = 1
 Si                   -1   -1.18752   0.        0. 
 Si                   -1    1.18752   0.        0. 
 H                    0    -1.96841  -1.24877   0. 
 H                    0     1.96841   1.24877  -0.00078 
 H                    0    -1.96842   1.24878   0.00014 
 H                    0     1.96842  -1.24878   0.00093 
 
 ITRead=  2  2  0  0  0  0
 MicOpt= -2 -2 -1 -1 -1 -1
 NAtoms=      6 NQM=        4 NQMF=       2 NMMI=      0 NMMIF=      0
                NMic=       0 NMicF=      0.
                    Isotopes and Nuclear Properties:
 (Nuclear quadrupole moments (NQMom) in fm**2, nuclear magnetic moments (NMagM)
  in nuclear magnetons)

  Atom         1           2           3           4           5           6
 IAtWgt=          28          28           1           1           1           1
 AtmWgt=  27.9769284  27.9769284   1.0078250   1.0078250   1.0078250   1.0078250
 NucSpn=           0           0           1           1           1           1
 AtZEff=  -0.0000000  -0.0000000  -0.0000000  -0.0000000  -0.0000000  -0.0000000
 NQMom=    0.0000000   0.0000000   0.0000000   0.0000000   0.0000000   0.0000000
 NMagM=    0.0000000   0.0000000   2.7928460   2.7928460   2.7928460   2.7928460
 AtZNuc=  14.0000000  14.0000000   1.0000000   1.0000000   1.0000000   1.0000000
 Leave Link  101 at Mon Apr 21 20:28:48 2025, MaxMem=   536870912 cpu:               3.5 elap:               0.5
 (Enter /home/szhao/Apps/g16/l103.exe)

 GradGradGradGradGradGradGradGradGradGradGradGradGradGradGradGradGradGrad
 Berny optimization.
 Initialization pass.
                           ----------------------------
                           !    Initial Parameters    !
                           ! (Angstroms and Degrees)  !
 --------------------------                            --------------------------
 ! Name  Definition              Value          Derivative Info.                !
 --------------------------------------------------------------------------------
 ! X1    R(1,-1)                -1.1875         Frozen                          !
 ! Y1    R(1,-2)                 0.0            Frozen                          !
 ! Z1    R(1,-3)                 0.0            Frozen                          !
 ! X2    R(2,-1)                 1.1875         Frozen                          !
 ! Y2    R(2,-2)                 0.0            Frozen                          !
 ! Z2    R(2,-3)                 0.0            Frozen                          !
 ! R1    R(1,3)                  1.4728         estimate D2E/DX2                !
 ! R2    R(1,5)                  1.4728         estimate D2E/DX2                !
 ! R3    R(2,4)                  1.4728         estimate D2E/DX2                !
 ! R4    R(2,6)                  1.4728         estimate D2E/DX2                !
 ! A1    A(2,1,3)              122.019          estimate D2E/DX2                !
 ! A2    A(2,1,5)              122.0192         estimate D2E/DX2                !
 ! A3    A(3,1,5)              115.9618         estimate D2E/DX2                !
 ! A4    A(1,2,4)              122.019          estimate D2E/DX2                !
 ! A5    A(1,2,6)              122.0192         estimate D2E/DX2                !
 ! A6    A(4,2,6)              115.9617         estimate D2E/DX2                !
 ! D1    D(3,1,2,4)            179.9641         estimate D2E/DX2                !
 ! D2    D(3,1,2,6)             -0.0424         estimate D2E/DX2                !
 ! D3    D(5,1,2,4)             -0.0424         estimate D2E/DX2                !
 ! D4    D(5,1,2,6)            179.951          estimate D2E/DX2                !
 --------------------------------------------------------------------------------
 Trust Radius=3.00D-01 FncErr=1.00D-07 GrdErr=1.00D-07 EigMax=2.50D+02 EigMin=1.00D-04
 Number of steps in this run=     30 maximum allowed number of steps=    100.
 GradGradGradGradGradGradGradGradGradGradGradGradGradGradGradGradGradGrad

 Leave Link  103 at Mon Apr 21 20:28:48 2025, MaxMem=   536870912 cpu:               0.4 elap:               0.1
 (Enter /home/szhao/Apps/g16/l202.exe)
                          Input orientation:                          
 ---------------------------------------------------------------------
 Center     Atomic      Atomic             Coordinates (Angstroms)
 Number     Number       Type             X           Y           Z
 ---------------------------------------------------------------------
      1         14           0       -1.187518    0.000000    0.000000
      2         14           0        1.187518    0.000000    0.000000
      3          1           0       -1.968412   -1.248769    0.000000
      4          1           0        1.968412    1.248768   -0.000783
      5          1           0       -1.968423    1.248777    0.000142
      6          1           0        1.968423   -1.248776    0.000925
 ---------------------------------------------------------------------
                    Distance matrix (angstroms):
                    1          2          3          4          5
     1  Si   0.000000
     2  Si   2.375036   0.000000
     3  H    1.472827   3.394012   0.000000
     4  H    3.394012   1.472827   4.662219   0.000000
     5  H    1.472839   3.394025   2.497546   3.936835   0.000000
     6  H    3.394025   1.472839   3.936835   2.497545   4.662244
                    6
     6  H    0.000000
 Symmetry turned off by external request.
 Stoichiometry    H4Si2
 Framework group  C2[X(H4Si2)]
 Deg. of freedom     7
 Full point group                 C2      NOp   2
 Rotational constants (GHZ):          80.3906046           5.3464538           5.0130559
 Leave Link  202 at Mon Apr 21 20:28:48 2025, MaxMem=   536870912 cpu:               0.0 elap:               0.0
 (Enter /home/szhao/Apps/g16/l301.exe)
 Standard basis: 6-311+G(d,p) (5D, 7F)
 Ernie: Thresh=  0.10000D-02 Tol=  0.10000D-05 Strict=F.
    84 basis functions,   132 primitive gaussians,    86 cartesian basis functions
    16 alpha electrons       16 beta electrons
       nuclear repulsion energy        73.4415564276 Hartrees.
 IExCor= 4336 DFT=T Ex+Corr=M062X ExCW=0 ScaHFX=  0.540000
 ScaDFX=  1.000000  1.000000  1.000000  1.000000 ScalE2=  1.000000  1.000000
 IRadAn=      7 IRanWt=     -1 IRanGd=            0 ICorTp=0 IEmpDi=  4
 NAtoms=    6 NActive=    6 NUniq=    6 SFac= 1.00D+00 NAtFMM=   60 NAOKFM=F Big=F
 Integral buffers will be    131072 words long.
 Raffenetti 2 integral format.
 Two-electron integral symmetry is turned off.
 Leave Link  301 at Mon Apr 21 20:28:49 2025, MaxMem=   536870912 cpu:               1.8 elap:               0.3
 (Enter /home/szhao/Apps/g16/l302.exe)
 NPDir=0 NMtPBC=     1 NCelOv=     1 NCel=       1 NClECP=     1 NCelD=      1
         NCelK=      1 NCelE2=     1 NClLst=     1 CellRange=     0.0.
 One-electron integrals computed using PRISM.
 NBasis=    84 RedAO= T EigKep=  1.75D-03  NBF=    84
 NBsUse=    84 1.00D-06 EigRej= -1.00D+00 NBFU=    84
 Precomputing XC quadrature grid using
 IXCGrd= 4 IRadAn=           7 IRanWt=          -1 IRanGd=           0 AccXCQ= 0.00D+00.
 Generated NRdTot=       0 NPtTot=           0 NUsed=           0 NTot=          32
 NSgBfM=    84    84    84    84    84 MxSgAt=     6 MxSgA2=     6.
 Leave Link  302 at Mon Apr 21 20:28:49 2025, MaxMem=   536870912 cpu:               2.1 elap:               0.3
 (Enter /home/szhao/Apps/g16/l303.exe)
 DipDrv:  MaxL=1.
 Leave Link  303 at Mon Apr 21 20:28:50 2025, MaxMem=   536870912 cpu:               0.4 elap:               0.1
 (Enter /home/szhao/Apps/g16/l401.exe)
 ExpMin= 3.31D-02 ExpMax= 6.94D+04 ExpMxC= 2.33D+03 IAcc=3 IRadAn=         7 AccDes= 0.00D+00
 Harris functional with IExCor= 1009 and IRadAn=       7 diagonalized for initial guess.
 HarFok:  IExCor= 1009 AccDes= 0.00D+00 IRadAn=         7 IDoV= 1 UseB2=F ITyADJ=14
 ICtDFT=  3500011 ScaDFX=  1.000000  1.000000  1.000000  1.000000
 FoFCou: FMM=F IPFlag=           0 FMFlag=      100000 FMFlg1=           0
         NFxFlg=           0 DoJE=T BraDBF=F KetDBF=T FulRan=T
         wScrn=  0.000000 ICntrl=       500 IOpCl=  0 I1Cent=   200000004 NGrid=           0
         NMat0=    1 NMatS0=      1 NMatT0=    0 NMatD0=    1 NMtDS0=    0 NMtDT0=    0
 Symmetry not used in FoFCou.
 Harris En= -580.940126624145    
 JPrj=0 DoOrth=F DoCkMO=F.
 Initial guess <Sx>= 0.0000 <Sy>= 0.0000 <Sz>= 0.0000 <S**2>=-0.0000 S=-0.0000
 Leave Link  401 at Mon Apr 21 20:28:50 2025, MaxMem=   536870912 cpu:               4.8 elap:               0.7
 (Enter /home/szhao/Apps/g16/l502.exe)
 Keep R1 and R2 ints in memory in canonical form, NReq=20057634.
 FoFCou: FMM=F IPFlag=           0 FMFlag=           0 FMFlg1=           0
         NFxFlg=           0 DoJE=F BraDBF=F KetDBF=F FulRan=T
         wScrn=  0.000000 ICntrl=       600 IOpCl=  0 I1Cent=           0 NGrid=           0
         NMat0=    1 NMatS0=   3570 NMatT0=    0 NMatD0=    1 NMtDS0=    0 NMtDT0=    0
 Symmetry not used in FoFCou.
 Two-electron integral symmetry not used.
 UHF open shell SCF:
 Using DIIS extrapolation, IDIIS=  1040.
 NGot=   536870912 LenX=   524106186 LenY=   524098349
 Requested convergence on RMS density matrix=1.00D-08 within 128 cycles.
 Requested convergence on MAX density matrix=1.00D-06.
 Requested convergence on             energy=1.00D-06.
 No special actions if energy rises.

 Cycle   1  Pass 1  IDiag  1:
 E= -581.238904396893    
 DIIS: error= 2.84D-02 at cycle   1 NSaved=   1.
 NSaved= 1 IEnMin= 1 EnMin= -581.238904396893     IErMin= 1 ErrMin= 2.84D-02
 ErrMax= 2.84D-02  0.00D+00 EMaxC= 1.00D-01 BMatC= 1.66D-01 BMatP= 1.66D-01
 IDIUse=3 WtCom= 7.16D-01 WtEn= 2.84D-01
 Coeff-Com:  0.100D+01
 Coeff-En:   0.100D+01
 Coeff:      0.100D+01
 Gap=     0.183 Goal=   None    Shift=    0.000
 Gap=     0.183 Goal=   None    Shift=    0.000
 GapD=    0.183 DampG=1.000 DampE=0.500 DampFc=0.5000 IDamp=-1.
 Damping current iteration by 5.00D-01
 RMSDP=1.51D-03 MaxDP=2.16D-02              OVMax= 4.18D-02

 Cycle   2  Pass 1  IDiag  1:
 E= -581.247364227951     Delta-E=       -0.008459831058 Rises=F Damp=T
 DIIS: error= 1.44D-02 at cycle   2 NSaved=   2.
 NSaved= 2 IEnMin= 2 EnMin= -581.247364227951     IErMin= 2 ErrMin= 1.44D-02
 ErrMax= 1.44D-02  0.00D+00 EMaxC= 1.00D-01 BMatC= 3.49D-02 BMatP= 1.66D-01
 IDIUse=3 WtCom= 8.56D-01 WtEn= 1.44D-01
 Coeff-Com: -0.716D+00 0.172D+01
 Coeff-En:   0.000D+00 0.100D+01
 Coeff:     -0.613D+00 0.161D+01
 Gap=     0.178 Goal=   None    Shift=    0.000
 Gap=     0.178 Goal=   None    Shift=    0.000
 RMSDP=6.45D-04 MaxDP=6.94D-03 DE=-8.46D-03 OVMax= 1.29D-02

 Cycle   3  Pass 1  IDiag  1:
 E= -581.255111496634     Delta-E=       -0.007747268683 Rises=F Damp=F
 DIIS: error= 8.85D-04 at cycle   3 NSaved=   3.
 NSaved= 3 IEnMin= 3 EnMin= -581.255111496634     IErMin= 3 ErrMin= 8.85D-04
 ErrMax= 8.85D-04  0.00D+00 EMaxC= 1.00D-01 BMatC= 4.54D-04 BMatP= 3.49D-02
 IDIUse=3 WtCom= 9.91D-01 WtEn= 8.85D-03
 Coeff-Com: -0.157D+00 0.306D+00 0.851D+00
 Coeff-En:   0.000D+00 0.000D+00 0.100D+01
 Coeff:     -0.155D+00 0.303D+00 0.852D+00
 Gap=     0.179 Goal=   None    Shift=    0.000
 Gap=     0.179 Goal=   None    Shift=    0.000
 RMSDP=1.25D-04 MaxDP=3.40D-03 DE=-7.75D-03 OVMax= 3.96D-03

 Cycle   4  Pass 1  IDiag  1:
 E= -581.255190859641     Delta-E=       -0.000079363007 Rises=F Damp=F
 DIIS: error= 2.09D-04 at cycle   4 NSaved=   4.
 NSaved= 4 IEnMin= 4 EnMin= -581.255190859641     IErMin= 4 ErrMin= 2.09D-04
 ErrMax= 2.09D-04  0.00D+00 EMaxC= 1.00D-01 BMatC= 5.94D-06 BMatP= 4.54D-04
 IDIUse=3 WtCom= 9.98D-01 WtEn= 2.09D-03
 Coeff-Com: -0.202D-01 0.376D-01 0.171D+00 0.812D+00
 Coeff-En:   0.000D+00 0.000D+00 0.000D+00 0.100D+01
 Coeff:     -0.201D-01 0.375D-01 0.171D+00 0.812D+00
 Gap=     0.179 Goal=   None    Shift=    0.000
 Gap=     0.179 Goal=   None    Shift=    0.000
 RMSDP=2.22D-05 MaxDP=6.65D-04 DE=-7.94D-05 OVMax= 8.36D-04

 Cycle   5  Pass 1  IDiag  1:
 E= -581.255193386052     Delta-E=       -0.000002526411 Rises=F Damp=F
 DIIS: error= 3.06D-05 at cycle   5 NSaved=   5.
 NSaved= 5 IEnMin= 5 EnMin= -581.255193386052     IErMin= 5 ErrMin= 3.06D-05
 ErrMax= 3.06D-05  0.00D+00 EMaxC= 1.00D-01 BMatC= 1.74D-07 BMatP= 5.94D-06
 IDIUse=1 WtCom= 1.00D+00 WtEn= 0.00D+00
 Coeff-Com:  0.627D-03-0.140D-02-0.836D-02 0.933D-01 0.916D+00
 Coeff:      0.627D-03-0.140D-02-0.836D-02 0.933D-01 0.916D+00
 Gap=     0.179 Goal=   None    Shift=    0.000
 Gap=     0.179 Goal=   None    Shift=    0.000
 RMSDP=3.24D-06 MaxDP=4.85D-05 DE=-2.53D-06 OVMax= 1.21D-04

 Cycle   6  Pass 1  IDiag  1:
 E= -581.255193456800     Delta-E=       -0.000000070748 Rises=F Damp=F
 DIIS: error= 3.41D-06 at cycle   6 NSaved=   6.
 NSaved= 6 IEnMin= 6 EnMin= -581.255193456800     IErMin= 6 ErrMin= 3.41D-06
 ErrMax= 3.41D-06  0.00D+00 EMaxC= 1.00D-01 BMatC= 1.84D-09 BMatP= 1.74D-07
 IDIUse=1 WtCom= 1.00D+00 WtEn= 0.00D+00
 Coeff-Com:  0.404D-03-0.722D-03-0.360D-02-0.271D-01-0.984D-01 0.113D+01
 Coeff:      0.404D-03-0.722D-03-0.360D-02-0.271D-01-0.984D-01 0.113D+01
 Gap=     0.179 Goal=   None    Shift=    0.000
 Gap=     0.179 Goal=   None    Shift=    0.000
 RMSDP=7.33D-07 MaxDP=1.13D-05 DE=-7.07D-08 OVMax= 3.26D-05

 Cycle   7  Pass 1  IDiag  1:
 E= -581.255193458412     Delta-E=       -0.000000001612 Rises=F Damp=F
 DIIS: error= 5.06D-07 at cycle   7 NSaved=   7.
 NSaved= 7 IEnMin= 7 EnMin= -581.255193458412     IErMin= 7 ErrMin= 5.06D-07
 ErrMax= 5.06D-07  0.00D+00 EMaxC= 1.00D-01 BMatC= 7.47D-11 BMatP= 1.84D-09
 IDIUse=1 WtCom= 1.00D+00 WtEn= 0.00D+00
 Coeff-Com:  0.898D-04-0.166D-03-0.391D-03-0.488D-02-0.333D-01 0.171D+00
 Coeff-Com:  0.868D+00
 Coeff:      0.898D-04-0.166D-03-0.391D-03-0.488D-02-0.333D-01 0.171D+00
 Coeff:      0.868D+00
 Gap=     0.179 Goal=   None    Shift=    0.000
 Gap=     0.179 Goal=   None    Shift=    0.000
 RMSDP=7.66D-08 MaxDP=1.42D-06 DE=-1.61D-09 OVMax= 3.85D-06

 Cycle   8  Pass 1  IDiag  1:
 E= -581.255193458438     Delta-E=       -0.000000000026 Rises=F Damp=F
 DIIS: error= 1.04D-07 at cycle   8 NSaved=   8.
 NSaved= 8 IEnMin= 8 EnMin= -581.255193458438     IErMin= 8 ErrMin= 1.04D-07
 ErrMax= 1.04D-07  0.00D+00 EMaxC= 1.00D-01 BMatC= 2.33D-12 BMatP= 7.47D-11
 IDIUse=1 WtCom= 1.00D+00 WtEn= 0.00D+00
 Coeff-Com: -0.493D-05 0.881D-05 0.616D-04 0.404D-03 0.515D-03-0.192D-01
 Coeff-Com:  0.449D-01 0.973D+00
 Coeff:     -0.493D-05 0.881D-05 0.616D-04 0.404D-03 0.515D-03-0.192D-01
 Coeff:      0.449D-01 0.973D+00
 Gap=     0.179 Goal=   None    Shift=    0.000
 Gap=     0.179 Goal=   None    Shift=    0.000
 RMSDP=2.59D-08 MaxDP=7.19D-07 DE=-2.58D-11 OVMax= 1.72D-06

 Cycle   9  Pass 1  IDiag  1:
 E= -581.255193458439     Delta-E=       -0.000000000001 Rises=F Damp=F
 DIIS: error= 1.37D-07 at cycle   9 NSaved=   9.
 NSaved= 9 IEnMin= 9 EnMin= -581.255193458439     IErMin= 8 ErrMin= 1.04D-07
 ErrMax= 1.37D-07  0.00D+00 EMaxC= 1.00D-01 BMatC= 2.88D-12 BMatP= 2.33D-12
 IDIUse=1 WtCom= 1.00D+00 WtEn= 0.00D+00
 Coeff-Com: -0.101D-04 0.185D-04 0.658D-04 0.626D-03 0.301D-02-0.252D-01
 Coeff-Com: -0.430D-01 0.592D+00 0.473D+00
 Coeff:     -0.101D-04 0.185D-04 0.658D-04 0.626D-03 0.301D-02-0.252D-01
 Coeff:     -0.430D-01 0.592D+00 0.473D+00
 Gap=     0.179 Goal=   None    Shift=    0.000
 Gap=     0.179 Goal=   None    Shift=    0.000
 RMSDP=1.21D-08 MaxDP=3.49D-07 DE=-7.96D-13 OVMax= 9.33D-07

 Cycle  10  Pass 1  IDiag  1:
 E= -581.255193458441     Delta-E=       -0.000000000002 Rises=F Damp=F
 DIIS: error= 8.47D-09 at cycle  10 NSaved=  10.
 NSaved=10 IEnMin=10 EnMin= -581.255193458441     IErMin=10 ErrMin= 8.47D-09
 ErrMax= 8.47D-09  0.00D+00 EMaxC= 1.00D-01 BMatC= 1.06D-14 BMatP= 2.33D-12
 IDIUse=1 WtCom= 1.00D+00 WtEn= 0.00D+00
 Coeff-Com:  0.322D-06-0.560D-06-0.605D-05-0.213D-04 0.882D-04 0.865D-03
 Coeff-Com: -0.485D-02-0.686D-01 0.176D-02 0.107D+01
 Coeff:      0.322D-06-0.560D-06-0.605D-05-0.213D-04 0.882D-04 0.865D-03
 Coeff:     -0.485D-02-0.686D-01 0.176D-02 0.107D+01
 Gap=     0.179 Goal=   None    Shift=    0.000
 Gap=     0.179 Goal=   None    Shift=    0.000
 RMSDP=1.44D-09 MaxDP=3.38D-08 DE=-1.82D-12 OVMax= 8.09D-08

 SCF Done:  E(UM062X) =  -581.255193458     A.U. after   10 cycles
            NFock= 10  Conv=0.14D-08     -V/T= 2.0020
 <Sx>= 0.0000 <Sy>= 0.0000 <Sz>= 0.0000 <S**2>=-0.0000 S=-0.0000
 <L.S>=  0.00000000000    
 KE= 5.800896842508D+02 PE=-1.530750873619D+03 EE= 2.959644394824D+02
 Annihilation of the first spin contaminant:
 S**2 before annihilation    -0.0000,   after     0.0000
 Leave Link  502 at Mon Apr 21 20:28:59 2025, MaxMem=   536870912 cpu:              63.3 elap:               8.3
 (Enter /home/szhao/Apps/g16/l601.exe)
 Copying SCF densities to generalized density rwf, IOpCl= 1 IROHF=0.

 **********************************************************************

            Population analysis using the SCF density.

 **********************************************************************

 Alpha  occ. eigenvalues --  -67.01689 -67.01689  -5.56524  -5.56518  -3.87748
 Alpha  occ. eigenvalues --   -3.87742  -3.87580  -3.87544  -3.87539  -3.87536
 Alpha  occ. eigenvalues --   -0.62512  -0.56687  -0.43710  -0.41932  -0.36949
 Alpha  occ. eigenvalues --   -0.23449
 Alpha virt. eigenvalues --   -0.05569  -0.00164   0.02215   0.03006   0.03734
 Alpha virt. eigenvalues --    0.04957   0.04957   0.05018   0.05707   0.07192
 Alpha virt. eigenvalues --    0.07769   0.08816   0.12846   0.23156   0.24483
 Alpha virt. eigenvalues --    0.27896   0.29688   0.30091   0.30879   0.32733
 Alpha virt. eigenvalues --    0.35887   0.39841   0.43190   0.46137   0.49669
 Alpha virt. eigenvalues --    0.51926   0.52286   0.57616   0.60762   0.60900
 Alpha virt. eigenvalues --    0.74460   0.78002   0.83684   0.85468   0.94052
 Alpha virt. eigenvalues --    0.94434   1.21331   1.22783   1.24816   1.27813
 Alpha virt. eigenvalues --    1.33871   1.34706   1.37973   1.46483   1.47448
 Alpha virt. eigenvalues --    1.47774   1.48419   1.48653   1.57886   1.65505
 Alpha virt. eigenvalues --    1.90230   1.93906   2.08626   2.13604   2.57726
 Alpha virt. eigenvalues --    2.59092   2.66247   2.68816   5.54426   5.61859
 Alpha virt. eigenvalues --   11.44892  11.46996  11.50522  11.59840  11.60070
 Alpha virt. eigenvalues --   11.61547 141.12160 141.21248
  Beta  occ. eigenvalues --  -67.01689 -67.01689  -5.56524  -5.56518  -3.87748
  Beta  occ. eigenvalues --   -3.87742  -3.87580  -3.87544  -3.87539  -3.87536
  Beta  occ. eigenvalues --   -0.62512  -0.56687  -0.43710  -0.41932  -0.36949
  Beta  occ. eigenvalues --   -0.23449
  Beta virt. eigenvalues --   -0.05569  -0.00164   0.02215   0.03006   0.03734
  Beta virt. eigenvalues --    0.04957   0.04957   0.05018   0.05707   0.07192
  Beta virt. eigenvalues --    0.07769   0.08816   0.12846   0.23156   0.24483
  Beta virt. eigenvalues --    0.27896   0.29688   0.30091   0.30879   0.32733
  Beta virt. eigenvalues --    0.35887   0.39841   0.43190   0.46137   0.49669
  Beta virt. eigenvalues --    0.51926   0.52286   0.57616   0.60762   0.60900
  Beta virt. eigenvalues --    0.74460   0.78002   0.83684   0.85468   0.94052
  Beta virt. eigenvalues --    0.94434   1.21331   1.22783   1.24816   1.27813
  Beta virt. eigenvalues --    1.33871   1.34706   1.37973   1.46483   1.47448
  Beta virt. eigenvalues --    1.47774   1.48419   1.48653   1.57886   1.65505
  Beta virt. eigenvalues --    1.90230   1.93906   2.08626   2.13604   2.57726
  Beta virt. eigenvalues --    2.59092   2.66247   2.68816   5.54426   5.61859
  Beta virt. eigenvalues --   11.44892  11.46996  11.50522  11.59840  11.60070
  Beta virt. eigenvalues --   11.61547 141.12160 141.21248
          Condensed to atoms (all electrons):
               1          2          3          4          5          6
     1  Si  12.581243   0.608515   0.361623  -0.018198   0.361623  -0.018197
     2  Si   0.608515  12.581243  -0.018198   0.361624  -0.018197   0.361623
     3  H    0.361623  -0.018198   0.737554   0.000491  -0.020436   0.000661
     4  H   -0.018198   0.361624   0.000491   0.737554   0.000661  -0.020436
     5  H    0.361623  -0.018197  -0.020436   0.000661   0.737554   0.000491
     6  H   -0.018197   0.361623   0.000661  -0.020436   0.000491   0.737554
          Atomic-Atomic Spin Densities.
               1          2          3          4          5          6
     1  Si   0.000000  -0.000000   0.000000   0.000000   0.000000  -0.000000
     2  Si  -0.000000  -0.000000  -0.000000  -0.000000  -0.000000   0.000000
     3  H    0.000000  -0.000000  -0.000000   0.000000   0.000000   0.000000
     4  H    0.000000  -0.000000   0.000000   0.000000   0.000000   0.000000
     5  H    0.000000  -0.000000   0.000000   0.000000  -0.000000  -0.000000
     6  H   -0.000000   0.000000   0.000000   0.000000  -0.000000   0.000000
 Mulliken charges and spin densities:
               1          2
     1  Si   0.123391   0.000000
     2  Si   0.123391  -0.000000
     3  H   -0.061695  -0.000000
     4  H   -0.061696   0.000000
     5  H   -0.061695  -0.000000
     6  H   -0.061695   0.000000
 Sum of Mulliken charges =  -0.00000   0.00000
 Mulliken charges and spin densities with hydrogens summed into heavy atoms:
               1          2
     1  Si  -0.000000   0.000000
     2  Si   0.000000  -0.000000
 Electronic spatial extent (au):  <R**2>=            285.2753
 Charge=             -0.0000 electrons
 Dipole moment (field-independent basis, Debye):
    X=              0.0000    Y=              0.0000    Z=             -0.0000  Tot=              0.0000
 Quadrupole moment (field-independent basis, Debye-Ang):
   XX=            -27.2903   YY=            -29.3340   ZZ=            -33.0190
   XY=              0.0000   XZ=             -0.0000   YZ=             -0.0012
 Traceless Quadrupole moment (field-independent basis, Debye-Ang):
   XX=              2.5909   YY=              0.5471   ZZ=             -3.1379
   XY=              0.0000   XZ=             -0.0000   YZ=             -0.0012
 Octapole moment (field-independent basis, Debye-Ang**2):
  XXX=              0.0000  YYY=              0.0000  ZZZ=             -0.0005  XYY=             -0.0000
  XXY=              0.0000  XXZ=              0.0002  XZZ=              0.0000  YZZ=              0.0000
  YYZ=             -0.0002  XYZ=             -0.0010
 Hexadecapole moment (field-independent basis, Debye-Ang**3):
 XXXX=           -339.5523 YYYY=            -82.5827 ZZZZ=            -70.6661 XXXY=              0.0003
 XXXZ=             -0.0000 YYYX=              0.0003 YYYZ=              0.0012 ZZZX=             -0.0000
 ZZZY=              0.0026 XXYY=            -71.8222 XXZZ=            -70.9835 YYZZ=            -26.3019
 XXYZ=              0.0003 YYXZ=             -0.0000 ZZXY=              0.0001
 N-N= 7.344155642760D+01 E-N=-1.530750873503D+03  KE= 5.800896842508D+02
                          Isotropic Fermi Contact Couplings
        Atom                 a.u.       MegaHertz       Gauss      10(-4) cm-1
     1  Si(29)             0.00000      -0.00000      -0.00000      -0.00000
     2  Si(29)            -0.00000       0.00000       0.00000       0.00000
     3  H(1)              -0.00000      -0.00000      -0.00000      -0.00000
     4  H(1)               0.00000       0.00000       0.00000       0.00000
     5  H(1)               0.00000       0.00000       0.00000       0.00000
     6  H(1)               0.00000       0.00000       0.00000       0.00000
 --------------------------------------------------------
       Center         ----  Spin Dipole Couplings  ----
                      3XX-RR        3YY-RR        3ZZ-RR
 --------------------------------------------------------
     1   Atom        0.000000      0.000000      0.000000
     2   Atom        0.000000      0.000000      0.000000
     3   Atom        0.000000      0.000000      0.000000
     4   Atom        0.000000      0.000000      0.000000
     5   Atom        0.000000      0.000000      0.000000
     6   Atom        0.000000      0.000000      0.000000
 --------------------------------------------------------
                        XY            XZ            YZ
 --------------------------------------------------------
     1   Atom        0.000000      0.000000      0.000000
     2   Atom        0.000000      0.000000      0.000000
     3   Atom        0.000000      0.000000      0.000000
     4   Atom        0.000000      0.000000      0.000000
     5   Atom        0.000000      0.000000      0.000000
     6   Atom        0.000000      0.000000      0.000000
 --------------------------------------------------------


 ---------------------------------------------------------------------------------
              Anisotropic Spin Dipole Couplings in Principal Axis System
 ---------------------------------------------------------------------------------

       Atom             a.u.   MegaHertz   Gauss  10(-4) cm-1        Axes

              Baa     0.0000    -0.000    -0.000    -0.000  1.0000  0.0000  0.0000
     1 Si(29) Bbb     0.0000    -0.000    -0.000    -0.000 -0.0000  1.0000  0.0000
              Bcc     0.0000    -0.000    -0.000    -0.000  0.0000  0.0000  1.0000
 
              Baa     0.0000    -0.000    -0.000    -0.000  1.0000  0.0000  0.0000
     2 Si(29) Bbb     0.0000    -0.000    -0.000    -0.000 -0.0000  1.0000  0.0000
              Bcc     0.0000    -0.000    -0.000    -0.000  0.0000  0.0000  1.0000
 
              Baa     0.0000     0.000     0.000     0.000  1.0000  0.0000  0.0000
     3 H(1)   Bbb     0.0000     0.000     0.000     0.000 -0.0000  1.0000  0.0000
              Bcc     0.0000     0.000     0.000     0.000  0.0000  0.0000  1.0000
 
              Baa     0.0000     0.000     0.000     0.000  1.0000  0.0000  0.0000
     4 H(1)   Bbb     0.0000     0.000     0.000     0.000 -0.0000  1.0000  0.0000
              Bcc     0.0000     0.000     0.000     0.000  0.0000  0.0000  1.0000
 
              Baa     0.0000     0.000     0.000     0.000  1.0000  0.0000  0.0000
     5 H(1)   Bbb     0.0000     0.000     0.000     0.000 -0.0000  1.0000  0.0000
              Bcc     0.0000     0.000     0.000     0.000  0.0000  0.0000  1.0000
 
              Baa     0.0000     0.000     0.000     0.000  1.0000  0.0000  0.0000
     6 H(1)   Bbb     0.0000     0.000     0.000     0.000 -0.0000  1.0000  0.0000
              Bcc     0.0000     0.000     0.000     0.000  0.0000  0.0000  1.0000
 

 ---------------------------------------------------------------------------------

 No NMR shielding tensors so no spin-rotation constants.
 Leave Link  601 at Mon Apr 21 20:28:59 2025, MaxMem=   536870912 cpu:               1.1 elap:               0.2
 (Enter /home/szhao/Apps/g16/l701.exe)
 ... and contract with generalized density number  0.
 Compute integral first derivatives.
 Leave Link  701 at Mon Apr 21 20:29:00 2025, MaxMem=   536870912 cpu:               1.5 elap:               0.3
 (Enter /home/szhao/Apps/g16/l702.exe)
 L702 exits ... SP integral derivatives will be done elsewhere.
 Leave Link  702 at Mon Apr 21 20:29:01 2025, MaxMem=   536870912 cpu:               0.6 elap:               0.1
 (Enter /home/szhao/Apps/g16/l703.exe)
 Integral derivatives from FoFJK, PRISM(SPDF).
 Compute integral first derivatives, UseDBF=F ICtDFT=           0.
 Calling FoFJK, ICntrl=      2127 FMM=F ISym2X=0 I1Cent= 0 IOpClX= 1 NMat=1 NMatS=1 NMatT=0.
 FoFJK:  IHMeth= 1 ICntrl=    2127 DoSepK=F KAlg= 0 I1Cent=           0 FoldK=F
 IRaf=         0 NMat=       1 IRICut=       1 DoRegI=T DoRafI=F ISym2E= 0 IDoP0=0 IntGTp=1.
 FoFCou: FMM=F IPFlag=           0 FMFlag=      100000 FMFlg1=         800
         NFxFlg=           0 DoJE=F BraDBF=F KetDBF=F FulRan=T
         wScrn=  0.000000 ICntrl=      2127 IOpCl=  1 I1Cent=           0 NGrid=           0
         NMat0=    1 NMatS0=      1 NMatT0=    0 NMatD0=    1 NMtDS0=    0 NMtDT0=    0
 Symmetry not used in FoFCou.
 Leave Link  703 at Mon Apr 21 20:29:02 2025, MaxMem=   536870912 cpu:               8.5 elap:               1.1
 (Enter /home/szhao/Apps/g16/l716.exe)
 Dipole        = 2.02993355D-09 3.12753401D-08-3.73131545D-06
 -------------------------------------------------------------------
 Center     Atomic                   Forces (Hartrees/Bohr)
 Number     Number              X              Y              Z
 -------------------------------------------------------------------
      1       14          -0.000000000   -0.000000000   -0.000000000
      2       14          -0.000000000   -0.000000000   -0.000000000
      3        1           0.001477498   -0.000267689    0.000006949
      4        1          -0.001477394    0.000267913    0.000006703
      5        1           0.001479959    0.000264016   -0.000009363
      6        1          -0.001479874   -0.000264214   -0.000009119
 -------------------------------------------------------------------
 Cartesian Forces:  Max     0.001479959 RMS     0.000708253
 Leave Link  716 at Mon Apr 21 20:29:02 2025, MaxMem=   536870912 cpu:               0.5 elap:               0.1
 (Enter /home/szhao/Apps/g16/l103.exe)

 GradGradGradGradGradGradGradGradGradGradGradGradGradGradGradGradGradGrad
 Berny optimization.
 FormGI is forming the generalized inverse of G from B-inverse, IUseBI=4.
 Internal  Forces:  Max     0.002957457 RMS     0.001393422
 Search for a local minimum.
 Step number   1 out of a maximum of   30
 All quantities printed in internal units (Hartrees-Bohrs-Radians)
 RMS Force = .12346D-02 SwitMx=.10000D-02 MixMth= 1
 Mixed Optimization -- RFO/linear search
 Second derivative matrix not updated -- first step.
 The second derivative matrix:
                          X1        Y1        Z1        X2        Y2
           X1           0.50000
           Y1           0.00000   0.50000
           Z1           0.00000   0.00000   0.50000
           X2           0.00000   0.00000   0.00000   0.50000
           Y2           0.00000   0.00000   0.00000   0.00000   0.50000
           Z2           0.00000   0.00000   0.00000   0.00000   0.00000
           R1           0.00000   0.00000   0.00000   0.00000   0.00000
           R2           0.00000   0.00000   0.00000   0.00000   0.00000
           R3           0.00000   0.00000   0.00000   0.00000   0.00000
           R4           0.00000   0.00000   0.00000   0.00000   0.00000
           A1           0.00000   0.00000   0.00000   0.00000   0.00000
           A2           0.00000   0.00000   0.00000   0.00000   0.00000
           A3           0.00000   0.00000   0.00000   0.00000   0.00000
           A4           0.00000   0.00000   0.00000   0.00000   0.00000
           A5           0.00000   0.00000   0.00000   0.00000   0.00000
           A6           0.00000   0.00000   0.00000   0.00000   0.00000
           D1           0.00000   0.00000   0.00000   0.00000   0.00000
           D2           0.00000   0.00000   0.00000   0.00000   0.00000
           D3           0.00000   0.00000   0.00000   0.00000   0.00000
           D4           0.00000   0.00000   0.00000   0.00000   0.00000
                          Z2        R1        R2        R3        R4
           Z2           0.50000
           R1           0.00000   0.18116
           R2           0.00000   0.00000   0.18115
           R3           0.00000   0.00000   0.00000   0.18116
           R4           0.00000   0.00000   0.00000   0.00000   0.18115
           A1           0.00000   0.00000   0.00000   0.00000   0.00000
           A2           0.00000   0.00000   0.00000   0.00000   0.00000
           A3           0.00000   0.00000   0.00000   0.00000   0.00000
           A4           0.00000   0.00000   0.00000   0.00000   0.00000
           A5           0.00000   0.00000   0.00000   0.00000   0.00000
           A6           0.00000   0.00000   0.00000   0.00000   0.00000
           D1           0.00000   0.00000   0.00000   0.00000   0.00000
           D2           0.00000   0.00000   0.00000   0.00000   0.00000
           D3           0.00000   0.00000   0.00000   0.00000   0.00000
           D4           0.00000   0.00000   0.00000   0.00000   0.00000
                          A1        A2        A3        A4        A5
           A1           0.16000
           A2           0.00000   0.16000
           A3           0.00000   0.00000   0.16000
           A4           0.00000   0.00000   0.00000   0.16000
           A5           0.00000   0.00000   0.00000   0.00000   0.16000
           A6           0.00000   0.00000   0.00000   0.00000   0.00000
           D1           0.00000   0.00000   0.00000   0.00000   0.00000
           D2           0.00000   0.00000   0.00000   0.00000   0.00000
           D3           0.00000   0.00000   0.00000   0.00000   0.00000
           D4           0.00000   0.00000   0.00000   0.00000   0.00000
                          A6        D1        D2        D3        D4
           A6           0.16000
           D1           0.00000   0.00230
           D2           0.00000   0.00000   0.00230
           D3           0.00000   0.00000   0.00000   0.00230
           D4           0.00000   0.00000   0.00000   0.00000   0.00230
 ITU=  0
     Eigenvalues ---    0.00230   0.00230   0.00230   0.16000   0.16000
     Eigenvalues ---    0.16000   0.16000   0.18115   0.18115   0.18116
     Eigenvalues ---    0.181161000.000001000.000001000.000001000.00000
     Eigenvalues --- 1000.000001000.000001000.000001000.000001000.00000
 RFO step:  Lambda=-1.32513020D-04 EMin= 2.30000000D-03
 Linear search not attempted -- first point.
 Iteration  1 RMS(Cart)=  0.01037900 RMS(Int)=  0.00004378
 Iteration  2 RMS(Cart)=  0.00004501 RMS(Int)=  0.00000009
 Iteration  3 RMS(Cart)=  0.00000000 RMS(Int)=  0.00000009
 ITry= 1 IFail=0 DXMaxC= 2.07D-02 DCOld= 1.00D+10 DXMaxT= 3.00D-01 DXLimC= 3.00D+00 Rises=F
 Variable       Old X    -DE/DX   Delta X   Delta X   Delta X     New X
                                 (Linear)    (Quad)   (Total)
    X1       -2.24408   0.00296   0.00000   0.00000   0.00000  -2.24408
    Y1        0.00000  -0.00000   0.00000   0.00000   0.00000   0.00000
    Z1        0.00000  -0.00000   0.00000   0.00000   0.00000   0.00000
    X2        2.24408  -0.00296   0.00000   0.00000   0.00000   2.24408
    Y2        0.00000   0.00000   0.00000   0.00000   0.00000   0.00000
    Z2        0.00000  -0.00000   0.00000   0.00000   0.00000   0.00000
    R1        2.78324  -0.00056   0.00000  -0.00307  -0.00307   2.78017
    R2        2.78326  -0.00056   0.00000  -0.00309  -0.00309   2.78017
    R3        2.78324  -0.00056   0.00000  -0.00307  -0.00307   2.78017
    R4        2.78326  -0.00056   0.00000  -0.00309  -0.00309   2.78017
    A1        2.12963  -0.00129   0.00000  -0.00808  -0.00808   2.12155
    A2        2.12964  -0.00129   0.00000  -0.00808  -0.00808   2.12156
    A3        2.02391   0.00259   0.00000   0.01616   0.01616   2.04008
    A4        2.12963  -0.00129   0.00000  -0.00808  -0.00808   2.12155
    A5        2.12964  -0.00129   0.00000  -0.00808  -0.00808   2.12156
    A6        2.02391   0.00259   0.00000   0.01616   0.01616   2.04008
    D1        3.14097   0.00001   0.00000   0.00286   0.00286  -3.13936
    D2       -0.00074   0.00001   0.00000   0.00394   0.00394   0.00320
    D3       -0.00074   0.00001   0.00000   0.00394   0.00394   0.00320
    D4        3.14074   0.00001   0.00000   0.00503   0.00503  -3.13741
         Item               Value     Threshold  Converged?
 Maximum Force            0.002588     0.000450     NO 
 RMS     Force            0.001235     0.000300     NO 
 Maximum Displacement     0.020739     0.001800     NO 
 RMS     Displacement     0.010375     0.001200     NO 
 Predicted change in Energy=-6.631527D-05
 Lowest energy point so far.  Saving SCF results.
 GradGradGradGradGradGradGradGradGradGradGradGradGradGradGradGradGradGrad

 Leave Link  103 at Mon Apr 21 20:29:03 2025, MaxMem=   536870912 cpu:               0.6 elap:               0.2
 (Enter /home/szhao/Apps/g16/l202.exe)
                          Input orientation:                          
 ---------------------------------------------------------------------
 Center     Atomic      Atomic             Coordinates (Angstroms)
 Number     Number       Type             X           Y           Z
 ---------------------------------------------------------------------
      1         14           0       -1.187518    0.000000    0.000000
      2         14           0        1.187518    0.000000    0.000000
      3          1           0       -1.957447   -1.253653    0.001792
      4          1           0        1.957448    1.253653    0.001002
      5          1           0       -1.957448    1.253648   -0.003014
      6          1           0        1.957448   -1.253650   -0.002224
 ---------------------------------------------------------------------
                    Distance matrix (angstroms):
                    1          2          3          4          5
     1  Si   0.000000
     2  Si   2.375036   0.000000
     3  H    1.471203   3.385625   0.000000
     4  H    3.385625   1.471203   4.648977   0.000000
     5  H    1.471202   3.385625   2.507305   3.914898   0.000000
     6  H    3.385625   1.471202   3.914898   2.507305   4.648974
                    6
     6  H    0.000000
 Symmetry turned off by external request.
 Stoichiometry    H4Si2
 Framework group  C1[X(H4Si2)]
 Deg. of freedom    12
 Full point group                 C1      NOp   1
 Rotational constants (GHZ):          79.7659373           5.3562904           5.0192492
 Leave Link  202 at Mon Apr 21 20:29:03 2025, MaxMem=   536870912 cpu:               0.1 elap:               0.1
 (Enter /home/szhao/Apps/g16/l301.exe)
 Standard basis: 6-311+G(d,p) (5D, 7F)
 Ernie: Thresh=  0.10000D-02 Tol=  0.10000D-05 Strict=F.
    84 basis functions,   132 primitive gaussians,    86 cartesian basis functions
    16 alpha electrons       16 beta electrons
       nuclear repulsion energy        73.4860031482 Hartrees.
 IExCor= 4336 DFT=T Ex+Corr=M062X ExCW=0 ScaHFX=  0.540000
 ScaDFX=  1.000000  1.000000  1.000000  1.000000 ScalE2=  1.000000  1.000000
 IRadAn=      7 IRanWt=     -1 IRanGd=            0 ICorTp=0 IEmpDi=  4
 NAtoms=    6 NActive=    6 NUniq=    6 SFac= 1.00D+00 NAtFMM=   60 NAOKFM=F Big=F
 Integral buffers will be    131072 words long.
 Raffenetti 2 integral format.
 Two-electron integral symmetry is turned off.
 Leave Link  301 at Mon Apr 21 20:29:03 2025, MaxMem=   536870912 cpu:               0.7 elap:               0.1
 (Enter /home/szhao/Apps/g16/l302.exe)
 NPDir=0 NMtPBC=     1 NCelOv=     1 NCel=       1 NClECP=     1 NCelD=      1
         NCelK=      1 NCelE2=     1 NClLst=     1 CellRange=     0.0.
 One-electron integrals computed using PRISM.
 NBasis=    84 RedAO= T EigKep=  1.74D-03  NBF=    84
 NBsUse=    84 1.00D-06 EigRej= -1.00D+00 NBFU=    84
 Precomputing XC quadrature grid using
 IXCGrd= 4 IRadAn=           7 IRanWt=          -1 IRanGd=           0 AccXCQ= 0.00D+00.
 Generated NRdTot=       0 NPtTot=           0 NUsed=           0 NTot=          32
 NSgBfM=    84    84    84    84    84 MxSgAt=     6 MxSgA2=     6.
 Leave Link  302 at Mon Apr 21 20:29:04 2025, MaxMem=   536870912 cpu:               1.8 elap:               0.3
 (Enter /home/szhao/Apps/g16/l303.exe)
 DipDrv:  MaxL=1.
 Leave Link  303 at Mon Apr 21 20:29:04 2025, MaxMem=   536870912 cpu:               0.5 elap:               0.2
 (Enter /home/szhao/Apps/g16/l401.exe)
 Initial guess from the checkpoint file:  "opt.chk"
 B after Tr=     0.000000   -0.000000   -0.000161
         Rot=    1.000000    0.000001   -0.000000   -0.000000 Ang=   0.00 deg.
 Guess basis will be translated and rotated to current coordinates.
 JPrj=2 DoOrth=T DoCkMO=T.
 Initial guess <Sx>= 0.0000 <Sy>= 0.0000 <Sz>= 0.0000 <S**2>=-0.0000 S=-0.0000
 Generating alternative initial guess.
 ExpMin= 3.31D-02 ExpMax= 6.94D+04 ExpMxC= 2.33D+03 IAcc=3 IRadAn=         5 AccDes= 0.00D+00
 Harris functional with IExCor= 1009 and IRadAn=       5 diagonalized for initial guess.
 HarFok:  IExCor= 1009 AccDes= 0.00D+00 IRadAn=         5 IDoV= 1 UseB2=F ITyADJ=14
 ICtDFT=  3500011 ScaDFX=  1.000000  1.000000  1.000000  1.000000
 FoFCou: FMM=F IPFlag=           0 FMFlag=      100000 FMFlg1=           0
         NFxFlg=           0 DoJE=T BraDBF=F KetDBF=T FulRan=T
         wScrn=  0.000000 ICntrl=       500 IOpCl=  0 I1Cent=   200000004 NGrid=           0
         NMat0=    1 NMatS0=      1 NMatT0=    0 NMatD0=    1 NMtDS0=    0 NMtDT0=    0
 Symmetry not used in FoFCou.
 Harris En= -580.939474236944    
 Leave Link  401 at Mon Apr 21 20:29:05 2025, MaxMem=   536870912 cpu:               3.1 elap:               0.4
 (Enter /home/szhao/Apps/g16/l502.exe)
 Keep R1 and R2 ints in memory in canonical form, NReq=20057634.
 FoFCou: FMM=F IPFlag=           0 FMFlag=           0 FMFlg1=           0
         NFxFlg=           0 DoJE=F BraDBF=F KetDBF=F FulRan=T
         wScrn=  0.000000 ICntrl=       600 IOpCl=  0 I1Cent=           0 NGrid=           0
         NMat0=    1 NMatS0=   3570 NMatT0=    0 NMatD0=    1 NMtDS0=    0 NMtDT0=    0
 Symmetry not used in FoFCou.
 Two-electron integral symmetry not used.
 UHF open shell SCF:
 Using DIIS extrapolation, IDIIS=  1040.
 NGot=   536870912 LenX=   524106186 LenY=   524098349
 Requested convergence on RMS density matrix=1.00D-08 within 128 cycles.
 Requested convergence on MAX density matrix=1.00D-06.
 Requested convergence on             energy=1.00D-06.
 No special actions if energy rises.

 Cycle   1  Pass 1  IDiag  1:
 E= -581.255281315425    
 DIIS: error= 3.35D-04 at cycle   1 NSaved=   1.
 NSaved= 1 IEnMin= 1 EnMin= -581.255281315425     IErMin= 1 ErrMin= 3.35D-04
 ErrMax= 3.35D-04  0.00D+00 EMaxC= 1.00D-01 BMatC= 2.22D-05 BMatP= 2.22D-05
 IDIUse=3 WtCom= 9.97D-01 WtEn= 3.35D-03
 Coeff-Com:  0.100D+01
 Coeff-En:   0.100D+01
 Coeff:      0.100D+01
 Gap=     0.394 Goal=   None    Shift=    0.000
 Gap=     0.394 Goal=   None    Shift=    0.000
 RMSDP=3.09D-05 MaxDP=2.31D-04              OVMax= 8.93D-04

 Cycle   2  Pass 1  IDiag  1:
 E= -581.255289201537     Delta-E=       -0.000007886112 Rises=F Damp=F
 DIIS: error= 3.45D-05 at cycle   2 NSaved=   2.
 NSaved= 2 IEnMin= 2 EnMin= -581.255289201537     IErMin= 2 ErrMin= 3.45D-05
 ErrMax= 3.45D-05  0.00D+00 EMaxC= 1.00D-01 BMatC= 3.46D-07 BMatP= 2.22D-05
 IDIUse=1 WtCom= 1.00D+00 WtEn= 0.00D+00
 Coeff-Com: -0.735D-01 0.107D+01
 Coeff:     -0.735D-01 0.107D+01
 Gap=     0.179 Goal=   None    Shift=    0.000
 Gap=     0.179 Goal=   None    Shift=    0.000
 RMSDP=6.54D-06 MaxDP=7.84D-05 DE=-7.89D-06 OVMax= 2.14D-04

 Cycle   3  Pass 1  IDiag  1:
 E= -581.255289395689     Delta-E=       -0.000000194152 Rises=F Damp=F
 DIIS: error= 1.07D-05 at cycle   3 NSaved=   3.
 NSaved= 3 IEnMin= 3 EnMin= -581.255289395689     IErMin= 3 ErrMin= 1.07D-05
 ErrMax= 1.07D-05  0.00D+00 EMaxC= 1.00D-01 BMatC= 2.66D-08 BMatP= 3.46D-07
 IDIUse=1 WtCom= 1.00D+00 WtEn= 0.00D+00
 Coeff-Com: -0.201D-01 0.149D+00 0.871D+00
 Coeff:     -0.201D-01 0.149D+00 0.871D+00
 Gap=     0.179 Goal=   None    Shift=    0.000
 Gap=     0.179 Goal=   None    Shift=    0.000
 RMSDP=1.43D-06 MaxDP=2.48D-05 DE=-1.94D-07 OVMax= 5.65D-05

 Cycle   4  Pass 1  IDiag  1:
 E= -581.255289404129     Delta-E=       -0.000000008440 Rises=F Damp=F
 DIIS: error= 2.97D-06 at cycle   4 NSaved=   4.
 NSaved= 4 IEnMin= 4 EnMin= -581.255289404129     IErMin= 4 ErrMin= 2.97D-06
 ErrMax= 2.97D-06  0.00D+00 EMaxC= 1.00D-01 BMatC= 3.17D-09 BMatP= 2.66D-08
 IDIUse=1 WtCom= 1.00D+00 WtEn= 0.00D+00
 Coeff-Com:  0.233D-02-0.590D-01 0.197D+00 0.860D+00
 Coeff:      0.233D-02-0.590D-01 0.197D+00 0.860D+00
 Gap=     0.179 Goal=   None    Shift=    0.000
 Gap=     0.179 Goal=   None    Shift=    0.000
 RMSDP=4.72D-07 MaxDP=8.41D-06 DE=-8.44D-09 OVMax= 1.75D-05

 Cycle   5  Pass 1  IDiag  1:
 E= -581.255289405135     Delta-E=       -0.000000001006 Rises=F Damp=F
 DIIS: error= 3.65D-07 at cycle   5 NSaved=   5.
 NSaved= 5 IEnMin= 5 EnMin= -581.255289405135     IErMin= 5 ErrMin= 3.65D-07
 ErrMax= 3.65D-07  0.00D+00 EMaxC= 1.00D-01 BMatC= 1.54D-11 BMatP= 3.17D-09
 IDIUse=1 WtCom= 1.00D+00 WtEn= 0.00D+00
 Coeff-Com:  0.283D-03-0.428D-03-0.269D-01-0.491D-01 0.108D+01
 Coeff:      0.283D-03-0.428D-03-0.269D-01-0.491D-01 0.108D+01
 Gap=     0.179 Goal=   None    Shift=    0.000
 Gap=     0.179 Goal=   None    Shift=    0.000
 RMSDP=1.00D-07 MaxDP=1.28D-06 DE=-1.01D-09 OVMax= 3.51D-06

 Cycle   6  Pass 1  IDiag  1:
 E= -581.255289405155     Delta-E=       -0.000000000019 Rises=F Damp=F
 DIIS: error= 6.05D-08 at cycle   6 NSaved=   6.
 NSaved= 6 IEnMin= 6 EnMin= -581.255289405155     IErMin= 6 ErrMin= 6.05D-08
 ErrMax= 6.05D-08  0.00D+00 EMaxC= 1.00D-01 BMatC= 5.47D-13 BMatP= 1.54D-11
 IDIUse=1 WtCom= 1.00D+00 WtEn= 0.00D+00
 Coeff-Com: -0.807D-04 0.123D-02-0.910D-03-0.147D-01-0.916D-01 0.111D+01
 Coeff:     -0.807D-04 0.123D-02-0.910D-03-0.147D-01-0.916D-01 0.111D+01
 Gap=     0.179 Goal=   None    Shift=    0.000
 Gap=     0.179 Goal=   None    Shift=    0.000
 RMSDP=2.05D-08 MaxDP=2.60D-07 DE=-1.93D-11 OVMax= 6.83D-07

 Cycle   7  Pass 1  IDiag  1:
 E= -581.255289405156     Delta-E=       -0.000000000001 Rises=F Damp=F
 DIIS: error= 4.35D-08 at cycle   7 NSaved=   7.
 NSaved= 7 IEnMin= 7 EnMin= -581.255289405156     IErMin= 7 ErrMin= 4.35D-08
 ErrMax= 4.35D-08  0.00D+00 EMaxC= 1.00D-01 BMatC= 3.07D-13 BMatP= 5.47D-13
 IDIUse=1 WtCom= 1.00D+00 WtEn= 0.00D+00
 Coeff-Com: -0.531D-04 0.655D-03 0.458D-03-0.540D-02-0.879D-01 0.574D+00
 Coeff-Com:  0.518D+00
 Coeff:     -0.531D-04 0.655D-03 0.458D-03-0.540D-02-0.879D-01 0.574D+00
 Coeff:      0.518D+00
 Gap=     0.179 Goal=   None    Shift=    0.000
 Gap=     0.179 Goal=   None    Shift=    0.000
 RMSDP=4.80D-09 MaxDP=1.26D-07 DE=-9.09D-13 OVMax= 3.53D-07

 SCF Done:  E(UM062X) =  -581.255289405     A.U. after    7 cycles
            NFock=  7  Conv=0.48D-08     -V/T= 2.0020
 <Sx>= 0.0000 <Sy>= 0.0000 <Sz>= 0.0000 <S**2>=-0.0000 S=-0.0000
 <L.S>=  0.00000000000    
 KE= 5.800967432844D+02 PE=-1.530856491641D+03 EE= 2.960184558033D+02
 Annihilation of the first spin contaminant:
 S**2 before annihilation    -0.0000,   after    -0.0000
 Leave Link  502 at Mon Apr 21 20:29:11 2025, MaxMem=   536870912 cpu:              46.9 elap:               6.2
 (Enter /home/szhao/Apps/g16/l701.exe)
 ... and contract with generalized density number  0.
 Compute integral first derivatives.
 Leave Link  701 at Mon Apr 21 20:29:11 2025, MaxMem=   536870912 cpu:               1.1 elap:               0.2
 (Enter /home/szhao/Apps/g16/l702.exe)
 L702 exits ... SP integral derivatives will be done elsewhere.
 Leave Link  702 at Mon Apr 21 20:29:11 2025, MaxMem=   536870912 cpu:               0.5 elap:               0.1
 (Enter /home/szhao/Apps/g16/l703.exe)
 Integral derivatives from FoFJK, PRISM(SPDF).
 Compute integral first derivatives, UseDBF=F ICtDFT=           0.
 Calling FoFJK, ICntrl=      2127 FMM=F ISym2X=0 I1Cent= 0 IOpClX= 1 NMat=1 NMatS=1 NMatT=0.
 FoFJK:  IHMeth= 1 ICntrl=    2127 DoSepK=F KAlg= 0 I1Cent=           0 FoldK=F
 IRaf=         0 NMat=       1 IRICut=       1 DoRegI=T DoRafI=F ISym2E= 0 IDoP0=0 IntGTp=1.
 FoFCou: FMM=F IPFlag=           0 FMFlag=      100000 FMFlg1=         800
         NFxFlg=           0 DoJE=F BraDBF=F KetDBF=F FulRan=T
         wScrn=  0.000000 ICntrl=      2127 IOpCl=  1 I1Cent=           0 NGrid=           0
         NMat0=    1 NMatS0=      1 NMatT0=    0 NMatD0=    1 NMtDS0=    0 NMtDT0=    0
 Symmetry not used in FoFCou.
 Leave Link  703 at Mon Apr 21 20:29:13 2025, MaxMem=   536870912 cpu:              10.4 elap:               1.3
 (Enter /home/szhao/Apps/g16/l716.exe)
 Dipole        = 7.68807094D-07 1.81723232D-08 2.24824248D-05
 -------------------------------------------------------------------
 Center     Atomic                   Forces (Hartrees/Bohr)
 Number     Number              X              Y              Z
 -------------------------------------------------------------------
      1       14          -0.000000000   -0.000000000   -0.000000000
      2       14          -0.000000000   -0.000000000   -0.000000000
      3        1           0.000570869   -0.000349524   -0.000024359
      4        1          -0.000570898    0.000349453   -0.000024743
      5        1           0.000570632    0.000350026    0.000044039
      6        1          -0.000570654   -0.000349933    0.000044424
 -------------------------------------------------------------------
 Cartesian Forces:  Max     0.000570898 RMS     0.000316004
 Leave Link  716 at Mon Apr 21 20:29:13 2025, MaxMem=   536870912 cpu:               0.4 elap:               0.1
 (Enter /home/szhao/Apps/g16/l103.exe)

 GradGradGradGradGradGradGradGradGradGradGradGradGradGradGradGradGradGrad
 Berny optimization.
 Using GEDIIS/GDIIS optimizer.
 FormGI is forming the generalized inverse of G from B-inverse, IUseBI=4.
 Internal  Forces:  Max     0.001240637 RMS     0.000601343
 Search for a local minimum.
 Step number   2 out of a maximum of   30
 All quantities printed in internal units (Hartrees-Bohrs-Radians)
 RMS Force = .57479D-03 SwitMx=.10000D-02 MixMth= 2
 Mixed Optimization -- En-DIIS/RFO-DIIS
 Update second derivatives using D2CorX and points    1    2
 DE= -9.59D-05 DEPred=-6.63D-05 R= 1.45D+00
 TightC=F SS=  1.41D+00  RLast= 2.98D-02 DXNew= 5.0454D-01 8.9304D-02
 Trust test= 1.45D+00 RLast= 2.98D-02 DXMaxT set to 3.00D-01
 The second derivative matrix:
                          X1        Y1        Z1        X2        Y2
           X1           0.54514
           Y1          -0.00010   0.50000
           Z1          -0.00055   0.00000   0.50001
           X2          -0.04513   0.00010   0.00055   0.54513
           Y2           0.00010  -0.00000  -0.00000  -0.00010   0.50000
           Z2          -0.00055   0.00000   0.00001   0.00055  -0.00000
           R1          -0.01381   0.00003   0.00017   0.01381  -0.00003
           R2          -0.01393   0.00003   0.00017   0.01393  -0.00003
           R3          -0.01380   0.00003   0.00017   0.01380  -0.00003
           R4          -0.01392   0.00003   0.00017   0.01392  -0.00003
           A1          -0.01674   0.00004   0.00020   0.01674  -0.00004
           A2          -0.01675   0.00004   0.00020   0.01675  -0.00004
           A3           0.03349  -0.00007  -0.00041  -0.03348   0.00007
           A4          -0.01674   0.00004   0.00020   0.01674  -0.00004
           A5          -0.01675   0.00004   0.00020   0.01675  -0.00004
           A6           0.03349  -0.00007  -0.00041  -0.03349   0.00007
           D1           0.00064  -0.00000  -0.00001  -0.00064   0.00000
           D2           0.00127  -0.00000  -0.00002  -0.00127   0.00000
           D3           0.00127  -0.00000  -0.00002  -0.00127   0.00000
           D4           0.00190  -0.00000  -0.00002  -0.00190   0.00000
                          Z2        R1        R2        R3        R4
           Z2           0.50001
           R1           0.00017   0.18304
           R2           0.00017   0.00191   0.18308
           R3           0.00017   0.00189   0.00191   0.18304
           R4           0.00017   0.00191   0.00192   0.00190   0.18307
           A1           0.00020  -0.00031  -0.00031  -0.00031  -0.00031
           A2           0.00020  -0.00031  -0.00031  -0.00031  -0.00031
           A3          -0.00041   0.00062   0.00061   0.00062   0.00061
           A4           0.00020  -0.00031  -0.00031  -0.00031  -0.00031
           A5           0.00020  -0.00031  -0.00030  -0.00031  -0.00031
           A6          -0.00041   0.00062   0.00061   0.00062   0.00061
           D1          -0.00001  -0.00017  -0.00017  -0.00017  -0.00017
           D2          -0.00002  -0.00035  -0.00035  -0.00035  -0.00035
           D3          -0.00002  -0.00035  -0.00035  -0.00035  -0.00035
           D4          -0.00002  -0.00053  -0.00054  -0.00053  -0.00054
                          A1        A2        A3        A4        A5
           A1           0.15359
           A2          -0.00641   0.15358
           A3           0.01283   0.01283   0.13434
           A4          -0.00641  -0.00641   0.01283   0.15359
           A5          -0.00641  -0.00641   0.01283  -0.00641   0.15359
           A6           0.01283   0.01283  -0.02565   0.01283   0.01283
           D1          -0.00017  -0.00017   0.00034  -0.00017  -0.00017
           D2          -0.00038  -0.00038   0.00076  -0.00038  -0.00038
           D3          -0.00038  -0.00038   0.00076  -0.00038  -0.00038
           D4          -0.00059  -0.00059   0.00118  -0.00059  -0.00059
                          A6        D1        D2        D3        D4
           A6           0.13435
           D1           0.00034   0.00231
           D2           0.00076   0.00002   0.00233
           D3           0.00076   0.00002   0.00003   0.00233
           D4           0.00118   0.00003   0.00005   0.00005   0.00238
 ITU=  1  0
 Use linear search instead of GDIIS.
     Eigenvalues ---    0.00230   0.00230   0.00234   0.08309   0.16000
     Eigenvalues ---    0.16000   0.16000   0.18115   0.18115   0.18116
     Eigenvalues ---    0.188831000.000001000.000001000.000001000.00000
     Eigenvalues --- 1000.000001000.000001000.000001000.000001000.00000
 RFO step:  Lambda=-1.80591051D-05 EMin= 2.29966759D-03
 Quartic linear search produced a step of  0.81848.
 Iteration  1 RMS(Cart)=  0.02161774 RMS(Int)=  0.00024162
 Iteration  2 RMS(Cart)=  0.00025900 RMS(Int)=  0.00002334
 Iteration  3 RMS(Cart)=  0.00000004 RMS(Int)=  0.00002334
 ITry= 1 IFail=0 DXMaxC= 5.83D-02 DCOld= 1.00D+10 DXMaxT= 3.00D-01 DXLimC= 3.00D+00 Rises=F
 Variable       Old X    -DE/DX   Delta X   Delta X   Delta X     New X
                                 (Linear)    (Quad)   (Total)
    X1       -2.24408   0.00114   0.00000   0.00000   0.00000  -2.24408
    Y1        0.00000   0.00000   0.00000   0.00000   0.00000   0.00000
    Z1        0.00000   0.00002   0.00000   0.00000   0.00000   0.00000
    X2        2.24408  -0.00114   0.00000   0.00000   0.00000   2.24408
    Y2        0.00000  -0.00000   0.00000   0.00000   0.00000   0.00000
    Z2        0.00000   0.00002   0.00000   0.00000   0.00000   0.00000
    R1        2.78017  -0.00000  -0.00251   0.00207  -0.00044   2.77973
    R2        2.78017  -0.00000  -0.00253   0.00210  -0.00044   2.77973
    R3        2.78017  -0.00000  -0.00251   0.00207  -0.00044   2.77973
    R4        2.78017  -0.00000  -0.00253   0.00209  -0.00044   2.77973
    A1        2.12155  -0.00062  -0.00661  -0.00156  -0.00822   2.11334
    A2        2.12156  -0.00062  -0.00661  -0.00156  -0.00822   2.11334
    A3        2.04008   0.00124   0.01323   0.00314   0.01632   2.05640
    A4        2.12155  -0.00062  -0.00661  -0.00156  -0.00822   2.11334
    A5        2.12156  -0.00062  -0.00662  -0.00156  -0.00822   2.11334
    A6        2.04008   0.00124   0.01323   0.00314   0.01632   2.05640
    D1       -3.13936  -0.00002   0.00234  -0.01624  -0.01390   3.12992
    D2        0.00320  -0.00004   0.00323  -0.03468  -0.03145  -0.02824
    D3        0.00320  -0.00004   0.00323  -0.03468  -0.03145  -0.02824
    D4       -3.13741  -0.00006   0.00412  -0.05312  -0.04900   3.09678
         Item               Value     Threshold  Converged?
 Maximum Force            0.001241     0.000450     NO 
 RMS     Force            0.000575     0.000300     NO 
 Maximum Displacement     0.058299     0.001800     NO 
 RMS     Displacement     0.021682     0.001200     NO 
 Predicted change in Energy=-3.344652D-05
 Lowest energy point so far.  Saving SCF results.
 GradGradGradGradGradGradGradGradGradGradGradGradGradGradGradGradGradGrad

 Leave Link  103 at Mon Apr 21 20:29:14 2025, MaxMem=   536870912 cpu:               1.2 elap:               0.3
 (Enter /home/szhao/Apps/g16/l202.exe)
                          Input orientation:                          
 ---------------------------------------------------------------------
 Center     Atomic      Atomic             Coordinates (Angstroms)
 Number     Number       Type             X           Y           Z
 ---------------------------------------------------------------------
      1         14           0       -1.187518    0.000000    0.000000
      2         14           0        1.187518    0.000000    0.000000
      3          1           0       -1.946999   -1.259721   -0.006952
      4          1           0        1.946999    1.259716   -0.007751
      5          1           0       -1.946999    1.259432    0.027828
      6          1           0        1.946999   -1.259414    0.028626
 ---------------------------------------------------------------------
                    Distance matrix (angstroms):
                    1          2          3          4          5
     1  Si   0.000000
     2  Si   2.375036   0.000000
     3  H    1.470971   3.378186   0.000000
     4  H    3.378186   1.470971   4.637972   0.000000
     5  H    1.470971   3.378186   2.519393   3.894161   0.000000
     6  H    3.378186   1.470971   3.894161   2.519393   4.637651
                    6
     6  H    0.000000
 Symmetry turned off by external request.
 Stoichiometry    H4Si2
 Framework group  C1[X(H4Si2)]
 Deg. of freedom    12
 Full point group                 C1      NOp   1
 Rotational constants (GHZ):          78.9973292           5.3655481           5.0244632
 Leave Link  202 at Mon Apr 21 20:29:14 2025, MaxMem=   536870912 cpu:               0.1 elap:               0.1
 (Enter /home/szhao/Apps/g16/l301.exe)
 Standard basis: 6-311+G(d,p) (5D, 7F)
 Ernie: Thresh=  0.10000D-02 Tol=  0.10000D-05 Strict=F.
    84 basis functions,   132 primitive gaussians,    86 cartesian basis functions
    16 alpha electrons       16 beta electrons
       nuclear repulsion energy        73.5084124222 Hartrees.
 IExCor= 4336 DFT=T Ex+Corr=M062X ExCW=0 ScaHFX=  0.540000
 ScaDFX=  1.000000  1.000000  1.000000  1.000000 ScalE2=  1.000000  1.000000
 IRadAn=      7 IRanWt=     -1 IRanGd=            0 ICorTp=0 IEmpDi=  4
 NAtoms=    6 NActive=    6 NUniq=    6 SFac= 1.00D+00 NAtFMM=   60 NAOKFM=F Big=F
 Integral buffers will be    131072 words long.
 Raffenetti 2 integral format.
 Two-electron integral symmetry is turned off.
 Leave Link  301 at Mon Apr 21 20:29:14 2025, MaxMem=   536870912 cpu:               0.6 elap:               0.1
 (Enter /home/szhao/Apps/g16/l302.exe)
 NPDir=0 NMtPBC=     1 NCelOv=     1 NCel=       1 NClECP=     1 NCelD=      1
         NCelK=      1 NCelE2=     1 NClLst=     1 CellRange=     0.0.
 One-electron integrals computed using PRISM.
 NBasis=    84 RedAO= T EigKep=  1.73D-03  NBF=    84
 NBsUse=    84 1.00D-06 EigRej= -1.00D+00 NBFU=    84
 Precomputing XC quadrature grid using
 IXCGrd= 4 IRadAn=           7 IRanWt=          -1 IRanGd=           0 AccXCQ= 0.00D+00.
 Generated NRdTot=       0 NPtTot=           0 NUsed=           0 NTot=          32
 NSgBfM=    84    84    84    84    84 MxSgAt=     6 MxSgA2=     6.
 Leave Link  302 at Mon Apr 21 20:29:15 2025, MaxMem=   536870912 cpu:               1.7 elap:               0.3
 (Enter /home/szhao/Apps/g16/l303.exe)
 DipDrv:  MaxL=1.
 Leave Link  303 at Mon Apr 21 20:29:15 2025, MaxMem=   536870912 cpu:               0.5 elap:               0.1
 (Enter /home/szhao/Apps/g16/l401.exe)
 Initial guess from the checkpoint file:  "opt.chk"
 B after Tr=    -0.000000    0.000001    0.002610
         Rot=    1.000000    0.000001   -0.000000   -0.000009 Ang=   0.00 deg.
 Guess basis will be translated and rotated to current coordinates.
 JPrj=2 DoOrth=T DoCkMO=T.
 Initial guess <Sx>= 0.0000 <Sy>= 0.0000 <Sz>= 0.0000 <S**2>=-0.0000 S=-0.0000
 Generating alternative initial guess.
 ExpMin= 3.31D-02 ExpMax= 6.94D+04 ExpMxC= 2.33D+03 IAcc=3 IRadAn=         5 AccDes= 0.00D+00
 Harris functional with IExCor= 1009 and IRadAn=       5 diagonalized for initial guess.
 HarFok:  IExCor= 1009 AccDes= 0.00D+00 IRadAn=         5 IDoV= 1 UseB2=F ITyADJ=14
 ICtDFT=  3500011 ScaDFX=  1.000000  1.000000  1.000000  1.000000
 FoFCou: FMM=F IPFlag=           0 FMFlag=      100000 FMFlg1=           0
         NFxFlg=           0 DoJE=T BraDBF=F KetDBF=T FulRan=T
         wScrn=  0.000000 ICntrl=       500 IOpCl=  0 I1Cent=   200000004 NGrid=           0
         NMat0=    1 NMatS0=      1 NMatT0=    0 NMatD0=    1 NMtDS0=    0 NMtDT0=    0
 Symmetry not used in FoFCou.
 Harris En= -580.939367630171    
 Leave Link  401 at Mon Apr 21 20:29:15 2025, MaxMem=   536870912 cpu:               3.1 elap:               0.5
 (Enter /home/szhao/Apps/g16/l502.exe)
 Keep R1 and R2 ints in memory in canonical form, NReq=20057634.
 FoFCou: FMM=F IPFlag=           0 FMFlag=           0 FMFlg1=           0
         NFxFlg=           0 DoJE=F BraDBF=F KetDBF=F FulRan=T
         wScrn=  0.000000 ICntrl=       600 IOpCl=  0 I1Cent=           0 NGrid=           0
         NMat0=    1 NMatS0=   3570 NMatT0=    0 NMatD0=    1 NMtDS0=    0 NMtDT0=    0
 Symmetry not used in FoFCou.
 Two-electron integral symmetry not used.
 UHF open shell SCF:
 Using DIIS extrapolation, IDIIS=  1040.
 NGot=   536870912 LenX=   524106186 LenY=   524098349
 Requested convergence on RMS density matrix=1.00D-08 within 128 cycles.
 Requested convergence on MAX density matrix=1.00D-06.
 Requested convergence on             energy=1.00D-06.
 No special actions if energy rises.

 Cycle   1  Pass 1  IDiag  1:
 E= -581.255222751075    
 DIIS: error= 7.50D-04 at cycle   1 NSaved=   1.
 NSaved= 1 IEnMin= 1 EnMin= -581.255222751075     IErMin= 1 ErrMin= 7.50D-04
 ErrMax= 7.50D-04  0.00D+00 EMaxC= 1.00D-01 BMatC= 1.24D-04 BMatP= 1.24D-04
 IDIUse=3 WtCom= 9.92D-01 WtEn= 7.50D-03
 Coeff-Com:  0.100D+01
 Coeff-En:   0.100D+01
 Coeff:      0.100D+01
 Gap=     0.393 Goal=   None    Shift=    0.000
 Gap=     0.393 Goal=   None    Shift=    0.000
 RMSDP=1.13D-04 MaxDP=1.27D-03              OVMax= 3.73D-03

 Cycle   2  Pass 1  IDiag  1:
 E= -581.255286690771     Delta-E=       -0.000063939696 Rises=F Damp=F
 DIIS: error= 1.44D-04 at cycle   2 NSaved=   2.
 NSaved= 2 IEnMin= 2 EnMin= -581.255286690771     IErMin= 2 ErrMin= 1.44D-04
 ErrMax= 1.44D-04  0.00D+00 EMaxC= 1.00D-01 BMatC= 3.16D-06 BMatP= 1.24D-04
 IDIUse=3 WtCom= 9.99D-01 WtEn= 1.44D-03
 Coeff-Com: -0.133D+00 0.113D+01
 Coeff-En:   0.000D+00 0.100D+01
 Coeff:     -0.133D+00 0.113D+01
 Gap=     0.178 Goal=   None    Shift=    0.000
 Gap=     0.178 Goal=   None    Shift=    0.000
 RMSDP=2.56D-05 MaxDP=4.20D-04 DE=-6.39D-05 OVMax= 1.27D-03

 Cycle   3  Pass 1  IDiag  1:
 E= -581.255289913189     Delta-E=       -0.000003222419 Rises=F Damp=F
 DIIS: error= 2.85D-05 at cycle   3 NSaved=   3.
 NSaved= 3 IEnMin= 3 EnMin= -581.255289913189     IErMin= 3 ErrMin= 2.85D-05
 ErrMax= 2.85D-05  0.00D+00 EMaxC= 1.00D-01 BMatC= 8.96D-08 BMatP= 3.16D-06
 IDIUse=1 WtCom= 1.00D+00 WtEn= 0.00D+00
 Coeff-Com:  0.940D-02-0.183D+00 0.117D+01
 Coeff:      0.940D-02-0.183D+00 0.117D+01
 Gap=     0.178 Goal=   None    Shift=    0.000
 Gap=     0.178 Goal=   None    Shift=    0.000
 RMSDP=8.01D-06 MaxDP=1.12D-04 DE=-3.22D-06 OVMax= 2.81D-04

 Cycle   4  Pass 1  IDiag  1:
 E= -581.255290025307     Delta-E=       -0.000000112117 Rises=F Damp=F
 DIIS: error= 4.02D-06 at cycle   4 NSaved=   4.
 NSaved= 4 IEnMin= 4 EnMin= -581.255290025307     IErMin= 4 ErrMin= 4.02D-06
 ErrMax= 4.02D-06  0.00D+00 EMaxC= 1.00D-01 BMatC= 8.66D-09 BMatP= 8.96D-08
 IDIUse=1 WtCom= 1.00D+00 WtEn= 0.00D+00
 Coeff-Com:  0.639D-02-0.824D-01 0.300D+00 0.776D+00
 Coeff:      0.639D-02-0.824D-01 0.300D+00 0.776D+00
 Gap=     0.178 Goal=   None    Shift=    0.000
 Gap=     0.178 Goal=   None    Shift=    0.000
 RMSDP=1.21D-06 MaxDP=1.69D-05 DE=-1.12D-07 OVMax= 3.24D-05

 Cycle   5  Pass 1  IDiag  1:
 E= -581.255290028149     Delta-E=       -0.000000002842 Rises=F Damp=F
 DIIS: error= 7.80D-07 at cycle   5 NSaved=   5.
 NSaved= 5 IEnMin= 5 EnMin= -581.255290028149     IErMin= 5 ErrMin= 7.80D-07
 ErrMax= 7.80D-07  0.00D+00 EMaxC= 1.00D-01 BMatC= 1.84D-10 BMatP= 8.66D-09
 IDIUse=1 WtCom= 1.00D+00 WtEn= 0.00D+00
 Coeff-Com: -0.188D-03 0.529D-02-0.462D-01 0.175D-01 0.102D+01
 Coeff:     -0.188D-03 0.529D-02-0.462D-01 0.175D-01 0.102D+01
 Gap=     0.178 Goal=   None    Shift=    0.000
 Gap=     0.178 Goal=   None    Shift=    0.000
 RMSDP=5.21D-07 MaxDP=7.22D-06 DE=-2.84D-09 OVMax= 1.38D-05

 Cycle   6  Pass 1  IDiag  1:
 E= -581.255290028334     Delta-E=       -0.000000000184 Rises=F Damp=F
 DIIS: error= 2.05D-07 at cycle   6 NSaved=   6.
 NSaved= 6 IEnMin= 6 EnMin= -581.255290028334     IErMin= 6 ErrMin= 2.05D-07
 ErrMax= 2.05D-07  0.00D+00 EMaxC= 1.00D-01 BMatC= 1.26D-11 BMatP= 1.84D-10
 IDIUse=1 WtCom= 1.00D+00 WtEn= 0.00D+00
 Coeff-Com: -0.263D-03 0.393D-02-0.191D-01-0.236D-01 0.177D+00 0.862D+00
 Coeff:     -0.263D-03 0.393D-02-0.191D-01-0.236D-01 0.177D+00 0.862D+00
 Gap=     0.178 Goal=   None    Shift=    0.000
 Gap=     0.178 Goal=   None    Shift=    0.000
 RMSDP=9.61D-08 MaxDP=1.44D-06 DE=-1.84D-10 OVMax= 3.45D-06

 Cycle   7  Pass 1  IDiag  1:
 E= -581.255290028341     Delta-E=       -0.000000000008 Rises=F Damp=F
 DIIS: error= 1.50D-07 at cycle   7 NSaved=   7.
 NSaved= 7 IEnMin= 7 EnMin= -581.255290028341     IErMin= 7 ErrMin= 1.50D-07
 ErrMax= 1.50D-07  0.00D+00 EMaxC= 1.00D-01 BMatC= 3.99D-12 BMatP= 1.26D-11
 IDIUse=1 WtCom= 1.00D+00 WtEn= 0.00D+00
 Coeff-Com: -0.104D-03 0.140D-02-0.572D-02-0.106D-01 0.139D-01 0.381D+00
 Coeff-Com:  0.620D+00
 Coeff:     -0.104D-03 0.140D-02-0.572D-02-0.106D-01 0.139D-01 0.381D+00
 Coeff:      0.620D+00
 Gap=     0.178 Goal=   None    Shift=    0.000
 Gap=     0.178 Goal=   None    Shift=    0.000
 RMSDP=2.66D-08 MaxDP=4.81D-07 DE=-7.62D-12 OVMax= 1.56D-06

 Cycle   8  Pass 1  IDiag  1:
 E= -581.255290028344     Delta-E=       -0.000000000003 Rises=F Damp=F
 DIIS: error= 6.46D-08 at cycle   8 NSaved=   8.
 NSaved= 8 IEnMin= 8 EnMin= -581.255290028344     IErMin= 8 ErrMin= 6.46D-08
 ErrMax= 6.46D-08  0.00D+00 EMaxC= 1.00D-01 BMatC= 7.63D-13 BMatP= 3.99D-12
 IDIUse=1 WtCom= 1.00D+00 WtEn= 0.00D+00
 Coeff-Com:  0.140D-04-0.302D-03 0.204D-02 0.545D-03-0.401D-01-0.206D-01
 Coeff-Com:  0.309D+00 0.749D+00
 Coeff:      0.140D-04-0.302D-03 0.204D-02 0.545D-03-0.401D-01-0.206D-01
 Coeff:      0.309D+00 0.749D+00
 Gap=     0.178 Goal=   None    Shift=    0.000
 Gap=     0.178 Goal=   None    Shift=    0.000
 RMSDP=1.45D-08 MaxDP=2.18D-07 DE=-2.61D-12 OVMax= 6.66D-07

 Cycle   9  Pass 1  IDiag  1:
 E= -581.255290028345     Delta-E=       -0.000000000001 Rises=F Damp=F
 DIIS: error= 6.64D-09 at cycle   9 NSaved=   9.
 NSaved= 9 IEnMin= 9 EnMin= -581.255290028345     IErMin= 9 ErrMin= 6.64D-09
 ErrMax= 6.64D-09  0.00D+00 EMaxC= 1.00D-01 BMatC= 1.60D-14 BMatP= 7.63D-13
 IDIUse=1 WtCom= 1.00D+00 WtEn= 0.00D+00
 Coeff-Com:  0.953D-05-0.144D-03 0.748D-03 0.404D-03-0.459D-02-0.315D-01
 Coeff-Com: -0.128D-01 0.957D-01 0.952D+00
 Coeff:      0.953D-05-0.144D-03 0.748D-03 0.404D-03-0.459D-02-0.315D-01
 Coeff:     -0.128D-01 0.957D-01 0.952D+00
 Gap=     0.178 Goal=   None    Shift=    0.000
 Gap=     0.178 Goal=   None    Shift=    0.000
 RMSDP=3.50D-09 MaxDP=5.67D-08 DE=-1.14D-12 OVMax= 1.25D-07

 SCF Done:  E(UM062X) =  -581.255290028     A.U. after    9 cycles
            NFock=  9  Conv=0.35D-08     -V/T= 2.0020
 <Sx>= 0.0000 <Sy>= 0.0000 <Sz>= 0.0000 <S**2>=-0.0000 S=-0.0000
 <L.S>=  0.00000000000    
 KE= 5.800981385821D+02 PE=-1.530911167520D+03 EE= 2.960493264870D+02
 Annihilation of the first spin contaminant:
 S**2 before annihilation    -0.0000,   after     0.0000
 Leave Link  502 at Mon Apr 21 20:29:24 2025, MaxMem=   536870912 cpu:              60.0 elap:               7.9
 (Enter /home/szhao/Apps/g16/l701.exe)
 ... and contract with generalized density number  0.
 Compute integral first derivatives.
 Leave Link  701 at Mon Apr 21 20:29:24 2025, MaxMem=   536870912 cpu:               1.0 elap:               0.2
 (Enter /home/szhao/Apps/g16/l702.exe)
 L702 exits ... SP integral derivatives will be done elsewhere.
 Leave Link  702 at Mon Apr 21 20:29:25 2025, MaxMem=   536870912 cpu:               0.5 elap:               0.2
 (Enter /home/szhao/Apps/g16/l703.exe)
 Integral derivatives from FoFJK, PRISM(SPDF).
 Compute integral first derivatives, UseDBF=F ICtDFT=           0.
 Calling FoFJK, ICntrl=      2127 FMM=F ISym2X=0 I1Cent= 0 IOpClX= 1 NMat=1 NMatS=1 NMatT=0.
 FoFJK:  IHMeth= 1 ICntrl=    2127 DoSepK=F KAlg= 0 I1Cent=           0 FoldK=F
 IRaf=         0 NMat=       1 IRICut=       1 DoRegI=T DoRafI=F ISym2E= 0 IDoP0=0 IntGTp=1.
 FoFCou: FMM=F IPFlag=           0 FMFlag=      100000 FMFlg1=         800
         NFxFlg=           0 DoJE=F BraDBF=F KetDBF=F FulRan=T
         wScrn=  0.000000 ICntrl=      2127 IOpCl=  1 I1Cent=           0 NGrid=           0
         NMat0=    1 NMatS0=      1 NMatT0=    0 NMatD0=    1 NMtDS0=    0 NMtDT0=    0
 Symmetry not used in FoFCou.
 Leave Link  703 at Mon Apr 21 20:29:26 2025, MaxMem=   536870912 cpu:               9.1 elap:               1.3
 (Enter /home/szhao/Apps/g16/l716.exe)
 Dipole        =-5.95807742D-07-1.60606950D-07-2.13332478D-04
 -------------------------------------------------------------------
 Center     Atomic                   Forces (Hartrees/Bohr)
 Number     Number              X              Y              Z
 -------------------------------------------------------------------
      1       14          -0.000000000   -0.000000000   -0.000000000
      2       14          -0.000000000   -0.000000000   -0.000000000
      3        1          -0.000072398    0.000005592    0.000144391
      4        1           0.000072387   -0.000005382    0.000144144
      5        1          -0.000075014    0.000004387   -0.000468719
      6        1           0.000074938   -0.000004950   -0.000468569
 -------------------------------------------------------------------
 Cartesian Forces:  Max     0.000468719 RMS     0.000167118
 Leave Link  716 at Mon Apr 21 20:29:27 2025, MaxMem=   536870912 cpu:               0.6 elap:               0.2
 (Enter /home/szhao/Apps/g16/l103.exe)

 GradGradGradGradGradGradGradGradGradGradGradGradGradGradGradGradGradGrad
 Berny optimization.
 Using GEDIIS/GDIIS optimizer.
 FormGI is forming the generalized inverse of G from B-inverse, IUseBI=4.
 Internal  Forces:  Max     0.000752528 RMS     0.000238406
 Search for a local minimum.
 Step number   3 out of a maximum of   30
 All quantities printed in internal units (Hartrees-Bohrs-Radians)
 RMS Force = .25107D-03 SwitMx=.10000D-02 MixMth= 2
 Mixed Optimization -- En-DIIS/RFO-DIIS
 Swapping is turned off.
 Update second derivatives using D2CorX and points    1    2    3
 DE= -6.23D-07 DEPred=-3.34D-05 R= 1.86D-02
 Trust test= 1.86D-02 RLast= 7.33D-02 DXMaxT set to 1.50D-01
 The second derivative matrix:
                          X1        Y1        Z1        X2        Y2
           X1           0.52068
           Y1          -0.00016   0.50000
           Z1           0.00362  -0.00004   0.50090
           X2          -0.02068   0.00016  -0.00362   0.52067
           Y2           0.00016  -0.00000   0.00004  -0.00016   0.50000
           Z2           0.00362  -0.00004   0.00090  -0.00362   0.00004
           R1          -0.01153   0.00004  -0.00046   0.01153  -0.00004
           R2          -0.01165   0.00004  -0.00047   0.01165  -0.00004
           R3          -0.01152   0.00004  -0.00046   0.01152  -0.00004
           R4          -0.01165   0.00004  -0.00047   0.01165  -0.00004
           A1          -0.00828   0.00007  -0.00182   0.00828  -0.00008
           A2          -0.00835   0.00007  -0.00184   0.00835  -0.00008
           A3           0.01693  -0.00015   0.00366  -0.01693   0.00015
           A4          -0.00828   0.00007  -0.00182   0.00828  -0.00008
           A5          -0.00834   0.00007  -0.00184   0.00834  -0.00008
           A6           0.01693  -0.00015   0.00366  -0.01693   0.00015
           D1           0.00091  -0.00000   0.00004  -0.00091   0.00000
           D2          -0.00255   0.00004  -0.00101   0.00255  -0.00004
           D3          -0.00255   0.00004  -0.00101   0.00255  -0.00004
           D4          -0.00601   0.00007  -0.00206   0.00601  -0.00008
                          Z2        R1        R2        R3        R4
           Z2           0.50090
           R1          -0.00046   0.18287
           R2          -0.00047   0.00173   0.18290
           R3          -0.00046   0.00171   0.00173   0.18287
           R4          -0.00047   0.00173   0.00175   0.00173   0.18290
           A1          -0.00182  -0.00101  -0.00100  -0.00101  -0.00100
           A2          -0.00184  -0.00100  -0.00099  -0.00100  -0.00099
           A3           0.00366   0.00197   0.00196   0.00197   0.00196
           A4          -0.00182  -0.00101  -0.00100  -0.00101  -0.00100
           A5          -0.00184  -0.00100  -0.00099  -0.00100  -0.00099
           A6           0.00366   0.00197   0.00196   0.00197   0.00196
           D1           0.00004  -0.00021  -0.00021  -0.00021  -0.00021
           D2          -0.00101   0.00025   0.00026   0.00025   0.00026
           D3          -0.00101   0.00025   0.00026   0.00025   0.00026
           D4          -0.00206   0.00071   0.00072   0.00071   0.00072
                          A1        A2        A3        A4        A5
           A1           0.15087
           A2          -0.00910   0.15093
           A3           0.01810   0.01804   0.12411
           A4          -0.00913  -0.00910   0.01810   0.15087
           A5          -0.00910  -0.00907   0.01804  -0.00910   0.15093
           A6           0.01810   0.01804  -0.03590   0.01810   0.01805
           D1          -0.00030  -0.00030   0.00060  -0.00030  -0.00030
           D2           0.00154   0.00155  -0.00310   0.00154   0.00155
           D3           0.00154   0.00155  -0.00310   0.00154   0.00155
           D4           0.00338   0.00341  -0.00680   0.00338   0.00341
                          A6        D1        D2        D3        D4
           A6           0.12410
           D1           0.00060   0.00231
           D2          -0.00310  -0.00004   0.00342
           D3          -0.00309  -0.00004   0.00112   0.00342
           D4          -0.00679  -0.00008   0.00228   0.00228   0.00694
 ITU= -1  1  0
     Eigenvalues ---    0.00227   0.00231   0.00496   0.05574   0.16000
     Eigenvalues ---    0.16000   0.16000   0.18115   0.18115   0.18116
     Eigenvalues ---    0.188431000.000001000.000001000.000001000.00000
     Eigenvalues --- 1000.000001000.000001000.000001000.000001000.00000
 En-DIIS/RFO-DIIS/Sim-DIIS IScMMF=       -3 using points:     3    2
 RFO step:  Lambda=-1.34878099D-04.
 NNeg= 0 NGDIIS= 2 SimSw=  2.50D-03 Rises=F DC= -6.23D-07 SmlDif=  1.00D-05
 NRisDI= 0 DoIntr=F SqrtH=F CThrHd= 10.0 CDAdj=  3.0
 RMS Error=  0.3640080408D-01 NUsed= 2 OKEnD=F EnDIS=F
 InvSVX:  RCond= 1.29D-03 Info=           0 Equed=N FErr=  7.24D-15 BErr=  2.19D-17
 DidBck=T Rises=F RFO-DIIS coefs:   -0.65664    1.65664
 Iteration  1 RMS(Cart)=  0.05339154 RMS(Int)=  0.00165258
 Iteration  2 RMS(Cart)=  0.00174688 RMS(Int)=  0.00041909
 Iteration  3 RMS(Cart)=  0.00000094 RMS(Int)=  0.00041909
 ITry= 1 IFail=0 DXMaxC= 1.62D-01 DCOld= 1.00D+10 DXMaxT= 1.50D-01 DXLimC= 3.00D+00 Rises=F
 Variable       Old X    -DE/DX   Delta X   Delta X   Delta X     New X
                                 (Linear)    (Quad)   (Total)
[...]
           R4          -0.00013   0.00137   0.00139   0.00137   0.18254
           A1           0.00003  -0.00051  -0.00051  -0.00051  -0.00051
           A2           0.00013  -0.00049  -0.00048  -0.00049  -0.00048
           A3           0.00061   0.00090   0.00090   0.00090   0.00090
           A4           0.00003  -0.00051  -0.00051  -0.00051  -0.00051
           A5           0.00014  -0.00049  -0.00048  -0.00049  -0.00048
           A6           0.00061   0.00090   0.00090   0.00090   0.00090
           D1           0.00971  -0.00012  -0.00011  -0.00012  -0.00011
           D2           0.00005  -0.00002  -0.00000  -0.00002  -0.00000
           D3          -0.00000  -0.00002   0.00000  -0.00002   0.00000
           D4          -0.00966   0.00008   0.00010   0.00008   0.00011
                          A1        A2        A3        A4        A5
           A1           0.15307
           A2          -0.00683   0.15328
           A3           0.01303   0.01283   0.13490
           A4          -0.00693  -0.00683   0.01303   0.15307
           A5          -0.00683  -0.00672   0.01283  -0.00683   0.15328
           A6           0.01303   0.01283  -0.02510   0.01303   0.01283
           D1           0.00016   0.00031   0.00024   0.00015   0.00031
           D2           0.00003   0.00009   0.00005   0.00002   0.00009
           D3           0.00002   0.00009   0.00006   0.00002   0.00009
           D4          -0.00011  -0.00012  -0.00013  -0.00011  -0.00013
                          A6        D1        D2        D3        D4
           A6           0.13490
           D1           0.00024   0.01551
           D2           0.00005   0.00270   0.00496
           D3           0.00006   0.00265   0.00267   0.00498
           D4          -0.00013  -0.00785   0.00262   0.00269   0.01547
 ITU=  1  0 -1 -1 -1  1  0
     Eigenvalues ---    0.00230   0.01297   0.02334   0.08285   0.16000
     Eigenvalues ---    0.16000   0.16001   0.18115   0.18115   0.18116
     Eigenvalues ---    0.186741000.000001000.000001000.000001000.00000
     Eigenvalues --- 1000.000001000.000001000.000001000.000001000.00000
 En-DIIS/RFO-DIIS/Sim-DIIS IScMMF=       -3 using points:     7    6    5
 RFO step:  Lambda=-4.62879683D-09.
 NNeg= 0 NGDIIS= 3 SimSw=  2.50D-03 Rises=F DC= -1.45D-05 SmlDif=  1.00D-05
 NRisDI= 0 DoIntr=F SqrtH=F CThrHd= 10.0 CDAdj=  3.0
 RMS Error=  0.2410995527D-03 NUsed= 3 OKEnD=T EnDIS=F
 InvSVX:  RCond= 2.06D-04 Info=           0 Equed=N FErr=  1.25D-15 BErr=  8.23D-17
 DidBck=F Rises=F RFO-DIIS coefs:    1.01102   -0.00904   -0.00198
 Iteration  1 RMS(Cart)=  0.00040311 RMS(Int)=  0.00000064
 Iteration  2 RMS(Cart)=  0.00000011 RMS(Int)=  0.00000063
 ITry= 1 IFail=0 DXMaxC= 1.19D-03 DCOld= 1.00D+10 DXMaxT= 8.41D-02 DXLimC= 3.00D+00 Rises=F
 Variable       Old X    -DE/DX   Delta X   Delta X   Delta X     New X
                                 (Linear)    (Quad)   (Total)
    X1       -2.24408   0.00002   0.00000   0.00000   0.00000  -2.24408
    Y1        0.00000   0.00000   0.00000   0.00000   0.00000   0.00000
    Z1        0.00000  -0.00000   0.00000   0.00000   0.00000   0.00000
    X2        2.24408  -0.00002  -0.00000   0.00000   0.00000   2.24408
    Y2        0.00000  -0.00000   0.00000   0.00000   0.00000   0.00000
    Z2        0.00000  -0.00001   0.00000   0.00000   0.00000   0.00000
    R1        2.77997  -0.00001   0.00000  -0.00007  -0.00007   2.77990
    R2        2.77998  -0.00001   0.00000  -0.00008  -0.00008   2.77990
    R3        2.77997  -0.00001   0.00000  -0.00007  -0.00007   2.77990
    R4        2.77998  -0.00001   0.00000  -0.00008  -0.00008   2.77990
    A1        2.11411   0.00000   0.00001  -0.00001   0.00000   2.11411
    A2        2.11416  -0.00000   0.00001  -0.00004  -0.00002   2.11414
    A3        2.05492   0.00000  -0.00002   0.00004   0.00002   2.05494
    A4        2.11411   0.00000   0.00001  -0.00001   0.00000   2.11411
    A5        2.11416  -0.00000   0.00001  -0.00004  -0.00002   2.11414
    A6        2.05492   0.00000  -0.00002   0.00004   0.00002   2.05494
    D1       -3.14129  -0.00001  -0.00030  -0.00000  -0.00031   3.14159
    D2        0.00012   0.00000  -0.00002   0.00070   0.00068   0.00080
    D3       -0.00008  -0.00000  -0.00002  -0.00069  -0.00071  -0.00079
    D4        3.14132   0.00001   0.00027   0.00001   0.00027  -3.14159
         Item               Value     Threshold  Converged?
 Maximum Force            0.000014     0.000450     YES
 RMS     Force            0.000008     0.000300     YES
 Maximum Displacement     0.001194     0.001800     YES
 RMS     Displacement     0.000403     0.001200     YES
 Predicted change in Energy=-5.120683D-09
 Optimization completed.
    -- Stationary point found.
                           ----------------------------
                           !   Optimized Parameters   !
                           ! (Angstroms and Degrees)  !
 --------------------------                            --------------------------
 ! Name  Definition              Value          Derivative Info.                !
 --------------------------------------------------------------------------------
 ! X1    R(1,-1)                -1.1875         -DE/DX =    0.0                 !
 ! Y1    R(1,-2)                 0.0            -DE/DX =    0.0                 !
 ! Z1    R(1,-3)                 0.0            -DE/DX =    0.0                 !
 ! X2    R(2,-1)                 1.1875         -DE/DX =    0.0                 !
 ! Y2    R(2,-2)                 0.0            -DE/DX =    0.0                 !
 ! Z2    R(2,-3)                 0.0            -DE/DX =    0.0                 !
 ! R1    R(1,3)                  1.4711         -DE/DX =    0.0                 !
 ! R2    R(1,5)                  1.4711         -DE/DX =    0.0                 !
 ! R3    R(2,4)                  1.4711         -DE/DX =    0.0                 !
 ! R4    R(2,6)                  1.4711         -DE/DX =    0.0                 !
 ! A1    A(2,1,3)              121.1293         -DE/DX =    0.0                 !
 ! A2    A(2,1,5)              121.1324         -DE/DX =    0.0                 !
 ! A3    A(3,1,5)              117.7382         -DE/DX =    0.0                 !
 ! A4    A(1,2,4)              121.1293         -DE/DX =    0.0                 !
 ! A5    A(1,2,6)              121.1324         -DE/DX =    0.0                 !
 ! A6    A(4,2,6)              117.7383         -DE/DX =    0.0                 !
 ! D1    D(3,1,2,4)            180.0176         -DE/DX =    0.0                 !
 ! D2    D(3,1,2,6)              0.0068         -DE/DX =    0.0                 !
 ! D3    D(5,1,2,4)             -0.0046         -DE/DX =    0.0                 !
 ! D4    D(5,1,2,6)           -180.0154         -DE/DX =    0.0                 !
 --------------------------------------------------------------------------------
 Lowest energy point so far.  Saving SCF results.
 Largest change from initial coordinates is atom    3       0.023 Angstoms.
 GradGradGradGradGradGradGradGradGradGradGradGradGradGradGradGradGradGrad

 Leave Link  103 at Mon Apr 21 20:30:16 2025, MaxMem=   536870912 cpu:               0.7 elap:               0.1
 (Enter /home/szhao/Apps/g16/l202.exe)
                          Input orientation:                          
 ---------------------------------------------------------------------
 Center     Atomic      Atomic             Coordinates (Angstroms)
 Number     Number       Type             X           Y           Z
 ---------------------------------------------------------------------
      1         14           0       -1.187518    0.000000    0.000000
      2         14           0        1.187518    0.000000    0.000000
      3          1           0       -1.948034   -1.259265    0.000659
      4          1           0        1.948035    1.259265   -0.000273
      5          1           0       -1.948104    1.259225   -0.000171
      6          1           0        1.948103   -1.259226    0.000509
 ---------------------------------------------------------------------
                    Distance matrix (angstroms):
                    1          2          3          4          5
     1  Si   0.000000
     2  Si   2.375036   0.000000
     3  H    1.471099   3.378970   0.000000
     4  H    3.378970   1.471099   4.639218   0.000000
     5  H    1.471101   3.379019   2.518490   3.896138   0.000000
     6  H    3.379019   1.471101   3.896137   2.518490   4.639291
                    6
     6  H    0.000000
 Symmetry turned off by external request.
 Stoichiometry    H4Si2
 Framework group  C1[X(H4Si2)]
 Deg. of freedom    12
 Full point group                 C1      NOp   1
 Rotational constants (GHZ):          79.0590394           5.3646873           5.0237894
 Leave Link  202 at Mon Apr 21 20:30:16 2025, MaxMem=   536870912 cpu:               0.3 elap:               0.1
 (Enter /home/szhao/Apps/g16/l601.exe)
 Copying SCF densities to generalized density rwf, IOpCl= 1 IROHF=0.

 **********************************************************************

            Population analysis using the SCF density.

 **********************************************************************

 Alpha  occ. eigenvalues --  -67.01597 -67.01597  -5.56443  -5.56437  -3.87666
 Alpha  occ. eigenvalues --   -3.87660  -3.87501  -3.87458  -3.87458  -3.87453
 Alpha  occ. eigenvalues --   -0.62502  -0.56656  -0.43884  -0.42080  -0.36680
 Alpha  occ. eigenvalues --   -0.23394
 Alpha virt. eigenvalues --   -0.05546   0.00004   0.02230   0.03285   0.03788
 Alpha virt. eigenvalues --    0.04851   0.05033   0.05066   0.05693   0.07200
 Alpha virt. eigenvalues --    0.07542   0.08619   0.12738   0.23638   0.24548
 Alpha virt. eigenvalues --    0.27875   0.29785   0.30119   0.30847   0.32756
 Alpha virt. eigenvalues --    0.35823   0.40074   0.42856   0.45876   0.50215
 Alpha virt. eigenvalues --    0.52043   0.52334   0.57593   0.60728   0.61094
 Alpha virt. eigenvalues --    0.74605   0.78367   0.84226   0.85226   0.93294
 Alpha virt. eigenvalues --    0.94651   1.20811   1.22862   1.25021   1.27839
 Alpha virt. eigenvalues --    1.33876   1.34867   1.38872   1.46941   1.47417
 Alpha virt. eigenvalues --    1.47859   1.48098   1.49090   1.57550   1.64959
 Alpha virt. eigenvalues --    1.90555   1.94663   2.08651   2.13456   2.58419
 Alpha virt. eigenvalues --    2.58480   2.65818   2.69882   5.54527   5.61953
 Alpha virt. eigenvalues --   11.44969  11.47080  11.50436  11.59966  11.60384
 Alpha virt. eigenvalues --   11.61942 141.12293 141.21390
  Beta  occ. eigenvalues --  -67.01597 -67.01597  -5.56443  -5.56437  -3.87666
  Beta  occ. eigenvalues --   -3.87660  -3.87501  -3.87458  -3.87458  -3.87453
  Beta  occ. eigenvalues --   -0.62502  -0.56656  -0.43884  -0.42080  -0.36680
  Beta  occ. eigenvalues --   -0.23394
  Beta virt. eigenvalues --   -0.05546   0.00004   0.02230   0.03285   0.03788
  Beta virt. eigenvalues --    0.04851   0.05033   0.05066   0.05693   0.07200
  Beta virt. eigenvalues --    0.07542   0.08619   0.12738   0.23638   0.24548
  Beta virt. eigenvalues --    0.27875   0.29785   0.30119   0.30847   0.32756
  Beta virt. eigenvalues --    0.35823   0.40074   0.42856   0.45876   0.50215
  Beta virt. eigenvalues --    0.52043   0.52334   0.57593   0.60728   0.61094
  Beta virt. eigenvalues --    0.74605   0.78367   0.84226   0.85226   0.93294
  Beta virt. eigenvalues --    0.94651   1.20811   1.22862   1.25021   1.27839
  Beta virt. eigenvalues --    1.33876   1.34867   1.38872   1.46941   1.47417
  Beta virt. eigenvalues --    1.47859   1.48098   1.49090   1.57550   1.64959
  Beta virt. eigenvalues --    1.90555   1.94663   2.08651   2.13456   2.58419
  Beta virt. eigenvalues --    2.58480   2.65818   2.69882   5.54527   5.61953
  Beta virt. eigenvalues --   11.44969  11.47080  11.50436  11.59966  11.60384
  Beta virt. eigenvalues --   11.61942 141.12293 141.21390
          Condensed to atoms (all electrons):
               1          2          3          4          5          6
     1  Si  12.580728   0.610993   0.361331  -0.018858   0.361333  -0.018856
     2  Si   0.610993  12.580728  -0.018858   0.361331  -0.018856   0.361333
     3  H    0.361331  -0.018858   0.737476   0.000524  -0.019524   0.000716
     4  H   -0.018858   0.361331   0.000524   0.737476   0.000716  -0.019524
     5  H    0.361333  -0.018856  -0.019524   0.000716   0.737468   0.000524
     6  H   -0.018856   0.361333   0.000716  -0.019524   0.000524   0.737468
          Atomic-Atomic Spin Densities.
               1          2          3          4          5          6
     1  Si  -0.000000   0.000000   0.000000   0.000000  -0.000000  -0.000000
     2  Si   0.000000   0.000000  -0.000000  -0.000000   0.000000   0.000000
     3  H    0.000000  -0.000000  -0.000000   0.000000  -0.000000  -0.000000
     4  H    0.000000  -0.000000   0.000000  -0.000000  -0.000000  -0.000000
     5  H   -0.000000   0.000000  -0.000000  -0.000000   0.000000   0.000000
     6  H   -0.000000   0.000000  -0.000000  -0.000000   0.000000   0.000000
 Mulliken charges and spin densities:
               1          2
     1  Si   0.123328  -0.000000
     2  Si   0.123328   0.000000
     3  H   -0.061666   0.000000
     4  H   -0.061666  -0.000000
     5  H   -0.061662   0.000000
     6  H   -0.061662  -0.000000
 Sum of Mulliken charges =  -0.00000   0.00000
 Mulliken charges and spin densities with hydrogens summed into heavy atoms:
               1          2
     1  Si  -0.000000  -0.000000
     2  Si   0.000000   0.000000
 Electronic spatial extent (au):  <R**2>=            284.4090
 Charge=             -0.0000 electrons
 Dipole moment (field-independent basis, Debye):
    X=              0.0000    Y=              0.0000    Z=             -0.0000  Tot=              0.0000
 Quadrupole moment (field-independent basis, Debye-Ang):
   XX=            -27.1792   YY=            -29.2902   ZZ=            -33.0353
   XY=             -0.0002   XZ=             -0.0000   YZ=             -0.0012
 Traceless Quadrupole moment (field-independent basis, Debye-Ang):
   XX=              2.6557   YY=              0.5447   ZZ=             -3.2004
   XY=             -0.0002   XZ=             -0.0000   YZ=             -0.0012
 Octapole moment (field-independent basis, Debye-Ang**2):
  XXX=              0.0000  YYY=              0.0000  ZZZ=             -0.0013  XYY=              0.0000
  XXY=              0.0000  XXZ=              0.0005  XZZ=              0.0000  YZZ=              0.0000
  YYZ=             -0.0004  XYZ=              0.0000
 Hexadecapole moment (field-independent basis, Debye-Ang**3):
 XXXX=           -337.3989 YYYY=            -82.8474 ZZZZ=            -70.8318 XXXY=             -0.0009
 XXXZ=              0.0019 YYYX=             -0.0003 YYYZ=              0.0011 ZZZX=              0.0011
 ZZZY=              0.0027 XXYY=            -71.5456 XXZZ=            -70.6370 YYZZ=            -26.4197
 XXYZ=              0.0003 YYXZ=              0.0003 ZZXY=             -0.0000
 N-N= 7.350448618667D+01 E-N=-1.530901811064D+03  KE= 5.800975232331D+02
                          Isotropic Fermi Contact Couplings
        Atom                 a.u.       MegaHertz       Gauss      10(-4) cm-1
     1  Si(29)            -0.00000       0.00000       0.00000       0.00000
     2  Si(29)             0.00000      -0.00000      -0.00000      -0.00000
     3  H(1)               0.00000       0.00000       0.00000       0.00000
     4  H(1)               0.00000       0.00000       0.00000       0.00000
     5  H(1)               0.00000       0.00000       0.00000       0.00000
     6  H(1)              -0.00000      -0.00000      -0.00000      -0.00000
 --------------------------------------------------------
       Center         ----  Spin Dipole Couplings  ----
                      3XX-RR        3YY-RR        3ZZ-RR
 --------------------------------------------------------
     1   Atom        0.000000      0.000000      0.000000
     2   Atom        0.000000      0.000000      0.000000
     3   Atom        0.000000      0.000000      0.000000
     4   Atom        0.000000      0.000000      0.000000
     5   Atom        0.000000      0.000000      0.000000
     6   Atom        0.000000      0.000000      0.000000
 --------------------------------------------------------
                        XY            XZ            YZ
 --------------------------------------------------------
     1   Atom        0.000000      0.000000      0.000000
     2   Atom        0.000000      0.000000      0.000000
     3   Atom        0.000000      0.000000      0.000000
     4   Atom        0.000000      0.000000      0.000000
     5   Atom        0.000000      0.000000      0.000000
     6   Atom        0.000000      0.000000      0.000000
 --------------------------------------------------------


 ---------------------------------------------------------------------------------
              Anisotropic Spin Dipole Couplings in Principal Axis System
 ---------------------------------------------------------------------------------

       Atom             a.u.   MegaHertz   Gauss  10(-4) cm-1        Axes

              Baa     0.0000    -0.000    -0.000    -0.000  1.0000  0.0000  0.0000
     1 Si(29) Bbb     0.0000    -0.000    -0.000    -0.000 -0.0000  1.0000  0.0000
              Bcc     0.0000    -0.000    -0.000    -0.000  0.0000  0.0000  1.0000
 
              Baa     0.0000    -0.000    -0.000    -0.000  1.0000  0.0000  0.0000
     2 Si(29) Bbb     0.0000    -0.000    -0.000    -0.000 -0.0000  1.0000  0.0000
              Bcc     0.0000    -0.000    -0.000    -0.000  0.0000  0.0000  1.0000
 
              Baa     0.0000     0.000     0.000     0.000  1.0000  0.0000  0.0000
     3 H(1)   Bbb     0.0000     0.000     0.000     0.000 -0.0000  1.0000  0.0000
              Bcc     0.0000     0.000     0.000     0.000  0.0000  0.0000  1.0000
 
              Baa     0.0000     0.000     0.000     0.000  1.0000  0.0000  0.0000
     4 H(1)   Bbb     0.0000     0.000     0.000     0.000 -0.0000  1.0000  0.0000
              Bcc     0.0000     0.000     0.000     0.000  0.0000  0.0000  1.0000
 
              Baa     0.0000     0.000     0.000     0.000  1.0000  0.0000  0.0000
     5 H(1)   Bbb     0.0000     0.000     0.000     0.000 -0.0000  1.0000  0.0000
              Bcc     0.0000     0.000     0.000     0.000  0.0000  0.0000  1.0000
 
              Baa     0.0000     0.000     0.000     0.000  1.0000  0.0000  0.0000
     6 H(1)   Bbb     0.0000     0.000     0.000     0.000 -0.0000  1.0000  0.0000
              Bcc     0.0000     0.000     0.000     0.000  0.0000  0.0000  1.0000
 

 ---------------------------------------------------------------------------------

 No NMR shielding tensors so no spin-rotation constants.
 Leave Link  601 at Mon Apr 21 20:30:16 2025, MaxMem=   536870912 cpu:               1.6 elap:               0.2
 (Enter /home/szhao/Apps/g16/l9999.exe)
 1\1\GINC-NODE05\FOpt\UM062X\6-311+G(d,p)\H4Si2\SZHAO\21-Apr-2025\0\\#p
  opt UM062X/6-311+G** nosymm int=superfine\\Title Card Required\\0,1\S
 i,-1.187518,0.,0.\Si,1.187518,0.,0.\H,-1.9480343568,-1.259264781,0.000
 6586677\H,1.9480347825,1.2592645586,-0.0002726147\H,-1.9481036637,1.25
 92251839,-0.0001705679\H,1.9481030354,-1.2592255208,0.0005092451\\Vers
 ion=ES64L-G16RevA.03\HF=-581.2553173\S2=0.\S2-1=0.\S2A=0.\RMSD=5.768e-
 09\RMSF=6.518e-06\Dipole=0.0000002,0.0000002,-0.0000043\Quadrupole=1.9
 744335,0.4049809,-2.3794144,-0.000133,-0.0000138,-0.0008905\PG=C01 [X(
 H4Si2)]\\@


 IT TAKES GREATER CHARACTER TO CARRY OFF GOOD FORTUNE THAN BAD.
                     FRENCH PROVERB.
 Job cpu time:       0 days  0 hours  8 minutes 50.7 seconds.
 Elapsed time:       0 days  0 hours  1 minutes 14.2 seconds.
 File lengths (MBytes):  RWF=     22 Int=      0 D2E=      0 Chk=      2 Scr=      2
 Normal termination of Gaussian 16 at Mon Apr 21 20:30:17 2025.
