Title Card Required                                                     
FOpt      UM062X                                                      6-311+G(d,p)        
Number of atoms                            I                6
Info1-9                                    I   N=           9
          15          15           0           0           0         110
           2          18        -502
Full Title                                 C   N=           2
Title Card Required     
Route                                      C   N=           4
#p opt UM062X/6-311+G** nosymm int=superfine    
Charge                                     I                1
Multiplicity                               I                2
Number of electrons                        I               15
Number of alpha electrons                  I                8
Number of beta electrons                   I                7
Number of basis functions                  I               68
Number of independent functions            I               68
Number of point charges in /Mol/           I                0
Number of translation vectors              I                0
Atomic numbers                             I   N=           6
           6           6           1           1           1           1
Nuclear charges                            R   N=           6
  6.00000000E+00  6.00000000E+00  1.00000000E+00  1.00000000E+00  1.00000000E+00
  1.00000000E+00
Current cartesian coordinates              R   N=          18
 -1.95031513E+00  0.00000000E+00  0.00000000E+00  1.95031513E+00  0.00000000E+00
  0.00000000E+00 -2.81326117E+00 -1.85971199E+00  2.67224780E-08 -2.81319934E+00
  1.85979842E+00  3.08218257E-08  2.81326115E+00  1.85971208E+00 -1.31042492E-08
  2.81319931E+00 -1.85979851E+00 -8.99891227E-09
Number of symbols in /Mol/                 I                0
Force Field                                I                0
Atom Types                                 C   N=           6
                                                            
            
Int Atom Types                             I   N=           6
           0           0           0           0           0           0
MM charges                                 R   N=           6
  0.00000000E+00  0.00000000E+00  0.00000000E+00  0.00000000E+00  0.00000000E+00
  0.00000000E+00
Integer atomic weights                     I   N=           6
          12          12           1           1           1           1
Real atomic weights                        R   N=           6
  1.20000000E+01  1.20000000E+01  1.00782504E+00  1.00782504E+00  1.00782504E+00
  1.00782504E+00
Atom fragment info                         I   N=           6
           0           0           0           0           0           0
Atom residue num                           I   N=           6
           0           0           0           0           0           0
Nuclear spins                              I   N=           6
           0           0           1           1           1           1
Nuclear ZEff                               R   N=           6
 -3.60000000E+00 -3.60000000E+00 -1.00000000E+00 -1.00000000E+00 -1.00000000E+00
 -1.00000000E+00
Nuclear ZNuc                               R   N=           6
  6.00000000E+00  6.00000000E+00  1.00000000E+00  1.00000000E+00  1.00000000E+00
  1.00000000E+00
Nuclear QMom                               R   N=           6
  0.00000000E+00  0.00000000E+00  0.00000000E+00  0.00000000E+00  0.00000000E+00
  0.00000000E+00
Nuclear GFac                               R   N=           6
  0.00000000E+00  0.00000000E+00  2.79284600E+00  2.79284600E+00  2.79284600E+00
  2.79284600E+00
MicOpt                                     I   N=           6
          -2          -2          -1          -1          -1          -1
Number of residues                         I                0
Number of secondary structures             I                0
Redundant internal dimensions              I   N=           4
          20          10           6           4
Redundant internal coordinate indices      I   N=          80
           1          -1           0           0           1          -2
           0           0           1          -3           0           0
           2          -1           0           0           2          -2
           0           0           2          -3           0           0
           1           3           0           0           1           4
           0           0           2           5           0           0
           2           6           0           0           2           1
           3           0           2           1           4           0
           3           1           4           0           1           2
           5           0           1           2           6           0
           5           2           6           0           3           1
           2           5           3           1           2           6
           4           1           2           5           4           1
           2           6
Redundant internal coordinates             R   N=          20
 -1.95031513E+00  0.00000000E+00  0.00000000E+00  1.95031513E+00  0.00000000E+00
  0.00000000E+00  2.05017184E+00  2.05022421E+00  2.05017191E+00  2.05022428E+00
  2.00524903E+00  2.00520392E+00  2.27273236E+00  2.00524900E+00  2.00520389E+00
  2.27273242E+00  3.14159265E+00  1.49011612E-08 -2.10734243E-08  3.14159265E+00
ZRed-IntVec                                I   N=          20
          -1          -1          -1          -1          -1          -1
           0           0           0           0           0           0
           0           0           0           0           0           0
           0           0
ZRed-FPVec                                 R   N=          20
  0.00000000E+00  0.00000000E+00  0.00000000E+00  0.00000000E+00  0.00000000E+00
  0.00000000E+00  0.00000000E+00  0.00000000E+00  0.00000000E+00  0.00000000E+00
  0.00000000E+00  0.00000000E+00  0.00000000E+00  0.00000000E+00  0.00000000E+00
  0.00000000E+00  0.00000000E+00  0.00000000E+00  0.00000000E+00  0.00000000E+00
ZRed-Constraint1                           R   N=          20
 -1.95031513E+00  0.00000000E+00  0.00000000E+00  1.95031513E+00  0.00000000E+00
  0.00000000E+00  2.33571955E+00  2.33601539E+00  2.33571955E+00  2.33601539E+00
  2.28703622E+00  2.28179262E+00  1.71435647E+00  2.28703622E+00  2.28179262E+00
  1.71435647E+00  3.14159265E+00  0.00000000E+00  0.00000000E+00  3.14159265E+00
ZRed-Constraint2                           R   N=          20
 -1.95031513E+00  0.00000000E+00  0.00000000E+00  1.95031513E+00  0.00000000E+00
  0.00000000E+00  0.00000000E+00  0.00000000E+00  0.00000000E+00  0.00000000E+00
  0.00000000E+00  0.00000000E+00  0.00000000E+00  0.00000000E+00  0.00000000E+00
  0.00000000E+00  0.00000000E+00  0.00000000E+00  0.00000000E+00  0.00000000E+00
Number of contracted shells                I               28
Number of primitive shells                 I               50
Pure/Cartesian d shells                    I                0
Pure/Cartesian f shells                    I                0
Highest angular momentum                   I                2
Largest degree of contraction              I                6
Shell types                                I   N=          28
           0          -1          -1          -1          -1          -2
           0          -1          -1          -1          -1          -2
           0           0           0           1           0           0
           0           1           0           0           0           1
           0           0           0           1
Number of primitives per shell             I   N=          28
           6           3           1           1           1           1
           6           3           1           1           1           1
           3           1           1           1           3           1
           1           1           3           1           1           1
           3           1           1           1
Shell to atom map                          I   N=          28
           1           1           1           1           1           1
           2           2           2           2           2           2
           3           3           3           3           4           4
           4           4           5           5           5           5
           6           6           6           6
Primitive exponents                        R   N=          50
  4.56324000E+03  6.82024000E+02  1.54973000E+02  4.44553000E+01  1.30290000E+01
  1.82773000E+00  2.09642000E+01  4.80331000E+00  1.45933000E+00  4.83456000E-01
  1.45585000E-01  4.38000000E-02  6.26000000E-01  4.56324000E+03  6.82024000E+02
  1.54973000E+02  4.44553000E+01  1.30290000E+01  1.82773000E+00  2.09642000E+01
  4.80331000E+00  1.45933000E+00  4.83456000E-01  1.45585000E-01  4.38000000E-02
  6.26000000E-01  3.38650000E+01  5.09479000E+00  1.15879000E+00  3.25840000E-01
  1.02741000E-01  7.50000000E-01  3.38650000E+01  5.09479000E+00  1.15879000E+00
  3.25840000E-01  1.02741000E-01  7.50000000E-01  3.38650000E+01  5.09479000E+00
  1.15879000E+00  3.25840000E-01  1.02741000E-01  7.50000000E-01  3.38650000E+01
  5.09479000E+00  1.15879000E+00  3.25840000E-01  1.02741000E-01  7.50000000E-01
Contraction coefficients                   R   N=          50
  1.96665025E-03  1.52306019E-02  7.61269097E-02  2.60801033E-01  6.16462078E-01
  2.21006028E-01  1.14660081E-01  9.19999648E-01 -3.03068213E-03  1.00000000E+00
  1.00000000E+00  1.00000000E+00  1.00000000E+00  1.96665025E-03  1.52306019E-02
  7.61269097E-02  2.60801033E-01  6.16462078E-01  2.21006028E-01  1.14660081E-01
  9.19999648E-01 -3.03068213E-03  1.00000000E+00  1.00000000E+00  1.00000000E+00
  1.00000000E+00  2.54938145E-02  1.90373109E-01  8.52161486E-01  1.00000000E+00
  1.00000000E+00  1.00000000E+00  2.54938145E-02  1.90373109E-01  8.52161486E-01
  1.00000000E+00  1.00000000E+00  1.00000000E+00  2.54938145E-02  1.90373109E-01
  8.52161486E-01  1.00000000E+00  1.00000000E+00  1.00000000E+00  2.54938145E-02
  1.90373109E-01  8.52161486E-01  1.00000000E+00  1.00000000E+00  1.00000000E+00
P(S=P) Contraction coefficients            R   N=          50
  0.00000000E+00  0.00000000E+00  0.00000000E+00  0.00000000E+00  0.00000000E+00
  0.00000000E+00  4.02486927E-02  2.37593957E-01  8.15853851E-01  1.00000000E+00
  1.00000000E+00  1.00000000E+00  0.00000000E+00  0.00000000E+00  0.00000000E+00
  0.00000000E+00  0.00000000E+00  0.00000000E+00  0.00000000E+00  4.02486927E-02
  2.37593957E-01  8.15853851E-01  1.00000000E+00  1.00000000E+00  1.00000000E+00
  0.00000000E+00  0.00000000E+00  0.00000000E+00  0.00000000E+00  0.00000000E+00
  0.00000000E+00  0.00000000E+00  0.00000000E+00  0.00000000E+00  0.00000000E+00
  0.00000000E+00  0.00000000E+00  0.00000000E+00  0.00000000E+00  0.00000000E+00
  0.00000000E+00  0.00000000E+00  0.00000000E+00  0.00000000E+00  0.00000000E+00
  0.00000000E+00  0.00000000E+00  0.00000000E+00  0.00000000E+00  0.00000000E+00
Coordinates of each shell                  R   N=          84
 -1.95031513E+00  0.00000000E+00  0.00000000E+00 -1.95031513E+00  0.00000000E+00
  0.00000000E+00 -1.95031513E+00  0.00000000E+00  0.00000000E+00 -1.95031513E+00
  0.00000000E+00  0.00000000E+00 -1.95031513E+00  0.00000000E+00  0.00000000E+00
 -1.95031513E+00  0.00000000E+00  0.00000000E+00  1.95031513E+00  0.00000000E+00
  0.00000000E+00  1.95031513E+00  0.00000000E+00  0.00000000E+00  1.95031513E+00
  0.00000000E+00  0.00000000E+00  1.95031513E+00  0.00000000E+00  0.00000000E+00
  1.95031513E+00  0.00000000E+00  0.00000000E+00  1.95031513E+00  0.00000000E+00
  0.00000000E+00 -2.81326117E+00 -1.85971199E+00  2.67224780E-08 -2.81326117E+00
 -1.85971199E+00  2.67224780E-08 -2.81326117E+00 -1.85971199E+00  2.67224780E-08
 -2.81326117E+00 -1.85971199E+00  2.67224780E-08 -2.81319934E+00  1.85979842E+00
  3.08218257E-08 -2.81319934E+00  1.85979842E+00  3.08218257E-08 -2.81319934E+00
  1.85979842E+00  3.08218257E-08 -2.81319934E+00  1.85979842E+00  3.08218257E-08
  2.81326115E+00  1.85971208E+00 -1.31042492E-08  2.81326115E+00  1.85971208E+00
 -1.31042492E-08  2.81326115E+00  1.85971208E+00 -1.31042492E-08  2.81326115E+00
  1.85971208E+00 -1.31042492E-08  2.81319931E+00 -1.85979851E+00 -8.99891227E-09
  2.81319931E+00 -1.85979851E+00 -8.99891227E-09  2.81319931E+00 -1.85979851E+00
 -8.99891227E-09  2.81319931E+00 -1.85979851E+00 -8.99891227E-09
Num ILSW                                   I              100
ILSW                                       I   N=         100
           1           0           0           1           2           0
           0           0           0           0        4336          -1
           7           0           0           0           2           0
           0           0           0           0           1           0
           1           1           0           0           0           0
           0           0      100000           0          -1           0
           0           0           0           0           0           0
           0           0           0           1           0           0
           0 -2000000000           1           0           0           0
           0           0           4          52           0           0
           0           0          55           0           0           0
           0           0           0           6           0           1
           0           0           0           0           0           0
           0           0           0           0           0           0
           0           0           0           0           0           0
           0           0           0           0           0           0
           0           0           0           0
Num RLSW                                   I               52
RLSW                                       R   N=          52
  1.00000000E+00  1.00000000E+00  1.00000000E+00  1.00000000E+00  5.40000000E-01
  0.00000000E+00  0.00000000E+00  1.00000000E+00  0.00000000E+00  0.00000000E+00
  0.00000000E+00  0.00000000E+00  1.00000000E+00  0.00000000E+00  0.00000000E+00
  0.00000000E+00  0.00000000E+00  1.00000000E+00  0.00000000E+00  0.00000000E+00
  0.00000000E+00  0.00000000E+00  1.00000000E+00  0.00000000E+00  0.00000000E+00
  0.00000000E+00  0.00000000E+00  1.00000000E+00  0.00000000E+00  0.00000000E+00
  0.00000000E+00  0.00000000E+00  1.00000000E+00  0.00000000E+00  0.00000000E+00
  0.00000000E+00  0.00000000E+00  0.00000000E+00  1.00000000E+00  1.00000000E+00
  0.00000000E+00  1.00000000E+00  0.00000000E+00  0.00000000E+00  0.00000000E+00
  0.00000000E+00  0.00000000E+00  0.00000000E+00  0.00000000E+00  0.00000000E+00
  0.00000000E+00  0.00000000E+00
MxBond                                     I                3
NBond                                      I   N=           6
           3           3           1           1           1           1
IBond                                      I   N=          18
           2           3           4           1           5           6
           1           0           0           1           0           0
           2           0           0           2           0           0
RBond                                      R   N=          18
  1.00000000E-01  1.00000000E+00  1.00000000E+00  1.00000000E-01  1.00000000E+00
  1.00000000E+00  1.00000000E+00  0.00000000E+00  0.00000000E+00  1.00000000E+00
  0.00000000E+00  0.00000000E+00  1.00000000E+00  0.00000000E+00  0.00000000E+00
  1.00000000E+00  0.00000000E+00  0.00000000E+00
Virial Ratio                               R      2.010226347001990E+00
SCF Energy                                 R     -7.805287393708022E+01
Total Energy                               R     -7.805287393708022E+01
S**2                                       R      7.521708039668518E-01
S**2 after annihilation                    R      7.500035766496858E-01
RMS Force                                  R      1.813381035701460E-05
RMS Density                                R      6.445075513617769E-09
Job Status                                 I                1
Nuclear derivative order                   I                1
External E-field                           R   N=          35
  0.00000000E+00  0.00000000E+00  0.00000000E+00  0.00000000E+00  0.00000000E+00
  0.00000000E+00  0.00000000E+00  0.00000000E+00  0.00000000E+00  0.00000000E+00
  0.00000000E+00  0.00000000E+00  0.00000000E+00  0.00000000E+00  0.00000000E+00
  0.00000000E+00  0.00000000E+00  0.00000000E+00  0.00000000E+00  0.00000000E+00
  0.00000000E+00  0.00000000E+00  0.00000000E+00  0.00000000E+00  0.00000000E+00
  0.00000000E+00  0.00000000E+00  0.00000000E+00  0.00000000E+00  0.00000000E+00
  0.00000000E+00  0.00000000E+00  0.00000000E+00  0.00000000E+00  0.00000000E+00
IOpCl                                      I                1
IROHF                                      I                0
Alpha Orbital Energies                     R   N=          68
 -1.09224482E+01 -1.09223059E+01 -1.06492747E+00 -1.00147646E+00 -8.06269292E-01
 -7.76061260E-01 -6.66616452E-01 -5.60022387E-01 -3.66889432E-01 -2.50525402E-01
 -1.40927132E-01 -1.10100321E-01 -1.01513183E-01 -8.35260233E-02 -7.48173853E-02
 -7.15730383E-02 -4.75570291E-02 -4.10054185E-02 -2.85070470E-02 -4.47433526E-03
  2.08338210E-02  9.33979468E-02  1.79413841E-01  2.28585788E-01  2.43022431E-01
  3.23575552E-01  3.77720580E-01  3.91018056E-01  4.11429439E-01  4.46423774E-01
  4.53225954E-01  4.89230386E-01  5.30037955E-01  5.59721372E-01  7.98628439E-01
  8.16261861E-01  8.67081143E-01  8.99384800E-01  1.13858227E+00  1.16006288E+00
  1.17159161E+00  1.23911527E+00  1.26230393E+00  1.43086647E+00  1.46957012E+00
  1.50646510E+00  1.54491720E+00  1.61541774E+00  1.67406610E+00  1.72555047E+00
  1.76508794E+00  1.77756871E+00  2.11812415E+00  2.26134777E+00  2.29118465E+00
  2.33941466E+00  2.37674426E+00  2.37935505E+00  2.40935331E+00  2.42868042E+00
  2.44576472E+00  2.47293974E+00  2.48145698E+00  3.05327582E+00  3.41934366E+00
  3.45744707E+00  2.35001350E+01  2.35094425E+01
Beta Orbital Energies                      R   N=          68
 -1.09200834E+01 -1.09199941E+01 -1.03430848E+00 -9.79058438E-01 -8.01028591E-01
 -7.72516361E-01 -6.50914348E-01 -3.52483717E-01 -2.79159846E-01 -2.26923079E-01
 -1.53985467E-01 -1.13318191E-01 -1.02199007E-01 -7.79571386E-02 -7.54962924E-02
 -7.38169637E-02 -4.17284402E-02 -3.89655776E-02 -2.37607219E-02  1.20752285E-03
  1.25730524E-02  1.00912272E-01  1.79626489E-01  2.30084235E-01  2.47699490E-01
  3.37415942E-01  3.64473775E-01  4.02856579E-01  4.22149991E-01  4.36737870E-01
  4.68528954E-01  5.02556890E-01  5.29559814E-01  5.60174878E-01  8.30120345E-01
  8.44782513E-01  8.97660857E-01  9.35314586E-01  1.14837028E+00  1.17603693E+00
  1.19194328E+00  1.27441490E+00  1.28830477E+00  1.44522225E+00  1.48391583E+00
  1.52280321E+00  1.58183465E+00  1.62712545E+00  1.68622563E+00  1.74311468E+00
  1.78018092E+00  1.79437373E+00  2.15540070E+00  2.27825025E+00  2.31665599E+00
  2.35240908E+00  2.40884770E+00  2.43159042E+00  2.43217614E+00  2.45042486E+00
  2.48745010E+00  2.49548494E+00  2.51447366E+00  3.09917542E+00  3.46551532E+00
  3.50387001E+00  2.35126773E+01  2.35218864E+01
Alpha MO coefficients                      R   N=        4624
  3.99128691E-01  3.28152202E-01  5.60631705E-04 -9.25852589E-10 -1.73253944E-11
  7.89000574E-03 -1.32386114E-03 -2.65685488E-07  5.59420032E-11 -1.95386296E-03
  5.47726440E-05  2.64086878E-09 -5.51282542E-12 -5.24533335E-04  3.54878410E-04
  1.32437275E-07 -1.19872369E-11 -8.33755074E-04 -1.32893482E-11  2.68211760E-12
 -9.29383930E-04  1.51006237E-07  3.98928625E-01  3.27987706E-01 -5.60313447E-04
  9.25445868E-10  9.01017635E-13  7.88597476E-03  1.32298037E-03  2.65557357E-07
 -1.97519975E-11 -1.95224255E-03 -5.49674479E-05 -2.63933962E-09  6.16859124E-13
 -5.24962605E-04 -3.54416673E-04 -1.32420197E-07  7.93407943E-12 -8.33389910E-04
 -2.88946269E-12 -2.68981356E-12 -9.28805254E-04  1.50932511E-07  1.40274064E-04
 -2.24261709E-03  1.45167803E-03 -6.51189854E-04 -1.26603320E-03  2.01680385E-11
  1.40331719E-04 -2.24211335E-03  1.45128274E-03 -6.51039725E-04  1.26585178E-03
  2.29359915E-11  1.40224867E-04 -2.24154739E-03  1.45086518E-03  6.50886427E-04
  1.26538180E-03 -1.01248178E-11  1.40282488E-04 -2.24104387E-03  1.45047003E-03
  6.50736374E-04 -1.26520046E-03 -7.34962383E-12 -3.98944414E-01 -3.28015093E-01
 -6.34650715E-04  6.62149249E-10  1.70628847E-11 -8.03754344E-03  1.75577240E-03
  2.57170786E-07 -5.70811074E-11  3.23192226E-03  3.88800899E-04 -3.20064947E-09
  1.09860518E-11 -8.58319318E-04 -9.21362869E-04 -3.43002790E-08  9.90618880E-12
  7.27968032E-04  1.43496775E-11 -2.54218676E-12  1.15387495E-03 -1.47278675E-07
  3.99144472E-01  3.28179575E-01 -6.34931732E-04  6.62528345E-10  3.64974893E-13
  8.04149791E-03  1.75643562E-03  2.57304845E-07 -2.07212221E-11 -3.23290148E-03
  3.88773412E-04 -3.20205047E-09  3.84336539E-12  8.58056389E-04 -9.21540642E-04
 -3.43669024E-08  6.28414179E-13 -7.28385885E-04 -4.06601793E-12 -2.55298856E-12
 -1.15434074E-03  1.47354486E-07 -9.81596937E-05  2.13222711E-03 -1.62030590E-03
  6.04844375E-04  1.29870780E-03 -2.09632452E-11 -9.82275692E-05  2.13177198E-03
 -1.62003129E-03  6.04691982E-04 -1.29853085E-03 -2.38079145E-11  9.82300513E-05
 -2.13335088E-03  1.62103332E-03  6.05170696E-04  1.29934227E-03 -1.04833148E-11
  9.82979558E-05 -2.13289550E-03  1.62075851E-03  6.05018228E-04 -1.29916523E-03
 -7.62890162E-12 -8.07120745E-02 -1.31409448E-01 -6.32267096E-03 -2.54305231E-06
  5.41956165E-10  3.63245138E-01 -9.09781830E-04 -2.53510983E-06  7.30322154E-10
  2.44387246E-01  6.28375711E-03 -7.73303159E-07  3.17597184E-10  7.93135371E-04
 -5.72962307E-03 -6.86311014E-07  1.57800568E-10 -5.35989031E-03  1.81032651E-11
  1.05833508E-11  4.47648264E-05  5.05033219E-07 -8.07120185E-02 -1.31409357E-01
  6.32263726E-03  2.54306035E-06 -1.24403461E-10  3.63244878E-01  9.09733002E-04
  2.53511923E-06 -2.28978390E-10  2.44387083E-01 -6.28377193E-03  7.73308451E-07
 -2.57018388E-11  7.93149299E-04  5.72961558E-03  6.86311553E-07 -1.18357993E-10
 -5.35988872E-03  3.90514961E-11 -1.06095186E-11  4.47716123E-05  5.05032214E-07
  6.83684795E-02  7.58542816E-02 -7.56699986E-03  4.98657807E-03  1.18266593E-02
 -1.33368185E-10  6.83634431E-02  7.58491141E-02 -7.56533246E-03  4.98560331E-03
 -1.18262637E-02 -1.59793084E-10  6.83684209E-02  7.58542168E-02 -7.56699476E-03
 -4.98657497E-03 -1.18266500E-02  6.70796063E-11  6.83633844E-02  7.58490492E-02
 -7.56532735E-03 -4.98560020E-03  1.18262544E-02  4.05967925E-11 -7.83739953E-02
 -1.28037470E-01 -4.62610524E-02 -4.24985489E-06  9.01973823E-10  3.59654814E-01
 -6.93676581E-02 -5.03667063E-06  1.29208096E-09  2.53025009E-01 -1.94598848E-02
 -1.70800754E-06  5.40973855E-10 -2.77262128E-02 -1.29080197E-02 -6.11633578E-08
  8.99682557E-11 -3.63181522E-03 -3.54122506E-11  1.81425234E-11 -1.04154586E-02
  8.57643992E-07  7.83740509E-02  1.28037561E-01 -4.62610433E-02 -4.24986865E-06
  3.74572452E-10 -3.59655061E-01 -6.93676391E-02 -5.03668695E-06  5.87511704E-10
 -2.53025198E-01 -1.94598705E-02 -1.70801534E-06  2.29413209E-10  2.77262124E-02
 -1.29080242E-02 -6.11645232E-08  2.80920590E-12  3.63181972E-03 -3.13161144E-11
  1.81898570E-11  1.04154577E-02 -8.57644555E-07  8.11576461E-02  9.31268393E-02
 -3.09797415E-03  3.51166427E-03  1.27182503E-02 -1.26165041E-10  8.11494823E-02
  9.31188850E-02 -3.09736309E-03  3.51062906E-03 -1.27175544E-02 -1.55853315E-10
 -8.11576880E-02 -9.31268882E-02  3.09797809E-03  3.51166758E-03  1.27182575E-02
 -5.88701616E-11 -8.11495242E-02 -9.31189339E-02  3.09736702E-03  3.51063237E-03
 -1.27175617E-02 -2.91382624E-11 -1.91650238E-06 -3.23278574E-06  1.68875129E-06
  1.59106337E-01  1.46031279E-10  9.49791253E-06  1.44208949E-06  2.31244011E-01
  2.06948756E-10  1.15031948E-05  1.64611936E-06  1.38377275E-01  1.22275679E-10
  6.16838068E-07  1.29949585E-07  3.66233799E-03  1.08824514E-11  5.34488221E-09
 -1.77665799E-11  4.79865256E-10 -8.03032106E-07 -1.02060485E-02  1.91650567E-06
  3.23279123E-06  1.68873411E-06  1.59106112E-01 -1.46340087E-10 -9.49792878E-06
  1.44206438E-06  2.31243694E-01 -2.07361850E-10 -1.15032130E-05  1.64610359E-06
  1.38377090E-01 -1.22506389E-10 -6.16839504E-07  1.29948049E-07  3.66232383E-03
 -1.08833860E-11 -5.34553849E-09 -1.77962823E-11 -1.84669387E-10  8.03029352E-07
  1.02060217E-02 -1.03507288E-01 -1.33302683E-01 -7.32491265E-03 -7.67499723E-03
 -1.00470342E-02  2.26952038E-10  1.03510596E-01  1.33309330E-01  7.32576635E-03
  7.67450911E-03 -1.00481209E-02 -2.53083768E-10  1.03507140E-01  1.33302490E-01
  7.32490120E-03 -7.67498542E-03 -1.00470202E-02  1.06257113E-10 -1.03510449E-01
 -1.33309137E-01 -7.32575489E-03  7.67449730E-03 -1.00481069E-02 -8.01185212E-11
 -1.04584966E-06 -1.80436847E-06  1.02605809E-05  1.63285824E-01  2.01417341E-10
  5.17979313E-06  1.51981069E-05  2.33698008E-01  2.94892720E-10  8.60713350E-06
  9.05228931E-06  1.43927095E-01  1.83824192E-10  1.16729784E-08 -1.73169087E-07
  1.21827926E-02  3.67364735E-12 -2.66732605E-09 -1.05709465E-11  5.05505445E-10
  3.61481043E-07 -1.87453668E-02 -1.04585497E-06 -1.80437754E-06 -1.02605737E-05
 -1.63286030E-01  2.01891446E-10  5.17982037E-06 -1.51980940E-05 -2.33698310E-01
  2.95540507E-10  8.60716860E-06 -9.05228181E-06 -1.43927291E-01  1.84240421E-10
  1.16664017E-08  1.73173028E-07 -1.21827996E-02  3.68349235E-12 -2.66706988E-09
  1.06374109E-11  2.21755862E-10  3.61482662E-07 -1.87453774E-02 -1.09283870E-01
 -1.47182819E-01 -1.06628665E-02 -8.39388679E-03 -1.03904997E-02  2.36359457E-10
  1.09279748E-01  1.47179392E-01  1.06632184E-02  8.39373102E-03 -1.03907705E-02
 -2.57849973E-10 -1.09284006E-01 -1.47182997E-01 -1.06628765E-02  8.39389629E-03
  1.03905129E-02 -1.08098544E-10  1.09279884E-01  1.47179570E-01  1.06632285E-02
 -8.39374052E-03  1.03907838E-02  8.65424397E-11 -8.71072482E-03 -1.46758623E-02
  1.78661562E-01 -9.31008856E-06 -2.74175206E-09  3.62874095E-02  2.89167257E-01
 -1.44626224E-05 -3.99561694E-09  9.01649178E-02  2.01140418E-01 -9.10647090E-06
 -3.00843769E-09  9.00787283E-04 -7.16574541E-03 -9.16983652E-09 -4.93800328E-11
 -7.51909021E-04  1.96386787E-10 -1.77714681E-11  1.88975704E-02  3.81208699E-07
 -8.71071651E-03 -1.46758485E-02 -1.78661546E-01  9.31007996E-06  1.17504539E-09
  3.62873684E-02 -2.89167234E-01  1.44626112E-05  1.54918034E-09  9.01648678E-02
 -2.01140399E-01  9.10646688E-06  1.34362510E-09  9.00790861E-04  7.16574342E-03
  9.17028120E-09  3.54419896E-11 -7.51910751E-04  1.64600730E-10  1.78107026E-11
  1.88975727E-02  3.81208930E-07 -5.57811888E-02 -8.73257556E-02 -2.28980030E-02
  5.80192385E-03 -8.10140841E-03 -5.32696256E-11 -5.57892800E-02 -8.73404277E-02
 -2.29027772E-02  5.80121869E-03  8.10186237E-03 -3.43963532E-11 -5.57811901E-02
 -8.73257584E-02 -2.28980046E-02 -5.80192306E-03  8.10140811E-03  2.15812711E-11
 -5.57892814E-02 -8.73404305E-02 -2.29027788E-02 -5.80121790E-03 -8.10186206E-03
  4.05851246E-11  9.67372108E-10  1.66200083E-09  3.23316153E-10 -2.43739810E-10
  1.88268492E-01 -5.39248463E-09  8.91137006E-10 -3.77149196E-10  3.02726614E-01
 -5.93070858E-09  1.47528507E-10 -2.00070980E-10  2.93977770E-01  2.88994265E-09
  1.01560405E-09  4.72348487E-11  8.98170492E-03 -2.01548783E-10  1.13558548E-02
 -2.39310726E-07 -1.68780372E-11  7.23678914E-12 -6.25399681E-10 -1.07518984E-09
 -1.62409689E-09  2.44084106E-10  1.88268470E-01  3.39448664E-09 -2.21962920E-09
  3.77714823E-10  3.02726578E-01  4.23830701E-09 -2.40854045E-09  2.00586118E-10
  2.93977749E-01 -2.67699743E-09  8.72801546E-10 -4.72651133E-11  8.98170537E-03
  1.02571063E-10 -1.13558567E-02  2.39311943E-07  8.49596879E-12  7.20252475E-12
  1.14768553E-09  1.59610702E-09  9.74873898E-11  1.30531308E-10  1.59447956E-10
  1.22588898E-02  1.08240483E-09  1.36891586E-09 -1.22294917E-10  1.20572314E-10
 -1.70085577E-10  1.22584964E-02 -7.70007203E-10 -1.19359303E-09  4.01476914E-11
 -3.24510345E-11  1.63650687E-10  1.22588886E-02 -8.35261220E-10 -1.42081150E-09
 -1.79993159E-10 -2.24992851E-11 -1.52963924E-10  1.22584952E-02  7.81907606E-10
  1.35717729E-09  2.02242548E-09 -1.92428204E-10  2.07313758E-01 -4.40309278E-09
  3.66203204E-09 -3.12467771E-10  3.28408805E-01 -6.78199717E-09  3.59224202E-09
 -3.81569168E-10  3.53569922E-01  5.14843562E-10  8.23522472E-10 -5.19583565E-11
  5.22129838E-02 -1.91261653E-10 -1.39044038E-02 -2.34878180E-07 -8.69281246E-11
 -9.31893386E-12  5.00321300E-11  1.10556874E-10 -2.27680161E-09 -1.92698888E-10
 -2.07313768E-01 -5.12809784E-10 -3.93114266E-09 -3.12953373E-10 -3.28408818E-01
 -7.44648902E-10 -3.63565289E-09 -3.82103557E-10 -3.53569963E-01 -1.25527509E-09
 -1.06536106E-10 -5.21899589E-11 -5.22129915E-02 -6.82799646E-12 -1.39043989E-02
 -2.34879325E-07 -2.08328377E-11  9.28674995E-12  1.19725316E-09  2.12037384E-09
  1.05014288E-09  2.11124240E-10  1.60115907E-10  1.67384270E-02  1.27154514E-09
  2.26824697E-09  1.16471362E-09  2.09958473E-10 -2.02372752E-10  1.67378067E-02
  1.71896912E-10  3.32894627E-10  2.58575248E-10 -1.73217284E-10 -5.55091211E-11
 -1.67384277E-02  9.75888884E-11  1.84982024E-10  1.43891947E-10 -1.74345887E-10
  1.31659078E-11 -1.67378074E-02 -4.88825894E-02 -8.26707353E-02  1.96885158E-01
 -2.15036653E-06  1.36934111E-09  2.46450532E-01  2.97491520E-01 -4.74380716E-06
  2.72211200E-09  5.65685246E-01  4.62412749E-01 -7.93808681E-06  4.04064040E-09
  5.01454060E-01  2.89215676E-01 -3.16190588E-06  6.37447617E-10  1.63745886E-02
  2.51151810E-10 -1.12469076E-11 -2.01579050E-02 -6.34704944E-07  4.88825888E-02
  8.26707340E-02  1.96885163E-01 -2.15035149E-06  3.08919452E-10 -2.46450515E-01
  2.97491534E-01 -4.74378636E-06  8.81407713E-10 -5.65685269E-01  4.62412774E-01