 Entering Gaussian System, Link 0=g16
 Initial command:
 /home/szhao/Apps/g16/l1.exe "/home/szhao/tmp/Gau-17213.inp" -scrdir="/home/szhao/tmp/"
 Default is to use a total of  16 processors:
                               16 via shared-memory
                                1 via Linda
 Entering Link 1 = /home/szhao/Apps/g16/l1.exe PID=     17214.
  
 Copyright (c) 1988,1990,1992,1993,1995,1998,2003,2009,2016,
            Gaussian, Inc.  All Rights Reserved.
  
 This is part of the Gaussian(R) 16 program.  It is based on
 the Gaussian(R) 09 system (copyright 2009, Gaussian, Inc.),
 the Gaussian(R) 03 system (copyright 2003, Gaussian, Inc.),
 the Gaussian(R) 98 system (copyright 1998, Gaussian, Inc.),
 the Gaussian(R) 94 system (copyright 1995, Gaussian, Inc.),
 the Gaussian 92(TM) system (copyright 1992, Gaussian, Inc.),
 the Gaussian 90(TM) system (copyright 1990, Gaussian, Inc.),
 the Gaussian 88(TM) system (copyright 1988, Gaussian, Inc.),
 the Gaussian 86(TM) system (copyright 1986, Carnegie Mellon
 University), and the Gaussian 82(TM) system (copyright 1983,
 Carnegie Mellon University). Gaussian is a federally registered
 trademark of Gaussian, Inc.
  
 This software contains proprietary and confidential information,
 including trade secrets, belonging to Gaussian, Inc.
  
 This software is provided under written license and may be
 used, copied, transmitted, or stored only in accord with that
 written license.
  
 The following legend is applicable only to US Government
 contracts under FAR:
  
                    RESTRICTED RIGHTS LEGEND
  
 Use, reproduction and disclosure by the US Government is
 subject to restrictions as set forth in subparagraphs (a)
 and (c) of the Commercial Computer Software - Restricted
 Rights clause in FAR 52.227-19.
  
 Gaussian, Inc.
 340 Quinnipiac St., Bldg. 40, Wallingford CT 06492
  
  
 ---------------------------------------------------------------
 Warning -- This program may not be used in any manner that
 competes with the business of Gaussian, Inc. or will provide
 assistance to any competitor of Gaussian, Inc.  The licensee
 of this program is prohibited from giving any competitor of
 Gaussian, Inc. access to this program.  By using this program,
 the user acknowledges that Gaussian, Inc. is engaged in the
 business of creating and licensing software in the field of
 computational chemistry and represents and warrants to the
 licensee that it is not a competitor of Gaussian, Inc. and that
 it will not use this program in any manner prohibited above.
 ---------------------------------------------------------------
  

 Cite this work as:
 Gaussian 16, Revision A.03,
 M. J. Frisch, G. W. Trucks, H. B. Schlegel, G. E. Scuseria, 
 M. A. Robb, J. R. Cheeseman, G. Scalmani, V. Barone, 
 G. A. Petersson, H. Nakatsuji, X. Li, M. Caricato, A. V. Marenich, 
 J. Bloino, B. G. Janesko, R. Gomperts, B. Mennucci, H. P. Hratchian, 
 J. V. Ortiz, A. F. Izmaylov, J. L. Sonnenberg, D. Williams-Young, 
 F. Ding, F. Lipparini, F. Egidi, J. Goings, B. Peng, A. Petrone, 
 T. Henderson, D. Ranasinghe, V. G. Zakrzewski, J. Gao, N. Rega, 
 G. Zheng, W. Liang, M. Hada, M. Ehara, K. Toyota, R. Fukuda, 
 J. Hasegawa, M. Ishida, T. Nakajima, Y. Honda, O. Kitao, H. Nakai, 
 T. Vreven, K. Throssell, J. A. Montgomery, Jr., J. E. Peralta, 
 F. Ogliaro, M. J. Bearpark, J. J. Heyd, E. N. Brothers, K. N. Kudin, 
 V. N. Staroverov, T. A. Keith, R. Kobayashi, J. Normand, 
 K. Raghavachari, A. P. Rendell, J. C. Burant, S. S. Iyengar, 
 J. Tomasi, M. Cossi, J. M. Millam, M. Klene, C. Adamo, R. Cammi, 
 J. W. Ochterski, R. L. Martin, K. Morokuma, O. Farkas, 
 J. B. Foresman, and D. J. Fox, Gaussian, Inc., Wallingford CT, 2016.
 
 ******************************************
 Gaussian 16:  ES64L-G16RevA.03 25-Dec-2016
                21-Apr-2025 
 ******************************************
 %chk=opt.chk
 %mem=4GB
 %nprocshared=8
 Will use up to    8 processors via shared memory.
 --------------------------------------------
 #p opt UM062X/6-311+G** nosymm int=superfine
 --------------------------------------------
 1/18=20,19=15,26=5,38=1/1,3;
 2/9=110,12=2,15=1,17=6,18=5,40=1/2;
 3/5=4,6=6,7=111,11=2,25=1,30=1,71=1,74=-55,75=-7,116=2/1,2,3;
 4//1;
 5/5=2,38=5/2;
 6/7=2,8=2,9=2,10=2,28=1/1;
 7/30=1/1,2,3,16;
 1/18=20,19=15,26=5/3(2);
 2/9=110,15=1/2;
 99//99;
 2/9=110,15=1/2;
 3/5=4,6=6,7=111,11=2,25=1,30=1,71=1,74=-55,75=-7,116=2/1,2,3;
 4/5=5,16=3,69=1/1;
 5/5=2,38=5/2;
 7/30=1/1,2,3,16;
 1/18=20,19=15,26=5/3(-5);
 2/9=110,15=1/2;
 6/7=2,8=2,9=2,10=2,19=2,28=1/1;
 99/9=1/99;
 Leave Link    1 at Mon Apr 21 17:52:55 2025, MaxMem=   536870912 cpu:               0.6 elap:               0.1
 (Enter /home/szhao/Apps/g16/l101.exe)
 -------------------
 Title Card Required
 -------------------
 Symbolic Z-matrix:
 Charge =  0 Multiplicity = 1
 B                    -1   -2.0954    0.        0. 
 N                    -1    2.0954    0.        0. 
 H                    0    -2.67042  -1.04183   0. 
 H                    0     2.64676   0.8434   -0.00011 
 H                    0    -2.67042   1.04183  -0.00025 
 H                    0     2.64676  -0.8434    0.00011 
 
 Add virtual bond connecting atoms N2         and B1         Dist= 7.92D+00.
 ITRead=  2  2  0  0  0  0
 MicOpt= -2 -2 -1 -1 -1 -1
 NAtoms=      6 NQM=        4 NQMF=       2 NMMI=      0 NMMIF=      0
                NMic=       0 NMicF=      0.
                    Isotopes and Nuclear Properties:
 (Nuclear quadrupole moments (NQMom) in fm**2, nuclear magnetic moments (NMagM)
  in nuclear magnetons)

  Atom         1           2           3           4           5           6
 IAtWgt=          11          14           1           1           1           1
 AtmWgt=  11.0093053  14.0030740   1.0078250   1.0078250   1.0078250   1.0078250
 NucSpn=           3           2           1           1           1           1
 AtZEff=  -0.0000000  -0.0000000  -0.0000000  -0.0000000  -0.0000000  -0.0000000
 NQMom=    4.0590000   2.0440000   0.0000000   0.0000000   0.0000000   0.0000000
 NMagM=    2.6886370   0.4037610   2.7928460   2.7928460   2.7928460   2.7928460
 AtZNuc=   5.0000000   7.0000000   1.0000000   1.0000000   1.0000000   1.0000000
 Leave Link  101 at Mon Apr 21 17:52:56 2025, MaxMem=   536870912 cpu:               2.2 elap:               0.3
 (Enter /home/szhao/Apps/g16/l103.exe)

 GradGradGradGradGradGradGradGradGradGradGradGradGradGradGradGradGradGrad
 Berny optimization.
 Initialization pass.
                           ----------------------------
                           !    Initial Parameters    !
                           ! (Angstroms and Degrees)  !
 --------------------------                            --------------------------
 ! Name  Definition              Value          Derivative Info.                !
 --------------------------------------------------------------------------------
 ! X1    R(1,-1)                -2.0954         Frozen                          !
 ! Y1    R(1,-2)                 0.0            Frozen                          !
 ! Z1    R(1,-3)                 0.0            Frozen                          !
 ! X2    R(2,-1)                 2.0954         Frozen                          !
 ! Y2    R(2,-2)                 0.0            Frozen                          !
 ! Z2    R(2,-3)                 0.0            Frozen                          !
 ! R1    R(1,3)                  1.19           estimate D2E/DX2                !
 ! R2    R(1,5)                  1.19           estimate D2E/DX2                !
 ! R3    R(2,4)                  1.0076         estimate D2E/DX2                !
 ! R4    R(2,6)                  1.0076         estimate D2E/DX2                !
 ! A1    A(2,1,3)              118.8957         estimate D2E/DX2                !
 ! A2    A(2,1,5)              118.8958         estimate D2E/DX2                !
 ! A3    A(3,1,5)              122.2085         estimate D2E/DX2                !
 ! A4    A(1,2,4)              123.1743         estimate D2E/DX2                !
 ! A5    A(1,2,6)              123.1742         estimate D2E/DX2                !
 ! A6    A(4,2,6)              113.6514         estimate D2E/DX2                !
 ! D1    D(3,1,2,4)            179.9924         estimate D2E/DX2                !
 ! D2    D(3,1,2,6)             -0.0074         estimate D2E/DX2                !
 ! D3    D(5,1,2,4)              0.0061         estimate D2E/DX2                !
 ! D4    D(5,1,2,6)           -179.9937         estimate D2E/DX2                !
 --------------------------------------------------------------------------------
 Trust Radius=3.00D-01 FncErr=1.00D-07 GrdErr=1.00D-07 EigMax=2.50D+02 EigMin=1.00D-04
 Number of steps in this run=     30 maximum allowed number of steps=    100.
 GradGradGradGradGradGradGradGradGradGradGradGradGradGradGradGradGradGrad

 Leave Link  103 at Mon Apr 21 17:52:56 2025, MaxMem=   536870912 cpu:               0.3 elap:               0.3
 (Enter /home/szhao/Apps/g16/l202.exe)
                          Input orientation:                          
 ---------------------------------------------------------------------
 Center     Atomic      Atomic             Coordinates (Angstroms)
 Number     Number       Type             X           Y           Z
 ---------------------------------------------------------------------
      1          5           0       -2.095399    0.000000    0.000000
      2          7           0        2.095399    0.000000    0.000000
      3          1           0       -2.670420   -1.041831    0.000000
      4          1           0        2.646762    0.843396   -0.000112
      5          1           0       -2.670419    1.041829   -0.000249
      6          1           0        2.646761   -0.843396    0.000108
 ---------------------------------------------------------------------
                    Distance matrix (angstroms):
                    1          2          3          4          5
     1  B    0.000000
     2  N    4.190798   0.000000
     3  H    1.189983   4.878364   0.000000
     4  H    4.816577   1.007630   5.641498   0.000000
     5  H    1.189982   4.878364   2.083660   5.320883   0.000000
     6  H    4.816575   1.007629   5.320882   1.686792   5.641496
                    6
     6  H    0.000000
 Symmetry turned off by external request.
 Stoichiometry    BH4N
 Framework group  C1[X(BH4N)]
 Deg. of freedom    12
 Full point group                 C1      NOp   1
 Rotational constants (GHZ):         139.5468486           3.6893941           3.5943648
 Leave Link  202 at Mon Apr 21 17:52:56 2025, MaxMem=   536870912 cpu:               0.0 elap:               0.0
 (Enter /home/szhao/Apps/g16/l301.exe)
 Standard basis: 6-311+G(d,p) (5D, 7F)
 Ernie: Thresh=  0.10000D-02 Tol=  0.10000D-05 Strict=F.
    68 basis functions,   104 primitive gaussians,    70 cartesian basis functions
     8 alpha electrons        8 beta electrons
       nuclear repulsion energy        19.7903002935 Hartrees.
 IExCor= 4336 DFT=T Ex+Corr=M062X ExCW=0 ScaHFX=  0.540000
 ScaDFX=  1.000000  1.000000  1.000000  1.000000 ScalE2=  1.000000  1.000000
 IRadAn=      7 IRanWt=     -1 IRanGd=            0 ICorTp=0 IEmpDi=  4
 NAtoms=    6 NActive=    6 NUniq=    6 SFac= 1.00D+00 NAtFMM=   60 NAOKFM=F Big=F
 Integral buffers will be    131072 words long.
 Raffenetti 2 integral format.
 Two-electron integral symmetry is turned off.
 Leave Link  301 at Mon Apr 21 17:52:57 2025, MaxMem=   536870912 cpu:               0.7 elap:               0.1
 (Enter /home/szhao/Apps/g16/l302.exe)
 NPDir=0 NMtPBC=     1 NCelOv=     1 NCel=       1 NClECP=     1 NCelD=      1
         NCelK=      1 NCelE2=     1 NClLst=     1 CellRange=     0.0.
 One-electron integrals computed using PRISM.
 NBasis=    68 RedAO= T EigKep=  8.08D-03  NBF=    68
 NBsUse=    68 1.00D-06 EigRej= -1.00D+00 NBFU=    68
 Precomputing XC quadrature grid using
 IXCGrd= 4 IRadAn=           7 IRanWt=          -1 IRanGd=           0 AccXCQ= 0.00D+00.
 Generated NRdTot=       0 NPtTot=           0 NUsed=           0 NTot=          32
 NSgBfM=    70    70    70    70    70 MxSgAt=     6 MxSgA2=     6.
 Leave Link  302 at Mon Apr 21 17:52:57 2025, MaxMem=   536870912 cpu:               1.3 elap:               0.2
 (Enter /home/szhao/Apps/g16/l303.exe)
 DipDrv:  MaxL=1.
 Leave Link  303 at Mon Apr 21 17:52:57 2025, MaxMem=   536870912 cpu:               0.4 elap:               0.1
 (Enter /home/szhao/Apps/g16/l401.exe)
 ExpMin= 3.15D-02 ExpMax= 6.29D+03 ExpMxC= 9.49D+02 IAcc=3 IRadAn=         7 AccDes= 0.00D+00
 Harris functional with IExCor= 1009 and IRadAn=       7 diagonalized for initial guess.
 HarFok:  IExCor= 1009 AccDes= 0.00D+00 IRadAn=         7 IDoV= 1 UseB2=F ITyADJ=14
 ICtDFT=  3500011 ScaDFX=  1.000000  1.000000  1.000000  1.000000
 FoFCou: FMM=F IPFlag=           0 FMFlag=      100000 FMFlg1=           0
         NFxFlg=           0 DoJE=T BraDBF=F KetDBF=T FulRan=T
         wScrn=  0.000000 ICntrl=       500 IOpCl=  0 I1Cent=   200000004 NGrid=           0
         NMat0=    1 NMatS0=      1 NMatT0=    0 NMatD0=    1 NMtDS0=    0 NMtDT0=    0
 Symmetry not used in FoFCou.
 Harris En= -81.7888498396136    
 JPrj=0 DoOrth=F DoCkMO=F.
 Initial guess <Sx>= 0.0000 <Sy>= 0.0000 <Sz>= 0.0000 <S**2>=-0.0000 S=-0.0000
 Leave Link  401 at Mon Apr 21 17:52:58 2025, MaxMem=   536870912 cpu:               3.1 elap:               0.4
 (Enter /home/szhao/Apps/g16/l502.exe)
 Keep R1 and R2 ints in memory in canonical form, NReq=12681614.
 FoFCou: FMM=F IPFlag=           0 FMFlag=           0 FMFlg1=           0
         NFxFlg=           0 DoJE=F BraDBF=F KetDBF=F FulRan=T
         wScrn=  0.000000 ICntrl=       600 IOpCl=  0 I1Cent=           0 NGrid=           0
         NMat0=    1 NMatS0=   2346 NMatT0=    0 NMatD0=    1 NMtDS0=    0 NMtDT0=    0
 Symmetry not used in FoFCou.
 Two-electron integral symmetry not used.
 UHF open shell SCF:
 Using DIIS extrapolation, IDIIS=  1040.
 NGot=   536870912 LenX=   531353794 LenY=   531348453
 Requested convergence on RMS density matrix=1.00D-08 within 128 cycles.
 Requested convergence on MAX density matrix=1.00D-06.
 Requested convergence on             energy=1.00D-06.
 No special actions if energy rises.

 Cycle   1  Pass 1  IDiag  1:
 E= -81.3602489574885    
 DIIS: error= 8.90D-02 at cycle   1 NSaved=   1.
 NSaved= 1 IEnMin= 1 EnMin= -81.3602489574885     IErMin= 1 ErrMin= 8.90D-02
 ErrMax= 8.90D-02  0.00D+00 EMaxC= 1.00D-01 BMatC= 1.03D+00 BMatP= 1.03D+00
 IDIUse=3 WtCom= 1.10D-01 WtEn= 8.90D-01
 Coeff-Com:  0.100D+01
 Coeff-En:   0.100D+01
 Coeff:      0.100D+01
 Gap=    -0.492 Goal=   None    Shift=    0.000
 Gap=    -0.492 Goal=   None    Shift=    0.000
 GapD=   -0.492 DampG=0.250 DampE=0.500 DampFc=0.2500 IDamp=-1.
 Damping current iteration by 2.50D-01
 RMSDP=1.60D-02 MaxDP=2.33D-01              OVMax= 1.00D+00

 Cycle   2  Pass 1  IDiag  1:
 E= -81.4652679293683     Delta-E=       -0.105018971880 Rises=F Damp=T
 DIIS: error= 2.11D-02 at cycle   2 NSaved=   2.
 NSaved= 2 IEnMin= 2 EnMin= -81.4652679293683     IErMin= 2 ErrMin= 2.11D-02
 ErrMax= 2.11D-02  0.00D+00 EMaxC= 1.00D-01 BMatC= 9.60D-02 BMatP= 1.03D+00
 IDIUse=3 WtCom= 7.89D-01 WtEn= 2.11D-01
 Coeff-Com: -0.804D-01 0.108D+01
 Coeff-En:   0.365D+00 0.635D+00
 Coeff:      0.133D-01 0.987D+00
 Gap=     0.554 Goal=   None    Shift=    0.000
 Gap=     0.554 Goal=   None    Shift=    0.000
 RMSDP=4.30D-03 MaxDP=7.81D-02 DE=-1.05D-01 OVMax= 1.00D+00

 Cycle   3  Pass 1  IDiag  1:
 E= -81.5200246478287     Delta-E=       -0.054756718460 Rises=F Damp=F
 DIIS: error= 4.50D-02 at cycle   3 NSaved=   3.
 NSaved= 3 IEnMin= 3 EnMin= -81.5200246478287     IErMin= 2 ErrMin= 2.11D-02
 ErrMax= 4.50D-02  0.00D+00 EMaxC= 1.00D-01 BMatC= 2.15D-01 BMatP= 9.60D-02
 IDIUse=2 WtCom= 0.00D+00 WtEn= 1.00D+00
 Coeff-En:   0.000D+00 0.401D+00 0.599D+00
 Coeff:      0.000D+00 0.401D+00 0.599D+00
 Gap=    -0.114 Goal=   None    Shift=    0.000
 Gap=    -0.114 Goal=   None    Shift=    0.000
 RMSDP=1.47D-02 MaxDP=1.92D-01 DE=-5.48D-02 OVMax= 9.99D-01

 Cycle   4  Pass 1  IDiag  1:
 E= -78.0090424980569     Delta-E=        3.510982149772 Rises=F Damp=F
 DIIS: error= 2.19D-01 at cycle   4 NSaved=   4.
 NSaved= 4 IEnMin= 3 EnMin= -81.5200246478287     IErMin= 2 ErrMin= 2.11D-02
 ErrMax= 2.19D-01  0.00D+00 EMaxC= 1.00D-01 BMatC= 4.09D+00 BMatP= 9.60D-02
 IDIUse=2 WtCom= 0.00D+00 WtEn= 1.00D+00
 Coeff-En:   0.000D+00 0.000D+00 0.871D+00 0.129D+00
 Coeff:      0.000D+00 0.000D+00 0.871D+00 0.129D+00
 Gap=    -0.049 Goal=   None    Shift=    0.000
 Gap=    -0.049 Goal=   None    Shift=    0.000
 RMSDP=1.03D-02 MaxDP=1.92D-01 DE= 3.51D+00 OVMax= 7.70D-01

 Cycle   5  Pass 1  IDiag  1:
 E= -81.1201222171527     Delta-E=       -3.111079719096 Rises=F Damp=F
 DIIS: error= 9.34D-02 at cycle   5 NSaved=   5.
 NSaved= 5 IEnMin= 3 EnMin= -81.5200246478287     IErMin= 2 ErrMin= 2.11D-02
 ErrMax= 9.34D-02  0.00D+00 EMaxC= 1.00D-01 BMatC= 8.95D-01 BMatP= 9.60D-02
 IDIUse=2 WtCom= 0.00D+00 WtEn= 1.00D+00
 Coeff-En:   0.000D+00 0.000D+00 0.673D+00 0.000D+00 0.327D+00
 Coeff:      0.000D+00 0.000D+00 0.673D+00 0.000D+00 0.327D+00
 Gap=     0.093 Goal=   None    Shift=    0.000
 Gap=     0.093 Goal=   None    Shift=    0.000
 RMSDP=1.08D-02 MaxDP=1.74D-01 DE=-3.11D+00 OVMax= 1.00D+00

 Cycle   6  Pass 1  IDiag  1:
 E= -81.5604553745967     Delta-E=       -0.440333157444 Rises=F Damp=F
 DIIS: error= 3.67D-02 at cycle   6 NSaved=   6.
 NSaved= 6 IEnMin= 6 EnMin= -81.5604553745967     IErMin= 2 ErrMin= 2.11D-02
 ErrMax= 3.67D-02  0.00D+00 EMaxC= 1.00D-01 BMatC= 1.58D-01 BMatP= 9.60D-02
 IDIUse=2 WtCom= 0.00D+00 WtEn= 1.00D+00
 Coeff-En:   0.000D+00 0.000D+00 0.000D+00 0.000D+00 0.292D+00 0.708D+00
 Coeff:      0.000D+00 0.000D+00 0.000D+00 0.000D+00 0.292D+00 0.708D+00
 Gap=    -0.002 Goal=   None    Shift=    0.000
 Gap=    -0.002 Goal=   None    Shift=    0.000
 RMSDP=1.09D-02 MaxDP=1.74D-01 DE=-4.40D-01 OVMax= 1.00D+00

 Cycle   7  Pass 1  IDiag  1:
 E= -81.2234108814974     Delta-E=        0.337044493099 Rises=F Damp=F
 DIIS: error= 7.68D-02 at cycle   7 NSaved=   7.
 NSaved= 7 IEnMin= 6 EnMin= -81.5604553745967     IErMin= 2 ErrMin= 2.11D-02
 ErrMax= 7.68D-02  0.00D+00 EMaxC= 1.00D-01 BMatC= 5.87D-01 BMatP= 9.60D-02
 IDIUse=2 WtCom= 0.00D+00 WtEn= 1.00D+00
 Coeff-En:   0.000D+00 0.000D+00 0.000D+00 0.000D+00 0.000D+00 0.683D+00
 Coeff-En:   0.317D+00
 Coeff:      0.000D+00 0.000D+00 0.000D+00 0.000D+00 0.000D+00 0.683D+00
 Coeff:      0.317D+00
 Gap=    -0.001 Goal=   None    Shift=    0.000
 Gap=    -0.001 Goal=   None    Shift=    0.000
 RMSDP=1.01D-02 MaxDP=1.50D-01 DE= 3.37D-01 OVMax= 9.31D-01

 Cycle   8  Pass 1  IDiag  1:
 E= -81.6424222318784     Delta-E=       -0.419011350381 Rises=F Damp=F
 DIIS: error= 1.81D-02 at cycle   8 NSaved=   8.
 NSaved= 8 IEnMin= 8 EnMin= -81.6424222318784     IErMin= 8 ErrMin= 1.81D-02
 ErrMax= 1.81D-02  0.00D+00 EMaxC= 1.00D-01 BMatC= 5.95D-02 BMatP= 9.60D-02
 IDIUse=3 WtCom= 8.19D-01 WtEn= 1.81D-01
 Coeff-Com: -0.265D+00 0.494D+00 0.214D+00-0.258D-01-0.463D+00 0.234D+00
 Coeff-Com:  0.613D+00 0.199D+00
 Coeff-En:   0.000D+00 0.000D+00 0.000D+00 0.000D+00 0.000D+00 0.000D+00
 Coeff-En:   0.184D+00 0.816D+00
 Coeff:     -0.217D+00 0.404D+00 0.175D+00-0.211D-01-0.379D+00 0.192D+00
 Coeff:      0.535D+00 0.311D+00
 Gap=     0.041 Goal=   None    Shift=    0.000
 Gap=     0.041 Goal=   None    Shift=    0.000
 RMSDP=1.85D-03 MaxDP=2.17D-02 DE=-4.19D-01 OVMax= 1.68D-01

 Cycle   9  Pass 1  IDiag  1:
 E= -81.5839369960854     Delta-E=        0.058485235793 Rises=F Damp=F
 DIIS: error= 3.31D-02 at cycle   9 NSaved=   9.
 NSaved= 9 IEnMin= 8 EnMin= -81.6424222318784     IErMin= 8 ErrMin= 1.81D-02
 ErrMax= 3.31D-02  0.00D+00 EMaxC= 1.00D-01 BMatC= 1.40D-01 BMatP= 5.95D-02
 IDIUse=2 WtCom= 0.00D+00 WtEn= 1.00D+00
 Rare condition: small coef for last iteration:  0.000D+00
 Coeff-En:   0.000D+00 0.000D+00 0.000D+00 0.000D+00 0.000D+00 0.000D+00
 Coeff-En:   0.290D+00 0.000D+00 0.710D+00
 Coeff:      0.000D+00 0.000D+00 0.000D+00 0.000D+00 0.000D+00 0.000D+00
 Coeff:      0.290D+00 0.000D+00 0.710D+00
 Gap=     0.004 Goal=   None    Shift=    0.000
 Gap=     0.004 Goal=   None    Shift=    0.000
 RMSDP=6.72D-03 MaxDP=9.75D-02 DE= 5.85D-02 OVMax= 6.26D-01

 Cycle  10  Pass 1  IDiag  1:
 E= -81.6230345991212     Delta-E=       -0.039097603036 Rises=F Damp=F
 DIIS: error= 3.12D-02 at cycle  10 NSaved=  10.
 NSaved=10 IEnMin= 8 EnMin= -81.6424222318784     IErMin= 8 ErrMin= 1.81D-02
 ErrMax= 3.12D-02  0.00D+00 EMaxC= 1.00D-01 BMatC= 1.71D-01 BMatP= 5.95D-02
 IDIUse=2 WtCom= 0.00D+00 WtEn= 1.00D+00
 EnCoef did   100 forward-backward iterations
 Coeff-En:   0.000D+00 0.000D+00 0.000D+00 0.000D+00 0.000D+00 0.000D+00
 Coeff-En:   0.000D+00 0.545D+00 0.691D-02 0.448D+00
 Coeff:      0.000D+00 0.000D+00 0.000D+00 0.000D+00 0.000D+00 0.000D+00
 Coeff:      0.000D+00 0.545D+00 0.691D-02 0.448D+00
 Gap=     0.055 Goal=   None    Shift=    0.000
 Gap=     0.055 Goal=   None    Shift=    0.000
 RMSDP=3.09D-03 MaxDP=4.71D-02 DE=-3.91D-02 OVMax= 2.77D-01

 Cycle  11  Pass 1  IDiag  1:
 E= -81.6871532577581     Delta-E=       -0.064118658637 Rises=F Damp=F
 DIIS: error= 6.60D-03 at cycle  11 NSaved=  11.
 NSaved=11 IEnMin=11 EnMin= -81.6871532577581     IErMin=11 ErrMin= 6.60D-03
 ErrMax= 6.60D-03  0.00D+00 EMaxC= 1.00D-01 BMatC= 7.52D-03 BMatP= 5.95D-02
 IDIUse=3 WtCom= 9.34D-01 WtEn= 6.60D-02
 Coeff-Com: -0.476D-01 0.621D-01 0.119D+00-0.241D-02-0.721D-02 0.200D-01
 Coeff-Com: -0.436D-02 0.583D-01-0.191D+00 0.109D+00 0.885D+00
 Coeff-En:   0.000D+00 0.000D+00 0.000D+00 0.000D+00 0.000D+00 0.000D+00
 Coeff-En:   0.000D+00 0.000D+00 0.000D+00 0.114D+00 0.886D+00
 Coeff:     -0.445D-01 0.580D-01 0.111D+00-0.225D-02-0.674D-02 0.187D-01
 Coeff:     -0.407D-02 0.544D-01-0.178D+00 0.109D+00 0.885D+00
 Gap=     0.070 Goal=   None    Shift=    0.000
 Gap=     0.070 Goal=   None    Shift=    0.000
 RMSDP=5.47D-04 MaxDP=7.98D-03 DE=-6.41D-02 OVMax= 4.82D-02

 Cycle  12  Pass 1  IDiag  1:
 E= -81.6899440162571     Delta-E=       -0.002790758499 Rises=F Damp=F
 DIIS: error= 1.05D-03 at cycle  12 NSaved=  12.
 NSaved=12 IEnMin=12 EnMin= -81.6899440162571     IErMin=12 ErrMin= 1.05D-03
 ErrMax= 1.05D-03  0.00D+00 EMaxC= 1.00D-01 BMatC= 1.80D-04 BMatP= 7.52D-03
 IDIUse=3 WtCom= 9.89D-01 WtEn= 1.05D-02
 Coeff-Com: -0.928D-02 0.120D-01 0.134D-01 0.330D-03 0.833D-02 0.896D-01
 Coeff-Com: -0.691D-02-0.651D-01-0.107D+00-0.546D-01 0.185D+00 0.934D+00
 Coeff-En:   0.000D+00 0.000D+00 0.000D+00 0.000D+00 0.000D+00 0.000D+00
 Coeff-En:   0.000D+00 0.000D+00 0.000D+00 0.000D+00 0.000D+00 0.100D+01
 Coeff:     -0.918D-02 0.119D-01 0.132D-01 0.326D-03 0.824D-02 0.887D-01
 Coeff:     -0.683D-02-0.644D-01-0.106D+00-0.540D-01 0.183D+00 0.934D+00
 Gap=     0.073 Goal=   None    Shift=    0.000
 Gap=     0.073 Goal=   None    Shift=    0.000
 RMSDP=1.50D-04 MaxDP=2.09D-03 DE=-2.79D-03 OVMax= 1.32D-02

 Cycle  13  Pass 1  IDiag  1:
 E= -81.6898407037215     Delta-E=        0.000103312536 Rises=F Damp=F
 DIIS: error= 1.75D-03 at cycle  13 NSaved=  13.
 NSaved=13 IEnMin=12 EnMin= -81.6899440162571     IErMin=12 ErrMin= 1.05D-03
 ErrMax= 1.75D-03  0.00D+00 EMaxC= 1.00D-01 BMatC= 5.13D-04 BMatP= 1.80D-04
 IDIUse=3 WtCom= 9.89D-01 WtEn= 1.05D-02
 Coeff-Com: -0.101D-01 0.129D-01 0.210D-01-0.592D-03 0.310D-02 0.313D-01
 Coeff-Com:  0.873D-04-0.129D-01-0.480D-01-0.581D-01 0.132D+00-0.190D+00
 Coeff-Com:  0.112D+01
 Coeff-En:   0.000D+00 0.000D+00 0.000D+00 0.000D+00 0.000D+00 0.000D+00
 Coeff-En:   0.000D+00 0.000D+00 0.000D+00 0.000D+00 0.000D+00 0.995D+00
 Coeff-En:   0.476D-02
 Coeff:     -0.100D-01 0.128D-01 0.207D-01-0.585D-03 0.307D-02 0.310D-01
 Coeff:      0.864D-04-0.128D-01-0.475D-01-0.575D-01 0.131D+00-0.177D+00
 Coeff:      0.111D+01
 Gap=     0.074 Goal=   None    Shift=    0.000
 Gap=     0.074 Goal=   None    Shift=    0.000
 RMSDP=1.44D-04 MaxDP=2.06D-03 DE= 1.03D-04 OVMax= 1.19D-02

 Cycle  14  Pass 1  IDiag  1:
 E= -81.6900133385662     Delta-E=       -0.000172634845 Rises=F Damp=F
 DIIS: error= 2.03D-04 at cycle  14 NSaved=  14.
 NSaved=14 IEnMin=14 EnMin= -81.6900133385662     IErMin=14 ErrMin= 2.03D-04
 ErrMax= 2.03D-04  0.00D+00 EMaxC= 1.00D-01 BMatC= 8.22D-06 BMatP= 1.80D-04
 IDIUse=3 WtCom= 9.98D-01 WtEn= 2.03D-03
 Coeff-Com: -0.831D-03 0.988D-03-0.184D-02 0.357D-05 0.204D-02 0.661D-02
 Coeff-Com: -0.265D-02-0.190D-01 0.173D-02-0.256D-02 0.107D-01-0.181D+00
 Coeff-Com: -0.457D-01 0.123D+01
 Coeff-En:   0.000D+00 0.000D+00 0.000D+00 0.000D+00 0.000D+00 0.000D+00
 Coeff-En:   0.000D+00 0.000D+00 0.000D+00 0.000D+00 0.000D+00 0.000D+00
 Coeff-En:   0.000D+00 0.100D+01
 Coeff:     -0.829D-03 0.986D-03-0.183D-02 0.356D-05 0.204D-02 0.659D-02
 Coeff:     -0.265D-02-0.189D-01 0.173D-02-0.256D-02 0.107D-01-0.181D+00
 Coeff:     -0.456D-01 0.123D+01
 Gap=     0.076 Goal=   None    Shift=    0.000
 Gap=     0.076 Goal=   None    Shift=    0.000
 RMSDP=4.70D-05 MaxDP=5.41D-04 DE=-1.73D-04 OVMax= 3.30D-03

 Cycle  15  Pass 1  IDiag  1:
 E= -81.6900142635608     Delta-E=       -0.000000924995 Rises=F Damp=F
 DIIS: error= 2.54D-04 at cycle  15 NSaved=  15.
 NSaved=15 IEnMin=15 EnMin= -81.6900142635608     IErMin=14 ErrMin= 2.03D-04
 ErrMax= 2.54D-04  0.00D+00 EMaxC= 1.00D-01 BMatC= 1.11D-05 BMatP= 8.22D-06
 IDIUse=3 WtCom= 9.98D-01 WtEn= 2.03D-03
 Coeff-Com:  0.103D-03-0.309D-04-0.953D-03-0.485D-05 0.585D-03-0.400D-03
 Coeff-Com: -0.996D-03-0.113D-03 0.154D-02 0.253D-02 0.339D-02 0.106D-01
 Coeff-Com: -0.189D+00 0.898D-01 0.108D+01
 Coeff-En:   0.000D+00 0.000D+00 0.000D+00 0.000D+00 0.000D+00 0.000D+00
 Coeff-En:   0.000D+00 0.000D+00 0.000D+00 0.000D+00 0.000D+00 0.000D+00
 Coeff-En:   0.000D+00 0.343D+00 0.657D+00
 Coeff:      0.103D-03-0.308D-04-0.951D-03-0.484D-05 0.583D-03-0.400D-03
 Coeff:     -0.994D-03-0.113D-03 0.153D-02 0.252D-02 0.339D-02 0.106D-01
 Coeff:     -0.189D+00 0.904D-01 0.108D+01
 Gap=     0.076 Goal=   None    Shift=    0.000
 Gap=     0.076 Goal=   None    Shift=    0.000
 RMSDP=1.92D-05 MaxDP=2.67D-04 DE=-9.25D-07 OVMax= 1.41D-03

 Cycle  16  Pass 1  IDiag  1:
 E= -81.6900181826759     Delta-E=       -0.000003919115 Rises=F Damp=F
 DIIS: error= 5.46D-05 at cycle  16 NSaved=  16.
 NSaved=16 IEnMin=16 EnMin= -81.6900181826759     IErMin=16 ErrMin= 5.46D-05
 ErrMax= 5.46D-05  0.00D+00 EMaxC= 1.00D-01 BMatC= 5.18D-07 BMatP= 8.22D-06
 IDIUse=1 WtCom= 1.00D+00 WtEn= 0.00D+00
 Coeff-Com: -0.382D-04 0.333D-04-0.691D-04-0.112D-04 0.887D-05-0.279D-03
 Coeff-Com:  0.277D-05 0.731D-03 0.754D-03-0.637D-03-0.567D-04-0.233D-02
 Coeff-Com:  0.522D-02 0.527D-02-0.953D-01 0.109D+01
 Coeff:     -0.382D-04 0.333D-04-0.691D-04-0.112D-04 0.887D-05-0.279D-03
 Coeff:      0.277D-05 0.731D-03 0.754D-03-0.637D-03-0.567D-04-0.233D-02
 Coeff:      0.522D-02 0.527D-02-0.953D-01 0.109D+01
 Gap=     0.076 Goal=   None    Shift=    0.000
 Gap=     0.076 Goal=   None    Shift=    0.000
 RMSDP=2.78D-06 MaxDP=3.15D-05 DE=-3.92D-06 OVMax= 2.60D-04

 Cycle  17  Pass 1  IDiag  1:
 E= -81.6900183262858     Delta-E=       -0.000000143610 Rises=F Damp=F
 DIIS: error= 3.51D-05 at cycle  17 NSaved=  17.
 NSaved=17 IEnMin=17 EnMin= -81.6900183262858     IErMin=17 ErrMin= 3.51D-05
 ErrMax= 3.51D-05  0.00D+00 EMaxC= 1.00D-01 BMatC= 2.10D-07 BMatP= 5.18D-07
 IDIUse=1 WtCom= 1.00D+00 WtEn= 0.00D+00
 Coeff-Com: -0.459D-04 0.678D-04 0.120D-03-0.848D-05-0.615D-04 0.417D-03
 Coeff-Com:  0.172D-03 0.287D-03-0.369D-03-0.116D-02-0.342D-03-0.253D-02
 Coeff-Com:  0.199D-01-0.256D-02-0.803D-01-0.619D+00 0.169D+01
 Coeff:     -0.459D-04 0.678D-04 0.120D-03-0.848D-05-0.615D-04 0.417D-03
 Coeff:      0.172D-03 0.287D-03-0.369D-03-0.116D-02-0.342D-03-0.253D-02
 Coeff:      0.199D-01-0.256D-02-0.803D-01-0.619D+00 0.169D+01
 Gap=     0.076 Goal=   None    Shift=    0.000
 Gap=     0.076 Goal=   None    Shift=    0.000
 RMSDP=2.08D-06 MaxDP=3.32D-05 DE=-1.44D-07 OVMax= 2.10D-04

 Cycle  18  Pass 1  IDiag  1:
 E= -81.6900183529073     Delta-E=       -0.000000026621 Rises=F Damp=F
 DIIS: error= 3.15D-05 at cycle  18 NSaved=  18.
 NSaved=18 IEnMin=18 EnMin= -81.6900183529073     IErMin=18 ErrMin= 3.15D-05
 ErrMax= 3.15D-05  0.00D+00 EMaxC= 1.00D-01 BMatC= 1.70D-07 BMatP= 2.10D-07
 IDIUse=1 WtCom= 1.00D+00 WtEn= 0.00D+00
 Coeff-Com: -0.641D-04 0.809D-04-0.195D-04-0.752D-05 0.270D-04 0.311D-03
 Coeff-Com: -0.327D-05-0.210D-04-0.698D-04-0.378D-03 0.503D-03 0.147D-02
 Coeff-Com: -0.152D-01 0.808D-02 0.388D-01 0.969D-01-0.778D+00 0.165D+01
 Coeff:     -0.641D-04 0.809D-04-0.195D-04-0.752D-05 0.270D-04 0.311D-03
 Coeff:     -0.327D-05-0.210D-04-0.698D-04-0.378D-03 0.503D-03 0.147D-02
 Coeff:     -0.152D-01 0.808D-02 0.388D-01 0.969D-01-0.778D+00 0.165D+01
 Gap=     0.076 Goal=   None    Shift=    0.000
 Gap=     0.076 Goal=   None    Shift=    0.000
 RMSDP=1.36D-06 MaxDP=1.84D-05 DE=-2.66D-08 OVMax= 1.33D-04

 Cycle  19  Pass 1  IDiag  1:
 E= -81.6900183875522     Delta-E=       -0.000000034645 Rises=F Damp=F
 DIIS: error= 2.19D-05 at cycle  19 NSaved=  19.
 NSaved=19 IEnMin=19 EnMin= -81.6900183875522     IErMin=19 ErrMin= 2.19D-05
 ErrMax= 2.19D-05  0.00D+00 EMaxC= 1.00D-01 BMatC= 8.10D-08 BMatP= 1.70D-07
 IDIUse=1 WtCom= 1.00D+00 WtEn= 0.00D+00
 Coeff-Com: -0.359D-04 0.542D-04-0.552D-05-0.547D-05 0.133D-04 0.802D-04
 Coeff-Com: -0.206D-04-0.354D-04 0.713D-04-0.163D-03 0.335D-03-0.202D-02
 Coeff-Com:  0.172D-02 0.134D-01-0.315D-01 0.945D-01 0.316D+00-0.156D+01
 Coeff-Com:  0.217D+01
 Coeff:     -0.359D-04 0.542D-04-0.552D-05-0.547D-05 0.133D-04 0.802D-04
 Coeff:     -0.206D-04-0.354D-04 0.713D-04-0.163D-03 0.335D-03-0.202D-02
 Coeff:      0.172D-02 0.134D-01-0.315D-01 0.945D-01 0.316D+00-0.156D+01
 Coeff:      0.217D+01
 Gap=     0.076 Goal=   None    Shift=    0.000
 Gap=     0.076 Goal=   None    Shift=    0.000
 RMSDP=5.97D-07 MaxDP=6.24D-06 DE=-3.46D-08 OVMax= 4.62D-05

 Cycle  20  Pass 1  IDiag  1:
 E= -81.6900184006885     Delta-E=       -0.000000013136 Rises=F Damp=F
 DIIS: error= 1.66D-05 at cycle  20 NSaved=  20.
 NSaved=20 IEnMin=20 EnMin= -81.6900184006885     IErMin=20 ErrMin= 1.66D-05
 ErrMax= 1.66D-05  0.00D+00 EMaxC= 1.00D-01 BMatC= 4.56D-08 BMatP= 8.10D-08
 IDIUse=1 WtCom= 1.00D+00 WtEn= 0.00D+00
 Coeff-Com: -0.120D-06 0.348D-05-0.744D-05-0.877D-06 0.212D-04-0.646D-05
 Coeff-Com: -0.320D-04 0.178D-03 0.327D-04-0.171D-03 0.185D-03-0.221D-02
 Coeff-Com:  0.600D-02 0.436D-02-0.168D-01-0.150D+00 0.583D+00-0.623D+00
 Coeff-Com: -0.117D+01 0.236D+01
 Coeff:     -0.120D-06 0.348D-05-0.744D-05-0.877D-06 0.212D-04-0.646D-05
 Coeff:     -0.320D-04 0.178D-03 0.327D-04-0.171D-03 0.185D-03-0.221D-02
 Coeff:      0.600D-02 0.436D-02-0.168D-01-0.150D+00 0.583D+00-0.623D+00
 Coeff:     -0.117D+01 0.236D+01
 Gap=     0.076 Goal=   None    Shift=    0.000
 Gap=     0.076 Goal=   None    Shift=    0.000
 RMSDP=5.14D-07 MaxDP=5.23D-06 DE=-1.31D-08 OVMax= 4.47D-05

 Cycle  21  Pass 1  IDiag  1:
 E= -81.6900184059157     Delta-E=       -0.000000005227 Rises=F Damp=F
 DIIS: error= 1.34D-05 at cycle  21 NSaved=  20.
 NSaved=20 IEnMin=20 EnMin= -81.6900184059157     IErMin=20 ErrMin= 1.34D-05
 ErrMax= 1.34D-05  0.00D+00 EMaxC= 1.00D-01 BMatC= 3.07D-08 BMatP= 4.56D-08
 IDIUse=1 WtCom= 1.00D+00 WtEn= 0.00D+00
 Coeff-Com:  0.245D-05-0.355D-05-0.149D-04 0.155D-04 0.307D-05-0.159D-04
 Coeff-Com:  0.111D-03 0.448D-04-0.163D-03 0.118D-03-0.764D-03-0.967D-03
 Coeff-Com:  0.408D-02 0.654D-02-0.347D-01 0.981D-01-0.984D-01-0.587D+00
 Coeff-Com:  0.564D+00 0.105D+01
 Coeff:      0.245D-05-0.355D-05-0.149D-04 0.155D-04 0.307D-05-0.159D-04
 Coeff:      0.111D-03 0.448D-04-0.163D-03 0.118D-03-0.764D-03-0.967D-03
 Coeff:      0.408D-02 0.654D-02-0.347D-01 0.981D-01-0.984D-01-0.587D+00
 Coeff:      0.564D+00 0.105D+01
 Gap=     0.076 Goal=   None    Shift=    0.000
 Gap=     0.076 Goal=   None    Shift=    0.000
 RMSDP=4.49D-07 MaxDP=6.33D-06 DE=-5.23D-09 OVMax= 3.90D-05

 Cycle  22  Pass 1  IDiag  1:
 E= -81.6900184136963     Delta-E=       -0.000000007781 Rises=F Damp=F
 DIIS: error= 7.64D-06 at cycle  22 NSaved=  20.
 NSaved=20 IEnMin=20 EnMin= -81.6900184136963     IErMin=20 ErrMin= 7.64D-06
 ErrMax= 7.64D-06  0.00D+00 EMaxC= 1.00D-01 BMatC= 1.00D-08 BMatP= 3.07D-08
 IDIUse=1 WtCom= 1.00D+00 WtEn= 0.00D+00
 Coeff-Com:  0.149D-05-0.148D-05 0.173D-05 0.222D-05 0.186D-05 0.360D-05
 Coeff-Com:  0.240D-05-0.326D-04-0.371D-04 0.211D-03 0.698D-03-0.142D-04
 Coeff-Com: -0.718D-02 0.549D-01-0.680D-02-0.156D+00 0.299D+00 0.328D-01
 Coeff-Com: -0.163D+01 0.242D+01
 Coeff:      0.149D-05-0.148D-05 0.173D-05 0.222D-05 0.186D-05 0.360D-05
 Coeff:      0.240D-05-0.326D-04-0.371D-04 0.211D-03 0.698D-03-0.142D-04
 Coeff:     -0.718D-02 0.549D-01-0.680D-02-0.156D+00 0.299D+00 0.328D-01
 Coeff:     -0.163D+01 0.242D+01
 Gap=     0.076 Goal=   None    Shift=    0.000
 Gap=     0.076 Goal=   None    Shift=    0.000
 RMSDP=5.14D-07 MaxDP=9.35D-06 DE=-7.78D-09 OVMax= 5.53D-05

 Cycle  23  Pass 1  IDiag  1:
 E= -81.6900184174551     Delta-E=       -0.000000003759 Rises=F Damp=F
 DIIS: error= 1.68D-06 at cycle  23 NSaved=  20.
 NSaved=20 IEnMin=20 EnMin= -81.6900184174551     IErMin=20 ErrMin= 1.68D-06
 ErrMax= 1.68D-06  0.00D+00 EMaxC= 1.00D-01 BMatC= 2.90D-10 BMatP= 1.00D-08
 IDIUse=1 WtCom= 1.00D+00 WtEn= 0.00D+00
 Coeff-Com:  0.191D-05-0.151D-05 0.348D-06-0.472D-05-0.210D-05 0.117D-04
 Coeff-Com: -0.178D-04-0.545D-04 0.300D-03 0.804D-03-0.528D-04-0.892D-02
 Coeff-Com:  0.774D-01-0.131D-01-0.226D+00 0.451D+00 0.579D-02-0.218D+01
 Coeff-Com:  0.316D+01-0.266D+00
 Coeff:      0.191D-05-0.151D-05 0.348D-06-0.472D-05-0.210D-05 0.117D-04
 Coeff:     -0.178D-04-0.545D-04 0.300D-03 0.804D-03-0.528D-04-0.892D-02
 Coeff:      0.774D-01-0.131D-01-0.226D+00 0.451D+00 0.579D-02-0.218D+01
 Coeff:      0.316D+01-0.266D+00
 Gap=     0.076 Goal=   None    Shift=    0.000
 Gap=     0.076 Goal=   None    Shift=    0.000
 RMSDP=8.08D-08 MaxDP=1.35D-06 DE=-3.76D-09 OVMax= 7.89D-06

 Cycle  24  Pass 1  IDiag  1:
 E= -81.6900184173994     Delta-E=        0.000000000056 Rises=F Damp=F
 DIIS: error= 1.42D-06 at cycle  24 NSaved=  20.
 NSaved=20 IEnMin=19 EnMin= -81.6900184174551     IErMin=20 ErrMin= 1.42D-06
 ErrMax= 1.42D-06  0.00D+00 EMaxC= 1.00D-01 BMatC= 2.82D-10 BMatP= 2.90D-10
 IDIUse=1 WtCom= 1.00D+00 WtEn= 0.00D+00
 Coeff-Com: -0.251D-06-0.689D-07-0.305D-05 0.149D-05 0.431D-05-0.553D-07
 Coeff-Com:  0.989D-05-0.125D-03 0.397D-03 0.586D-04-0.251D-02-0.101D-01
 Coeff-Com:  0.225D-01 0.418D-02-0.746D-01 0.138D+00-0.464D-01-0.228D+00
 Coeff-Com: -0.918D+00 0.212D+01
 Coeff:     -0.251D-06-0.689D-07-0.305D-05 0.149D-05 0.431D-05-0.553D-07
 Coeff:      0.989D-05-0.125D-03 0.397D-03 0.586D-04-0.251D-02-0.101D-01
 Coeff:      0.225D-01 0.418D-02-0.746D-01 0.138D+00-0.464D-01-0.228D+00
 Coeff:     -0.918D+00 0.212D+01
 Gap=     0.076 Goal=   None    Shift=    0.000
 Gap=     0.076 Goal=   None    Shift=    0.000
 RMSDP=1.29D-07 MaxDP=2.76D-06 DE= 5.57D-11 OVMax= 1.59D-05

 Cycle  25  Pass 1  IDiag  1:
 E= -81.6900184174943     Delta-E=       -0.000000000095 Rises=F Damp=F
 DIIS: error= 6.31D-08 at cycle  25 NSaved=  20.
 NSaved=20 IEnMin=20 EnMin= -81.6900184174943     IErMin=20 ErrMin= 6.31D-08
 ErrMax= 6.31D-08  0.00D+00 EMaxC= 1.00D-01 BMatC= 6.72D-13 BMatP= 2.82D-10
 IDIUse=1 WtCom= 1.00D+00 WtEn= 0.00D+00
 Coeff-Com:  0.882D-07 0.784D-07 0.347D-06-0.590D-06 0.446D-06 0.191D-05
 Coeff-Com: -0.266D-04 0.438D-04 0.473D-04-0.714D-05-0.279D-02 0.440D-02
 Coeff-Com:  0.413D-02-0.211D-01 0.199D-01 0.581D-01-0.114D+00-0.376D-01
 Coeff-Com:  0.105D+00 0.983D+00
 Coeff:      0.882D-07 0.784D-07 0.347D-06-0.590D-06 0.446D-06 0.191D-05
 Coeff:     -0.266D-04 0.438D-04 0.473D-04-0.714D-05-0.279D-02 0.440D-02
 Coeff:      0.413D-02-0.211D-01 0.199D-01 0.581D-01-0.114D+00-0.376D-01
 Coeff:      0.105D+00 0.983D+00
 Gap=     0.076 Goal=   None    Shift=    0.000
 Gap=     0.076 Goal=   None    Shift=    0.000
 RMSDP=7.11D-09 MaxDP=9.29D-08 DE=-9.49D-11 OVMax= 6.65D-07

 SCF Done:  E(UM062X) =  -81.6900184175     A.U. after   25 cycles
            NFock= 25  Conv=0.71D-08     -V/T= 2.0042
 <Sx>= 0.0000 <Sy>= 0.0000 <Sz>= 0.0000 <S**2>=-0.0000 S=-0.0000
 <L.S>=  0.00000000000    
 KE= 8.134950831351D+01 PE=-2.296978745912D+02 EE= 4.686804756668D+01
 Annihilation of the first spin contaminant:
 S**2 before annihilation    -0.0000,   after    -0.0000
 Leave Link  502 at Mon Apr 21 17:53:12 2025, MaxMem=   536870912 cpu:             111.9 elap:              14.6
 (Enter /home/szhao/Apps/g16/l601.exe)
 Copying SCF densities to generalized density rwf, IOpCl= 1 IROHF=0.

 **********************************************************************

            Population analysis using the SCF density.

 **********************************************************************

 Alpha  occ. eigenvalues --  -14.70716  -7.16803  -0.87399  -0.61992  -0.50598
 Alpha  occ. eigenvalues --   -0.47738  -0.31896  -0.21818
 Alpha virt. eigenvalues --   -0.14240  -0.07959   0.01063   0.03360   0.04950
 Alpha virt. eigenvalues --    0.05345   0.10159   0.12080   0.14157   0.17053
 Alpha virt. eigenvalues --    0.17174   0.19817   0.24140   0.24688   0.32619
 Alpha virt. eigenvalues --    0.33921   0.39227   0.42408   0.54073   0.54271
 Alpha virt. eigenvalues --    0.61758   0.61938   0.75363   0.79639   0.79804
 Alpha virt. eigenvalues --    0.81685   0.84880   0.88381   1.05384   1.07347
 Alpha virt. eigenvalues --    1.10145   1.28262   1.39669   1.51389   1.51416
 Alpha virt. eigenvalues --    1.58152   1.63581   1.72139   1.75546   1.82060
 Alpha virt. eigenvalues --    1.87485   1.93810   2.04298   2.04764   2.25517
 Alpha virt. eigenvalues --    2.38113   2.47592   2.51347   2.51994   2.53472
 Alpha virt. eigenvalues --    2.56735   2.66683   2.76156   3.02246   3.12044
 Alpha virt. eigenvalues --    3.92713   4.27957   4.84385  14.33637  35.63966
  Beta  occ. eigenvalues --  -14.70716  -7.16803  -0.87399  -0.61992  -0.50598
  Beta  occ. eigenvalues --   -0.47738  -0.31896  -0.21818
  Beta virt. eigenvalues --   -0.14240  -0.07959   0.01063   0.03360   0.04950
  Beta virt. eigenvalues --    0.05345   0.10159   0.12080   0.14157   0.17053
  Beta virt. eigenvalues --    0.17174   0.19817   0.24140   0.24688   0.32619
  Beta virt. eigenvalues --    0.33921   0.39227   0.42408   0.54073   0.54271
  Beta virt. eigenvalues --    0.61758   0.61938   0.75363   0.79639   0.79804
  Beta virt. eigenvalues --    0.81685   0.84880   0.88381   1.05384   1.07347
  Beta virt. eigenvalues --    1.10145   1.28262   1.39669   1.51389   1.51416
  Beta virt. eigenvalues --    1.58152   1.63581   1.72139   1.75546   1.82060
  Beta virt. eigenvalues --    1.87485   1.93810   2.04298   2.04764   2.25517
  Beta virt. eigenvalues --    2.38113   2.47592   2.51347   2.51994   2.53472
  Beta virt. eigenvalues --    2.56735   2.66683   2.76156   3.02246   3.12044
  Beta virt. eigenvalues --    3.92713   4.27957   4.84385  14.33637  35.63966
          Condensed to atoms (all electrons):
               1          2          3          4          5          6
     1  B    4.085753  -0.000408   0.376161   0.000171   0.376161   0.000171
     2  N   -0.000408   7.063877  -0.000083   0.317805  -0.000083   0.317805
     3  H    0.376161  -0.000083   0.603490  -0.000001  -0.029438   0.000011
     4  H    0.000171   0.317805  -0.000001   0.493034   0.000011  -0.029621
     5  H    0.376161  -0.000083  -0.029438   0.000011   0.603491  -0.000001
     6  H    0.000171   0.317805   0.000011  -0.029621  -0.000001   0.493034
          Atomic-Atomic Spin Densities.
               1          2          3          4          5          6
     1  B    0.000000  -0.000000  -0.000000   0.000000  -0.000000   0.000000
     2  N   -0.000000  -0.000000   0.000000  -0.000000   0.000000  -0.000000
     3  H   -0.000000   0.000000   0.000000  -0.000000   0.000000  -0.000000
     4  H    0.000000  -0.000000  -0.000000   0.000000  -0.000000  -0.000000
     5  H   -0.000000   0.000000   0.000000  -0.000000   0.000000  -0.000000
     6  H    0.000000  -0.000000  -0.000000  -0.000000  -0.000000   0.000000
 Mulliken charges and spin densities:
               1          2
     1  B    0.161993   0.000000
     2  N   -0.698915  -0.000000
     3  H    0.049859   0.000000
     4  H    0.218602   0.000000
     5  H    0.049859   0.000000
     6  H    0.218602   0.000000
 Sum of Mulliken charges =  -0.00000  -0.00000
 Mulliken charges and spin densities with hydrogens summed into heavy atoms:
               1          2
     1  B    0.261712   0.000000
     2  N   -0.261712  -0.000000
 Electronic spatial extent (au):  <R**2>=            328.8684
 Charge=             -0.0000 electrons
 Dipole moment (field-independent basis, Debye):
    X=             -3.5340    Y=             -0.0000    Z=             -0.1873  Tot=              3.5390
 Quadrupole moment (field-independent basis, Debye-Ang):
   XX=             -7.2098   YY=            -13.5869   ZZ=            -15.4086
   XY=             -0.0000   XZ=             -0.0801   YZ=             -0.0003
 Traceless Quadrupole moment (field-independent basis, Debye-Ang):
   XX=              4.8586   YY=             -1.5184   ZZ=             -3.3401
   XY=             -0.0000   XZ=             -0.0801   YZ=             -0.0003
 Octapole moment (field-independent basis, Debye-Ang**2):
  XXX=             -2.0915  YYY=             -0.0001  ZZZ=             -0.8684  XYY=              3.7738
  XXY=             -0.0001  XXZ=             -0.6409  XZZ=             -5.6334  YZZ=             -0.0000
  YYZ=             -0.2931  XYZ=             -0.0012
 Hexadecapole moment (field-independent basis, Debye-Ang**3):
 XXXX=           -408.0012 YYYY=            -32.4761 ZZZZ=            -20.7916 XXXY=             -0.0005
 XXXZ=             -3.7326 YYYX=             -0.0001 YYYZ=              0.0004 ZZZX=             -0.5514
 ZZZY=              0.0010 XXYY=            -66.9407 XXZZ=            -80.2115 YYZZ=             -9.6257
 XXYZ=             -0.0018 YYXZ=             -0.2981 ZZXY=             -0.0000
 N-N= 1.979030029350D+01 E-N=-2.296978730563D+02  KE= 8.134950831351D+01
                          Isotropic Fermi Contact Couplings
        Atom                 a.u.       MegaHertz       Gauss      10(-4) cm-1
     1  B(11)              0.00000       0.00000       0.00000       0.00000
     2  N(14)              0.00000       0.00000       0.00000       0.00000
     3  H(1)               0.00000       0.00000       0.00000       0.00000
     4  H(1)               0.00000       0.00000       0.00000       0.00000
     5  H(1)               0.00000       0.00000       0.00000       0.00000
     6  H(1)               0.00000       0.00000       0.00000       0.00000
 --------------------------------------------------------
       Center         ----  Spin Dipole Couplings  ----
                      3XX-RR        3YY-RR        3ZZ-RR
 --------------------------------------------------------
     1   Atom        0.000000     -0.000000     -0.000000
     2   Atom        0.000000      0.000000     -0.000000
     3   Atom        0.000000      0.000000     -0.000000
     4   Atom        0.000000     -0.000000      0.000000
     5   Atom        0.000000      0.000000     -0.000000
     6   Atom        0.000000     -0.000000      0.000000
 --------------------------------------------------------
                        XY            XZ            YZ
 --------------------------------------------------------
     1   Atom       -0.000000     -0.000000     -0.000000
     2   Atom        0.000000      0.000000     -0.000000
     3   Atom        0.000000     -0.000000     -0.000000
     4   Atom       -0.000000      0.000000     -0.000000
     5   Atom       -0.000000     -0.000000      0.000000
     6   Atom        0.000000      0.000000      0.000000
 --------------------------------------------------------


 ---------------------------------------------------------------------------------
              Anisotropic Spin Dipole Couplings in Principal Axis System
 ---------------------------------------------------------------------------------

       Atom             a.u.   MegaHertz   Gauss  10(-4) cm-1        Axes

              Baa    -0.0000    -0.000    -0.000    -0.000  0.0142  0.0000  0.9999
     1 B(11)  Bbb    -0.0000    -0.000    -0.000    -0.000  0.0000  1.0000 -0.0000
              Bcc     0.0000     0.000     0.000     0.000  0.9999 -0.0000 -0.0142
 
              Baa    -0.0000    -0.000    -0.000    -0.000 -0.0748  0.0001  0.9972
     2 N(14)  Bbb     0.0000     0.000     0.000     0.000  0.0007  1.0000 -0.0001
              Bcc     0.0000     0.000     0.000     0.000  0.9972 -0.0007  0.0748
 
              Baa    -0.0000    -0.000    -0.000    -0.000  0.0217 -0.0016  0.9998
     3 H(1)   Bbb    -0.0000    -0.000    -0.000    -0.000  0.8890 -0.4574 -0.0200
              Bcc     0.0000     0.000     0.000     0.000  0.4573  0.8893 -0.0085
 
              Baa    -0.0000    -0.000    -0.000    -0.000  0.5156  0.8564  0.0279
     4 H(1)   Bbb     0.0000     0.000     0.000     0.000 -0.0741  0.0121  0.9972
              Bcc     0.0000     0.000     0.000     0.000  0.8536 -0.5162  0.0697
 
              Baa    -0.0000    -0.000    -0.000    -0.000  0.0217  0.0018  0.9998
     5 H(1)   Bbb    -0.0000    -0.000    -0.000    -0.000  0.8890  0.4574 -0.0201
              Bcc     0.0000     0.000     0.000     0.000 -0.4573  0.8893  0.0083
 
              Baa    -0.0000    -0.000    -0.000    -0.000 -0.5156  0.8563 -0.0281
     6 H(1)   Bbb     0.0000     0.000     0.000     0.000 -0.0741 -0.0119  0.9972
              Bcc     0.0000     0.000     0.000     0.000  0.8536  0.5163  0.0696
 

 ---------------------------------------------------------------------------------

 No NMR shielding tensors so no spin-rotation constants.
 Leave Link  601 at Mon Apr 21 17:53:13 2025, MaxMem=   536870912 cpu:               2.3 elap:               0.4
 (Enter /home/szhao/Apps/g16/l701.exe)
 ... and contract with generalized density number  0.
 Compute integral first derivatives.
 Leave Link  701 at Mon Apr 21 17:53:13 2025, MaxMem=   536870912 cpu:               1.2 elap:               0.2
 (Enter /home/szhao/Apps/g16/l702.exe)
 L702 exits ... SP integral derivatives will be done elsewhere.
 Leave Link  702 at Mon Apr 21 17:53:14 2025, MaxMem=   536870912 cpu:               0.4 elap:               0.1
 (Enter /home/szhao/Apps/g16/l703.exe)
 Integral derivatives from FoFJK, PRISM(SPDF).
 Compute integral first derivatives, UseDBF=F ICtDFT=           0.
 Calling FoFJK, ICntrl=      2127 FMM=F ISym2X=0 I1Cent= 0 IOpClX= 1 NMat=1 NMatS=1 NMatT=0.
 FoFJK:  IHMeth= 1 ICntrl=    2127 DoSepK=F KAlg= 0 I1Cent=           0 FoldK=F
 IRaf=         0 NMat=       1 IRICut=       1 DoRegI=T DoRafI=F ISym2E= 0 IDoP0=0 IntGTp=1.
 FoFCou: FMM=F IPFlag=           0 FMFlag=      100000 FMFlg1=         800
         NFxFlg=           0 DoJE=F BraDBF=F KetDBF=F FulRan=T
         wScrn=  0.000000 ICntrl=      2127 IOpCl=  1 I1Cent=           0 NGrid=           0
         NMat0=    1 NMatS0=      1 NMatT0=    0 NMatD0=    1 NMtDS0=    0 NMtDT0=    0
 Symmetry not used in FoFCou.
 Leave Link  703 at Mon Apr 21 17:53:15 2025, MaxMem=   536870912 cpu:               8.7 elap:               1.2
 (Enter /home/szhao/Apps/g16/l716.exe)
 Dipole        =-1.39039424D+00-9.76120914D-06-7.36962787D-02
 -------------------------------------------------------------------
 Center     Atomic                   Forces (Hartrees/Bohr)
 Number     Number              X              Y              Z
 -------------------------------------------------------------------
      1        5          -0.000000000   -0.000000000   -0.000000000
      2        7          -0.000000000   -0.000000000   -0.000000000
      3        1           0.013545054   -0.004215672   -0.001143009
      4        1           0.014776741    0.001514278    0.007901952
      5        1           0.013544725    0.004216005   -0.001144015
      6        1           0.014777108   -0.001512739    0.007902402
 -------------------------------------------------------------------
 Cartesian Forces:  Max     0.014777108 RMS     0.007345729
 Leave Link  716 at Mon Apr 21 17:53:16 2025, MaxMem=   536870912 cpu:               0.7 elap:               0.2
 (Enter /home/szhao/Apps/g16/l103.exe)

 GradGradGradGradGradGradGradGradGradGradGradGradGradGradGradGradGradGrad
 Berny optimization.
 FormGI is forming the generalized inverse of G from B-inverse, IUseBI=4.
 Internal  Forces:  Max     0.029553849 RMS     0.012822216
 Search for a local minimum.
 Step number   1 out of a maximum of   30
 All quantities printed in internal units (Hartrees-Bohrs-Radians)
 RMS Force = .97388D-02 SwitMx=.10000D-02 MixMth= 1
 Mixed Optimization -- RFO/linear search
 Second derivative matrix not updated -- first step.
 The second derivative matrix:
                          X1        Y1        Z1        X2        Y2
           X1           0.50000
           Y1           0.00000   0.50000
           Z1           0.00000   0.00000   0.50000
           X2           0.00000   0.00000   0.00000   0.50000
           Y2           0.00000   0.00000   0.00000   0.00000   0.50000
           Z2           0.00000   0.00000   0.00000   0.00000   0.00000
           R1           0.00000   0.00000   0.00000   0.00000   0.00000
           R2           0.00000   0.00000   0.00000   0.00000   0.00000
           R3           0.00000   0.00000   0.00000   0.00000   0.00000
           R4           0.00000   0.00000   0.00000   0.00000   0.00000
           A1           0.00000   0.00000   0.00000   0.00000   0.00000
           A2           0.00000   0.00000   0.00000   0.00000   0.00000
           A3           0.00000   0.00000   0.00000   0.00000   0.00000
           A4           0.00000   0.00000   0.00000   0.00000   0.00000
           A5           0.00000   0.00000   0.00000   0.00000   0.00000
           A6           0.00000   0.00000   0.00000   0.00000   0.00000
           D1           0.00000   0.00000   0.00000   0.00000   0.00000
           D2           0.00000   0.00000   0.00000   0.00000   0.00000
           D3           0.00000   0.00000   0.00000   0.00000   0.00000
           D4           0.00000   0.00000   0.00000   0.00000   0.00000
                          Z2        R1        R2        R3        R4
           Z2           0.50000
           R1           0.00000   0.25411
           R2           0.00000   0.00000   0.25411
           R3           0.00000   0.00000   0.00000   0.46372
           R4           0.00000   0.00000   0.00000   0.00000   0.46372
           A1           0.00000   0.00000   0.00000   0.00000   0.00000
           A2           0.00000   0.00000   0.00000   0.00000   0.00000
           A3           0.00000   0.00000   0.00000   0.00000   0.00000
           A4           0.00000   0.00000   0.00000   0.00000   0.00000
           A5           0.00000   0.00000   0.00000   0.00000   0.00000
           A6           0.00000   0.00000   0.00000   0.00000   0.00000
           D1           0.00000   0.00000   0.00000   0.00000   0.00000
           D2           0.00000   0.00000   0.00000   0.00000   0.00000
           D3           0.00000   0.00000   0.00000   0.00000   0.00000
           D4           0.00000   0.00000   0.00000   0.00000   0.00000
                          A1        A2        A3        A4        A5
           A1           0.16000
           A2           0.00000   0.16000
           A3           0.00000   0.00000   0.16000
           A4           0.00000   0.00000   0.00000   0.16000
           A5           0.00000   0.00000   0.00000   0.00000   0.16000
           A6           0.00000   0.00000   0.00000   0.00000   0.00000
           D1           0.00000   0.00000   0.00000   0.00000   0.00000
           D2           0.00000   0.00000   0.00000   0.00000   0.00000
           D3           0.00000   0.00000   0.00000   0.00000   0.00000
           D4           0.00000   0.00000   0.00000   0.00000   0.00000
                          A6        D1        D2        D3        D4
           A6           0.16000
           D1           0.00000   0.00230
           D2           0.00000   0.00000   0.00230
           D3           0.00000   0.00000   0.00000   0.00230
           D4           0.00000   0.00000   0.00000   0.00000   0.00230
 ITU=  0
     Eigenvalues ---    0.00230   0.00230   0.00230   0.16000   0.16000
     Eigenvalues ---    0.16000   0.16000   0.25411   0.25411   0.46372
     Eigenvalues ---    0.463721000.000001000.000001000.000001000.00000
     Eigenvalues --- 1000.000001000.000001000.000001000.000001000.00000
 RFO step:  Lambda=-1.52851501D-02 EMin= 2.30000000D-03
 Linear search not attempted -- first point.
 Iteration  1 RMS(Cart)=  0.10853757 RMS(Int)=  0.07961775
 Iteration  2 RMS(Cart)=  0.08234057 RMS(Int)=  0.02486370
 Iteration  3 RMS(Cart)=  0.01154265 RMS(Int)=  0.02326512
 Iteration  4 RMS(Cart)=  0.00036276 RMS(Int)=  0.02326362
 Iteration  5 RMS(Cart)=  0.00002152 RMS(Int)=  0.02326361
 Iteration  6 RMS(Cart)=  0.00000131 RMS(Int)=  0.02326361
 Iteration  7 RMS(Cart)=  0.00000008 RMS(Int)=  0.02326361
 ITry= 1 IFail=0 DXMaxC= 5.46D-01 DCOld= 1.00D+10 DXMaxT= 3.00D-01 DXLimC= 3.00D+00 Rises=F
 Variable       Old X    -DE/DX   Delta X   Delta X   Delta X     New X
                                 (Linear)    (Quad)   (Total)
    X1       -3.95973   0.02709   0.00000   0.00000   0.00000  -3.95973
    Y1        0.00000   0.00000   0.00000   0.00000   0.00000   0.00000
    Z1        0.00000  -0.00468   0.00000   0.00000   0.00000   0.00000
    X2        3.95973   0.02955   0.00000   0.00000   0.00000   3.95973
    Y2        0.00000   0.00000   0.00000   0.00000   0.00000   0.00000
    Z2        0.00000   0.01820   0.00000   0.00000   0.00000   0.00000
    R1        2.24874  -0.00285   0.00000  -0.01060  -0.01060   2.23815
    R2        2.24874  -0.00285   0.00000  -0.01059  -0.01059   2.23815
    R3        1.90414   0.00935   0.00000   0.01952   0.01952   1.92367
    R4        1.90414   0.00935   0.00000   0.01953   0.01953   1.92367
    A1        2.07512  -0.01042   0.00000  -0.05943  -0.06229   2.01284
    A2        2.07512  -0.01042   0.00000  -0.05943  -0.06229   2.01284
    A3        2.13294   0.02083   0.00000   0.11884   0.11595   2.24889
    A4        2.14980   0.00732   0.00000   0.04179  -0.01183   2.13797
    A5        2.14980   0.00732   0.00000   0.04179  -0.01183   2.13797
    A6        1.98359  -0.01465   0.00000  -0.08357  -0.14796   1.83563
    D1        3.14146   0.00517   0.00000   0.29399   0.27915  -2.86258
    D2       -0.00013  -0.00742   0.00000  -0.42221  -0.40699  -0.40711
    D3        0.00011   0.00742   0.00000   0.42221   0.40698   0.40709
    D4       -3.14148  -0.00517   0.00000  -0.29399  -0.27915   2.86255
         Item               Value     Threshold  Converged?
 Maximum Force            0.020832     0.000450     NO 
 RMS     Force            0.009739     0.000300     NO 
 Maximum Displacement     0.545764     0.001800     NO 
 RMS     Displacement     0.183892     0.001200     NO 
 Predicted change in Energy=-1.082713D-02
 Lowest energy point so far.  Saving SCF results.
 GradGradGradGradGradGradGradGradGradGradGradGradGradGradGradGradGradGrad

 Leave Link  103 at Mon Apr 21 17:53:16 2025, MaxMem=   536870912 cpu:               0.5 elap:               0.1
 (Enter /home/szhao/Apps/g16/l202.exe)
                          Input orientation:                          
 ---------------------------------------------------------------------
 Center     Atomic      Atomic             Coordinates (Angstroms)
 Number     Number       Type             X           Y           Z
 ---------------------------------------------------------------------
      1          5           0       -2.095399    0.000000    0.000000
      2          7           0        2.095399    0.000000    0.000000
      3          1           0       -2.602056   -1.068350   -0.068378
      4          1           0        2.642298    0.808581    0.288694
      5          1           0       -2.602056    1.068333   -0.068637
      6          1           0        2.642297   -0.808505    0.288910
 ---------------------------------------------------------------------
                    Distance matrix (angstroms):
                    1          2          3          4          5
     1  B    0.000000
     2  N    4.190798   0.000000
     3  H    1.184376   4.817896   0.000000
     4  H    4.814865   1.017962   5.581543   0.000000
     5  H    1.184376   4.817897   2.136682   5.262928   0.000000
     6  H    4.814864   1.017962   5.262928   1.617086   5.581541
                    6
     6  H    0.000000
 Symmetry turned off by external request.
 Stoichiometry    BH4N
 Framework group  C1[X(BH4N)]
 Deg. of freedom    12
 Full point group                 C1      NOp   1
 Rotational constants (GHZ):         134.2222194           3.7072322           3.6151752
 Leave Link  202 at Mon Apr 21 17:53:16 2025, MaxMem=   536870912 cpu:               0.2 elap:               0.1
 (Enter /home/szhao/Apps/g16/l301.exe)
 Standard basis: 6-311+G(d,p) (5D, 7F)
 Ernie: Thresh=  0.10000D-02 Tol=  0.10000D-05 Strict=F.
    68 basis functions,   104 primitive gaussians,    70 cartesian basis functions
     8 alpha electrons        8 beta electrons
       nuclear repulsion energy        19.7676003517 Hartrees.
 IExCor= 4336 DFT=T Ex+Corr=M062X ExCW=0 ScaHFX=  0.540000
 ScaDFX=  1.000000  1.000000  1.000000  1.000000 ScalE2=  1.000000  1.000000
 IRadAn=      7 IRanWt=     -1 IRanGd=            0 ICorTp=0 IEmpDi=  4
 NAtoms=    6 NActive=    6 NUniq=    6 SFac= 1.00D+00 NAtFMM=   60 NAOKFM=F Big=F
 Integral buffers will be    131072 words long.
 Raffenetti 2 integral format.
 Two-electron integral symmetry is turned off.
 Leave Link  301 at Mon Apr 21 17:53:16 2025, MaxMem=   536870912 cpu:               0.7 elap:               0.2
 (Enter /home/szhao/Apps/g16/l302.exe)
 NPDir=0 NMtPBC=     1 NCelOv=     1 NCel=       1 NClECP=     1 NCelD=      1
         NCelK=      1 NCelE2=     1 NClLst=     1 CellRange=     0.0.
 One-electron integrals computed using PRISM.
 NBasis=    68 RedAO= T EigKep=  7.37D-03  NBF=    68
 NBsUse=    68 1.00D-06 EigRej= -1.00D+00 NBFU=    68
 Precomputing XC quadrature grid using
 IXCGrd= 4 IRadAn=           7 IRanWt=          -1 IRanGd=           0 AccXCQ= 0.00D+00.
 Generated NRdTot=       0 NPtTot=           0 NUsed=           0 NTot=          32
 NSgBfM=    70    70    70    70    70 MxSgAt=     6 MxSgA2=     6.
 Leave Link  302 at Mon Apr 21 17:53:17 2025, MaxMem=   536870912 cpu:               1.7 elap:               0.3
 (Enter /home/szhao/Apps/g16/l303.exe)
 DipDrv:  MaxL=1.
 Leave Link  303 at Mon Apr 21 17:53:17 2025, MaxMem=   536870912 cpu:               0.8 elap:               0.2
 (Enter /home/szhao/Apps/g16/l401.exe)
 Initial guess from the checkpoint file:  "opt.chk"
 B after Tr=     0.015216    0.000006    0.041108
         Rot=    0.999937    0.000001    0.011197   -0.000001 Ang=   1.28 deg.
 Guess basis will be translated and rotated to current coordinates.
 JPrj=2 DoOrth=T DoCkMO=T.
 Initial guess <Sx>= 0.0000 <Sy>= 0.0000 <Sz>= 0.0000 <S**2>=-0.0000 S=-0.0000
 Generating alternative initial guess.
 ExpMin= 3.15D-02 ExpMax= 6.29D+03 ExpMxC= 9.49D+02 IAcc=3 IRadAn=         5 AccDes= 0.00D+00
 Harris functional with IExCor= 1009 and IRadAn=       5 diagonalized for initial guess.
 HarFok:  IExCor= 1009 AccDes= 0.00D+00 IRadAn=         5 IDoV= 1 UseB2=F ITyADJ=14
 ICtDFT=  3500011 ScaDFX=  1.000000  1.000000  1.000000  1.000000
 FoFCou: FMM=F IPFlag=           0 FMFlag=      100000 FMFlg1=           0
         NFxFlg=           0 DoJE=T BraDBF=F KetDBF=T FulRan=T
         wScrn=  0.000000 ICntrl=       500 IOpCl=  0 I1Cent=   200000004 NGrid=           0
         NMat0=    1 NMatS0=      1 NMatT0=    0 NMatD0=    1 NMtDS0=    0 NMtDT0=    0
 Symmetry not used in FoFCou.
 Harris En= -81.7937442097852    
 Leave Link  401 at Mon Apr 21 17:53:18 2025, MaxMem=   536870912 cpu:               3.2 elap:               0.5
 (Enter /home/szhao/Apps/g16/l502.exe)
 Keep R1 and R2 ints in memory in canonical form, NReq=12681614.
 FoFCou: FMM=F IPFlag=           0 FMFlag=           0 FMFlg1=           0
         NFxFlg=           0 DoJE=F BraDBF=F KetDBF=F FulRan=T
         wScrn=  0.000000 ICntrl=       600 IOpCl=  0 I1Cent=           0 NGrid=           0
         NMat0=    1 NMatS0=   2346 NMatT0=    0 NMatD0=    1 NMtDS0=    0 NMtDT0=    0
 Symmetry not used in FoFCou.
 Two-electron integral symmetry not used.
 UHF open shell SCF:
 Using DIIS extrapolation, IDIIS=  1040.
 NGot=   536870912 LenX=   531353794 LenY=   531348453
 Requested convergence on RMS density matrix=1.00D-08 within 128 cycles.
 Requested convergence on MAX density matrix=1.00D-06.
 Requested convergence on             energy=1.00D-06.
 No special actions if energy rises.

 Cycle   1  Pass 1  IDiag  1:
 E= -81.6825115350212    
 DIIS: error= 1.43D-02 at cycle   1 NSaved=   1.
 NSaved= 1 IEnMin= 1 EnMin= -81.6825115350212     IErMin= 1 ErrMin= 1.43D-02
 ErrMax= 1.43D-02  0.00D+00 EMaxC= 1.00D-01 BMatC= 4.09D-02 BMatP= 4.09D-02
 IDIUse=3 WtCom= 8.57D-01 WtEn= 1.43D-01
 Coeff-Com:  0.100D+01
 Coeff-En:   0.100D+01
 Coeff:      0.100D+01
 Recover alternate guess density for next cycle.
 RMSDP=7.18D-03 MaxDP=8.08D-02              OVMax= 0.00D+00

 Cycle   2  Pass 1  IDiag  1:
 E= -81.3792287066683     Delta-E=        0.303282828353 Rises=F Damp=F
 Switch densities from cycles 1 and 2 for lowest energy.
 DIIS: error= 8.04D-02 at cycle   2 NSaved=   2.
 NSaved= 2 IEnMin= 1 EnMin= -81.6825115350212     IErMin= 1 ErrMin= 1.43D-02
 ErrMax= 8.04D-02  0.00D+00 EMaxC= 1.00D+00 BMatC= 9.98D-01 BMatP= 4.09D-02
 IDIUse=1 WtCom= 1.00D+00 WtEn= 0.00D+00
 Coeff-Com:  0.973D+00 0.270D-01
 Coeff:      0.973D+00 0.270D-01
 Gap=     0.012 Goal=   None    Shift=    0.000
 Gap=     0.012 Goal=   None    Shift=    0.000
 RMSDP=1.99D-03 MaxDP=2.51D-02 DE= 3.03D-01 OVMax= 6.28D-01

 Cycle   3  Pass 1  IDiag  1:
 E= -81.6965903711133     Delta-E=       -0.317361664445 Rises=F Damp=F
 DIIS: error= 7.83D-03 at cycle   3 NSaved=   3.
 NSaved= 3 IEnMin= 3 EnMin= -81.6965903711133     IErMin= 3 ErrMin= 7.83D-03
 ErrMax= 7.83D-03  0.00D+00 EMaxC= 1.00D+00 BMatC= 1.31D-02 BMatP= 4.09D-02
 IDIUse=1 WtCom= 1.00D+00 WtEn= 0.00D+00
 Coeff-Com: -0.130D-01 0.837D-01 0.929D+00
 Coeff:     -0.130D-01 0.837D-01 0.929D+00
 Gap=     0.079 Goal=   None    Shift=    0.000
 Gap=     0.079 Goal=   None    Shift=    0.000
 RMSDP=1.38D-03 MaxDP=1.88D-02 DE=-3.17D-01 OVMax= 1.09D-01

 Cycle   4  Pass 1  IDiag  1:
 E= -81.6977656380139     Delta-E=       -0.001175266901 Rises=F Damp=F
 DIIS: error= 7.89D-03 at cycle   4 NSaved=   4.
 NSaved= 4 IEnMin= 4 EnMin= -81.6977656380139     IErMin= 3 ErrMin= 7.83D-03
 ErrMax= 7.89D-03  0.00D+00 EMaxC= 1.00D+00 BMatC= 1.05D-02 BMatP= 1.31D-02
 IDIUse=1 WtCom= 1.00D+00 WtEn= 0.00D+00
 Coeff-Com: -0.767D-01 0.117D-01 0.548D+00 0.517D+00
 Coeff:     -0.767D-01 0.117D-01 0.548D+00 0.517D+00
 Gap=     0.077 Goal=   None    Shift=    0.000
 Gap=     0.077 Goal=   None    Shift=    0.000
 RMSDP=1.16D-03 MaxDP=1.45D-02 DE=-1.18D-03 OVMax= 1.08D-01

 Cycle   5  Pass 1  IDiag  1:
 E= -81.6996998415049     Delta-E=       -0.001934203491 Rises=F Damp=F
 DIIS: error= 6.80D-03 at cycle   5 NSaved=   5.
 NSaved= 5 IEnMin= 5 EnMin= -81.6996998415049     IErMin= 5 ErrMin= 6.80D-03
 ErrMax= 6.80D-03  0.00D+00 EMaxC= 1.00D+00 BMatC= 7.36D-03 BMatP= 1.05D-02
 IDIUse=1 WtCom= 1.00D+00 WtEn= 0.00D+00
 Coeff-Com: -0.453D-02-0.779D-02-0.180D+00 0.470D+00 0.722D+00
 Coeff:     -0.453D-02-0.779D-02-0.180D+00 0.470D+00 0.722D+00
 Gap=     0.083 Goal=   None    Shift=    0.000
 Gap=     0.083 Goal=   None    Shift=    0.000
 RMSDP=6.60D-04 MaxDP=8.83D-03 DE=-1.93D-03 OVMax= 5.40D-02

 Cycle   6  Pass 1  IDiag  1:
 E= -81.7028941464974     Delta-E=       -0.003194304993 Rises=F Damp=F
 DIIS: error= 1.22D-03 at cycle   6 NSaved=   6.
 NSaved= 6 IEnMin= 6 EnMin= -81.7028941464974     IErMin= 6 ErrMin= 1.22D-03
 ErrMax= 1.22D-03  0.00D+00 EMaxC= 1.00D+00 BMatC= 1.07D-04 BMatP= 7.36D-03
 IDIUse=1 WtCom= 1.00D+00 WtEn= 0.00D+00
 Coeff-Com:  0.153D-01-0.888D-03-0.101D+00-0.241D+00-0.444D-01 0.137D+01
 Coeff:      0.153D-01-0.888D-03-0.101D+00-0.241D+00-0.444D-01 0.137D+01
 Gap=     0.085 Goal=   None    Shift=    0.000
 Gap=     0.085 Goal=   None    Shift=    0.000
 RMSDP=2.80D-04 MaxDP=2.60D-03 DE=-3.19D-03 OVMax= 2.25D-02

 Cycle   7  Pass 1  IDiag  1:
 E= -81.7030454101777     Delta-E=       -0.000151263680 Rises=F Damp=F
 DIIS: error= 8.86D-04 at cycle   7 NSaved=   7.
 NSaved= 7 IEnMin= 7 EnMin= -81.7030454101777     IErMin= 7 ErrMin= 8.86D-04
 ErrMax= 8.86D-04  0.00D+00 EMaxC= 1.00D+00 BMatC= 1.11D-04 BMatP= 1.07D-04
 IDIUse=1 WtCom= 1.00D+00 WtEn= 0.00D+00
 Coeff-Com:  0.533D-03-0.103D-02 0.118D-01-0.565D-01 0.408D-01-0.346D+00
 Coeff-Com:  0.135D+01
 Coeff:      0.533D-03-0.103D-02 0.118D-01-0.565D-01 0.408D-01-0.346D+00
 Coeff:      0.135D+01
 Gap=     0.085 Goal=   None    Shift=    0.000
 Gap=     0.085 Goal=   None    Shift=    0.000
 RMSDP=1.05D-04 MaxDP=1.09D-03 DE=-1.51D-04 OVMax= 8.03D-03

 Cycle   8  Pass 1  IDiag  1:
 E= -81.7030864999557     Delta-E=       -0.000041089778 Rises=F Damp=F
 DIIS: error= 4.20D-04 at cycle   8 NSaved=   8.
 NSaved= 8 IEnMin= 8 EnMin= -81.7030864999557     IErMin= 8 ErrMin= 4.20D-04
 ErrMax= 4.20D-04  0.00D+00 EMaxC= 1.00D+00 BMatC= 3.12D-05 BMatP= 1.07D-04
 IDIUse=1 WtCom= 1.00D+00 WtEn= 0.00D+00
 Coeff-Com:  0.167D-03-0.404D-03-0.679D-02 0.970D-02 0.625D-01-0.761D-01
 Coeff-Com: -0.238D+00 0.125D+01
 Coeff:      0.167D-03-0.404D-03-0.679D-02 0.970D-02 0.625D-01-0.761D-01
 Coeff:     -0.238D+00 0.125D+01
 Gap=     0.084 Goal=   None    Shift=    0.000
 Gap=     0.084 Goal=   None    Shift=    0.000
 RMSDP=3.06D-05 MaxDP=3.72D-04 DE=-4.11D-05 OVMax= 2.58D-03

 Cycle   9  Pass 1  IDiag  1:
 E= -81.7030985236351     Delta-E=       -0.000012023679 Rises=F Damp=F
 DIIS: error= 5.88D-05 at cycle   9 NSaved=   9.
 NSaved= 9 IEnMin= 9 EnMin= -81.7030985236351     IErMin= 9 ErrMin= 5.88D-05
 ErrMax= 5.88D-05  0.00D+00 EMaxC= 1.00D+00 BMatC= 7.01D-07 BMatP= 3.12D-05
 IDIUse=1 WtCom= 1.00D+00 WtEn= 0.00D+00
 Coeff-Com:  0.123D-03-0.418D-05-0.181D-02-0.714D-03 0.418D-02 0.216D-01
 Coeff-Com: -0.112D+00 0.692D-01 0.102D+01
 Coeff:      0.123D-03-0.418D-05-0.181D-02-0.714D-03 0.418D-02 0.216D-01
 Coeff:     -0.112D+00 0.692D-01 0.102D+01
 Gap=     0.084 Goal=   None    Shift=    0.000
 Gap=     0.084 Goal=   None    Shift=    0.000
 RMSDP=7.17D-06 MaxDP=7.13D-05 DE=-1.20D-05 OVMax= 6.58D-04

 Cycle  10  Pass 1  IDiag  1:
 E= -81.7030988611773     Delta-E=       -0.000000337542 Rises=F Damp=F
 DIIS: error= 1.01D-05 at cycle  10 NSaved=  10.
 NSaved=10 IEnMin=10 EnMin= -81.7030988611773     IErMin=10 ErrMin= 1.01D-05
 ErrMax= 1.01D-05  0.00D+00 EMaxC= 1.00D+00 BMatC= 9.33D-09 BMatP= 7.01D-07
 IDIUse=1 WtCom= 1.00D+00 WtEn= 0.00D+00
 Coeff-Com: -0.721D-04 0.286D-04 0.103D-02 0.378D-03-0.537D-02 0.299D-02
 Coeff-Com:  0.442D-01-0.114D+00-0.224D+00 0.130D+01
 Coeff:     -0.721D-04 0.286D-04 0.103D-02 0.378D-03-0.537D-02 0.299D-02
 Coeff:      0.442D-01-0.114D+00-0.224D+00 0.130D+01
 Gap=     0.084 Goal=   None    Shift=    0.000
 Gap=     0.084 Goal=   None    Shift=    0.000
 RMSDP=3.43D-06 MaxDP=4.05D-05 DE=-3.38D-07 OVMax= 2.90D-04

 Cycle  11  Pass 1  IDiag  1:
 E= -81.7030988926575     Delta-E=       -0.000000031480 Rises=F Damp=F
 DIIS: error= 8.12D-06 at cycle  11 NSaved=  11.
 NSaved=11 IEnMin=11 EnMin= -81.7030988926575     IErMin=11 ErrMin= 8.12D-06
 ErrMax= 8.12D-06  0.00D+00 EMaxC= 1.00D+00 BMatC= 8.36D-09 BMatP= 9.33D-09
 IDIUse=1 WtCom= 1.00D+00 WtEn= 0.00D+00
 Coeff-Com:  0.859D-05 0.200D-05-0.151D-03-0.121D-04-0.129D-03-0.577D-02
 Coeff-Com:  0.305D-02 0.295D-01-0.845D-01-0.694D+00 0.175D+01
 Coeff:      0.859D-05 0.200D-05-0.151D-03-0.121D-04-0.129D-03-0.577D-02
 Coeff:      0.305D-02 0.295D-01-0.845D-01-0.694D+00 0.175D+01
 Gap=     0.084 Goal=   None    Shift=    0.000
 Gap=     0.084 Goal=   None    Shift=    0.000
 RMSDP=3.21D-06 MaxDP=4.43D-05 DE=-3.15D-08 OVMax= 3.35D-04

 Cycle  12  Pass 1  IDiag  1:
 E= -81.7030989111024     Delta-E=       -0.000000018445 Rises=F Damp=F
 DIIS: error= 2.70D-06 at cycle  12 NSaved=  12.
 NSaved=12 IEnMin=12 EnMin= -81.7030989111024     IErMin=12 ErrMin= 2.70D-06
 ErrMax= 2.70D-06  0.00D+00 EMaxC= 1.00D+00 BMatC= 4.21D-10 BMatP= 8.36D-09
 IDIUse=1 WtCom= 1.00D+00 WtEn= 0.00D+00
 Coeff-Com:  0.478D-05-0.230D-05-0.104D-03 0.206D-03 0.392D-03-0.137D-02
 Coeff-Com: -0.521D-02 0.168D-01 0.294D-03-0.346D+00 0.480D+00 0.855D+00
 Coeff:      0.478D-05-0.230D-05-0.104D-03 0.206D-03 0.392D-03-0.137D-02
 Coeff:     -0.521D-02 0.168D-01 0.294D-03-0.346D+00 0.480D+00 0.855D+00
 Gap=     0.084 Goal=   None    Shift=    0.000
 Gap=     0.084 Goal=   None    Shift=    0.000
 RMSDP=1.02D-06 MaxDP=1.17D-05 DE=-1.84D-08 OVMax= 1.05D-04

 Cycle  13  Pass 1  IDiag  1:
 E= -81.7030989154060     Delta-E=       -0.000000004304 Rises=F Damp=F
 DIIS: error= 4.49D-06 at cycle  13 NSaved=  13.
 NSaved=13 IEnMin=13 EnMin= -81.7030989154060     IErMin=12 ErrMin= 2.70D-06
 ErrMax= 4.49D-06  0.00D+00 EMaxC= 1.00D+00 BMatC= 1.48D-09 BMatP= 4.21D-10
 IDIUse=1 WtCom= 1.00D+00 WtEn= 0.00D+00
 Coeff-Com:  0.781D-05-0.572D-05-0.171D-03 0.411D-03 0.905D-03-0.680D-03
 Coeff-Com: -0.118D-01 0.243D-01 0.337D-01-0.429D+00 0.292D+00 0.170D+01
 Coeff-Com: -0.609D+00
 Coeff:      0.781D-05-0.572D-05-0.171D-03 0.411D-03 0.905D-03-0.680D-03
 Coeff:     -0.118D-01 0.243D-01 0.337D-01-0.429D+00 0.292D+00 0.170D+01
 Coeff:     -0.609D+00
 Gap=     0.084 Goal=   None    Shift=    0.000
 Gap=     0.084 Goal=   None    Shift=    0.000
 RMSDP=1.07D-06 MaxDP=1.43D-05 DE=-4.30D-09 OVMax= 1.07D-04

 Cycle  14  Pass 1  IDiag  1:
 E= -81.7030989115435     Delta-E=        0.000000003863 Rises=F Damp=F
 DIIS: error= 1.41D-06 at cycle  14 NSaved=  14.
 NSaved=14 IEnMin=13 EnMin= -81.7030989154060     IErMin=14 ErrMin= 1.41D-06
 ErrMax= 1.41D-06  0.00D+00 EMaxC= 1.00D+00 BMatC= 1.98D-10 BMatP= 4.21D-10
 IDIUse=1 WtCom= 1.00D+00 WtEn= 0.00D+00
 Coeff-Com: -0.190D-05 0.345D-06 0.362D-04-0.908D-04-0.618D-04 0.365D-03
 Coeff-Com:  0.487D-03-0.365D-02 0.275D-02 0.161D-01-0.584D-01 0.697D-01
 Coeff-Com: -0.133D+00 0.111D+01
 Coeff:     -0.190D-05 0.345D-06 0.362D-04-0.908D-04-0.618D-04 0.365D-03
 Coeff:      0.487D-03-0.365D-02 0.275D-02 0.161D-01-0.584D-01 0.697D-01
 Coeff:     -0.133D+00 0.111D+01
 Gap=     0.084 Goal=   None    Shift=    0.000
 Gap=     0.084 Goal=   None    Shift=    0.000
 RMSDP=1.70D-07 MaxDP=2.79D-06 DE= 3.86D-09 OVMax= 2.08D-05

 Cycle  15  Pass 1  IDiag  1:
 E= -81.7030989115867     Delta-E=       -0.000000000043 Rises=F Damp=F
 DIIS: error= 6.56D-08 at cycle  15 NSaved=  15.
 NSaved=15 IEnMin=13 EnMin= -81.7030989154060     IErMin=15 ErrMin= 6.56D-08
 ErrMax= 6.56D-08  0.00D+00 EMaxC= 1.00D+00 BMatC= 5.86D-13 BMatP= 1.98D-10
 IDIUse=1 WtCom= 1.00D+00 WtEn= 0.00D+00
 Coeff-Com:  0.692D-07 0.529D-07 0.132D-05-0.361D-05 0.669D-05-0.559D-04
 Coeff-Com:  0.466D-03-0.401D-03-0.681D-04 0.126D-01-0.155D-01-0.301D-01
 Coeff-Com:  0.216D-01-0.109D+00 0.112D+01
 Coeff:      0.692D-07 0.529D-07 0.132D-05-0.361D-05 0.669D-05-0.559D-04
 Coeff:      0.466D-03-0.401D-03-0.681D-04 0.126D-01-0.155D-01-0.301D-01
 Coeff:      0.216D-01-0.109D+00 0.112D+01
 Gap=     0.084 Goal=   None    Shift=    0.000
 Gap=     0.084 Goal=   None    Shift=    0.000
 RMSDP=2.13D-08 MaxDP=2.47D-07 DE=-4.32D-11 OVMax= 1.52D-06

 Cycle  16  Pass 1  IDiag  1:
 E= -81.7030989115875     Delta-E=       -0.000000000001 Rises=F Damp=F
 DIIS: error= 2.85D-08 at cycle  16 NSaved=  16.
 NSaved=16 IEnMin=13 EnMin= -81.7030989154060     IErMin=16 ErrMin= 2.85D-08
 ErrMax= 2.85D-08  0.00D+00 EMaxC= 1.00D+00 BMatC= 1.12D-13 BMatP= 5.86D-13
 IDIUse=1 WtCom= 1.00D+00 WtEn= 0.00D+00
 Coeff-Com: -0.438D-07 0.155D-07 0.559D-06 0.904D-06-0.201D-05-0.292D-05
 Coeff-Com:  0.254D-04 0.596D-05 0.436D-04 0.495D-04 0.123D-02-0.286D-02
 Coeff-Com:  0.198D-02-0.958D-02-0.497D-01 0.106D+01
 Coeff:     -0.438D-07 0.155D-07 0.559D-06 0.904D-06-0.201D-05-0.292D-05
 Coeff:      0.254D-04 0.596D-05 0.436D-04 0.495D-04 0.123D-02-0.286D-02
 Coeff:      0.198D-02-0.958D-02-0.497D-01 0.106D+01
 Gap=     0.084 Goal=   None    Shift=    0.000
 Gap=     0.084 Goal=   None    Shift=    0.000
 RMSDP=5.57D-09 MaxDP=5.32D-08 DE=-8.67D-13 OVMax= 4.03D-07

 SCF Done:  E(UM062X) =  -81.7030989116     A.U. after   16 cycles
            NFock= 16  Conv=0.56D-08     -V/T= 2.0047
 <Sx>= 0.0000 <Sy>= 0.0000 <Sz>= 0.0000 <S**2>=-0.0000 S=-0.0000
 <L.S>=  0.00000000000    
 KE= 8.131722598616D+01 PE=-2.296027659586D+02 EE= 4.681484070922D+01
 Annihilation of the first spin contaminant:
 S**2 before annihilation    -0.0000,   after    -0.0000
 Leave Link  502 at Mon Apr 21 17:53:28 2025, MaxMem=   536870912 cpu:              76.1 elap:               9.9
 (Enter /home/szhao/Apps/g16/l701.exe)
 ... and contract with generalized density number  0.
 Compute integral first derivatives.
 Leave Link  701 at Mon Apr 21 17:53:28 2025, MaxMem=   536870912 cpu:               1.1 elap:               0.2
 (Enter /home/szhao/Apps/g16/l702.exe)
 L702 exits ... SP integral derivatives will be done elsewhere.
 Leave Link  702 at Mon Apr 21 17:53:28 2025, MaxMem=   536870912 cpu:               0.5 elap:               0.1
 (Enter /home/szhao/Apps/g16/l703.exe)
 Integral derivatives from FoFJK, PRISM(SPDF).
 Compute integral first derivatives, UseDBF=F ICtDFT=           0.
 Calling FoFJK, ICntrl=      2127 FMM=F ISym2X=0 I1Cent= 0 IOpClX= 1 NMat=1 NMatS=1 NMatT=0.
 FoFJK:  IHMeth= 1 ICntrl=    2127 DoSepK=F KAlg= 0 I1Cent=           0 FoldK=F
 IRaf=         0 NMat=       1 IRICut=       1 DoRegI=T DoRafI=F ISym2E= 0 IDoP0=0 IntGTp=1.
 FoFCou: FMM=F IPFlag=           0 FMFlag=      100000 FMFlg1=         800
         NFxFlg=           0 DoJE=F BraDBF=F KetDBF=F FulRan=T
         wScrn=  0.000000 ICntrl=      2127 IOpCl=  1 I1Cent=           0 NGrid=           0
         NMat0=    1 NMatS0=      1 NMatT0=    0 NMatD0=    1 NMtDS0=    0 NMtDT0=    0
 Symmetry not used in FoFCou.
 Leave Link  703 at Mon Apr 21 17:53:30 2025, MaxMem=   536870912 cpu:               9.3 elap:               1.3
 (Enter /home/szhao/Apps/g16/l716.exe)
 Dipole        =-1.55046506D+00 3.40168659D-05 2.56089523D-01
 -------------------------------------------------------------------
 Center     Atomic                   Forces (Hartrees/Bohr)
 Number     Number              X              Y              Z
 -------------------------------------------------------------------
      1        5          -0.000000000   -0.000000000   -0.000000000
      2        7          -0.000000000   -0.000000000   -0.000000000
      3        1           0.009849283   -0.002352179    0.000471489
      4        1           0.000945861    0.002658496    0.007286173
      5        1           0.009849253    0.002352324    0.000470911
      6        1           0.000945876   -0.002656555    0.007286890
 -------------------------------------------------------------------
 Cartesian Forces:  Max     0.009849283 RMS     0.004266326
 Leave Link  716 at Mon Apr 21 17:53:30 2025, MaxMem=   536870912 cpu:               0.5 elap:               0.1
 (Enter /home/szhao/Apps/g16/l103.exe)

 GradGradGradGradGradGradGradGradGradGradGradGradGradGradGradGradGradGrad
 Berny optimization.
 Using GEDIIS/GDIIS optimizer.
 FormGI is forming the generalized inverse of G from B-inverse, IUseBI=4.
 Internal  Forces:  Max     0.019698535 RMS     0.007650233
 Search for a local minimum.
 Step number   2 out of a maximum of   30
 All quantities printed in internal units (Hartrees-Bohrs-Radians)
 RMS Force = .59991D-02 SwitMx=.10000D-02 MixMth= 1
 Mixed Optimization -- RFO/linear search
 Update second derivatives using D2CorX and points    1    2
 DE= -1.31D-02 DEPred=-1.08D-02 R= 1.21D+00
 TightC=F SS=  1.41D+00  RLast= 7.29D-01 DXNew= 5.0454D-01 2.1871D+00
 Trust test= 1.21D+00 RLast= 7.29D-01 DXMaxT set to 5.05D-01
 The second derivative matrix:
                          X1        Y1        Z1        X2        Y2
           X1           0.51035
           Y1           0.00000   0.50000
           Z1          -0.00510  -0.00000   0.50252
           X2           0.03874   0.00000  -0.01910   0.64500
           Y2          -0.00000  -0.00000   0.00000  -0.00000   0.50000
           Z2           0.00230   0.00000  -0.00114   0.00863  -0.00000
           R1          -0.00103  -0.00000   0.00051  -0.00386   0.00000
           R2          -0.00103  -0.00000   0.00051  -0.00385   0.00000
           R3           0.00654   0.00000  -0.00322   0.02446  -0.00000
           R4           0.00654   0.00000  -0.00322   0.02446  -0.00000
           A1          -0.00405  -0.00000   0.00200  -0.01516   0.00000
           A2          -0.00405  -0.00000   0.00200  -0.01516   0.00000
           A3           0.00847   0.00000  -0.00418   0.03170  -0.00000
           A4           0.01463   0.00000  -0.00721   0.05476  -0.00000
           A5           0.01463   0.00000  -0.00721   0.05476  -0.00000
           A6          -0.02130  -0.00000   0.01050  -0.07971   0.00000
           D1           0.00079   0.00000  -0.00039   0.00294  -0.00000
           D2          -0.00293  -0.00000   0.00144  -0.01096   0.00000
           D3           0.00293   0.00000  -0.00144   0.01096  -0.00000
           D4          -0.00079  -0.00000   0.00039  -0.00294   0.00000
                          Z2        R1        R2        R3        R4
           Z2           0.50051
           R1          -0.00023   0.25336
           R2          -0.00023  -0.00075   0.25336
           R3           0.00146   0.00223   0.00223   0.45817
           R4           0.00146   0.00223   0.00223  -0.00555   0.45817
           A1          -0.00090  -0.00276  -0.00276   0.00809   0.00809
           A2          -0.00090  -0.00276  -0.00276   0.00809   0.00809
           A3           0.00189   0.00505   0.00505  -0.01448  -0.01448
           A4           0.00326  -0.00206  -0.00206   0.01126   0.01126
           A5           0.00326  -0.00206  -0.00206   0.01126   0.01126
           A6          -0.00474  -0.00540  -0.00540   0.01186   0.01186
           D1           0.00017   0.00013   0.00013  -0.00019  -0.00019
           D2          -0.00065  -0.00001  -0.00001  -0.00085  -0.00085
           D3           0.00065   0.00001   0.00001   0.00085   0.00085
           D4          -0.00017  -0.00013  -0.00013   0.00019   0.00019
                          A1        A2        A3        A4        A5
           A1           0.14986
           A2          -0.01014   0.14986
           A3           0.01851   0.01851   0.12630
           A4          -0.00795  -0.00795   0.01612   0.18026
           A5          -0.00795  -0.00795   0.01612   0.02026   0.18026
           A6          -0.01952  -0.01952   0.03442  -0.03539  -0.03539
           D1           0.00045   0.00045  -0.00076   0.00125   0.00125
           D2           0.00004   0.00004  -0.00035  -0.00435  -0.00435
           D3          -0.00004  -0.00004   0.00035   0.00435   0.00435
           D4          -0.00045  -0.00045   0.00076  -0.00125  -0.00125
                          A6        D1        D2        D3        D4
           A6           0.13766
           D1           0.00018   0.00231
           D2           0.00341  -0.00015   0.00302
           D3          -0.00341   0.00015  -0.00072   0.00302
           D4          -0.00018  -0.00001   0.00015  -0.00015   0.00231
 ITU=  1  0
 Use linear search instead of GDIIS.
     Eigenvalues ---    0.00230   0.00340   0.00854   0.10417   0.16000
     Eigenvalues ---    0.16000   0.21553   0.25325   0.25411   0.45476
     Eigenvalues ---    0.463721000.000001000.000001000.000001000.00000
     Eigenvalues --- 1000.000001000.000001000.000001000.000001000.00000
 RFO step:  Lambda=-3.47416485D-03 EMin= 2.30000000D-03
 Quartic linear search produced a step of  0.69653.
 Iteration  1 RMS(Cart)=  0.12966691 RMS(Int)=  0.07227387
[...]
           D1           0.00197   0.00000   0.01699   0.00011   0.00001
           D2          -0.00429   0.00000   0.01492  -0.01163  -0.00000
           D3           0.00429  -0.00000  -0.01492   0.01163   0.00000
           D4          -0.00197  -0.00000  -0.01699  -0.00011  -0.00001
                          Z2        R1        R2        R3        R4
           Z2           0.80239
           R1          -0.02472   0.25426
           R2          -0.02472   0.00015   0.25427
           R3           0.16020  -0.00103  -0.00103   0.48454
           R4           0.16020  -0.00103  -0.00103   0.02082   0.48454
           A1           0.00389  -0.00224  -0.00224  -0.01073  -0.01073
           A2           0.00393  -0.00224  -0.00224  -0.01072  -0.01072
           A3          -0.02009   0.00611   0.00611  -0.00046  -0.00046
           A4           0.00675   0.00034   0.00034  -0.00461  -0.00461
           A5           0.00674   0.00035   0.00035  -0.00462  -0.00462
           A6          -0.06538  -0.00360  -0.00360   0.03747   0.03747
           D1           0.03358  -0.00173  -0.00173  -0.00688  -0.00688
           D2          -0.03190   0.00140   0.00140   0.00727   0.00727
           D3           0.03190  -0.00140  -0.00140  -0.00727  -0.00727
           D4          -0.03358   0.00173   0.00173   0.00688   0.00688
                          A1        A2        A3        A4        A5
           A1           0.10483
           A2          -0.05517   0.10483
           A3           0.00762   0.00762   0.03436
           A4           0.00172   0.00172  -0.00140   0.09134
           A5           0.00172   0.00172  -0.00140  -0.06866   0.09134
           A6          -0.00411  -0.00413   0.00084  -0.00339  -0.00338
           D1           0.00135   0.00136   0.00093   0.00058   0.00058
           D2           0.00012   0.00012  -0.00067   0.00181   0.00181
           D3          -0.00012  -0.00012   0.00067  -0.00181  -0.00181
           D4          -0.00135  -0.00136  -0.00093  -0.00058  -0.00058
                          A6        D1        D2        D3        D4
           A6           0.05954
           D1          -0.01530   0.02017
           D2           0.01797  -0.00158   0.01750
           D3          -0.01797   0.00158  -0.01520   0.01750
           D4           0.01530  -0.01787   0.00158  -0.00158   0.02017
 ITU=  0  1  1  1  1  1  1  1  1  1  1  1  0
     Eigenvalues ---    0.00230   0.02012   0.02870   0.03441   0.07614
     Eigenvalues ---    0.16000   0.16000   0.25411   0.25482   0.46372
     Eigenvalues ---    0.512041000.000001000.000001000.000001000.00000
     Eigenvalues --- 1000.000001000.000001000.000001000.000001000.00000
 En-DIIS/RFO-DIIS/Sim-DIIS IScMMF=       -3 using points:    13   12   11
 RFO step:  Lambda=-8.26199947D-08.
 NNeg= 0 NGDIIS= 3 SimSw=  2.50D-01 Rises=F DC= -2.31D-07 SmlDif=  1.00D-05
 NRisDI= 0 DoIntr=F SqrtH=F CThrHd= 10.0 CDAdj=  3.0
 RMS Error=  0.3041078651D-03 NUsed= 3 OKEnD=F EnDIS=F
 InvSVX:  RCond= 3.26D-06 Info=           0 Equed=N FErr=  1.50D-15 BErr=  8.22D-17
 DidBck=T Rises=F RFO-DIIS coefs:    0.73049    0.27548   -0.00598
 Iteration  1 RMS(Cart)=  0.00044297 RMS(Int)=  0.00000013
 Iteration  2 RMS(Cart)=  0.00000013 RMS(Int)=  0.00000006
 ITry= 1 IFail=0 DXMaxC= 1.00D-03 DCOld= 1.00D+10 DXMaxT= 1.39D+00 DXLimC= 3.00D+00 Rises=F
 Variable       Old X    -DE/DX   Delta X   Delta X   Delta X     New X
                                 (Linear)    (Quad)   (Total)
    X1       -3.95973  -0.00003  -0.00000   0.00000   0.00000  -3.95973
    Y1        0.00000   0.00000   0.00000   0.00000   0.00000   0.00000
    Z1        0.00000  -0.00001   0.00000   0.00000   0.00000   0.00000
    X2        3.95973   0.00002   0.00000   0.00000   0.00000   3.95973
    Y2        0.00000  -0.00000   0.00000   0.00000   0.00000   0.00000
    Z2        0.00000  -0.00012   0.00000   0.00000   0.00000   0.00000
    R1        2.21420   0.00001   0.00006  -0.00000   0.00006   2.21425
    R2        2.21420   0.00001   0.00006  -0.00000   0.00006   2.21425
    R3        1.93787  -0.00007   0.00000  -0.00016  -0.00015   1.93772
    R4        1.93787  -0.00007   0.00000  -0.00016  -0.00015   1.93772
    A1        1.84253   0.00001   0.00036  -0.00006   0.00030   1.84283
    A2        1.84253   0.00001   0.00036  -0.00006   0.00030   1.84283
    A3        2.59594  -0.00002  -0.00075   0.00011  -0.00064   2.59529
    A4        1.54419   0.00001   0.00039   0.00012   0.00051   1.54471
    A5        1.54420   0.00001   0.00039   0.00012   0.00051   1.54471
    A6        1.79643   0.00003   0.00049  -0.00004   0.00044   1.79687
    D1       -2.49418  -0.00002  -0.00038  -0.00010  -0.00048  -2.49466
    D2       -0.69686   0.00001   0.00008  -0.00015  -0.00007  -0.69693
    D3        0.69691  -0.00001  -0.00008   0.00015   0.00007   0.69698
    D4        2.49423   0.00002   0.00038   0.00010   0.00048   2.49471
         Item               Value     Threshold  Converged?
 Maximum Force            0.000066     0.000450     YES
 RMS     Force            0.000028     0.000300     YES
 Maximum Displacement     0.001000     0.001800     YES
 RMS     Displacement     0.000443     0.001200     YES
 Predicted change in Energy=-4.130047D-08
 Optimization completed.
    -- Stationary point found.
                           ----------------------------
                           !   Optimized Parameters   !
                           ! (Angstroms and Degrees)  !
 --------------------------                            --------------------------
 ! Name  Definition              Value          Derivative Info.                !
 --------------------------------------------------------------------------------
 ! X1    R(1,-1)                -2.0954         -DE/DX =    0.0                 !
 ! Y1    R(1,-2)                 0.0            -DE/DX =    0.0                 !
 ! Z1    R(1,-3)                 0.0            -DE/DX =    0.0                 !
 ! X2    R(2,-1)                 2.0954         -DE/DX =    0.0                 !
 ! Y2    R(2,-2)                 0.0            -DE/DX =    0.0                 !
 ! Z2    R(2,-3)                 0.0            -DE/DX =   -0.0001              !
 ! R1    R(1,3)                  1.1717         -DE/DX =    0.0                 !
 ! R2    R(1,5)                  1.1717         -DE/DX =    0.0                 !
 ! R3    R(2,4)                  1.0255         -DE/DX =   -0.0001              !
 ! R4    R(2,6)                  1.0255         -DE/DX =   -0.0001              !
 ! A1    A(2,1,3)              105.569          -DE/DX =    0.0                 !
 ! A2    A(2,1,5)              105.569          -DE/DX =    0.0                 !
 ! A3    A(3,1,5)              148.7363         -DE/DX =    0.0                 !
 ! A4    A(1,2,4)               88.4758         -DE/DX =    0.0                 !
 ! A5    A(1,2,6)               88.4759         -DE/DX =    0.0                 !
 ! A6    A(4,2,6)              102.9278         -DE/DX =    0.0                 !
 ! D1    D(3,1,2,4)           -142.9061         -DE/DX =    0.0                 !
 ! D2    D(3,1,2,6)            -39.9274         -DE/DX =    0.0                 !
 ! D3    D(5,1,2,4)             39.93           -DE/DX =    0.0                 !
 ! D4    D(5,1,2,6)            142.9087         -DE/DX =    0.0                 !
 --------------------------------------------------------------------------------
 Lowest energy point so far.  Saving SCF results.
 Largest change from initial coordinates is atom    6       0.863 Angstoms.
 GradGradGradGradGradGradGradGradGradGradGradGradGradGradGradGradGradGrad

 Leave Link  103 at Mon Apr 21 17:56:00 2025, MaxMem=   536870912 cpu:               1.1 elap:               0.2
 (Enter /home/szhao/Apps/g16/l202.exe)
                          Input orientation:                          
 ---------------------------------------------------------------------
 Center     Atomic      Atomic             Coordinates (Angstroms)
 Number     Number       Type             X           Y           Z
 ---------------------------------------------------------------------
      1          5           0       -2.095399    0.000000    0.000000
      2          7           0        2.095399    0.000000    0.000000
      3          1           0       -2.409882   -1.128370   -0.027675
      4          1           0        2.068122    0.802274    0.638133
      5          1           0       -2.409882    1.128358   -0.028190
      6          1           0        2.068124   -0.802013    0.638462
 ---------------------------------------------------------------------
                    Distance matrix (angstroms):
                    1          2          3          4          5
     1  B    0.000000
     2  N    4.190798   0.000000
     3  H    1.171702   4.644518   0.000000
     4  H    4.287862   1.025476   4.921708   0.000000
     5  H    1.171702   4.644517   2.256728   4.539034   0.000000
     6  H    4.287865   1.025476   4.539030   1.604287   4.921716
                    6
     6  H    0.000000
 Symmetry turned off by external request.
 Stoichiometry    BH4N
 Framework group  C1[X(BH4N)]
 Deg. of freedom    12
 Full point group                 C1      NOp   1
 Rotational constants (GHZ):         110.2749093           3.8921440           3.8001402
 Leave Link  202 at Mon Apr 21 17:56:00 2025, MaxMem=   536870912 cpu:               0.5 elap:               0.1
 (Enter /home/szhao/Apps/g16/l601.exe)
 Copying SCF densities to generalized density rwf, IOpCl= 1 IROHF=0.

 **********************************************************************

            Population analysis using the SCF density.

 **********************************************************************

 Alpha  occ. eigenvalues --  -14.71440  -7.18686  -0.87244  -0.63533  -0.52329
 Alpha  occ. eigenvalues --   -0.47899  -0.33163  -0.22257
 Alpha virt. eigenvalues --   -0.12507  -0.09424   0.00454   0.02483   0.04140
 Alpha virt. eigenvalues --    0.04989   0.08839   0.11099   0.13534   0.17377
 Alpha virt. eigenvalues --    0.19649   0.19953   0.21789   0.26078   0.31918
 Alpha virt. eigenvalues --    0.32176   0.37790   0.41696   0.50011   0.56602
 Alpha virt. eigenvalues --    0.59786   0.66162   0.72554   0.79798   0.81359
 Alpha virt. eigenvalues --    0.82950   0.84556   0.91053   0.93311   1.05918
 Alpha virt. eigenvalues --    1.12580   1.28135   1.30913   1.46703   1.49293
 Alpha virt. eigenvalues --    1.63924   1.70077   1.70934   1.78603   1.80872
 Alpha virt. eigenvalues --    1.84306   1.90011   1.96298   2.05210   2.37382
 Alpha virt. eigenvalues --    2.43285   2.46312   2.49396   2.54249   2.56551
 Alpha virt. eigenvalues --    2.57502   2.70256   2.71407   2.91869   3.14931
 Alpha virt. eigenvalues --    3.94850   4.31925   4.71935  14.53896  35.59642
  Beta  occ. eigenvalues --  -14.71440  -7.18686  -0.87244  -0.63533  -0.52329
  Beta  occ. eigenvalues --   -0.47899  -0.33163  -0.22257
  Beta virt. eigenvalues --   -0.12507  -0.09424   0.00454   0.02483   0.04140
  Beta virt. eigenvalues --    0.04989   0.08839   0.11099   0.13534   0.17377
  Beta virt. eigenvalues --    0.19649   0.19953   0.21789   0.26078   0.31918
  Beta virt. eigenvalues --    0.32176   0.37790   0.41696   0.50011   0.56602
  Beta virt. eigenvalues --    0.59786   0.66162   0.72554   0.79798   0.81359
  Beta virt. eigenvalues --    0.82950   0.84556   0.91053   0.93311   1.05918
  Beta virt. eigenvalues --    1.12580   1.28135   1.30913   1.46703   1.49293
  Beta virt. eigenvalues --    1.63924   1.70077   1.70934   1.78603   1.80872
  Beta virt. eigenvalues --    1.84306   1.90011   1.96298   2.05210   2.37382
  Beta virt. eigenvalues --    2.43285   2.46312   2.49396   2.54249   2.56551
  Beta virt. eigenvalues --    2.57502   2.70256   2.71407   2.91869   3.14931
  Beta virt. eigenvalues --    3.94850   4.31925   4.71935  14.53896  35.59642
          Condensed to atoms (all electrons):
               1          2          3          4          5          6
     1  B    4.002368   0.085750   0.390081  -0.001380   0.390082  -0.001380
     2  N    0.085750   7.003987  -0.003062   0.297357  -0.003062   0.297357
     3  H    0.390081  -0.003062   0.555314   0.000042  -0.014808   0.000015
     4  H   -0.001380   0.297357   0.000042   0.539840   0.000015  -0.035380
     5  H    0.390082  -0.003062  -0.014808   0.000015   0.555313   0.000042
     6  H   -0.001380   0.297357   0.000015  -0.035380   0.000042   0.539840
          Atomic-Atomic Spin Densities.
               1          2          3          4          5          6
     1  B    0.000000   0.000000  -0.000000  -0.000000  -0.000000  -0.000000
     2  N    0.000000  -0.000000   0.000000   0.000000   0.000000   0.000000
     3  H   -0.000000   0.000000   0.000000   0.000000   0.000000   0.000000
     4  H   -0.000000   0.000000   0.000000   0.000000   0.000000  -0.000000
     5  H   -0.000000   0.000000   0.000000   0.000000   0.000000   0.000000
     6  H   -0.000000   0.000000   0.000000  -0.000000   0.000000   0.000000
 Mulliken charges and spin densities:
               1          2
     1  B    0.134479   0.000000
     2  N   -0.678328  -0.000000
     3  H    0.072419   0.000000
     4  H    0.199506   0.000000
     5  H    0.072419   0.000000
     6  H    0.199506   0.000000
 Sum of Mulliken charges =  -0.00000  -0.00000
 Mulliken charges and spin densities with hydrogens summed into heavy atoms:
               1          2
     1  B    0.279316   0.000000
     2  N   -0.279316  -0.000000
 Electronic spatial extent (au):  <R**2>=            307.9495
 Charge=             -0.0000 electrons
 Dipole moment (field-independent basis, Debye):
    X=             -6.0282    Y=              0.0004    Z=              1.8976  Tot=              6.3198
 Quadrupole moment (field-independent basis, Debye-Ang):
   XX=            -13.8042   YY=            -13.4682   ZZ=            -14.6463
   XY=              0.0008   XZ=              4.1835   YZ=             -0.0002
 Traceless Quadrupole moment (field-independent basis, Debye-Ang):
   XX=              0.1687   YY=              0.5047   ZZ=             -0.6734
   XY=              0.0008   XZ=              4.1835   YZ=             -0.0002
 Octapole moment (field-independent basis, Debye-Ang**2):
  XXX=            -32.3148  YYY=              0.0002  ZZZ=             -1.2034  XYY=              0.1185
  XXY=              0.0019  XXZ=              9.1616  XZZ=             -3.8564  YZZ=             -0.0004
  YYZ=              0.3478  XYZ=             -0.0008
 Hexadecapole moment (field-independent basis, Debye-Ang**3):
 XXXX=           -458.6142 YYYY=            -32.4894 ZZZZ=            -22.7885 XXXY=              0.0025
 XXXZ=             12.9821 YYYX=              0.0006 YYYZ=              0.0009 ZZZX=             -2.2341
 ZZZY=              0.0013 XXYY=            -66.3339 XXZZ=            -70.8723 YYZZ=             -9.4573
 XXYZ=             -0.0009 YYXZ=              0.9579 ZZXY=             -0.0009
 N-N= 2.000201005098D+01 E-N=-2.299678606280D+02  KE= 8.128544019392D+01
                          Isotropic Fermi Contact Couplings
        Atom                 a.u.       MegaHertz       Gauss      10(-4) cm-1
     1  B(11)              0.00000       0.00000       0.00000       0.00000
     2  N(14)             -0.00000      -0.00000      -0.00000      -0.00000
     3  H(1)               0.00000       0.00000       0.00000       0.00000
     4  H(1)               0.00000       0.00000       0.00000       0.00000
     5  H(1)               0.00000       0.00000       0.00000       0.00000
     6  H(1)               0.00000       0.00000       0.00000       0.00000
 --------------------------------------------------------
       Center         ----  Spin Dipole Couplings  ----
                      3XX-RR        3YY-RR        3ZZ-RR
 --------------------------------------------------------
     1   Atom        0.000000     -0.000000     -0.000000
     2   Atom       -0.000000      0.000000      0.000000
     3   Atom        0.000000      0.000000     -0.000000
     4   Atom        0.000000     -0.000000      0.000000
     5   Atom        0.000000      0.000000     -0.000000
     6   Atom        0.000000     -0.000000      0.000000
 --------------------------------------------------------
                        XY            XZ            YZ
 --------------------------------------------------------
     1   Atom       -0.000000     -0.000000     -0.000000
     2   Atom       -0.000000     -0.000000     -0.000000
     3   Atom        0.000000     -0.000000      0.000000
     4   Atom        0.000000     -0.000000     -0.000000
     5   Atom       -0.000000     -0.000000     -0.000000
     6   Atom       -0.000000     -0.000000      0.000000
 --------------------------------------------------------


 ---------------------------------------------------------------------------------
              Anisotropic Spin Dipole Couplings in Principal Axis System
 ---------------------------------------------------------------------------------

       Atom             a.u.   MegaHertz   Gauss  10(-4) cm-1        Axes

              Baa    -0.0000    -0.000    -0.000    -0.000  0.5960  0.0002  0.8030
     1 B(11)  Bbb    -0.0000    -0.000    -0.000    -0.000  0.0000  1.0000 -0.0002
              Bcc     0.0000     0.000     0.000     0.000  0.8030 -0.0001 -0.5960
 
              Baa    -0.0000    -0.000    -0.000    -0.000  0.8819  0.0001  0.4714
     2 N(14)  Bbb     0.0000     0.000     0.000     0.000 -0.0000  1.0000 -0.0002
              Bcc     0.0000     0.000     0.000     0.000 -0.4714  0.0002  0.8819
 
              Baa    -0.0000    -0.000    -0.000    -0.000  0.5982 -0.0613  0.7990
     3 H(1)   Bbb     0.0000     0.000     0.000     0.000  0.0540  0.9979  0.0361
              Bcc     0.0000     0.000     0.000     0.000  0.7995 -0.0216 -0.6003
 
              Baa    -0.0000    -0.000    -0.000    -0.000 -0.1860  0.7987  0.5723
     4 H(1)   Bbb     0.0000     0.000     0.000     0.000  0.9425 -0.0195  0.3335
              Bcc     0.0000     0.000     0.000     0.000 -0.2776 -0.6014  0.7492
 
              Baa    -0.0000    -0.000    -0.000    -0.000  0.5982  0.0616  0.7989
     5 H(1)   Bbb     0.0000     0.000     0.000     0.000 -0.0540  0.9979 -0.0365
              Bcc     0.0000     0.000     0.000     0.000  0.7995  0.0213 -0.6003
 
              Baa    -0.0000    -0.000    -0.000    -0.000  0.1860  0.7984 -0.5726
     6 H(1)   Bbb     0.0000     0.000     0.000     0.000  0.9425  0.0197  0.3335
              Bcc     0.0000     0.000     0.000     0.000 -0.2776  0.6018  0.7489
 

 ---------------------------------------------------------------------------------

 No NMR shielding tensors so no spin-rotation constants.
 Leave Link  601 at Mon Apr 21 17:56:00 2025, MaxMem=   536870912 cpu:               2.1 elap:               0.3
 (Enter /home/szhao/Apps/g16/l9999.exe)
 1\1\GINC-NODE06\FOpt\UM062X\6-311+G(d,p)\B1H4N1\SZHAO\21-Apr-2025\0\\#
 p opt UM062X/6-311+G** nosymm int=superfine\\Title Card Required\\0,1\
 B,-2.095399,0.,0.\N,2.095399,0.,0.\H,-2.409882337,-1.128370491,-0.0276
 754359\H,2.0681218948,0.8022742792,0.6381329704\H,-2.4098818742,1.1283
 578613,-0.028189629\H,2.0681241174,-0.8020128786,0.6384616152\\Version
 =ES64L-G16RevA.03\HF=-81.7158776\S2=0.\S2-1=0.\S2A=0.\RMSD=3.221e-09\R
 MSF=2.450e-05\Dipole=-2.3716569,0.0001529,0.7465795\Quadrupole=0.12543
 31,0.3752165,-0.5006496,0.0006319,3.1103555,-0.0001713\PG=C01 [X(B1H4N
 1)]\\@


 Luck is a matter of preparation meeting opportunity.
                                    -- Oprah Winfrey
 Job cpu time:       0 days  0 hours 19 minutes 34.5 seconds.
 Elapsed time:       0 days  0 hours  2 minutes 40.9 seconds.
 File lengths (MBytes):  RWF=     22 Int=      0 D2E=      0 Chk=      2 Scr=      2
 Normal termination of Gaussian 16 at Mon Apr 21 17:56:01 2025.
