 Entering Gaussian System, Link 0=g16
 Initial command:
 /home/szhao/Apps/g16/l1.exe "/home/szhao/tmp/Gau-68750.inp" -scrdir="/home/szhao/tmp/"
 Default is to use a total of  16 processors:
                               16 via shared-memory
                                1 via Linda
 Entering Link 1 = /home/szhao/Apps/g16/l1.exe PID=     68752.
  
 Copyright (c) 1988,1990,1992,1993,1995,1998,2003,2009,2016,
            Gaussian, Inc.  All Rights Reserved.
  
 This is part of the Gaussian(R) 16 program.  It is based on
 the Gaussian(R) 09 system (copyright 2009, Gaussian, Inc.),
 the Gaussian(R) 03 system (copyright 2003, Gaussian, Inc.),
 the Gaussian(R) 98 system (copyright 1998, Gaussian, Inc.),
 the Gaussian(R) 94 system (copyright 1995, Gaussian, Inc.),
 the Gaussian 92(TM) system (copyright 1992, Gaussian, Inc.),
 the Gaussian 90(TM) system (copyright 1990, Gaussian, Inc.),
 the Gaussian 88(TM) system (copyright 1988, Gaussian, Inc.),
 the Gaussian 86(TM) system (copyright 1986, Carnegie Mellon
 University), and the Gaussian 82(TM) system (copyright 1983,
 Carnegie Mellon University). Gaussian is a federally registered
 trademark of Gaussian, Inc.
  
 This software contains proprietary and confidential information,
 including trade secrets, belonging to Gaussian, Inc.
  
 This software is provided under written license and may be
 used, copied, transmitted, or stored only in accord with that
 written license.
  
 The following legend is applicable only to US Government
 contracts under FAR:
  
                    RESTRICTED RIGHTS LEGEND
  
 Use, reproduction and disclosure by the US Government is
 subject to restrictions as set forth in subparagraphs (a)
 and (c) of the Commercial Computer Software - Restricted
 Rights clause in FAR 52.227-19.
  
 Gaussian, Inc.
 340 Quinnipiac St., Bldg. 40, Wallingford CT 06492
  
  
 ---------------------------------------------------------------
 Warning -- This program may not be used in any manner that
 competes with the business of Gaussian, Inc. or will provide
 assistance to any competitor of Gaussian, Inc.  The licensee
 of this program is prohibited from giving any competitor of
 Gaussian, Inc. access to this program.  By using this program,
 the user acknowledges that Gaussian, Inc. is engaged in the
 business of creating and licensing software in the field of
 computational chemistry and represents and warrants to the
 licensee that it is not a competitor of Gaussian, Inc. and that
 it will not use this program in any manner prohibited above.
 ---------------------------------------------------------------
  

 Cite this work as:
 Gaussian 16, Revision A.03,
 M. J. Frisch, G. W. Trucks, H. B. Schlegel, G. E. Scuseria, 
 M. A. Robb, J. R. Cheeseman, G. Scalmani, V. Barone, 
 G. A. Petersson, H. Nakatsuji, X. Li, M. Caricato, A. V. Marenich, 
 J. Bloino, B. G. Janesko, R. Gomperts, B. Mennucci, H. P. Hratchian, 
 J. V. Ortiz, A. F. Izmaylov, J. L. Sonnenberg, D. Williams-Young, 
 F. Ding, F. Lipparini, F. Egidi, J. Goings, B. Peng, A. Petrone, 
 T. Henderson, D. Ranasinghe, V. G. Zakrzewski, J. Gao, N. Rega, 
 G. Zheng, W. Liang, M. Hada, M. Ehara, K. Toyota, R. Fukuda, 
 J. Hasegawa, M. Ishida, T. Nakajima, Y. Honda, O. Kitao, H. Nakai, 
 T. Vreven, K. Throssell, J. A. Montgomery, Jr., J. E. Peralta, 
 F. Ogliaro, M. J. Bearpark, J. J. Heyd, E. N. Brothers, K. N. Kudin, 
 V. N. Staroverov, T. A. Keith, R. Kobayashi, J. Normand, 
 K. Raghavachari, A. P. Rendell, J. C. Burant, S. S. Iyengar, 
 J. Tomasi, M. Cossi, J. M. Millam, M. Klene, C. Adamo, R. Cammi, 
 J. W. Ochterski, R. L. Martin, K. Morokuma, O. Farkas, 
 J. B. Foresman, and D. J. Fox, Gaussian, Inc., Wallingford CT, 2016.
 
 ******************************************
 Gaussian 16:  ES64L-G16RevA.03 25-Dec-2016
                15-May-2025 
 ******************************************
 %chk=opt.chk
 %mem=4GB
 %nprocshared=8
 Will use up to    8 processors via shared memory.
 --------------------------------------------
 #p opt UM062X/6-311+G** nosymm int=superfine
 --------------------------------------------
 1/18=20,19=15,26=5,38=1/1,3;
 2/9=110,12=2,15=1,17=6,18=5,40=1/2;
 3/5=4,6=6,7=111,11=2,25=1,30=1,71=1,74=-55,75=-7,116=2/1,2,3;
 4//1;
 5/5=2,38=5/2;
 6/7=2,8=2,9=2,10=2,28=1/1;
 7/30=1/1,2,3,16;
 1/18=20,19=15,26=5/3(2);
 2/9=110,15=1/2;
 99//99;
 2/9=110,15=1/2;
 3/5=4,6=6,7=111,11=2,25=1,30=1,71=1,74=-55,75=-7,116=2/1,2,3;
 4/5=5,16=3,69=1/1;
 5/5=2,38=5/2;
 7/30=1/1,2,3,16;
 1/18=20,19=15,26=5/3(-5);
 2/9=110,15=1/2;
 6/7=2,8=2,9=2,10=2,19=2,28=1/1;
 99/9=1/99;
 Leave Link    1 at Thu May 15 15:46:41 2025, MaxMem=   536870912 cpu:               0.2 elap:               0.0
 (Enter /home/szhao/Apps/g16/l101.exe)
 -------------------
 Title Card Required
 -------------------
 Symbolic Z-matrix:
 Charge =  0 Multiplicity = 1
 N                    -1   -1.99043   0.        0. 
 N                    -1    1.99043   0.        0. 
 H                    0    -2.29106  -0.98793   0. 
 H                    0     2.29106   0.98793   0. 
 
 Add virtual bond connecting atoms N2         and N1         Dist= 7.52D+00.
 ITRead=  2  2  0  0
 MicOpt= -2 -2 -1 -1
 NAtoms=      4 NQM=        2 NQMF=       2 NMMI=      0 NMMIF=      0
                NMic=       0 NMicF=      0.
                    Isotopes and Nuclear Properties:
 (Nuclear quadrupole moments (NQMom) in fm**2, nuclear magnetic moments (NMagM)
  in nuclear magnetons)

  Atom         1           2           3           4
 IAtWgt=          14          14           1           1
 AtmWgt=  14.0030740  14.0030740   1.0078250   1.0078250
 NucSpn=           2           2           1           1
 AtZEff=  -0.0000000  -0.0000000  -0.0000000  -0.0000000
 NQMom=    2.0440000   2.0440000   0.0000000   0.0000000
 NMagM=    0.4037610   0.4037610   2.7928460   2.7928460
 AtZNuc=   7.0000000   7.0000000   1.0000000   1.0000000
 Leave Link  101 at Thu May 15 15:46:41 2025, MaxMem=   536870912 cpu:               2.2 elap:               0.3
 (Enter /home/szhao/Apps/g16/l103.exe)

 GradGradGradGradGradGradGradGradGradGradGradGradGradGradGradGradGradGrad
 Berny optimization.
 Initialization pass.
                           ----------------------------
                           !    Initial Parameters    !
                           ! (Angstroms and Degrees)  !
 --------------------------                            --------------------------
 ! Name  Definition              Value          Derivative Info.                !
 --------------------------------------------------------------------------------
 ! X1    R(1,-1)                -1.9904         Frozen                          !
 ! Y1    R(1,-2)                 0.0            Frozen                          !
 ! Z1    R(1,-3)                 0.0            Frozen                          !
 ! X2    R(2,-1)                 1.9904         Frozen                          !
 ! Y2    R(2,-2)                 0.0            Frozen                          !
 ! Z2    R(2,-3)                 0.0            Frozen                          !
 ! R1    R(1,3)                  1.0327         estimate D2E/DX2                !
 ! R2    R(2,4)                  1.0327         estimate D2E/DX2                !
 ! A1    A(2,1,3)              106.9253         estimate D2E/DX2                !
 ! A2    A(1,2,4)              106.9253         estimate D2E/DX2                !
 ! D1    D(3,1,2,4)            180.0            estimate D2E/DX2                !
 --------------------------------------------------------------------------------
 Trust Radius=3.00D-01 FncErr=1.00D-07 GrdErr=1.00D-07 EigMax=2.50D+02 EigMin=1.00D-04
 Number of steps in this run=     21 maximum allowed number of steps=    100.
 GradGradGradGradGradGradGradGradGradGradGradGradGradGradGradGradGradGrad

 Leave Link  103 at Thu May 15 15:46:41 2025, MaxMem=   536870912 cpu:               0.1 elap:               0.0
 (Enter /home/szhao/Apps/g16/l202.exe)
                          Input orientation:                          
 ---------------------------------------------------------------------
 Center     Atomic      Atomic             Coordinates (Angstroms)
 Number     Number       Type             X           Y           Z
 ---------------------------------------------------------------------
      1          7           0       -1.990428    0.000000    0.000000
      2          7           0        1.990428    0.000000    0.000000
      3          1           0       -2.291061   -0.987932    0.000000
      4          1           0        2.291061    0.987932    0.000000
 ---------------------------------------------------------------------
                    Distance matrix (angstroms):
                    1          2          3          4
     1  N    0.000000
     2  N    3.980856   0.000000
     3  H    1.032662   4.393991   0.000000
     4  H    4.393991   1.032662   4.989978   0.000000
 Symmetry turned off by external request.
 Stoichiometry    H2N2
 Framework group  C2H[SGH(H2N2)]
 Deg. of freedom     3
 Full point group                 C2H     NOp   4
 Rotational constants (GHZ):         281.7883574           4.1523637           4.0920640
 Leave Link  202 at Thu May 15 15:46:41 2025, MaxMem=   536870912 cpu:               0.0 elap:               0.0
 (Enter /home/szhao/Apps/g16/l301.exe)
 Standard basis: 6-311+G(d,p) (5D, 7F)
 Ernie: Thresh=  0.10000D-02 Tol=  0.10000D-05 Strict=F.
    56 basis functions,    88 primitive gaussians,    58 cartesian basis functions
     8 alpha electrons        8 beta electrons
       nuclear repulsion energy        15.4798497662 Hartrees.
 IExCor= 4336 DFT=T Ex+Corr=M062X ExCW=0 ScaHFX=  0.540000
 ScaDFX=  1.000000  1.000000  1.000000  1.000000 ScalE2=  1.000000  1.000000
 IRadAn=      7 IRanWt=     -1 IRanGd=            0 ICorTp=0 IEmpDi=  4
 NAtoms=    4 NActive=    4 NUniq=    4 SFac= 1.00D+00 NAtFMM=   60 NAOKFM=F Big=F
 Integral buffers will be    131072 words long.
 Raffenetti 2 integral format.
 Two-electron integral symmetry is turned off.
 Leave Link  301 at Thu May 15 15:46:41 2025, MaxMem=   536870912 cpu:               0.3 elap:               0.0
 (Enter /home/szhao/Apps/g16/l302.exe)
 NPDir=0 NMtPBC=     1 NCelOv=     1 NCel=       1 NClECP=     1 NCelD=      1
         NCelK=      1 NCelE2=     1 NClLst=     1 CellRange=     0.0.
 One-electron integrals computed using PRISM.
 NBasis=    56 RedAO= T EigKep=  1.04D-02  NBF=    56
 NBsUse=    56 1.00D-06 EigRej= -1.00D+00 NBFU=    56
 Precomputing XC quadrature grid using
 IXCGrd= 4 IRadAn=           7 IRanWt=          -1 IRanGd=           0 AccXCQ= 0.00D+00.
 Generated NRdTot=       0 NPtTot=           0 NUsed=           0 NTot=          32
 NSgBfM=    58    58    58    58    58 MxSgAt=     4 MxSgA2=     4.
 Leave Link  302 at Thu May 15 15:46:42 2025, MaxMem=   536870912 cpu:               0.9 elap:               0.1
 (Enter /home/szhao/Apps/g16/l303.exe)
 DipDrv:  MaxL=1.
 Leave Link  303 at Thu May 15 15:46:42 2025, MaxMem=   536870912 cpu:               0.3 elap:               0.0
 (Enter /home/szhao/Apps/g16/l401.exe)
 ExpMin= 6.39D-02 ExpMax= 6.29D+03 ExpMxC= 9.49D+02 IAcc=3 IRadAn=         7 AccDes= 0.00D+00
 Harris functional with IExCor= 1009 and IRadAn=       7 diagonalized for initial guess.
 HarFok:  IExCor= 1009 AccDes= 0.00D+00 IRadAn=         7 IDoV= 1 UseB2=F ITyADJ=14
 ICtDFT=  3500011 ScaDFX=  1.000000  1.000000  1.000000  1.000000
 FoFCou: FMM=F IPFlag=           0 FMFlag=      100000 FMFlg1=           0
         NFxFlg=           0 DoJE=T BraDBF=F KetDBF=T FulRan=T
         wScrn=  0.000000 ICntrl=       500 IOpCl=  0 I1Cent=   200000004 NGrid=           0
         NMat0=    1 NMatS0=      1 NMatT0=    0 NMatD0=    1 NMtDS0=    0 NMtDT0=    0
 Symmetry not used in FoFCou.
 Harris En= -110.202170319551    
 JPrj=0 DoOrth=F DoCkMO=F.
 Initial guess <Sx>= 0.0000 <Sy>= 0.0000 <Sz>= 0.0000 <S**2>=-0.0000 S=-0.0000
 Leave Link  401 at Thu May 15 15:46:42 2025, MaxMem=   536870912 cpu:               1.4 elap:               0.2
 (Enter /home/szhao/Apps/g16/l502.exe)
 Keep R1 and R2 ints in memory in canonical form, NReq=9624198.
 FoFCou: FMM=F IPFlag=           0 FMFlag=           0 FMFlg1=           0
         NFxFlg=           0 DoJE=F BraDBF=F KetDBF=F FulRan=T
         wScrn=  0.000000 ICntrl=       600 IOpCl=  0 I1Cent=           0 NGrid=           0
         NMat0=    1 NMatS0=   1596 NMatT0=    0 NMatD0=    1 NMtDS0=    0 NMtDT0=    0
 Symmetry not used in FoFCou.
 Two-electron integral symmetry not used.
 UHF open shell SCF:
 Using DIIS extrapolation, IDIIS=  1040.
 NGot=   536870912 LenX=   534314338 LenY=   534310533
 Requested convergence on RMS density matrix=1.00D-08 within 128 cycles.
 Requested convergence on MAX density matrix=1.00D-06.
 Requested convergence on             energy=1.00D-06.
 No special actions if energy rises.
 Integral accuracy reduced to 1.0D-05 until final iterations.

 Cycle   1  Pass 0  IDiag  1:
 E= -110.140882582623    
 DIIS: error= 2.17D-02 at cycle   1 NSaved=   1.
 NSaved= 1 IEnMin= 1 EnMin= -110.140882582623     IErMin= 1 ErrMin= 2.17D-02
 ErrMax= 2.17D-02  0.00D+00 EMaxC= 1.00D-01 BMatC= 1.01D-01 BMatP= 1.01D-01
 IDIUse=3 WtCom= 7.83D-01 WtEn= 2.17D-01
 Coeff-Com:  0.100D+01
 Coeff-En:   0.100D+01
 Coeff:      0.100D+01
 Gap=     0.072 Goal=   None    Shift=    0.000
 Gap=     0.072 Goal=   None    Shift=    0.000
 GapD=    0.072 DampG=0.500 DampE=0.500 DampFc=0.2500 IDamp=-1.
 Damping current iteration by 2.50D-01
 RMSDP=1.71D-03 MaxDP=1.38D-02              OVMax= 4.93D-02

 Cycle   2  Pass 0  IDiag  1:
 E= -110.143640703590     Delta-E=       -0.002758120968 Rises=F Damp=T
 DIIS: error= 1.59D-02 at cycle   2 NSaved=   2.
 NSaved= 2 IEnMin= 2 EnMin= -110.143640703590     IErMin= 2 ErrMin= 1.59D-02
 ErrMax= 1.59D-02  0.00D+00 EMaxC= 1.00D-01 BMatC= 5.17D-02 BMatP= 1.01D-01
 IDIUse=3 WtCom= 8.41D-01 WtEn= 1.59D-01
 Coeff-Com: -0.221D+01 0.321D+01
 Coeff-En:   0.000D+00 0.100D+01
 Coeff:     -0.186D+01 0.286D+01
 Gap=     0.072 Goal=   None    Shift=    0.000
 Gap=     0.072 Goal=   None    Shift=    0.000
 RMSDP=1.03D-03 MaxDP=1.80D-02 DE=-2.76D-03 OVMax= 1.82D-02

 Cycle   3  Pass 0  IDiag  1:
 E= -110.150386493949     Delta-E=       -0.006745790358 Rises=F Damp=F
 DIIS: error= 3.45D-03 at cycle   3 NSaved=   3.
 NSaved= 3 IEnMin= 3 EnMin= -110.150386493949     IErMin= 3 ErrMin= 3.45D-03
 ErrMax= 3.45D-03  0.00D+00 EMaxC= 1.00D-01 BMatC= 1.44D-03 BMatP= 5.17D-02
 IDIUse=3 WtCom= 9.65D-01 WtEn= 3.45D-02
 Coeff-Com: -0.734D+00 0.983D+00 0.751D+00
 Coeff-En:   0.000D+00 0.000D+00 0.100D+01
 Coeff:     -0.708D+00 0.949D+00 0.759D+00
 Gap=     0.072 Goal=   None    Shift=    0.000
 Gap=     0.072 Goal=   None    Shift=    0.000
 RMSDP=2.48D-04 MaxDP=2.81D-03 DE=-6.75D-03 OVMax= 8.27D-03

 Cycle   4  Pass 0  IDiag  1:
 E= -110.150745717720     Delta-E=       -0.000359223771 Rises=F Damp=F
 DIIS: error= 2.77D-04 at cycle   4 NSaved=   4.
 NSaved= 4 IEnMin= 4 EnMin= -110.150745717720     IErMin= 4 ErrMin= 2.77D-04
 ErrMax= 2.77D-04  0.00D+00 EMaxC= 1.00D-01 BMatC= 2.35D-05 BMatP= 1.44D-03
 IDIUse=3 WtCom= 9.97D-01 WtEn= 2.77D-03
 Coeff-Com:  0.833D-01-0.114D+00 0.326D-01 0.999D+00
 Coeff-En:   0.000D+00 0.000D+00 0.000D+00 0.100D+01
 Coeff:      0.831D-01-0.114D+00 0.325D-01 0.999D+00
 Gap=     0.072 Goal=   None    Shift=    0.000
 Gap=     0.072 Goal=   None    Shift=    0.000
 RMSDP=4.48D-05 MaxDP=8.58D-04 DE=-3.59D-04 OVMax= 1.56D-03

 Cycle   5  Pass 0  IDiag  1:
 E= -110.150753146037     Delta-E=       -0.000007428316 Rises=F Damp=F
 DIIS: error= 4.75D-05 at cycle   5 NSaved=   5.
 NSaved= 5 IEnMin= 5 EnMin= -110.150753146037     IErMin= 5 ErrMin= 4.75D-05
 ErrMax= 4.75D-05  0.00D+00 EMaxC= 1.00D-01 BMatC= 5.59D-07 BMatP= 2.35D-05
 IDIUse=1 WtCom= 1.00D+00 WtEn= 0.00D+00
 Coeff-Com:  0.445D-01-0.597D-01-0.343D-01 0.194D-01 0.103D+01
 Coeff:      0.445D-01-0.597D-01-0.343D-01 0.194D-01 0.103D+01
 Gap=     0.072 Goal=   None    Shift=    0.000
 Gap=     0.072 Goal=   None    Shift=    0.000
 RMSDP=1.36D-05 MaxDP=1.14D-04 DE=-7.43D-06 OVMax= 6.93D-04

 Cycle   6  Pass 0  IDiag  1:
 E= -110.150753657545     Delta-E=       -0.000000511509 Rises=F Damp=F
 DIIS: error= 2.47D-05 at cycle   6 NSaved=   6.
 NSaved= 6 IEnMin= 6 EnMin= -110.150753657545     IErMin= 6 ErrMin= 2.47D-05
 ErrMax= 2.47D-05  0.00D+00 EMaxC= 1.00D-01 BMatC= 3.60D-08 BMatP= 5.59D-07
 IDIUse=1 WtCom= 1.00D+00 WtEn= 0.00D+00
 Coeff-Com: -0.161D-01 0.216D-01 0.935D-02-0.255D-01-0.350D+00 0.136D+01
 Coeff:     -0.161D-01 0.216D-01 0.935D-02-0.255D-01-0.350D+00 0.136D+01
 Gap=     0.072 Goal=   None    Shift=    0.000
 Gap=     0.072 Goal=   None    Shift=    0.000
 RMSDP=5.20D-06 MaxDP=3.15D-05 DE=-5.12D-07 OVMax= 3.79D-04

 Initial convergence to 1.0D-05 achieved.  Increase integral accuracy.
 Cycle   7  Pass 1  IDiag  1:
 E= -110.150752611174     Delta-E=        0.000001046372 Rises=F Damp=F
 DIIS: error= 7.42D-06 at cycle   1 NSaved=   1.
 NSaved= 1 IEnMin= 1 EnMin= -110.150752611174     IErMin= 1 ErrMin= 7.42D-06
 ErrMax= 7.42D-06  0.00D+00 EMaxC= 1.00D-01 BMatC= 7.69D-09 BMatP= 7.69D-09
 IDIUse=1 WtCom= 1.00D+00 WtEn= 0.00D+00
 Coeff-Com:  0.100D+01
 Coeff:      0.100D+01
 Gap=     0.072 Goal=   None    Shift=    0.000
 Gap=     0.072 Goal=   None    Shift=    0.000
 RMSDP=5.20D-06 MaxDP=3.15D-05 DE= 1.05D-06 OVMax= 1.34D-04

 Cycle   8  Pass 1  IDiag  1:
 E= -110.150752524740     Delta-E=        0.000000086433 Rises=F Damp=F
 DIIS: error= 8.55D-05 at cycle   2 NSaved=   2.
 NSaved= 2 IEnMin= 1 EnMin= -110.150752611174     IErMin= 1 ErrMin= 7.42D-06
 ErrMax= 8.55D-05  0.00D+00 EMaxC= 1.00D-01 BMatC= 4.17D-07 BMatP= 7.69D-09
 IDIUse=1 WtCom= 1.00D+00 WtEn= 0.00D+00
 Coeff-Com:  0.941D+00 0.588D-01
 Coeff:      0.941D+00 0.588D-01
 Gap=     0.072 Goal=   None    Shift=    0.000
 Gap=     0.072 Goal=   None    Shift=    0.000
 RMSDP=2.38D-06 MaxDP=2.95D-05 DE= 8.64D-08 OVMax= 1.55D-04

 Cycle   9  Pass 1  IDiag  1:
 E= -110.150752613769     Delta-E=       -0.000000089028 Rises=F Damp=F
 DIIS: error= 1.84D-05 at cycle   3 NSaved=   3.
 NSaved= 3 IEnMin= 3 EnMin= -110.150752613769     IErMin= 1 ErrMin= 7.42D-06
 ErrMax= 1.84D-05  0.00D+00 EMaxC= 1.00D-01 BMatC= 2.00D-08 BMatP= 7.69D-09
 IDIUse=1 WtCom= 1.00D+00 WtEn= 0.00D+00
 Coeff-Com: -0.188D+00 0.202D+00 0.986D+00
 Coeff:     -0.188D+00 0.202D+00 0.986D+00
 Gap=     0.072 Goal=   None    Shift=    0.000
 Gap=     0.072 Goal=   None    Shift=    0.000
 RMSDP=7.89D-07 MaxDP=6.27D-06 DE=-8.90D-08 OVMax= 4.85D-05

 Cycle  10  Pass 1  IDiag  1:
 E= -110.150752619727     Delta-E=       -0.000000005958 Rises=F Damp=F
 DIIS: error= 1.58D-06 at cycle   4 NSaved=   4.
 NSaved= 4 IEnMin= 4 EnMin= -110.150752619727     IErMin= 4 ErrMin= 1.58D-06
 ErrMax= 1.58D-06  0.00D+00 EMaxC= 1.00D-01 BMatC= 2.88D-10 BMatP= 7.69D-09
 IDIUse=1 WtCom= 1.00D+00 WtEn= 0.00D+00
 Coeff-Com: -0.240D+00 0.113D-01 0.115D+00 0.111D+01
 Coeff:     -0.240D+00 0.113D-01 0.115D+00 0.111D+01
 Gap=     0.072 Goal=   None    Shift=    0.000
 Gap=     0.072 Goal=   None    Shift=    0.000
 RMSDP=3.80D-07 MaxDP=2.39D-06 DE=-5.96D-09 OVMax= 2.78D-05

 Cycle  11  Pass 1  IDiag  1:
 E= -110.150752620057     Delta-E=       -0.000000000330 Rises=F Damp=F
 DIIS: error= 2.29D-07 at cycle   5 NSaved=   5.
 NSaved= 5 IEnMin= 5 EnMin= -110.150752620057     IErMin= 5 ErrMin= 2.29D-07
 ErrMax= 2.29D-07  0.00D+00 EMaxC= 1.00D-01 BMatC= 1.31D-11 BMatP= 2.88D-10
 IDIUse=1 WtCom= 1.00D+00 WtEn= 0.00D+00
 Coeff-Com: -0.669D-01-0.605D-02-0.108D-01 0.312D+00 0.772D+00
 Coeff:     -0.669D-01-0.605D-02-0.108D-01 0.312D+00 0.772D+00
 Gap=     0.072 Goal=   None    Shift=    0.000
 Gap=     0.072 Goal=   None    Shift=    0.000
 RMSDP=4.97D-08 MaxDP=4.43D-07 DE=-3.30D-10 OVMax= 3.21D-06

 Cycle  12  Pass 1  IDiag  1:
 E= -110.150752620063     Delta-E=       -0.000000000006 Rises=F Damp=F
 DIIS: error= 1.15D-07 at cycle   6 NSaved=   6.
 NSaved= 6 IEnMin= 6 EnMin= -110.150752620063     IErMin= 6 ErrMin= 1.15D-07
 ErrMax= 1.15D-07  0.00D+00 EMaxC= 1.00D-01 BMatC= 1.47D-12 BMatP= 1.31D-11
 IDIUse=1 WtCom= 1.00D+00 WtEn= 0.00D+00
 Coeff-Com:  0.113D-01-0.126D-02-0.881D-02-0.593D-01 0.231D+00 0.827D+00
 Coeff:      0.113D-01-0.126D-02-0.881D-02-0.593D-01 0.231D+00 0.827D+00
 Gap=     0.072 Goal=   None    Shift=    0.000
 Gap=     0.072 Goal=   None    Shift=    0.000
 RMSDP=1.09D-08 MaxDP=1.19D-07 DE=-6.10D-12 OVMax= 3.35D-07

 Cycle  13  Pass 1  IDiag  1:
 E= -110.150752620064     Delta-E=       -0.000000000000 Rises=F Damp=F
 DIIS: error= 6.12D-09 at cycle   7 NSaved=   7.
 NSaved= 7 IEnMin= 7 EnMin= -110.150752620064     IErMin= 7 ErrMin= 6.12D-09
 ErrMax= 6.12D-09  0.00D+00 EMaxC= 1.00D-01 BMatC= 9.13D-15 BMatP= 1.47D-12
 IDIUse=1 WtCom= 1.00D+00 WtEn= 0.00D+00
 Coeff-Com:  0.843D-03 0.804D-04 0.176D-03-0.531D-02-0.206D-01 0.239D-02
 Coeff-Com:  0.102D+01
 Coeff:      0.843D-03 0.804D-04 0.176D-03-0.531D-02-0.206D-01 0.239D-02
 Coeff:      0.102D+01
 Gap=     0.072 Goal=   None    Shift=    0.000
 Gap=     0.072 Goal=   None    Shift=    0.000
 RMSDP=1.73D-09 MaxDP=1.23D-08 DE=-4.97D-13 OVMax= 7.72D-08

 SCF Done:  E(UM062X) =  -110.150752620     A.U. after   13 cycles
            NFock= 13  Conv=0.17D-08     -V/T= 2.0037
 <Sx>= 0.0000 <Sy>= 0.0000 <Sz>= 0.0000 <S**2>=-0.0000 S=-0.0000
 <L.S>=  0.00000000000    
 KE= 1.097397854855D+02 PE=-2.891106903450D+02 EE= 5.374030247327D+01
 Annihilation of the first spin contaminant:
 S**2 before annihilation    -0.0000,   after     0.0000
 Leave Link  502 at Thu May 15 15:46:44 2025, MaxMem=   536870912 cpu:              16.4 elap:               2.1
 (Enter /home/szhao/Apps/g16/l601.exe)
 Copying SCF densities to generalized density rwf, IOpCl= 1 IROHF=0.

 **********************************************************************

            Population analysis using the SCF density.

 **********************************************************************

 Alpha  occ. eigenvalues --  -14.87440 -14.87438  -0.92256  -0.92034  -0.48397
 Alpha  occ. eigenvalues --   -0.48266  -0.29278  -0.28779
 Alpha virt. eigenvalues --   -0.21579  -0.20865   0.05196   0.06499   0.11267
 Alpha virt. eigenvalues --    0.11933   0.13463   0.14579   0.15150   0.17018
 Alpha virt. eigenvalues --    0.19386   0.23574   0.54701   0.54764   0.75211
 Alpha virt. eigenvalues --    0.75476   0.79594   0.80661   0.80671   0.82954
 Alpha virt. eigenvalues --    0.98043   0.98810   1.29115   1.29242   1.29409
 Alpha virt. eigenvalues --    1.30139   1.90570   1.90845   1.97080   1.97139
 Alpha virt. eigenvalues --    1.97184   1.97683   2.34537   2.34621   2.34642
 Alpha virt. eigenvalues --    2.34819   2.47641   2.48686   2.93684   2.93750
 Alpha virt. eigenvalues --    3.77296   3.78299   3.78961   3.79520   4.32704
 Alpha virt. eigenvalues --    4.33074  35.31388  35.32042
  Beta  occ. eigenvalues --  -14.87440 -14.87438  -0.92256  -0.92034  -0.48397
  Beta  occ. eigenvalues --   -0.48266  -0.29278  -0.28779
  Beta virt. eigenvalues --   -0.21579  -0.20865   0.05196   0.06499   0.11267
  Beta virt. eigenvalues --    0.11933   0.13463   0.14579   0.15150   0.17018
  Beta virt. eigenvalues --    0.19386   0.23574   0.54701   0.54764   0.75211
  Beta virt. eigenvalues --    0.75476   0.79594   0.80661   0.80671   0.82954
  Beta virt. eigenvalues --    0.98043   0.98810   1.29115   1.29242   1.29409
  Beta virt. eigenvalues --    1.30139   1.90570   1.90845   1.97080   1.97139
  Beta virt. eigenvalues --    1.97184   1.97683   2.34537   2.34621   2.34642
  Beta virt. eigenvalues --    2.34819   2.47641   2.48686   2.93684   2.93750
  Beta virt. eigenvalues --    3.77296   3.78299   3.78961   3.79520   4.32704
  Beta virt. eigenvalues --    4.33074  35.31388  35.32042
          Condensed to atoms (all electrons):
               1          2          3          4
     1  N    6.954223   0.044131   0.228589   0.000089
     2  N    0.044131   6.954223   0.000089   0.228589
     3  H    0.228589   0.000089   0.544269   0.000023
     4  H    0.000089   0.228589   0.000023   0.544269
          Atomic-Atomic Spin Densities.
               1          2          3          4
     1  N    0.000000  -0.000000  -0.000000   0.000000
     2  N   -0.000000   0.000000   0.000000  -0.000000
     3  H   -0.000000   0.000000  -0.000000  -0.000000
     4  H    0.000000  -0.000000  -0.000000   0.000000
 Mulliken charges and spin densities:
               1          2
     1  N   -0.227031   0.000000
     2  N   -0.227031  -0.000000
     3  H    0.227031  -0.000000
     4  H    0.227031   0.000000
 Sum of Mulliken charges =  -0.00000  -0.00000
 Mulliken charges and spin densities with hydrogens summed into heavy atoms:
               1          2
     1  N   -0.000000  -0.000000
     2  N    0.000000  -0.000000
 Electronic spatial extent (au):  <R**2>=            267.8902
 Charge=             -0.0000 electrons
 Dipole moment (field-independent basis, Debye):
    X=              0.0000    Y=              0.0000    Z=             -0.0000  Tot=              0.0000
 Quadrupole moment (field-independent basis, Debye-Ang):
   XX=             -8.5435   YY=            -11.4843   ZZ=            -14.0832
   XY=              7.7393   XZ=              0.0000   YZ=             -0.0000
 Traceless Quadrupole moment (field-independent basis, Debye-Ang):
   XX=              2.8269   YY=             -0.1140   ZZ=             -2.7129
   XY=              7.7393   XZ=              0.0000   YZ=             -0.0000
 Octapole moment (field-independent basis, Debye-Ang**2):
  XXX=             -0.0000  YYY=             -0.0000  ZZZ=             -0.0000  XYY=             -0.0000
  XXY=              0.0000  XXZ=             -0.0000  XZZ=              0.0000  YZZ=              0.0000
  YYZ=             -0.0000  XYZ=             -0.0000
 Hexadecapole moment (field-independent basis, Debye-Ang**3):
 XXXX=           -304.7215 YYYY=            -17.7654 ZZZZ=            -16.9454 XXXY=             33.8759
 XXXZ=              0.0000 YYYX=              1.2152 YYYZ=             -0.0000 ZZZX=              0.0000
 ZZZY=             -0.0000 XXYY=            -48.2803 XXZZ=            -61.0021 YYZZ=             -6.3522
 XXYZ=             -0.0000 YYXZ=              0.0000 ZZXY=             -1.6303
 N-N= 1.547984976622D+01 E-N=-2.891106905130D+02  KE= 1.097397854855D+02
                          Isotropic Fermi Contact Couplings
        Atom                 a.u.       MegaHertz       Gauss      10(-4) cm-1
     1  N(14)              0.00000       0.00000       0.00000       0.00000
     2  N(14)              0.00000       0.00000       0.00000       0.00000
     3  H(1)              -0.00000      -0.00000      -0.00000      -0.00000
     4  H(1)              -0.00000      -0.00000      -0.00000      -0.00000
 --------------------------------------------------------
       Center         ----  Spin Dipole Couplings  ----
                      3XX-RR        3YY-RR        3ZZ-RR
 --------------------------------------------------------
     1   Atom        0.000000      0.000000      0.000000
     2   Atom        0.000000      0.000000      0.000000
     3   Atom        0.000000      0.000000      0.000000
     4   Atom        0.000000      0.000000      0.000000
 --------------------------------------------------------
                        XY            XZ            YZ
 --------------------------------------------------------
     1   Atom        0.000000      0.000000      0.000000
     2   Atom        0.000000      0.000000      0.000000
     3   Atom        0.000000      0.000000      0.000000
     4   Atom        0.000000      0.000000      0.000000
 --------------------------------------------------------


 ---------------------------------------------------------------------------------
              Anisotropic Spin Dipole Couplings in Principal Axis System
 ---------------------------------------------------------------------------------

       Atom             a.u.   MegaHertz   Gauss  10(-4) cm-1        Axes

              Baa     0.0000     0.000     0.000     0.000  1.0000  0.0000  0.0000
     1 N(14)  Bbb     0.0000     0.000     0.000     0.000 -0.0000  1.0000  0.0000
              Bcc     0.0000     0.000     0.000     0.000  0.0000  0.0000  1.0000
 
              Baa     0.0000     0.000     0.000     0.000  1.0000  0.0000  0.0000
     2 N(14)  Bbb     0.0000     0.000     0.000     0.000 -0.0000  1.0000  0.0000
              Bcc     0.0000     0.000     0.000     0.000  0.0000  0.0000  1.0000
 
              Baa     0.0000     0.000     0.000     0.000  1.0000  0.0000  0.0000
     3 H(1)   Bbb     0.0000     0.000     0.000     0.000 -0.0000  1.0000  0.0000
              Bcc     0.0000     0.000     0.000     0.000  0.0000  0.0000  1.0000
 
              Baa     0.0000     0.000     0.000     0.000  1.0000  0.0000  0.0000
     4 H(1)   Bbb     0.0000     0.000     0.000     0.000 -0.0000  1.0000  0.0000
              Bcc     0.0000     0.000     0.000     0.000  0.0000  0.0000  1.0000
 

 ---------------------------------------------------------------------------------

 No NMR shielding tensors so no spin-rotation constants.
 Leave Link  601 at Thu May 15 15:46:44 2025, MaxMem=   536870912 cpu:               0.7 elap:               0.1
 (Enter /home/szhao/Apps/g16/l701.exe)
 ... and contract with generalized density number  0.
 Compute integral first derivatives.
 Leave Link  701 at Thu May 15 15:46:44 2025, MaxMem=   536870912 cpu:               0.7 elap:               0.1
 (Enter /home/szhao/Apps/g16/l702.exe)
 L702 exits ... SP integral derivatives will be done elsewhere.
 Leave Link  702 at Thu May 15 15:46:44 2025, MaxMem=   536870912 cpu:               0.2 elap:               0.0
 (Enter /home/szhao/Apps/g16/l703.exe)
 Integral derivatives from FoFJK, PRISM(SPDF).
 Compute integral first derivatives, UseDBF=F ICtDFT=           0.
 Calling FoFJK, ICntrl=      2127 FMM=F ISym2X=0 I1Cent= 0 IOpClX= 1 NMat=1 NMatS=1 NMatT=0.
 FoFJK:  IHMeth= 1 ICntrl=    2127 DoSepK=F KAlg= 0 I1Cent=           0 FoldK=F
 IRaf=         0 NMat=       1 IRICut=       1 DoRegI=T DoRafI=F ISym2E= 0 IDoP0=0 IntGTp=1.
 FoFCou: FMM=F IPFlag=           0 FMFlag=      100000 FMFlg1=         800
         NFxFlg=           0 DoJE=F BraDBF=F KetDBF=F FulRan=T
         wScrn=  0.000000 ICntrl=      2127 IOpCl=  1 I1Cent=           0 NGrid=           0
         NMat0=    1 NMatS0=      1 NMatT0=    0 NMatD0=    1 NMtDS0=    0 NMtDT0=    0
 Symmetry not used in FoFCou.
 Leave Link  703 at Thu May 15 15:46:45 2025, MaxMem=   536870912 cpu:               3.4 elap:               0.4
 (Enter /home/szhao/Apps/g16/l716.exe)
 Dipole        = 5.12125613D-08 2.67463385D-10-5.25924488D-15
 -------------------------------------------------------------------
 Center     Atomic                   Forces (Hartrees/Bohr)
 Number     Number              X              Y              Z
 -------------------------------------------------------------------
      1        7          -0.000000000   -0.000000000   -0.000000000
      2        7          -0.000000000   -0.000000000   -0.000000000
      3        1           0.001955852   -0.006123018    0.000000000
      4        1          -0.001955852    0.006123017   -0.000000000
 -------------------------------------------------------------------
 Cartesian Forces:  Max     0.006123018 RMS     0.002624141
 Leave Link  716 at Thu May 15 15:46:45 2025, MaxMem=   536870912 cpu:               0.2 elap:               0.0
 (Enter /home/szhao/Apps/g16/l103.exe)

 GradGradGradGradGradGradGradGradGradGradGradGradGradGradGradGradGradGrad
 Berny optimization.
 FormGI is forming the generalized inverse of G from B-inverse, IUseBI=4.
 Internal  Forces:  Max     0.008018606 RMS     0.005168567
 Search for a local minimum.
 Step number   1 out of a maximum of   21
 All quantities printed in internal units (Hartrees-Bohrs-Radians)
 RMS Force = .56144D-02 SwitMx=.10000D-02 MixMth= 1
 Mixed Optimization -- RFO/linear search
 Second derivative matrix not updated -- first step.
 The second derivative matrix:
                          X1        Y1        Z1        X2        Y2
           X1           0.50000
           Y1           0.00000   0.50000
           Z1           0.00000   0.00000   0.50000
           X2           0.00000   0.00000   0.00000   0.50000
           Y2           0.00000   0.00000   0.00000   0.00000   0.50000
           Z2           0.00000   0.00000   0.00000   0.00000   0.00000
           R1           0.00000   0.00000   0.00000   0.00000   0.00000
           R2           0.00000   0.00000   0.00000   0.00000   0.00000
           A1           0.00000   0.00000   0.00000   0.00000   0.00000
           A2           0.00000   0.00000   0.00000   0.00000   0.00000
           D1           0.00000   0.00000   0.00000   0.00000   0.00000
                          Z2        R1        R2        A1        A2
           Z2           0.50000
           R1           0.00000   0.42378
           R2           0.00000   0.00000   0.42378
           A1           0.00000   0.00000   0.00000   0.16000
           A2           0.00000   0.00000   0.00000   0.00000   0.16000
           D1           0.00000   0.00000   0.00000   0.00000   0.00000
                          D1
           D1           0.00230
 ITU=  0
     Eigenvalues ---    0.00230   0.16000   0.16000   0.42378   0.42378
     Eigenvalues --- 1000.000001000.000001000.000001000.000001000.00000
     Eigenvalues --- 1000.00000
 RFO step:  Lambda=-7.64192248D-04 EMin= 2.30000000D-03
 Linear search not attempted -- first point.
 Iteration  1 RMS(Cart)=  0.03704586 RMS(Int)=  0.00080852
 Iteration  2 RMS(Cart)=  0.00091361 RMS(Int)=  0.00000027
 Iteration  3 RMS(Cart)=  0.00000048 RMS(Int)=  0.00000000
 ITry= 1 IFail=0 DXMaxC= 8.02D-02 DCOld= 1.00D+10 DXMaxT= 3.00D-01 DXLimC= 3.00D+00 Rises=F
 Variable       Old X    -DE/DX   Delta X   Delta X   Delta X     New X
                                 (Linear)    (Quad)   (Total)
    X1       -3.76136   0.00196   0.00000   0.00000   0.00000  -3.76136
    Y1        0.00000  -0.00802   0.00000   0.00000   0.00000   0.00000
    Z1        0.00000   0.00000   0.00000   0.00000   0.00000   0.00000
    X2        3.76136  -0.00196   0.00000   0.00000   0.00000   3.76136
    Y2        0.00000   0.00802   0.00000   0.00000   0.00000   0.00000
    Z2        0.00000   0.00000   0.00000   0.00000   0.00000   0.00000
    R1        1.95145   0.00529   0.00000   0.01246   0.01246   1.96391
    R2        1.95145   0.00529   0.00000   0.01246   0.01246   1.96391
    A1        1.86620  -0.00713   0.00000  -0.04435  -0.04435   1.82185
    A2        1.86620  -0.00713   0.00000  -0.04435  -0.04435   1.82185
    D1        3.14159   0.00000   0.00000   0.00000   0.00000   3.14159
         Item               Value     Threshold  Converged?
 Maximum Force            0.007130     0.000450     NO 
 RMS     Force            0.005614     0.000300     NO 
 Maximum Displacement     0.080236     0.001800     NO 
 RMS     Displacement     0.037398     0.001200     NO 
 Predicted change in Energy=-3.837178D-04
 Lowest energy point so far.  Saving SCF results.
 GradGradGradGradGradGradGradGradGradGradGradGradGradGradGradGradGradGrad

 Leave Link  103 at Thu May 15 15:46:45 2025, MaxMem=   536870912 cpu:               0.4 elap:               0.1
 (Enter /home/szhao/Apps/g16/l202.exe)
                          Input orientation:                          
 ---------------------------------------------------------------------
 Center     Atomic      Atomic             Coordinates (Angstroms)
 Number     Number       Type             X           Y           Z
 ---------------------------------------------------------------------
      1          7           0       -1.990428    0.000000    0.000000
      2          7           0        1.990428    0.000000    0.000000
      3          1           0       -2.248602   -1.006675    0.000000
      4          1           0        2.248602    1.006675    0.000000
 ---------------------------------------------------------------------
                    Distance matrix (angstroms):
                    1          2          3          4
     1  N    0.000000
     2  N    3.980856   0.000000
     3  H    1.039254   4.356922   0.000000
     4  H    4.356922   1.039254   4.927314   0.000000
 Symmetry turned off by external request.
 Stoichiometry    H2N2
 Framework group  C2H[SGH(H2N2)]
 Deg. of freedom     3
 Full point group                 C2H     NOp   4
 Rotational constants (GHZ):         270.5284152           4.1656370           4.1024666
 Leave Link  202 at Thu May 15 15:46:45 2025, MaxMem=   536870912 cpu:               0.0 elap:               0.0
 (Enter /home/szhao/Apps/g16/l301.exe)
 Standard basis: 6-311+G(d,p) (5D, 7F)
 Ernie: Thresh=  0.10000D-02 Tol=  0.10000D-05 Strict=F.
    56 basis functions,    88 primitive gaussians,    58 cartesian basis functions
     8 alpha electrons        8 beta electrons
       nuclear repulsion energy        15.4500390927 Hartrees.
 IExCor= 4336 DFT=T Ex+Corr=M062X ExCW=0 ScaHFX=  0.540000
 ScaDFX=  1.000000  1.000000  1.000000  1.000000 ScalE2=  1.000000  1.000000
 IRadAn=      7 IRanWt=     -1 IRanGd=            0 ICorTp=0 IEmpDi=  4
 NAtoms=    4 NActive=    4 NUniq=    4 SFac= 1.00D+00 NAtFMM=   60 NAOKFM=F Big=F
 Integral buffers will be    131072 words long.
 Raffenetti 2 integral format.
 Two-electron integral symmetry is turned off.
 Leave Link  301 at Thu May 15 15:46:45 2025, MaxMem=   536870912 cpu:               0.3 elap:               0.0
 (Enter /home/szhao/Apps/g16/l302.exe)
 NPDir=0 NMtPBC=     1 NCelOv=     1 NCel=       1 NClECP=     1 NCelD=      1
         NCelK=      1 NCelE2=     1 NClLst=     1 CellRange=     0.0.
 One-electron integrals computed using PRISM.
 NBasis=    56 RedAO= T EigKep=  1.04D-02  NBF=    56
 NBsUse=    56 1.00D-06 EigRej= -1.00D+00 NBFU=    56
 Precomputing XC quadrature grid using
 IXCGrd= 4 IRadAn=           7 IRanWt=          -1 IRanGd=           0 AccXCQ= 0.00D+00.
 Generated NRdTot=       0 NPtTot=           0 NUsed=           0 NTot=          32
 NSgBfM=    58    58    58    58    58 MxSgAt=     4 MxSgA2=     4.
 Leave Link  302 at Thu May 15 15:46:45 2025, MaxMem=   536870912 cpu:               0.8 elap:               0.1
 (Enter /home/szhao/Apps/g16/l303.exe)
 DipDrv:  MaxL=1.
 Leave Link  303 at Thu May 15 15:46:45 2025, MaxMem=   536870912 cpu:               0.2 elap:               0.0
 (Enter /home/szhao/Apps/g16/l401.exe)
 Initial guess from the checkpoint file:  "opt.chk"
 B after Tr=     0.000000   -0.000000    0.000000
         Rot=    0.999999   -0.000000   -0.000000   -0.001253 Ang=  -0.14 deg.
 Guess basis will be translated and rotated to current coordinates.
 JPrj=2 DoOrth=T DoCkMO=T.
 Initial guess <Sx>= 0.0000 <Sy>= 0.0000 <Sz>= 0.0000 <S**2>=-0.0000 S=-0.0000
 Generating alternative initial guess.
 ExpMin= 6.39D-02 ExpMax= 6.29D+03 ExpMxC= 9.49D+02 IAcc=3 IRadAn=         5 AccDes= 0.00D+00
 Harris functional with IExCor= 1009 and IRadAn=       5 diagonalized for initial guess.
 HarFok:  IExCor= 1009 AccDes= 0.00D+00 IRadAn=         5 IDoV= 1 UseB2=F ITyADJ=14
 ICtDFT=  3500011 ScaDFX=  1.000000  1.000000  1.000000  1.000000
 FoFCou: FMM=F IPFlag=           0 FMFlag=      100000 FMFlg1=           0
         NFxFlg=           0 DoJE=T BraDBF=F KetDBF=T FulRan=T
         wScrn=  0.000000 ICntrl=       500 IOpCl=  0 I1Cent=   200000004 NGrid=           0
         NMat0=    1 NMatS0=      1 NMatT0=    0 NMatD0=    1 NMtDS0=    0 NMtDT0=    0
 Symmetry not used in FoFCou.
 Harris En= -110.202461936978    
 Leave Link  401 at Thu May 15 15:46:45 2025, MaxMem=   536870912 cpu:               1.2 elap:               0.1
 (Enter /home/szhao/Apps/g16/l502.exe)
 Keep R1 and R2 ints in memory in canonical form, NReq=9624198.
 FoFCou: FMM=F IPFlag=           0 FMFlag=           0 FMFlg1=           0
         NFxFlg=           0 DoJE=F BraDBF=F KetDBF=F FulRan=T
         wScrn=  0.000000 ICntrl=       600 IOpCl=  0 I1Cent=           0 NGrid=           0
         NMat0=    1 NMatS0=   1596 NMatT0=    0 NMatD0=    1 NMtDS0=    0 NMtDT0=    0
 Symmetry not used in FoFCou.
 Two-electron integral symmetry not used.
 UHF open shell SCF:
 Using DIIS extrapolation, IDIIS=  1040.
 NGot=   536870912 LenX=   534314338 LenY=   534310533
 Requested convergence on RMS density matrix=1.00D-08 within 128 cycles.
 Requested convergence on MAX density matrix=1.00D-06.
 Requested convergence on             energy=1.00D-06.
 No special actions if energy rises.
 Integral accuracy reduced to 1.0D-05 until final iterations.

 Cycle   1  Pass 0  IDiag  1:
 E= -110.150894461877    
 DIIS: error= 2.56D-03 at cycle   1 NSaved=   1.
 NSaved= 1 IEnMin= 1 EnMin= -110.150894461877     IErMin= 1 ErrMin= 2.56D-03
 ErrMax= 2.56D-03  0.00D+00 EMaxC= 1.00D-01 BMatC= 9.18D-04 BMatP= 9.18D-04
 IDIUse=3 WtCom= 9.74D-01 WtEn= 2.56D-02
 Coeff-Com:  0.100D+01
 Coeff-En:   0.100D+01
 Coeff:      0.100D+01
 Gap=     0.524 Goal=   None    Shift=    0.000
 Gap=     0.524 Goal=   None    Shift=    0.000
 GapD=    0.524 DampG=2.000 DampE=1.000 DampFc=2.0000 IDamp=-1.
 RMSDP=3.23D-04 MaxDP=3.09D-03              OVMax= 1.35D-02

 Cycle   2  Pass 0  IDiag  1:
 E= -110.151362961180     Delta-E=       -0.000468499303 Rises=F Damp=F
 DIIS: error= 7.23D-04 at cycle   2 NSaved=   2.
 NSaved= 2 IEnMin= 2 EnMin= -110.151362961180     IErMin= 2 ErrMin= 7.23D-04
 ErrMax= 7.23D-04  0.00D+00 EMaxC= 1.00D-01 BMatC= 4.75D-05 BMatP= 9.18D-04
 IDIUse=3 WtCom= 9.93D-01 WtEn= 7.23D-03
 Coeff-Com: -0.149D+00 0.115D+01
 Coeff-En:   0.000D+00 0.100D+01
 Coeff:     -0.148D+00 0.115D+01
 Gap=     0.072 Goal=   None    Shift=    0.000
 Gap=     0.072 Goal=   None    Shift=    0.000
 RMSDP=1.19D-04 MaxDP=1.12D-03 DE=-4.68D-04 OVMax= 7.78D-03

 Cycle   3  Pass 0  IDiag  1:
 E= -110.151421256322     Delta-E=       -0.000058295142 Rises=F Damp=F
 DIIS: error= 2.71D-04 at cycle   3 NSaved=   3.
 NSaved= 3 IEnMin= 3 EnMin= -110.151421256322     IErMin= 3 ErrMin= 2.71D-04
 ErrMax= 2.71D-04  0.00D+00 EMaxC= 1.00D-01 BMatC= 8.28D-06 BMatP= 4.75D-05
 IDIUse=3 WtCom= 9.97D-01 WtEn= 2.71D-03
 Coeff-Com: -0.443D-01 0.122D+00 0.922D+00
 Coeff-En:   0.000D+00 0.000D+00 0.100D+01
 Coeff:     -0.441D-01 0.122D+00 0.922D+00
 Gap=     0.072 Goal=   None    Shift=    0.000
 Gap=     0.072 Goal=   None    Shift=    0.000
 RMSDP=4.23D-05 MaxDP=3.25D-04 DE=-5.83D-05 OVMax= 3.01D-03

 Cycle   4  Pass 0  IDiag  1:
 E= -110.151429969793     Delta-E=       -0.000008713472 Rises=F Damp=F
 DIIS: error= 1.26D-04 at cycle   4 NSaved=   4.
 NSaved= 4 IEnMin= 4 EnMin= -110.151429969793     IErMin= 4 ErrMin= 1.26D-04
 ErrMax= 1.26D-04  0.00D+00 EMaxC= 1.00D-01 BMatC= 3.18D-06 BMatP= 8.28D-06
 IDIUse=3 WtCom= 9.99D-01 WtEn= 1.26D-03
 Coeff-Com:  0.266D-01-0.298D+00 0.316D+00 0.955D+00
 Coeff-En:   0.000D+00 0.000D+00 0.000D+00 0.100D+01
 Coeff:      0.266D-01-0.297D+00 0.315D+00 0.955D+00
 Gap=     0.072 Goal=   None    Shift=    0.000
 Gap=     0.072 Goal=   None    Shift=    0.000
 RMSDP=3.13D-05 MaxDP=2.03D-04 DE=-8.71D-06 OVMax= 2.32D-03

 Cycle   5  Pass 0  IDiag  1:
 E= -110.151432686831     Delta-E=       -0.000002717038 Rises=F Damp=F
 DIIS: error= 1.55D-04 at cycle   5 NSaved=   5.
 NSaved= 5 IEnMin= 5 EnMin= -110.151432686831     IErMin= 4 ErrMin= 1.26D-04
 ErrMax= 1.55D-04  0.00D+00 EMaxC= 1.00D-01 BMatC= 1.50D-06 BMatP= 3.18D-06
 IDIUse=3 WtCom= 9.98D-01 WtEn= 1.55D-03
 Coeff-Com:  0.208D-01-0.219D+00 0.191D+00 0.679D+00 0.329D+00
 Coeff-En:   0.000D+00 0.000D+00 0.000D+00 0.000D+00 0.100D+01
 Coeff:      0.208D-01-0.219D+00 0.191D+00 0.678D+00 0.330D+00
 Gap=     0.072 Goal=   None    Shift=    0.000
 Gap=     0.072 Goal=   None    Shift=    0.000
 RMSDP=2.42D-05 MaxDP=2.99D-04 DE=-2.72D-06 OVMax= 1.57D-03

 Cycle   6  Pass 0  IDiag  1:
 E= -110.151422924242     Delta-E=        0.000009762589 Rises=F Damp=F
 DIIS: error= 8.92D-04 at cycle   6 NSaved=   6.
 NSaved= 6 IEnMin= 5 EnMin= -110.151432686831     IErMin= 4 ErrMin= 1.26D-04
 ErrMax= 8.92D-04  0.00D+00 EMaxC= 1.00D-01 BMatC= 4.54D-05 BMatP= 1.50D-06
 IDIUse=3 WtCom= 9.98D-01 WtEn= 1.55D-03
 Coeff-Com:  0.664D-02-0.377D-01-0.765D-01 0.480D-01 0.903D+00 0.157D+00
 Coeff-En:   0.000D+00 0.000D+00 0.000D+00 0.000D+00 0.867D+00 0.133D+00
 Coeff:      0.663D-02-0.376D-01-0.764D-01 0.479D-01 0.903D+00 0.157D+00
 Gap=     0.072 Goal=   None    Shift=    0.000
 Gap=     0.072 Goal=   None    Shift=    0.000
 RMSDP=2.16D-05 MaxDP=2.58D-04 DE= 9.76D-06 OVMax= 1.34D-03

 Cycle   7  Pass 0  IDiag  1:
 E= -110.151433152707     Delta-E=       -0.000010228464 Rises=F Damp=F
 DIIS: error= 4.56D-06 at cycle   7 NSaved=   7.
 NSaved= 7 IEnMin= 7 EnMin= -110.151433152707     IErMin= 7 ErrMin= 4.56D-06
 ErrMax= 4.56D-06  0.00D+00 EMaxC= 1.00D-01 BMatC= 4.14D-09 BMatP= 1.50D-06
 IDIUse=1 WtCom= 1.00D+00 WtEn= 0.00D+00
 Coeff-Com: -0.131D-02 0.171D-01-0.158D-01-0.476D-01 0.483D-01 0.141D-01
 Coeff-Com:  0.985D+00
 Coeff:     -0.131D-02 0.171D-01-0.158D-01-0.476D-01 0.483D-01 0.141D-01
 Coeff:      0.985D+00
 Gap=     0.072 Goal=   None    Shift=    0.000
 Gap=     0.072 Goal=   None    Shift=    0.000
 RMSDP=1.52D-06 MaxDP=1.33D-05 DE=-1.02D-05 OVMax= 3.66D-05

 Initial convergence to 1.0D-05 achieved.  Increase integral accuracy.
 Cycle   8  Pass 1  IDiag  1:
 E= -110.151432769041     Delta-E=        0.000000383666 Rises=F Damp=F
 DIIS: error= 1.49D-06 at cycle   1 NSaved=   1.
 NSaved= 1 IEnMin= 1 EnMin= -110.151432769041     IErMin= 1 ErrMin= 1.49D-06
 ErrMax= 1.49D-06  0.00D+00 EMaxC= 1.00D-01 BMatC= 7.26D-10 BMatP= 7.26D-10
 IDIUse=1 WtCom= 1.00D+00 WtEn= 0.00D+00
 Coeff-Com:  0.100D+01
 Coeff:      0.100D+01
 Gap=     0.072 Goal=   None    Shift=    0.000
 Gap=     0.072 Goal=   None    Shift=    0.000
 RMSDP=1.52D-06 MaxDP=1.33D-05 DE= 3.84D-07 OVMax= 2.09D-05

 Cycle   9  Pass 1  IDiag  1:
 E= -110.151432769330     Delta-E=       -0.000000000289 Rises=F Damp=F
 DIIS: error= 4.96D-06 at cycle   2 NSaved=   2.
 NSaved= 2 IEnMin= 2 EnMin= -110.151432769330     IErMin= 1 ErrMin= 1.49D-06
 ErrMax= 4.96D-06  0.00D+00 EMaxC= 1.00D-01 BMatC= 1.04D-09 BMatP= 7.26D-10
 IDIUse=1 WtCom= 1.00D+00 WtEn= 0.00D+00
 Coeff-Com:  0.592D+00 0.408D+00
 Coeff:      0.592D+00 0.408D+00
 Gap=     0.072 Goal=   None    Shift=    0.000
 Gap=     0.072 Goal=   None    Shift=    0.000
 RMSDP=8.27D-07 MaxDP=1.19D-05 DE=-2.89D-10 OVMax= 6.21D-05

 Cycle  10  Pass 1  IDiag  1:
 E= -110.151432757891     Delta-E=        0.000000011438 Rises=F Damp=F
 DIIS: error= 2.92D-05 at cycle   3 NSaved=   3.
 NSaved= 3 IEnMin= 2 EnMin= -110.151432769330     IErMin= 1 ErrMin= 1.49D-06
 ErrMax= 2.92D-05  0.00D+00 EMaxC= 1.00D-01 BMatC= 5.35D-08 BMatP= 7.26D-10
 IDIUse=1 WtCom= 1.00D+00 WtEn= 0.00D+00
 Coeff-Com:  0.103D-01 0.874D+00 0.116D+00
 Coeff:      0.103D-01 0.874D+00 0.116D+00
 Gap=     0.072 Goal=   None    Shift=    0.000
 Gap=     0.072 Goal=   None    Shift=    0.000
 RMSDP=7.15D-07 MaxDP=9.82D-06 DE= 1.14D-08 OVMax= 5.48D-05

 Cycle  11  Pass 1  IDiag  1:
 E= -110.151432770330     Delta-E=       -0.000000012438 Rises=F Damp=F
 DIIS: error= 2.69D-06 at cycle   4 NSaved=   4.
 NSaved= 4 IEnMin= 4 EnMin= -110.151432770330     IErMin= 1 ErrMin= 1.49D-06
 ErrMax= 2.69D-06  0.00D+00 EMaxC= 1.00D-01 BMatC= 3.86D-10 BMatP= 7.26D-10
 IDIUse=1 WtCom= 1.00D+00 WtEn= 0.00D+00
 Coeff-Com:  0.101D-01 0.919D+00 0.124D+00-0.534D-01
 Coeff:      0.101D-01 0.919D+00 0.124D+00-0.534D-01
 Gap=     0.072 Goal=   None    Shift=    0.000
 Gap=     0.072 Goal=   None    Shift=    0.000
 RMSDP=5.31D-08 MaxDP=6.38D-07 DE=-1.24D-08 OVMax= 3.42D-06

 Cycle  12  Pass 1  IDiag  1:
 E= -110.151432770210     Delta-E=        0.000000000120 Rises=F Damp=F
 DIIS: error= 2.48D-06 at cycle   5 NSaved=   5.
 NSaved= 5 IEnMin= 4 EnMin= -110.151432770330     IErMin= 1 ErrMin= 1.49D-06
 ErrMax= 2.48D-06  0.00D+00 EMaxC= 1.00D-01 BMatC= 3.35D-10 BMatP= 3.86D-10
 IDIUse=1 WtCom= 1.00D+00 WtEn= 0.00D+00
 Coeff-Com: -0.117D+00 0.683D+00 0.116D+00-0.870D+01 0.901D+01
 Coeff:     -0.117D+00 0.683D+00 0.116D+00-0.870D+01 0.901D+01
 Gap=     0.072 Goal=   None    Shift=    0.000
 Gap=     0.072 Goal=   None    Shift=    0.000
 RMSDP=6.68D-07 MaxDP=7.90D-06 DE= 1.20D-10 OVMax= 4.24D-05

 Cycle  13  Pass 1  IDiag  1:
 E= -110.151432769446     Delta-E=        0.000000000764 Rises=F Damp=F
 DIIS: error= 1.93D-07 at cycle   6 NSaved=   6.
 NSaved= 6 IEnMin= 4 EnMin= -110.151432770330     IErMin= 6 ErrMin= 1.93D-07
 ErrMax= 1.93D-07  0.00D+00 EMaxC= 1.00D-01 BMatC= 5.33D-12 BMatP= 3.35D-10
 IDIUse=1 WtCom= 1.00D+00 WtEn= 0.00D+00
 Coeff-Com:  0.427D-02-0.243D+00-0.389D-01 0.959D+00-0.978D+00 0.130D+01
 Coeff:      0.427D-02-0.243D+00-0.389D-01 0.959D+00-0.978D+00 0.130D+01
 Gap=     0.072 Goal=   None    Shift=    0.000
 Gap=     0.072 Goal=   None    Shift=    0.000
 RMSDP=6.48D-08 MaxDP=5.59D-07 DE= 7.64D-10 OVMax= 3.18D-06

 Cycle  14  Pass 1  IDiag  1:
 E= -110.151432769449     Delta-E=       -0.000000000003 Rises=F Damp=F
 DIIS: error= 6.90D-08 at cycle   7 NSaved=   7.
 NSaved= 7 IEnMin= 4 EnMin= -110.151432770330     IErMin= 7 ErrMin= 6.90D-08
 ErrMax= 6.90D-08  0.00D+00 EMaxC= 1.00D-01 BMatC= 2.75D-13 BMatP= 5.33D-12
 IDIUse=1 WtCom= 1.00D+00 WtEn= 0.00D+00
 Coeff-Com:  0.102D-01-0.536D-01-0.944D-02 0.892D+00-0.931D+00-0.625D-01
 Coeff-Com:  0.115D+01
 Coeff:      0.102D-01-0.536D-01-0.944D-02 0.892D+00-0.931D+00-0.625D-01
 Coeff:      0.115D+01
 Gap=     0.072 Goal=   None    Shift=    0.000
 Gap=     0.072 Goal=   None    Shift=    0.000
 RMSDP=1.54D-08 MaxDP=1.10D-07 DE=-3.31D-12 OVMax= 1.17D-06

 Cycle  15  Pass 1  IDiag  1:
 E= -110.151432769450     Delta-E=       -0.000000000000 Rises=F Damp=F
 DIIS: error= 1.52D-08 at cycle   8 NSaved=   8.
 NSaved= 8 IEnMin= 4 EnMin= -110.151432770330     IErMin= 8 ErrMin= 1.52D-08
 ErrMax= 1.52D-08  0.00D+00 EMaxC= 1.00D-01 BMatC= 2.17D-14 BMatP= 2.75D-13
 IDIUse=1 WtCom= 1.00D+00 WtEn= 0.00D+00
 Coeff-Com: -0.867D-03 0.186D-01 0.291D-02-0.281D-01 0.270D-01-0.109D+00
 Coeff-Com:  0.543D-02 0.108D+01
 Coeff:     -0.867D-03 0.186D-01 0.291D-02-0.281D-01 0.270D-01-0.109D+00
 Coeff:      0.543D-02 0.108D+01
 Gap=     0.072 Goal=   None    Shift=    0.000
 Gap=     0.072 Goal=   None    Shift=    0.000
 RMSDP=3.31D-09 MaxDP=2.27D-08 DE=-4.83D-13 OVMax= 2.52D-07

 SCF Done:  E(UM062X) =  -110.151432769     A.U. after   15 cycles
            NFock= 15  Conv=0.33D-08     -V/T= 2.0039
 <Sx>= 0.0000 <Sy>= 0.0000 <Sz>= 0.0000 <S**2>=-0.0000 S=-0.0000
 <L.S>=  0.00000000000    
 KE= 1.097185221706D+02 PE=-2.890326352439D+02 EE= 5.371264121115D+01
 Annihilation of the first spin contaminant:
 S**2 before annihilation    -0.0000,   after    -0.0000
 Leave Link  502 at Thu May 15 15:46:48 2025, MaxMem=   536870912 cpu:              19.2 elap:               2.5
 (Enter /home/szhao/Apps/g16/l701.exe)
 ... and contract with generalized density number  0.
 Compute integral first derivatives.
 Leave Link  701 at Thu May 15 15:46:48 2025, MaxMem=   536870912 cpu:               0.6 elap:               0.1
 (Enter /home/szhao/Apps/g16/l702.exe)
 L702 exits ... SP integral derivatives will be done elsewhere.
 Leave Link  702 at Thu May 15 15:46:48 2025, MaxMem=   536870912 cpu:               0.2 elap:               0.0
 (Enter /home/szhao/Apps/g16/l703.exe)
 Integral derivatives from FoFJK, PRISM(SPDF).
 Compute integral first derivatives, UseDBF=F ICtDFT=           0.
 Calling FoFJK, ICntrl=      2127 FMM=F ISym2X=0 I1Cent= 0 IOpClX= 1 NMat=1 NMatS=1 NMatT=0.
 FoFJK:  IHMeth= 1 ICntrl=    2127 DoSepK=F KAlg= 0 I1Cent=           0 FoldK=F
 IRaf=         0 NMat=       1 IRICut=       1 DoRegI=T DoRafI=F ISym2E= 0 IDoP0=0 IntGTp=1.
 FoFCou: FMM=F IPFlag=           0 FMFlag=      100000 FMFlg1=         800
         NFxFlg=           0 DoJE=F BraDBF=F KetDBF=F FulRan=T
         wScrn=  0.000000 ICntrl=      2127 IOpCl=  1 I1Cent=           0 NGrid=           0
         NMat0=    1 NMatS0=      1 NMatT0=    0 NMatD0=    1 NMtDS0=    0 NMtDT0=    0
 Symmetry not used in FoFCou.
 Leave Link  703 at Thu May 15 15:46:48 2025, MaxMem=   536870912 cpu:               3.4 elap:               0.4
 (Enter /home/szhao/Apps/g16/l716.exe)
 Dipole        =-4.47158754D-10-4.59225769D-10 1.17966817D-12
 -------------------------------------------------------------------
 Center     Atomic                   Forces (Hartrees/Bohr)
 Number     Number              X              Y              Z
 -------------------------------------------------------------------
      1        7          -0.000000000   -0.000000000   -0.000000000
      2        7          -0.000000000   -0.000000000   -0.000000000
      3        1           0.003266623   -0.000964319    0.000000000
      4        1          -0.003266623    0.000964320   -0.000000000
 -------------------------------------------------------------------
 Cartesian Forces:  Max     0.003266623 RMS     0.001390488
 Leave Link  716 at Thu May 15 15:46:48 2025, MaxMem=   536870912 cpu:               0.2 elap:               0.0
 (Enter /home/szhao/Apps/g16/l103.exe)

 GradGradGradGradGradGradGradGradGradGradGradGradGradGradGradGradGradGrad
 Berny optimization.
 Using GEDIIS/GDIIS optimizer.
 FormGI is forming the generalized inverse of G from B-inverse, IUseBI=4.
 Internal  Forces:  Max     0.006684699 RMS     0.003381419
 Search for a local minimum.
 Step number   2 out of a maximum of   21
 All quantities printed in internal units (Hartrees-Bohrs-Radians)
 RMS Force = .42285D-02 SwitMx=.10000D-02 MixMth= 1
 Mixed Optimization -- RFO/linear search
 Update second derivatives using D2CorX and points    1    2
 DE= -6.80D-04 DEPred=-3.84D-04 R= 1.77D+00
 TightC=F SS=  1.41D+00  RLast= 6.51D-02 DXNew= 5.0454D-01 1.9544D-01
 Trust test= 1.77D+00 RLast= 6.51D-02 DXMaxT set to 3.00D-01
 The second derivative matrix:
                          X1        Y1        Z1        X2        Y2
           X1           0.51021
           Y1           0.04112   0.66557
           Z1          -0.00000  -0.00000   0.50000
           X2          -0.01021  -0.04112   0.00000   0.51021
           Y2          -0.04112  -0.16557   0.00000   0.04112   0.66557
           Z2          -0.00000  -0.00000   0.00000   0.00000   0.00000
           R1          -0.04026  -0.16207   0.00000   0.04026   0.16207
           R2          -0.04026  -0.16207   0.00000   0.04026   0.16207
           A1           0.00347   0.01397  -0.00000  -0.00347  -0.01397
           A2           0.00347   0.01397  -0.00000  -0.00347  -0.01397
           D1          -0.00000  -0.00000   0.00000   0.00000   0.00000
                          Z2        R1        R2        A1        A2
           Z2           0.50000
           R1           0.00000   0.54581
           R2           0.00000   0.12204   0.54581
           A1          -0.00000   0.03555   0.03555   0.09501
           A2          -0.00000   0.03555   0.03555  -0.06499   0.09501
           D1           0.00000   0.00000   0.00000  -0.00000  -0.00000
                          D1
           D1           0.00230
 ITU=  1  0
 Use linear search instead of GDIIS.
     Eigenvalues ---    0.00230   0.02218   0.16000   0.42378   0.67568
     Eigenvalues --- 1000.000001000.000001000.000001000.000001000.00000
     Eigenvalues --- 1000.00000
 RFO step:  Lambda=-6.77330838D-04 EMin= 2.30000000D-03
 Quartic linear search produced a step of  2.00000.
 Iteration  1 RMS(Cart)=  0.14013021 RMS(Int)=  0.01174593
 Iteration  2 RMS(Cart)=  0.01293230 RMS(Int)=  0.00004757
 Iteration  3 RMS(Cart)=  0.00008561 RMS(Int)=  0.00000000
 Iteration  4 RMS(Cart)=  0.00000000 RMS(Int)=  0.00000000
 ITry= 1 IFail=0 DXMaxC= 3.30D-01 DCOld= 1.00D+10 DXMaxT= 3.00D-01 DXLimC= 3.00D+00 Rises=F
 Variable       Old X    -DE/DX   Delta X   Delta X   Delta X     New X
                                 (Linear)    (Quad)   (Total)
    X1       -3.76136   0.00327   0.00000   0.00000   0.00000  -3.76136
    Y1        0.00000  -0.00274   0.00000   0.00000   0.00000   0.00000
    Z1        0.00000  -0.00000   0.00000   0.00000   0.00000   0.00000
    X2        3.76136  -0.00327   0.00000   0.00000   0.00000   3.76136
    Y2        0.00000   0.00274   0.00000   0.00000   0.00000   0.00000
    Z2        0.00000  -0.00000   0.00000   0.00000   0.00000   0.00000
    R1        1.96391   0.00012   0.02491  -0.00761   0.01731   1.98121
    R2        1.96391   0.00012   0.02491  -0.00761   0.01731   1.98121
    A1        1.82185  -0.00668  -0.08870  -0.08279  -0.17149   1.65036
    A2        1.82185  -0.00668  -0.08870  -0.08279  -0.17149   1.65036
    D1        3.14159  -0.00000   0.00000  -0.00000   0.00000   3.14159
         Item               Value     Threshold  Converged?
 Maximum Force            0.006685     0.000450     NO 
 RMS     Force            0.004228     0.000300     NO 
 Maximum Displacement     0.330417     0.001800     NO 
 RMS     Displacement     0.144252     0.001200     NO 
 Predicted change in Energy=-1.636401D-03
 Lowest energy point so far.  Saving SCF results.
 GradGradGradGradGradGradGradGradGradGradGradGradGradGradGradGradGradGrad

 Leave Link  103 at Thu May 15 15:46:48 2025, MaxMem=   536870912 cpu:               0.2 elap:               0.0
 (Enter /home/szhao/Apps/g16/l202.exe)
                          Input orientation:                          
 ---------------------------------------------------------------------
 Center     Atomic      Atomic             Coordinates (Angstroms)
 Number     Number       Type             X           Y           Z
 ---------------------------------------------------------------------
      1          7           0       -1.990428    0.000000    0.000000
      2          7           0        1.990428    0.000000    0.000000
      3          1           0       -2.073753   -1.045096   -0.000000
      4          1           0        2.073753    1.045096   -0.000000
 ---------------------------------------------------------------------
                    Distance matrix (angstroms):
                    1          2          3          4
     1  N    0.000000
     2  N    3.980856   0.000000
     3  H    1.048413   4.196402   0.000000
     4  H    4.196402   1.048413   4.644427   0.000000
 Symmetry turned off by external request.
 Stoichiometry    H2N2
 Framework group  C2H[SGH(H2N2)]
 Deg. of freedom     3
 Full point group                 C2H     NOp   4
 Rotational constants (GHZ):         247.8259755           4.2190382           4.1484148
 Leave Link  202 at Thu May 15 15:46:48 2025, MaxMem=   536870912 cpu:               0.0 elap:               0.0
 (Enter /home/szhao/Apps/g16/l301.exe)
 Standard basis: 6-311+G(d,p) (5D, 7F)
 Ernie: Thresh=  0.10000D-02 Tol=  0.10000D-05 Strict=F.
    56 basis functions,    88 primitive gaussians,    58 cartesian basis functions
     8 alpha electrons        8 beta electrons
       nuclear repulsion energy        15.4593474047 Hartrees.
 IExCor= 4336 DFT=T Ex+Corr=M062X ExCW=0 ScaHFX=  0.540000
 ScaDFX=  1.000000  1.000000  1.000000  1.000000 ScalE2=  1.000000  1.000000
 IRadAn=      7 IRanWt=     -1 IRanGd=            0 ICorTp=0 IEmpDi=  4
 NAtoms=    4 NActive=    4 NUniq=    4 SFac= 1.00D+00 NAtFMM=   60 NAOKFM=F Big=F
 Integral buffers will be    131072 words long.
 Raffenetti 2 integral format.
 Two-electron integral symmetry is turned off.
 Leave Link  301 at Thu May 15 15:46:48 2025, MaxMem=   536870912 cpu:               0.2 elap:               0.0
 (Enter /home/szhao/Apps/g16/l302.exe)
 NPDir=0 NMtPBC=     1 NCelOv=     1 NCel=       1 NClECP=     1 NCelD=      1
         NCelK=      1 NCelE2=     1 NClLst=     1 CellRange=     0.0.
 One-electron integrals computed using PRISM.
 NBasis=    56 RedAO= T EigKep=  9.17D-03  NBF=    56
 NBsUse=    56 1.00D-06 EigRej= -1.00D+00 NBFU=    56
 Precomputing XC quadrature grid using
 IXCGrd= 4 IRadAn=           7 IRanWt=          -1 IRanGd=           0 AccXCQ= 0.00D+00.
 Generated NRdTot=       0 NPtTot=           0 NUsed=           0 NTot=          32
 NSgBfM=    58    58    58    58    58 MxSgAt=     4 MxSgA2=     4.
 Leave Link  302 at Thu May 15 15:46:48 2025, MaxMem=   536870912 cpu:               0.8 elap:               0.1
 (Enter /home/szhao/Apps/g16/l303.exe)
 DipDrv:  MaxL=1.
 Leave Link  303 at Thu May 15 15:46:48 2025, MaxMem=   536870912 cpu:               0.3 elap:               0.0
 (Enter /home/szhao/Apps/g16/l401.exe)
 Initial guess from the checkpoint file:  "opt.chk"
 B after Tr=     0.000000    0.000000   -0.000000
         Rot=    0.999992    0.000000    0.000000   -0.003923 Ang=  -0.45 deg.
 Guess basis will be translated and rotated to current coordinates.
 JPrj=2 DoOrth=T DoCkMO=T.
 Initial guess <Sx>= 0.0000 <Sy>= 0.0000 <Sz>= 0.0000 <S**2>=-0.0000 S=-0.0000
 Generating alternative initial guess.
 ExpMin= 6.39D-02 ExpMax= 6.29D+03 ExpMxC= 9.49D+02 IAcc=3 IRadAn=         5 AccDes= 0.00D+00
 Harris functional with IExCor= 1009 and IRadAn=       5 diagonalized for initial guess.
 HarFok:  IExCor= 1009 AccDes= 0.00D+00 IRadAn=         5 IDoV= 1 UseB2=F ITyADJ=14
 ICtDFT=  3500011 ScaDFX=  1.000000  1.000000  1.000000  1.000000
 FoFCou: FMM=F IPFlag=           0 FMFlag=      100000 FMFlg1=           0
         NFxFlg=           0 DoJE=T BraDBF=F KetDBF=T FulRan=T
         wScrn=  0.000000 ICntrl=       500 IOpCl=  0 I1Cent=   200000004 NGrid=           0
         NMat0=    1 NMatS0=      1 NMatT0=    0 NMatD0=    1 NMtDS0=    0 NMtDT0=    0
 Symmetry not used in FoFCou.
 Harris En= -110.203299030160    
 Leave Link  401 at Thu May 15 15:46:49 2025, MaxMem=   536870912 cpu:               1.2 elap:               0.2
 (Enter /home/szhao/Apps/g16/l502.exe)
 Keep R1 and R2 ints in memory in canonical form, NReq=9624198.
 FoFCou: FMM=F IPFlag=           0 FMFlag=           0 FMFlg1=           0
         NFxFlg=           0 DoJE=F BraDBF=F KetDBF=F FulRan=T
         wScrn=  0.000000 ICntrl=       600 IOpCl=  0 I1Cent=           0 NGrid=           0
         NMat0=    1 NMatS0=   1596 NMatT0=    0 NMatD0=    1 NMtDS0=    0 NMtDT0=    0
 Symmetry not used in FoFCou.
 Two-electron integral symmetry not used.
 UHF open shell SCF:
 Using DIIS extrapolation, IDIIS=  1040.
 NGot=   536870912 LenX=   534314338 LenY=   534310533
 Requested convergence on RMS density matrix=1.00D-08 within 128 cycles.
 Requested convergence on MAX density matrix=1.00D-06.
 Requested convergence on             energy=1.00D-06.
 No special actions if energy rises.
 Integral accuracy reduced to 1.0D-05 until final iterations.

 Cycle   1  Pass 0  IDiag  1:
 E= -110.145355632709    
 DIIS: error= 9.47D-03 at cycle   1 NSaved=   1.
 NSaved= 1 IEnMin= 1 EnMin= -110.145355632709     IErMin= 1 ErrMin= 9.47D-03
 ErrMax= 9.47D-03  0.00D+00 EMaxC= 1.00D-01 BMatC= 1.28D-02 BMatP= 1.28D-02
 IDIUse=3 WtCom= 9.05D-01 WtEn= 9.47D-02
 Coeff-Com:  0.100D+01
 Coeff-En:   0.100D+01
 Coeff:      0.100D+01
 Gap=     0.514 Goal=   None    Shift=    0.000
 Gap=     0.514 Goal=   None    Shift=    0.000
 GapD=    0.514 DampG=2.000 DampE=1.000 DampFc=2.0000 IDamp=-1.
 RMSDP=1.24D-03 MaxDP=1.24D-02              OVMax= 5.22D-02

 Cycle   2  Pass 0  IDiag  1:
 E= -110.152225620197     Delta-E=       -0.006869987488 Rises=F Damp=F
 DIIS: error= 2.87D-03 at cycle   2 NSaved=   2.
 NSaved= 2 IEnMin= 2 EnMin= -110.152225620197     IErMin= 2 ErrMin= 2.87D-03
 ErrMax= 2.87D-03  0.00D+00 EMaxC= 1.00D-01 BMatC= 6.93D-04 BMatP= 1.28D-02
 IDIUse=3 WtCom= 9.71D-01 WtEn= 2.87D-02
 Coeff-Com: -0.167D+00 0.117D+01
 Coeff-En:   0.000D+00 0.100D+01
 Coeff:     -0.162D+00 0.116D+01
 Gap=     0.072 Goal=   None    Shift=    0.000
 Gap=     0.072 Goal=   None    Shift=    0.000
 RMSDP=4.60D-04 MaxDP=4.50D-03 DE=-6.87D-03 OVMax= 3.04D-02

 Cycle   3  Pass 0  IDiag  1:
 E= -110.153101353763     Delta-E=       -0.000875733566 Rises=F Damp=F
 DIIS: error= 1.04D-03 at cycle   3 NSaved=   3.
 NSaved= 3 IEnMin= 3 EnMin= -110.153101353763     IErMin= 3 ErrMin= 1.04D-03
 ErrMax= 1.04D-03  0.00D+00 EMaxC= 1.00D-01 BMatC= 1.10D-04 BMatP= 6.93D-04
 IDIUse=3 WtCom= 9.90D-01 WtEn= 1.04D-02
 Coeff-Com: -0.396D-01 0.888D-01 0.951D+00
 Coeff-En:   0.000D+00 0.000D+00 0.100D+01
 Coeff:     -0.392D-01 0.879D-01 0.951D+00
 Gap=     0.072 Goal=   None    Shift=    0.000
 Gap=     0.072 Goal=   None    Shift=    0.000
 RMSDP=1.65D-04 MaxDP=1.21D-03 DE=-8.76D-04 OVMax= 1.18D-02

 Cycle   4  Pass 0  IDiag  1:
 E= -110.153227314495     Delta-E=       -0.000125960732 Rises=F Damp=F
 DIIS: error= 4.71D-04 at cycle   4 NSaved=   4.
 NSaved= 4 IEnMin= 4 EnMin= -110.153227314495     IErMin= 4 ErrMin= 4.71D-04
 ErrMax= 4.71D-04  0.00D+00 EMaxC= 1.00D-01 BMatC= 4.69D-05 BMatP= 1.10D-04
 IDIUse=3 WtCom= 9.95D-01 WtEn= 4.71D-03
 Coeff-Com:  0.356D-01-0.338D+00 0.357D+00 0.946D+00
 Coeff-En:   0.000D+00 0.000D+00 0.000D+00 0.100D+01
 Coeff:      0.354D-01-0.336D+00 0.355D+00 0.946D+00
 Gap=     0.072 Goal=   None    Shift=    0.000
 Gap=     0.072 Goal=   None    Shift=    0.000
 RMSDP=1.19D-04 MaxDP=8.35D-04 DE=-1.26D-04 OVMax= 8.92D-03

 Cycle   5  Pass 0  IDiag  1:
 E= -110.153269949169     Delta-E=       -0.000042634673 Rises=F Damp=F
 DIIS: error= 8.71D-05 at cycle   5 NSaved=   5.
 NSaved= 5 IEnMin= 5 EnMin= -110.153269949169     IErMin= 5 ErrMin= 8.71D-05
 ErrMax= 8.71D-05  0.00D+00 EMaxC= 1.00D-01 BMatC= 1.59D-06 BMatP= 4.69D-05
 IDIUse=1 WtCom= 1.00D+00 WtEn= 0.00D+00
 Coeff-Com:  0.420D-02-0.174D-01-0.889D-01-0.265D-02 0.110D+01
 Coeff:      0.420D-02-0.174D-01-0.889D-01-0.265D-02 0.110D+01
 Gap=     0.072 Goal=   None    Shift=    0.000
 Gap=     0.072 Goal=   None    Shift=    0.000
 RMSDP=3.47D-05 MaxDP=2.41D-04 DE=-4.26D-05 OVMax= 2.03D-03

 Cycle   6  Pass 0  IDiag  1:
 E= -110.153271378462     Delta-E=       -0.000001429293 Rises=F Damp=F
 DIIS: error= 1.46D-04 at cycle   6 NSaved=   6.
 NSaved= 6 IEnMin= 6 EnMin= -110.153271378462     IErMin= 5 ErrMin= 8.71D-05
 ErrMax= 1.46D-04  0.00D+00 EMaxC= 1.00D-01 BMatC= 1.30D-06 BMatP= 1.59D-06
 IDIUse=1 WtCom= 1.00D+00 WtEn= 0.00D+00
 Coeff-Com:  0.123D-02 0.302D-02-0.664D-01-0.337D-01 0.711D+00 0.385D+00
 Coeff:      0.123D-02 0.302D-02-0.664D-01-0.337D-01 0.711D+00 0.385D+00
 Gap=     0.072 Goal=   None    Shift=    0.000
 Gap=     0.072 Goal=   None    Shift=    0.000
 RMSDP=2.64D-05 MaxDP=3.29D-04 DE=-1.43D-06 OVMax= 1.72D-03

 Cycle   7  Pass 0  IDiag  1:
 E= -110.153258954455     Delta-E=        0.000012424007 Rises=F Damp=F
 DIIS: error= 9.97D-04 at cycle   7 NSaved=   7.
 NSaved= 7 IEnMin= 6 EnMin= -110.153271378462     IErMin= 5 ErrMin= 8.71D-05
 ErrMax= 9.97D-04  0.00D+00 EMaxC= 1.00D-01 BMatC= 5.68D-05 BMatP= 1.30D-06
 IDIUse=1 WtCom= 1.00D+00 WtEn= 0.00D+00
 Coeff-Com: -0.221D-02 0.252D-01-0.318D-01-0.622D-01 0.183D+00 0.776D+00
 Coeff-Com:  0.113D+00
 Coeff:     -0.221D-02 0.252D-01-0.318D-01-0.622D-01 0.183D+00 0.776D+00
 Coeff:      0.113D+00
 Gap=     0.072 Goal=   None    Shift=    0.000
 Gap=     0.072 Goal=   None    Shift=    0.000
 RMSDP=2.31D-05 MaxDP=2.88D-04 DE= 1.24D-05 OVMax= 1.51D-03

 Cycle   8  Pass 0  IDiag  1:
 E= -110.153271683719     Delta-E=       -0.000012729265 Rises=F Damp=F
 DIIS: error= 1.92D-06 at cycle   8 NSaved=   8.
 NSaved= 8 IEnMin= 8 EnMin= -110.153271683719     IErMin= 8 ErrMin= 1.92D-06
 ErrMax= 1.92D-06  0.00D+00 EMaxC= 1.00D-01 BMatC= 5.36D-10 BMatP= 1.30D-06
 IDIUse=1 WtCom= 1.00D+00 WtEn= 0.00D+00
 Coeff-Com:  0.167D-03-0.212D-02 0.274D-02 0.391D-02-0.247D-01-0.984D-01
 Coeff-Com: -0.131D-01 0.113D+01
 Coeff:      0.167D-03-0.212D-02 0.274D-02 0.391D-02-0.247D-01-0.984D-01
 Coeff:     -0.131D-01 0.113D+01
 Gap=     0.072 Goal=   None    Shift=    0.000
 Gap=     0.072 Goal=   None    Shift=    0.000
 RMSDP=1.07D-06 MaxDP=1.10D-05 DE=-1.27D-05 OVMax= 2.82D-05

 Initial convergence to 1.0D-05 achieved.  Increase integral accuracy.
 Cycle   9  Pass 1  IDiag  1:
 E= -110.153270450000     Delta-E=        0.000001233719 Rises=F Damp=F
 DIIS: error= 2.15D-06 at cycle   1 NSaved=   1.
 NSaved= 1 IEnMin= 1 EnMin= -110.153270450000     IErMin= 1 ErrMin= 2.15D-06
 ErrMax= 2.15D-06  0.00D+00 EMaxC= 1.00D-01 BMatC= 7.00D-10 BMatP= 7.00D-10
 IDIUse=1 WtCom= 1.00D+00 WtEn= 0.00D+00
 Coeff-Com:  0.100D+01
 Coeff:      0.100D+01
 Gap=     0.072 Goal=   None    Shift=    0.000
 Gap=     0.072 Goal=   None    Shift=    0.000
 RMSDP=1.07D-06 MaxDP=1.10D-05 DE= 1.23D-06 OVMax= 2.14D-05

 Cycle  10  Pass 1  IDiag  1:
 E= -110.153270450620     Delta-E=       -0.000000000620 Rises=F Damp=F
 DIIS: error= 1.08D-06 at cycle   2 NSaved=   2.
 NSaved= 2 IEnMin= 2 EnMin= -110.153270450620     IErMin= 2 ErrMin= 1.08D-06
 ErrMax= 1.08D-06  0.00D+00 EMaxC= 1.00D-01 BMatC= 1.34D-10 BMatP= 7.00D-10
 IDIUse=1 WtCom= 1.00D+00 WtEn= 0.00D+00
 Coeff-Com:  0.860D-01 0.914D+00
 Coeff:      0.860D-01 0.914D+00
 Gap=     0.072 Goal=   None    Shift=    0.000
 Gap=     0.072 Goal=   None    Shift=    0.000
 RMSDP=4.82D-07 MaxDP=5.08D-06 DE=-6.20D-10 OVMax= 2.84D-05

 Cycle  11  Pass 1  IDiag  1:
 E= -110.153270451496     Delta-E=       -0.000000000876 Rises=F Damp=F
 DIIS: error= 2.36D-06 at cycle   3 NSaved=   3.
 NSaved= 3 IEnMin= 3 EnMin= -110.153270451496     IErMin= 2 ErrMin= 1.08D-06
 ErrMax= 2.36D-06  0.00D+00 EMaxC= 1.00D-01 BMatC= 3.55D-10 BMatP= 1.34D-10
 IDIUse=1 WtCom= 1.00D+00 WtEn= 0.00D+00
 Coeff-Com:  0.802D-01 0.848D+00 0.720D-01
 Coeff:      0.802D-01 0.848D+00 0.720D-01
 Gap=     0.072 Goal=   None    Shift=    0.000
 Gap=     0.072 Goal=   None    Shift=    0.000
 RMSDP=8.05D-08 MaxDP=8.71D-07 DE=-8.76D-10 OVMax= 4.99D-06

 Cycle  12  Pass 1  IDiag  1:
 E= -110.153270451713     Delta-E=       -0.000000000217 Rises=F Damp=F
 DIIS: error= 2.58D-06 at cycle   4 NSaved=   4.
 NSaved= 4 IEnMin= 4 EnMin= -110.153270451713     IErMin= 2 ErrMin= 1.08D-06
 ErrMax= 2.58D-06  0.00D+00 EMaxC= 1.00D-01 BMatC= 3.91D-10 BMatP= 1.34D-10
 IDIUse=1 WtCom= 1.00D+00 WtEn= 0.00D+00
 Coeff-Com:  0.741D-01 0.887D+00 0.363D+00-0.324D+00
 Coeff:      0.741D-01 0.887D+00 0.363D+00-0.324D+00
 Gap=     0.072 Goal=   None    Shift=    0.000
 Gap=     0.072 Goal=   None    Shift=    0.000
 RMSDP=1.52D-07 MaxDP=1.55D-06 DE=-2.17D-10 OVMax= 9.69D-06

 Cycle  13  Pass 1  IDiag  1:
 E= -110.153270451059     Delta-E=        0.000000000654 Rises=F Damp=F
 DIIS: error= 5.68D-06 at cycle   5 NSaved=   5.
 NSaved= 5 IEnMin= 4 EnMin= -110.153270451713     IErMin= 2 ErrMin= 1.08D-06
 ErrMax= 5.68D-06  0.00D+00 EMaxC= 1.00D-01 BMatC= 2.17D-09 BMatP= 1.34D-10
 IDIUse=1 WtCom= 1.00D+00 WtEn= 0.00D+00
 Coeff-Com: -0.100D+00 0.741D+00 0.627D+01-0.697D+01 0.105D+01
 Coeff:     -0.100D+00 0.741D+00 0.627D+01-0.697D+01 0.105D+01
 Gap=     0.072 Goal=   None    Shift=    0.000
 Gap=     0.072 Goal=   None    Shift=    0.000
 RMSDP=8.02D-07 MaxDP=8.88D-06 DE= 6.54D-10 OVMax= 5.00D-05

 Cycle  14  Pass 1  IDiag  1:
 E= -110.153270450425     Delta-E=        0.000000000635 Rises=F Damp=F
 DIIS: error= 9.44D-08 at cycle   6 NSaved=   6.
 NSaved= 6 IEnMin= 4 EnMin= -110.153270451713     IErMin= 6 ErrMin= 9.44D-08
 ErrMax= 9.44D-08  0.00D+00 EMaxC= 1.00D-01 BMatC= 1.16D-12 BMatP= 1.34D-10
 IDIUse=1 WtCom= 1.00D+00 WtEn= 0.00D+00
 Coeff-Com: -0.691D-02-0.423D-01 0.282D+00-0.325D+00 0.537D-01 0.104D+01
 Coeff:     -0.691D-02-0.423D-01 0.282D+00-0.325D+00 0.537D-01 0.104D+01
 Gap=     0.072 Goal=   None    Shift=    0.000
 Gap=     0.072 Goal=   None    Shift=    0.000
 RMSDP=3.77D-08 MaxDP=3.70D-07 DE= 6.35D-10 OVMax= 2.12D-06

 Cycle  15  Pass 1  IDiag  1:
 E= -110.153270450423     Delta-E=        0.000000000001 Rises=F Damp=F
 DIIS: error= 2.24D-08 at cycle   7 NSaved=   7.
 NSaved= 7 IEnMin= 4 EnMin= -110.153270451713     IErMin= 7 ErrMin= 2.24D-08
 ErrMax= 2.24D-08  0.00D+00 EMaxC= 1.00D-01 BMatC= 6.59D-14 BMatP= 1.16D-12
 IDIUse=1 WtCom= 1.00D+00 WtEn= 0.00D+00
 Coeff-Com:  0.352D-02-0.462D-01-0.210D+00 0.234D+00-0.341D-01 0.223D+00
 Coeff-Com:  0.831D+00
 Coeff:      0.352D-02-0.462D-01-0.210D+00 0.234D+00-0.341D-01 0.223D+00
 Coeff:      0.831D+00
 Gap=     0.072 Goal=   None    Shift=    0.000
 Gap=     0.072 Goal=   None    Shift=    0.000
 RMSDP=2.83D-09 MaxDP=2.17D-08 DE= 1.22D-12 OVMax= 1.06D-07

 SCF Done:  E(UM062X) =  -110.153270450     A.U. after   15 cycles
            NFock= 15  Conv=0.28D-08     -V/T= 2.0043
 <Sx>= 0.0000 <Sy>= 0.0000 <Sz>= 0.0000 <S**2>=-0.0000 S=-0.0000
 <L.S>=  0.00000000000    
 KE= 1.096862728188D+02 PE=-2.890029213599D+02 EE= 5.370403068597D+01
 Annihilation of the first spin contaminant:
 S**2 before annihilation    -0.0000,   after    -0.0000
 Leave Link  502 at Thu May 15 15:46:51 2025, MaxMem=   536870912 cpu:              18.2 elap:               2.3
 (Enter /home/szhao/Apps/g16/l701.exe)
 ... and contract with generalized density number  0.
 Compute integral first derivatives.
 Leave Link  701 at Thu May 15 15:46:51 2025, MaxMem=   536870912 cpu:               0.6 elap:               0.1
 (Enter /home/szhao/Apps/g16/l702.exe)
 L702 exits ... SP integral derivatives will be done elsewhere.
 Leave Link  702 at Thu May 15 15:46:51 2025, MaxMem=   536870912 cpu:               0.2 elap:               0.0
 (Enter /home/szhao/Apps/g16/l703.exe)
 Integral derivatives from FoFJK, PRISM(SPDF).
 Compute integral first derivatives, UseDBF=F ICtDFT=           0.
 Calling FoFJK, ICntrl=      2127 FMM=F ISym2X=0 I1Cent= 0 IOpClX= 1 NMat=1 NMatS=1 NMatT=0.
 FoFJK:  IHMeth= 1 ICntrl=    2127 DoSepK=F KAlg= 0 I1Cent=           0 FoldK=F
 IRaf=         0 NMat=       1 IRICut=       1 DoRegI=T DoRafI=F ISym2E= 0 IDoP0=0 IntGTp=1.
 FoFCou: FMM=F IPFlag=           0 FMFlag=      100000 FMFlg1=         800
         NFxFlg=           0 DoJE=F BraDBF=F KetDBF=F FulRan=T
         wScrn=  0.000000 ICntrl=      2127 IOpCl=  1 I1Cent=           0 NGrid=           0
         NMat0=    1 NMatS0=      1 NMatT0=    0 NMatD0=    1 NMtDS0=    0 NMtDT0=    0
 Symmetry not used in FoFCou.
 Leave Link  703 at Thu May 15 15:46:52 2025, MaxMem=   536870912 cpu:               3.3 elap:               0.4
 (Enter /home/szhao/Apps/g16/l716.exe)
 Dipole        = 1.16564358D-08-2.87756929D-10-1.80101073D-09
 -------------------------------------------------------------------
 Center     Atomic                   Forces (Hartrees/Bohr)
 Number     Number              X              Y              Z
 -------------------------------------------------------------------
      1        7          -0.000000000   -0.000000000   -0.000000000
      2        7          -0.000000000   -0.000000000   -0.000000000
      3        1           0.002875565    0.006566328    0.000000000
      4        1          -0.002875565   -0.006566328    0.000000000
 -------------------------------------------------------------------
 Cartesian Forces:  Max     0.006566328 RMS     0.002926475
 Leave Link  716 at Thu May 15 15:46:52 2025, MaxMem=   536870912 cpu:               0.2 elap:               0.0
 (Enter /home/szhao/Apps/g16/l103.exe)

 GradGradGradGradGradGradGradGradGradGradGradGradGradGradGradGradGradGrad
 Berny optimization.
 Using GEDIIS/GDIIS optimizer.
 FormGI is forming the generalized inverse of G from B-inverse, IUseBI=4.
 Internal  Forces:  Max     0.006774098 RMS     0.004351763
 Search for a local minimum.
 Step number   3 out of a maximum of   21
 All quantities printed in internal units (Hartrees-Bohrs-Radians)
 RMS Force = .51948D-02 SwitMx=.10000D-02 MixMth= 1
 Mixed Optimization -- RFO/linear search
 Update second derivatives using D2CorX and points    1    2    3
 DE= -1.84D-03 DEPred=-1.64D-03 R= 1.12D+00
 TightC=F SS=  1.41D+00  RLast= 2.44D-01 DXNew= 5.0454D-01 7.3127D-01
 Trust test= 1.12D+00 RLast= 2.44D-01 DXMaxT set to 5.05D-01
 The second derivative matrix:
                          X1        Y1        Z1        X2        Y2
           X1           0.50374
           Y1           0.01423   0.65598
           Z1          -0.00000   0.00000   0.50000
           X2          -0.00374  -0.01423   0.00000   0.50374
           Y2          -0.01423  -0.15598  -0.00000   0.01423   0.65598
           Z2          -0.00000   0.00000   0.00000   0.00000  -0.00000
           R1          -0.03423  -0.24184  -0.00000   0.03423   0.24184
           R2          -0.03423  -0.24184  -0.00000   0.03423   0.24184
           A1          -0.00460  -0.00087   0.00000   0.00460   0.00087
           A2          -0.00460  -0.00087   0.00000   0.00460   0.00087
           D1          -0.00000   0.00000   0.00000   0.00000  -0.00000
                          Z2        R1        R2        A1        A2
           Z2           0.50000
           R1          -0.00000   0.64753
           R2          -0.00000   0.22375   0.64753
           A1           0.00000   0.02386   0.02386   0.08835
           A2           0.00000   0.02386   0.02386  -0.07165   0.08835
           D1           0.00000  -0.00000  -0.00000   0.00000   0.00000
                          D1
           D1           0.00230
 ITU=  1  1  0
 Use linear search instead of GDIIS.
     Eigenvalues ---    0.00230   0.01405   0.16000   0.42378   0.87393
     Eigenvalues --- 1000.000001000.000001000.000001000.000001000.00000
     Eigenvalues --- 1000.00000
 RFO step:  Lambda=-6.23144478D-04 EMin= 2.30000000D-03
 Quartic linear search produced a step of  1.26179.
 Iteration  1 RMS(Cart)=  0.16421509 RMS(Int)=  0.03514269
 Iteration  2 RMS(Cart)=  0.06558206 RMS(Int)=  0.00244499
 Iteration  3 RMS(Cart)=  0.00260522 RMS(Int)=  0.00000160
 Iteration  4 RMS(Cart)=  0.00000299 RMS(Int)=  0.00000000
 Iteration  5 RMS(Cart)=  0.00000000 RMS(Int)=  0.00000000
 ITry= 1 IFail=0 DXMaxC= 5.24D-01 DCOld= 1.00D+10 DXMaxT= 5.05D-01 DXLimC= 3.00D+00 Rises=F
 Variable       Old X    -DE/DX   Delta X   Delta X   Delta X     New X
                                 (Linear)    (Quad)   (Total)
    X1       -3.76136   0.00288   0.00000   0.00000   0.00000  -3.76136
    Y1        0.00000   0.00533   0.00000   0.00000   0.00000   0.00000
    Z1        0.00000   0.00000   0.00000   0.00000   0.00000   0.00000
    X2        3.76136  -0.00288   0.00000   0.00000   0.00000   3.76136
    Y2        0.00000  -0.00533   0.00000   0.00000   0.00000   0.00000
    Z2        0.00000   0.00000   0.00000   0.00000   0.00000   0.00000
    R1        1.98121  -0.00677   0.02184  -0.01514   0.00670   1.98791
    R2        1.98121  -0.00677   0.02184  -0.01514   0.00670   1.98791
    A1        1.65036  -0.00465  -0.21639  -0.04873  -0.26511   1.38524
    A2        1.65036  -0.00465  -0.21639  -0.04873  -0.26511   1.38524
    D1        3.14159   0.00000   0.00000   0.00000   0.00000  -3.14159
         Item               Value     Threshold  Converged?
 Maximum Force            0.006774     0.000450     NO 
 RMS     Force            0.005195     0.000300     NO 
 Maximum Displacement     0.524209     0.001800     NO 
 RMS     Displacement     0.223706     0.001200     NO 
 Predicted change in Energy=-1.328210D-03
 Lowest energy point so far.  Saving SCF results.
 GradGradGradGradGradGradGradGradGradGradGradGradGradGradGradGradGradGrad

 Leave Link  103 at Thu May 15 15:46:52 2025, MaxMem=   536870912 cpu:               0.0 elap:               0.0
 (Enter /home/szhao/Apps/g16/l202.exe)
                          Input orientation:                          
 ---------------------------------------------------------------------
 Center     Atomic      Atomic             Coordinates (Angstroms)
 Number     Number       Type             X           Y           Z
 ---------------------------------------------------------------------
      1          7           0       -1.990428    0.000000    0.000000
      2          7           0        1.990428    0.000000    0.000000
      3          1           0       -1.796353   -1.033900    0.000000
      4          1           0        1.796353    1.033900    0.000000
 ---------------------------------------------------------------------
                    Distance matrix (angstroms):
                    1          2          3          4
     1  N    0.000000
     2  N    3.980856   0.000000
     3  H    1.051957   3.925386   0.000000
     4  H    3.925386   1.051957   4.145278   0.000000
 Symmetry turned off by external request.
 Stoichiometry    H2N2
 Framework group  C2H[SGH(H2N2)]
[...]
 Gap=     0.348 Goal=   None    Shift=    0.000
 RMSDP=1.01D-08 MaxDP=1.26D-07 DE=-1.62D-11 OVMax= 5.00D-07

 Cycle   9  Pass 1  IDiag  1:
 E= -110.428081264628     Delta-E=       -0.000000000000 Rises=F Damp=F
 DIIS: error= 3.75D-09 at cycle   9 NSaved=   9.
 NSaved= 9 IEnMin= 9 EnMin= -110.428081264628     IErMin= 9 ErrMin= 3.75D-09
 ErrMax= 3.75D-09  0.00D+00 EMaxC= 1.00D-01 BMatC= 5.27D-15 BMatP= 8.29D-14
 IDIUse=1 WtCom= 1.00D+00 WtEn= 0.00D+00
 Coeff-Com: -0.542D-04 0.529D-03-0.814D-03-0.141D-02 0.217D-02 0.353D-02
 Coeff-Com: -0.264D-01-0.752D-01 0.110D+01
 Coeff:     -0.542D-04 0.529D-03-0.814D-03-0.141D-02 0.217D-02 0.353D-02
 Coeff:     -0.264D-01-0.752D-01 0.110D+01
 Gap=     0.348 Goal=   None    Shift=    0.000
 Gap=     0.348 Goal=   None    Shift=    0.000
 RMSDP=1.49D-09 MaxDP=2.31D-08 DE=-4.26D-14 OVMax= 5.08D-08

 SCF Done:  E(UM062X) =  -110.428081265     A.U. after    9 cycles
            NFock=  9  Conv=0.15D-08     -V/T= 2.0023
 <Sx>= 0.0000 <Sy>= 0.0000 <Sz>= 0.0000 <S**2>= 2.0123 S= 1.0041
 <L.S>=  0.00000000000    
 KE= 1.101758750997D+02 PE=-2.904377446649D+02 EE= 5.416294500870D+01
 Annihilation of the first spin contaminant:
 S**2 before annihilation     2.0123,   after     4.1503
 Leave Link  502 at Thu May 15 15:47:20 2025, MaxMem=   536870912 cpu:              17.1 elap:               2.2
 (Enter /home/szhao/Apps/g16/l701.exe)
 ... and contract with generalized density number  0.
 Compute integral first derivatives.
 Leave Link  701 at Thu May 15 15:47:21 2025, MaxMem=   536870912 cpu:               0.6 elap:               0.1
 (Enter /home/szhao/Apps/g16/l702.exe)
 L702 exits ... SP integral derivatives will be done elsewhere.
 Leave Link  702 at Thu May 15 15:47:21 2025, MaxMem=   536870912 cpu:               0.2 elap:               0.0
 (Enter /home/szhao/Apps/g16/l703.exe)
 Integral derivatives from FoFJK, PRISM(SPDF).
 Compute integral first derivatives, UseDBF=F ICtDFT=           0.
 Calling FoFJK, ICntrl=      2127 FMM=F ISym2X=0 I1Cent= 0 IOpClX= 1 NMat=1 NMatS=1 NMatT=0.
 FoFJK:  IHMeth= 1 ICntrl=    2127 DoSepK=F KAlg= 0 I1Cent=           0 FoldK=F
 IRaf=         0 NMat=       1 IRICut=       1 DoRegI=T DoRafI=F ISym2E= 0 IDoP0=0 IntGTp=1.
 FoFCou: FMM=F IPFlag=           0 FMFlag=      100000 FMFlg1=         800
         NFxFlg=           0 DoJE=F BraDBF=F KetDBF=F FulRan=T
         wScrn=  0.000000 ICntrl=      2127 IOpCl=  1 I1Cent=           0 NGrid=           0
         NMat0=    1 NMatS0=      1 NMatT0=    0 NMatD0=    1 NMtDS0=    0 NMtDT0=    0
 Symmetry not used in FoFCou.
 Leave Link  703 at Thu May 15 15:47:21 2025, MaxMem=   536870912 cpu:               3.2 elap:               0.4
 (Enter /home/szhao/Apps/g16/l716.exe)
 Dipole        = 3.36049721D-08 6.02480288D-09-3.54696472D-08
 -------------------------------------------------------------------
 Center     Atomic                   Forces (Hartrees/Bohr)
 Number     Number              X              Y              Z
 -------------------------------------------------------------------
      1        7          -0.000000000   -0.000000000   -0.000000000
      2        7          -0.000000000   -0.000000000   -0.000000000
      3        1          -0.000001911    0.000008667    0.000000000
      4        1           0.000001911   -0.000008668    0.000000000
 -------------------------------------------------------------------
 Cartesian Forces:  Max     0.000008668 RMS     0.000003623
 Leave Link  716 at Thu May 15 15:47:21 2025, MaxMem=   536870912 cpu:               0.2 elap:               0.0
 (Enter /home/szhao/Apps/g16/l103.exe)

 GradGradGradGradGradGradGradGradGradGradGradGradGradGradGradGradGradGrad
 Berny optimization.
 Using GEDIIS/GDIIS optimizer.
 FormGI is forming the generalized inverse of G from B-inverse, IUseBI=4.
 Internal  Forces:  Max     0.000008873 RMS     0.000005388
 Search for a local minimum.
 Step number   9 out of a maximum of   21
 All quantities printed in internal units (Hartrees-Bohrs-Radians)
 RMS Force = .56182D-05 SwitMx=.10000D-02 MixMth= 2
 Mixed Optimization -- En-DIIS/RFO-DIIS
 Swapping is turned off.
 Update second derivatives using D2CorX and points    3    4    5    6    7
                                                      8    9
 DE= -1.26D-07 DEPred=-1.23D-07 R= 1.03D+00
 Trust test= 1.03D+00 RLast= 2.84D-03 DXMaxT set to 8.49D-01
 The second derivative matrix:
                          X1        Y1        Z1        X2        Y2
           X1           0.50853
           Y1          -0.03723   0.68442
           Z1          -0.00000   0.00000   0.50000
           X2          -0.00853   0.03723   0.00000   0.50853
           Y2           0.03723  -0.18442  -0.00000  -0.03723   0.68442
           Z2          -0.00000   0.00000   0.00000   0.00000  -0.00000
           R1           0.03781  -0.18823  -0.00000  -0.03781   0.18823
           R2           0.03781  -0.18823  -0.00000  -0.03781   0.18823
           A1          -0.00143  -0.00022   0.00000   0.00143   0.00022
           A2          -0.00143  -0.00022   0.00000   0.00143   0.00022
           D1           0.00000  -0.00000   0.00000  -0.00000   0.00000
                          Z2        R1        R2        A1        A2
           Z2           0.50000
           R1          -0.00000   0.40404
           R2          -0.00000  -0.01973   0.40404
           A1           0.00000   0.00050   0.00050   0.08216
           A2           0.00000   0.00050   0.00050  -0.07784   0.08216
           D1           0.00000   0.00000   0.00000  -0.00000  -0.00000
                          D1
           D1           0.00230
 ITU=  0  1  1  1  1  1  1  1  0
     Eigenvalues ---    0.00230   0.00432   0.16000   0.38431   0.42378
     Eigenvalues --- 1000.000001000.000001000.000001000.000001000.00000
     Eigenvalues --- 1000.00000
 En-DIIS/RFO-DIIS/Sim-DIIS IScMMF=       -3 using points:     9    8    7    6
 RFO step:  Lambda=-3.72330339D-10.
 NNeg= 0 NGDIIS= 4 SimSw=  2.50D-01 Rises=F DC= -1.26D-07 SmlDif=  1.00D-05
 NRisDI= 0 DoIntr=F SqrtH=F CThrHd= 10.0 CDAdj=  3.0
 RMS Error=  0.4547131819D-04 NUsed= 4 OKEnD=F EnDIS=F
 InvSVX:  RCond= 2.92D-18 Info=           6 Equed=N FErr=  0.00D+00 BErr=  0.00D+00
 DIIS inversion failure, remove point   4.
 InvSVX:  RCond= 6.44D-08 Info=           0 Equed=N FErr=  5.55D-15 BErr=  3.37D-17
 DIIS inversion failure, remove point   3.
 InvSVX:  RCond= 9.08D-06 Info=           0 Equed=N FErr=  9.32D-16 BErr=  1.59D-17
 RFO-DIIS uses    2 points instead of    4
 DidBck=F Rises=F RFO-DIIS coefs:    0.95287    0.04713    0.00000    0.00000
 Iteration  1 RMS(Cart)=  0.00008759 RMS(Int)=  0.00000000
 Iteration  2 RMS(Cart)=  0.00000000 RMS(Int)=  0.00000000
 ITry= 1 IFail=0 DXMaxC= 2.05D-04 DCOld= 1.00D+10 DXMaxT= 8.49D-01 DXLimC= 3.00D+00 Rises=F
 Variable       Old X    -DE/DX   Delta X   Delta X   Delta X     New X
                                 (Linear)    (Quad)   (Total)
    X1       -3.76136  -0.00000   0.00000   0.00000   0.00000  -3.76136
    Y1        0.00000   0.00001   0.00000   0.00000   0.00000   0.00000
    Z1        0.00000   0.00000   0.00000   0.00000   0.00000   0.00000
    X2        3.76136   0.00000   0.00000   0.00000   0.00000   3.76136
    Y2        0.00000  -0.00001   0.00000   0.00000   0.00000   0.00000
    Z2        0.00000   0.00000   0.00000   0.00000   0.00000   0.00000
    R1        1.96145  -0.00001   0.00002  -0.00005  -0.00002   1.96142
    R2        1.96145  -0.00001   0.00002  -0.00005  -0.00002   1.96142
    A1        1.37834   0.00000   0.00009   0.00001   0.00010   1.37844
    A2        1.37834   0.00000   0.00009   0.00001   0.00010   1.37844
    D1        3.14159   0.00000   0.00000   0.00000   0.00000   3.14159
         Item               Value     Threshold  Converged?
 Maximum Force            0.000009     0.000450     YES
 RMS     Force            0.000006     0.000300     YES
 Maximum Displacement     0.000205     0.001800     YES
 RMS     Displacement     0.000088     0.001200     YES
 Predicted change in Energy=-2.516586D-10
 Optimization completed.
    -- Stationary point found.
                           ----------------------------
                           !   Optimized Parameters   !
                           ! (Angstroms and Degrees)  !
 --------------------------                            --------------------------
 ! Name  Definition              Value          Derivative Info.                !
 --------------------------------------------------------------------------------
 ! X1    R(1,-1)                -1.9904         -DE/DX =    0.0                 !
 ! Y1    R(1,-2)                 0.0            -DE/DX =    0.0                 !
 ! Z1    R(1,-3)                 0.0            -DE/DX =    0.0                 !
 ! X2    R(2,-1)                 1.9904         -DE/DX =    0.0                 !
 ! Y2    R(2,-2)                 0.0            -DE/DX =    0.0                 !
 ! Z2    R(2,-3)                 0.0            -DE/DX =    0.0                 !
 ! R1    R(1,3)                  1.038          -DE/DX =    0.0                 !
 ! R2    R(2,4)                  1.038          -DE/DX =    0.0                 !
 ! A1    A(2,1,3)               78.9731         -DE/DX =    0.0                 !
 ! A2    A(1,2,4)               78.9731         -DE/DX =    0.0                 !
 ! D1    D(3,1,2,4)            180.0            -DE/DX =    0.0                 !
 --------------------------------------------------------------------------------
 Lowest energy point so far.  Saving SCF results.
 Largest change from initial coordinates is atom    3       0.500 Angstoms.
 GradGradGradGradGradGradGradGradGradGradGradGradGradGradGradGradGradGrad

 Leave Link  103 at Thu May 15 15:47:21 2025, MaxMem=   536870912 cpu:               0.1 elap:               0.0
 (Enter /home/szhao/Apps/g16/l202.exe)
                          Input orientation:                          
 ---------------------------------------------------------------------
 Center     Atomic      Atomic             Coordinates (Angstroms)
 Number     Number       Type             X           Y           Z
 ---------------------------------------------------------------------
      1          7           0       -1.990428    0.000000    0.000000
      2          7           0        1.990428    0.000000    0.000000
      3          1           0       -1.791898   -1.018790   -0.000000
      4          1           0        1.791898    1.018790   -0.000000
 ---------------------------------------------------------------------
                    Distance matrix (angstroms):
                    1          2          3          4
     1  N    0.000000
     2  N    3.980856   0.000000
     3  H    1.037954   3.917132   0.000000
     4  H    3.917132   1.037954   4.122539   0.000000
 Symmetry turned off by external request.
 Stoichiometry    H2N2
 Framework group  C1[X(H2N2)]
 Deg. of freedom     6
 Full point group                 C1      NOp   1
 Rotational constants (GHZ):         255.9100676           4.2994810           4.2284401
 Leave Link  202 at Thu May 15 15:47:21 2025, MaxMem=   536870912 cpu:               0.0 elap:               0.0
 (Enter /home/szhao/Apps/g16/l601.exe)
 Copying SCF densities to generalized density rwf, IOpCl= 1 IROHF=0.

 **********************************************************************

            Population analysis using the SCF density.

 **********************************************************************

 Alpha  occ. eigenvalues --  -14.81921 -14.79429  -0.95298  -0.82513  -0.48624
 Alpha  occ. eigenvalues --   -0.42645  -0.41519  -0.41517
 Alpha virt. eigenvalues --   -0.06693  -0.06581   0.03875   0.07379   0.11092
 Alpha virt. eigenvalues --    0.11743   0.13688   0.14828   0.15918   0.18092
 Alpha virt. eigenvalues --    0.19485   0.22982   0.55050   0.56461   0.75727
 Alpha virt. eigenvalues --    0.78281   0.78619   0.79655   0.82598   0.84537
 Alpha virt. eigenvalues --    0.96059   1.00072   1.29021   1.29249   1.34816
 Alpha virt. eigenvalues --    1.35076   1.90691   1.94683   1.94941   1.95520
 Alpha virt. eigenvalues --    2.06658   2.07036   2.33934   2.33936   2.40197
 Alpha virt. eigenvalues --    2.40199   2.49557   2.53872   2.93315   3.03655
 Alpha virt. eigenvalues --    3.78742   3.80315   3.88805   3.90275   4.33412
 Alpha virt. eigenvalues --    4.39355  35.38651  35.39456
  Beta  occ. eigenvalues --  -14.81921 -14.79429  -0.95298  -0.82513  -0.48624
  Beta  occ. eigenvalues --   -0.42645  -0.41519  -0.41517
  Beta virt. eigenvalues --   -0.06693  -0.06581   0.03875   0.07379   0.11092
  Beta virt. eigenvalues --    0.11743   0.13688   0.14828   0.15918   0.18092
  Beta virt. eigenvalues --    0.19485   0.22982   0.55050   0.56461   0.75727
  Beta virt. eigenvalues --    0.78281   0.78619   0.79655   0.82598   0.84537
  Beta virt. eigenvalues --    0.96059   1.00072   1.29021   1.29249   1.34816
  Beta virt. eigenvalues --    1.35076   1.90691   1.94683   1.94941   1.95520
  Beta virt. eigenvalues --    2.06658   2.07036   2.33934   2.33936   2.40197
  Beta virt. eigenvalues --    2.40199   2.49557   2.53872   2.93315   3.03655
  Beta virt. eigenvalues --    3.78742   3.80315   3.88805   3.90275   4.33412
  Beta virt. eigenvalues --    4.39355  35.38651  35.39456
          Condensed to atoms (all electrons):
               1          2          3          4
     1  N    6.984375   0.006195   0.209853  -0.000084
     2  N    0.006195   6.984375  -0.000084   0.209853
     3  H    0.209853  -0.000084   0.589888   0.000004
     4  H   -0.000084   0.209853   0.000004   0.589888
          Atomic-Atomic Spin Densities.
               1          2          3          4
     1  N    2.035258   0.000000   0.019793  -0.000305
     2  N    0.000000  -2.035258   0.000305  -0.019793
     3  H    0.019793   0.000305  -0.081410  -0.000000
     4  H   -0.000305  -0.019793  -0.000000   0.081410
 Mulliken charges and spin densities:
               1          2
     1  N   -0.200339   2.054745
     2  N   -0.200339  -2.054745
     3  H    0.200339  -0.061312
     4  H    0.200339   0.061312
 Sum of Mulliken charges =  -0.00000   0.00000
 Mulliken charges and spin densities with hydrogens summed into heavy atoms:
               1          2
     1  N    0.000000   1.993433
     2  N   -0.000000  -1.993433
 Electronic spatial extent (au):  <R**2>=            257.6246
 Charge=             -0.0000 electrons
 Dipole moment (field-independent basis, Debye):
    X=              0.0000    Y=              0.0000    Z=             -0.0000  Tot=              0.0000
 Quadrupole moment (field-independent basis, Debye-Ang):
   XX=            -15.2212   YY=            -11.2328   ZZ=            -12.8329
   XY=              6.5065   XZ=             -0.0000   YZ=              0.0000
 Traceless Quadrupole moment (field-independent basis, Debye-Ang):
   XX=             -2.1256   YY=              1.8629   ZZ=              0.2627
   XY=              6.5065   XZ=             -0.0000   YZ=              0.0000
 Octapole moment (field-independent basis, Debye-Ang**2):
  XXX=              0.0000  YYY=              0.0000  ZZZ=              0.0000  XYY=              0.0000
  XXY=              0.0000  XXZ=             -0.0000  XZZ=             -0.0000  YZZ=             -0.0000
  YYZ=             -0.0000  XYZ=             -0.0000
 Hexadecapole moment (field-independent basis, Debye-Ang**3):
 XXXX=           -331.8542 YYYY=            -17.8933 ZZZZ=            -12.2145 XXXY=             20.3837
 XXXZ=             -0.0000 YYYX=              0.8100 YYYZ=              0.0000 ZZZX=             -0.0000
 ZZZY=              0.0000 XXYY=            -51.1904 XXZZ=            -54.2944 YYZZ=             -5.5836
 XXYZ=              0.0000 YYXZ=             -0.0000 ZZXY=             -1.0737
 N-N= 1.567084329185D+01 E-N=-2.904377446492D+02  KE= 1.101758750997D+02
                          Isotropic Fermi Contact Couplings
        Atom                 a.u.       MegaHertz       Gauss      10(-4) cm-1
     1  N(14)              0.27266      44.04867      15.71766      14.69306
     2  N(14)             -0.27266     -44.04867     -15.71766     -14.69306
     3  H(1)              -0.02901     -64.84625     -23.13875     -21.63038
     4  H(1)               0.02901      64.84625      23.13875      21.63038
 --------------------------------------------------------
       Center         ----  Spin Dipole Couplings  ----
                      3XX-RR        3YY-RR        3ZZ-RR
 --------------------------------------------------------
     1   Atom        0.968006     -2.083344      1.115339
     2   Atom       -0.968006      2.083345     -1.115339
     3   Atom       -0.120289      0.240067     -0.119778
     4   Atom        0.120289     -0.240067      0.119778
 --------------------------------------------------------
                        XY            XZ            YZ
 --------------------------------------------------------
     1   Atom        0.610961      0.000000     -0.000000
     2   Atom       -0.610961      0.000000     -0.000000
     3   Atom       -0.074244     -0.000000      0.000000
     4   Atom        0.074244     -0.000000      0.000000
 --------------------------------------------------------


 ---------------------------------------------------------------------------------
              Anisotropic Spin Dipole Couplings in Principal Axis System
 ---------------------------------------------------------------------------------

       Atom             a.u.   MegaHertz   Gauss  10(-4) cm-1        Axes

              Baa    -2.2011   -84.893   -30.292   -28.317 -0.1893  0.9819  0.0000
     1 N(14)  Bbb     1.0858    41.876    14.943    13.968  0.9819  0.1893 -0.0000
              Bcc     1.1153    43.016    15.349    14.349  0.0000 -0.0000  1.0000
 
              Baa    -1.1153   -43.016   -15.349   -14.349 -0.0000  0.0000  1.0000
     2 N(14)  Bbb    -1.0858   -41.876   -14.943   -13.968  0.9819  0.1893  0.0000
              Bcc     2.2011    84.893    30.292    28.317 -0.1893  0.9819 -0.0000
 
              Baa    -0.1350   -72.022   -25.699   -24.024  0.9810  0.1942  0.0000
     3 H(1)   Bbb    -0.1198   -63.908   -22.804   -21.317  0.0000 -0.0000  1.0000
              Bcc     0.2548   135.930    48.503    45.341 -0.1942  0.9810  0.0000
 
              Baa    -0.2548  -135.930   -48.503   -45.341 -0.1942  0.9810 -0.0000
     4 H(1)   Bbb     0.1198    63.908    22.804    21.317 -0.0000  0.0000  1.0000
              Bcc     0.1350    72.022    25.699    24.024  0.9810  0.1942 -0.0000
 

 ---------------------------------------------------------------------------------

 No NMR shielding tensors so no spin-rotation constants.
 Leave Link  601 at Thu May 15 15:47:21 2025, MaxMem=   536870912 cpu:               1.2 elap:               0.2
 (Enter /home/szhao/Apps/g16/l9999.exe)
 1\1\GINC-NODE01\FOpt\UM062X\6-311+G(d,p)\H2N2\SZHAO\15-May-2025\0\\#p 
 opt UM062X/6-311+G** nosymm int=superfine\\Title Card Required\\0,1\N,
 -1.99042801,0.,0.\N,1.99042801,0.,0.\H,-1.7918981022,-1.0187902009,-0.
 0000000275\H,1.7918981528,1.0187902115,-0.0000000275\\Version=ES64L-G1
 6RevA.03\HF=-110.4280813\S2=2.012329\S2-1=0.\S2A=4.150294\RMSD=1.488e-
 09\RMSF=3.623e-06\Dipole=0.,0.,0.\Quadrupole=-1.5803298,1.3850118,0.19
 5318,4.8373903,0.,0.\PG=C01 [X(H2N2)]\\@


 The juvenile sea squirt wanders through the sea searching
 for a suitable rock or hunk of coral to cling to and make
 its home for life.  For this task it has a rudimentary
 nervous system.  When it finds its spot and takes root, it
 doesn't need its brain any more so it eats it.
 It's rather like getting tenure.

                               -- source unknown
 Job cpu time:       0 days  0 hours  5 minutes  5.6 seconds.
 Elapsed time:       0 days  0 hours  0 minutes 39.3 seconds.
 File lengths (MBytes):  RWF=      6 Int=      0 D2E=      0 Chk=      1 Scr=      1
 Normal termination of Gaussian 16 at Thu May 15 15:47:21 2025.
