Title Card Required                                                     
Force     UM062X                                                      6-311+G(d,p)        
Number of atoms                            I                4
Info1-9                                    I   N=           9
          13          13           0           0           0         100
           5          18        -502
Full Title                                 C   N=           2
Title Card Required     
Route                                      C   N=           4
#p UM062X/6-311+G** force int=superfine         
Charge                                     I                1
Multiplicity                               I                2
Number of electrons                        I               13
Number of alpha electrons                  I                7
Number of beta electrons                   I                6
Number of basis functions                  I               56
Number of independent functions            I               56
Number of point charges in /Mol/           I                0
Number of translation vectors              I                0
Atomic numbers                             I   N=           4
           6           6           1           1
Nuclear charges                            R   N=           4
  6.00000000E+00  6.00000000E+00  1.00000000E+00  1.00000000E+00
Current cartesian coordinates              R   N=          12
  0.00000000E+00  0.00000000E+00  7.98433719E-01  9.77799298E-17  0.00000000E+00
 -7.98433719E-01  0.00000000E+00  0.00000000E+00  2.81562565E+00  3.44814694E-16
  0.00000000E+00 -2.81562565E+00
Number of symbols in /Mol/                 I                0
Force Field                                I                0
Atom Types                                 C   N=           4
                                                
Int Atom Types                             I   N=           4
           0           0           0           0
MM charges                                 R   N=           4
  0.00000000E+00  0.00000000E+00  0.00000000E+00  0.00000000E+00
Integer atomic weights                     I   N=           4
          12          12           1           1
Real atomic weights                        R   N=           4
  1.20000000E+01  1.20000000E+01  1.00782504E+00  1.00782504E+00
Atom fragment info                         I   N=           4
           0           0           0           0
Atom residue num                           I   N=           4
           0           0           0           0
Nuclear spins                              I   N=           4
           0           0           1           1
Nuclear ZEff                               R   N=           4
 -3.60000000E+00 -3.60000000E+00 -1.00000000E+00 -1.00000000E+00
Nuclear ZNuc                               R   N=           4
  6.00000000E+00  6.00000000E+00  1.00000000E+00  1.00000000E+00
Nuclear QMom                               R   N=           4
  0.00000000E+00  0.00000000E+00  0.00000000E+00  0.00000000E+00
Nuclear GFac                               R   N=           4
  0.00000000E+00  0.00000000E+00  2.79284600E+00  2.79284600E+00
MicOpt                                     I   N=           4
          -1          -1          -1          -1
Number of residues                         I                0
Number of secondary structures             I                0
SymInf integers                            I   N=          26
           2           8           1           1           1          -1
           1          -1          -1          -1           1           1
          -1          -1          -1           1           1           1
          -1           1           1           1          -1          -1
          -1          -1
RotTr to input orientation                 R   N=          12
  0.00000000E+00  0.00000000E+00  1.00000000E+00  0.00000000E+00  1.00000000E+00
  0.00000000E+00 -1.00000000E+00 -0.00000000E+00 -0.00000000E+00 -1.34980437E-07
  0.00000000E+00  0.00000000E+00
Number of contracted shells                I               20
Number of primitive shells                 I               38
Pure/Cartesian d shells                    I                0
Pure/Cartesian f shells                    I                0
Highest angular momentum                   I                2
Largest degree of contraction              I                6
Shell types                                I   N=          20
           0          -1          -1          -1          -1          -2
           0          -1          -1          -1          -1          -2
           0           0           0           1           0           0
           0           1
Number of primitives per shell             I   N=          20
           6           3           1           1           1           1
           6           3           1           1           1           1
           3           1           1           1           3           1
           1           1
Shell to atom map                          I   N=          20
           1           1           1           1           1           1
           2           2           2           2           2           2
           3           3           3           3           4           4
           4           4
Primitive exponents                        R   N=          38
  4.56324000E+03  6.82024000E+02  1.54973000E+02  4.44553000E+01  1.30290000E+01
  1.82773000E+00  2.09642000E+01  4.80331000E+00  1.45933000E+00  4.83456000E-01
  1.45585000E-01  4.38000000E-02  6.26000000E-01  4.56324000E+03  6.82024000E+02
  1.54973000E+02  4.44553000E+01  1.30290000E+01  1.82773000E+00  2.09642000E+01
  4.80331000E+00  1.45933000E+00  4.83456000E-01  1.45585000E-01  4.38000000E-02
  6.26000000E-01  3.38650000E+01  5.09479000E+00  1.15879000E+00  3.25840000E-01
  1.02741000E-01  7.50000000E-01  3.38650000E+01  5.09479000E+00  1.15879000E+00
  3.25840000E-01  1.02741000E-01  7.50000000E-01
Contraction coefficients                   R   N=          38
  1.96665025E-03  1.52306019E-02  7.61269097E-02  2.60801033E-01  6.16462078E-01
  2.21006028E-01  1.14660081E-01  9.19999648E-01 -3.03068213E-03  1.00000000E+00
  1.00000000E+00  1.00000000E+00  1.00000000E+00  1.96665025E-03  1.52306019E-02
  7.61269097E-02  2.60801033E-01  6.16462078E-01  2.21006028E-01  1.14660081E-01
  9.19999648E-01 -3.03068213E-03  1.00000000E+00  1.00000000E+00  1.00000000E+00
  1.00000000E+00  2.54938145E-02  1.90373109E-01  8.52161486E-01  1.00000000E+00
  1.00000000E+00  1.00000000E+00  2.54938145E-02  1.90373109E-01  8.52161486E-01
  1.00000000E+00  1.00000000E+00  1.00000000E+00
P(S=P) Contraction coefficients            R   N=          38
  0.00000000E+00  0.00000000E+00  0.00000000E+00  0.00000000E+00  0.00000000E+00
  0.00000000E+00  4.02486927E-02  2.37593957E-01  8.15853851E-01  1.00000000E+00
  1.00000000E+00  1.00000000E+00  0.00000000E+00  0.00000000E+00  0.00000000E+00
  0.00000000E+00  0.00000000E+00  0.00000000E+00  0.00000000E+00  4.02486927E-02
  2.37593957E-01  8.15853851E-01  1.00000000E+00  1.00000000E+00  1.00000000E+00
  0.00000000E+00  0.00000000E+00  0.00000000E+00  0.00000000E+00  0.00000000E+00
  0.00000000E+00  0.00000000E+00  0.00000000E+00  0.00000000E+00  0.00000000E+00
  0.00000000E+00  0.00000000E+00  0.00000000E+00
Coordinates of each shell                  R   N=          60
  0.00000000E+00  0.00000000E+00  7.98433719E-01  0.00000000E+00  0.00000000E+00
  7.98433719E-01  0.00000000E+00  0.00000000E+00  7.98433719E-01  0.00000000E+00
  0.00000000E+00  7.98433719E-01  0.00000000E+00  0.00000000E+00  7.98433719E-01
  0.00000000E+00  0.00000000E+00  7.98433719E-01  9.77799298E-17  0.00000000E+00
 -7.98433719E-01  9.77799298E-17  0.00000000E+00 -7.98433719E-01  9.77799298E-17
  0.00000000E+00 -7.98433719E-01  9.77799298E-17  0.00000000E+00 -7.98433719E-01
  9.77799298E-17  0.00000000E+00 -7.98433719E-01  9.77799298E-17  0.00000000E+00
 -7.98433719E-01  0.00000000E+00  0.00000000E+00  2.81562565E+00  0.00000000E+00
  0.00000000E+00  2.81562565E+00  0.00000000E+00  0.00000000E+00  2.81562565E+00
  0.00000000E+00  0.00000000E+00  2.81562565E+00  3.44814694E-16  0.00000000E+00
 -2.81562565E+00  3.44814694E-16  0.00000000E+00 -2.81562565E+00  3.44814694E-16
  0.00000000E+00 -2.81562565E+00  3.44814694E-16  0.00000000E+00 -2.81562565E+00
Num ILSW                                   I              100
ILSW                                       I   N=         100
           1           0           0           0           2           0
           0           0           0           0        4336          -1
           7           0           0           0           2           0
           0           0           0           0           1           0
           1           0           0           0           0           0
           0           0      100000           0          -1           0
           0           0           0           0           0           0
           0           0           0           1           0           0
           0 -2000000000           1           0           0           0
           0           0           4          52           0           0
           0           0          55           0           0           0
           0           0           0           4           0           1
           0           0           0           0           0           0
           0           0           0           0           0           0
           0           0           0           0           0           0
           0           0           0           0           0           0
           0           0           0           0
Num RLSW                                   I               52
RLSW                                       R   N=          52
  1.00000000E+00  1.00000000E+00  1.00000000E+00  1.00000000E+00  5.40000000E-01
  0.00000000E+00  0.00000000E+00  1.00000000E+00  0.00000000E+00  0.00000000E+00
  0.00000000E+00  0.00000000E+00  1.00000000E+00  0.00000000E+00  0.00000000E+00
  0.00000000E+00  0.00000000E+00  1.00000000E+00  0.00000000E+00  0.00000000E+00
  0.00000000E+00  0.00000000E+00  1.00000000E+00  0.00000000E+00  0.00000000E+00
  0.00000000E+00  0.00000000E+00  1.00000000E+00  0.00000000E+00  0.00000000E+00
  0.00000000E+00  0.00000000E+00  1.00000000E+00  0.00000000E+00  0.00000000E+00
  0.00000000E+00  0.00000000E+00  0.00000000E+00  1.00000000E+00  1.00000000E+00
  0.00000000E+00  1.00000000E+00  0.00000000E+00  0.00000000E+00  0.00000000E+00
  0.00000000E+00  0.00000000E+00  0.00000000E+00  0.00000000E+00  0.00000000E+00
  0.00000000E+00  0.00000000E+00
MxBond                                     I                2
NBond                                      I   N=           4
           2           2           1           1
IBond                                      I   N=           8
           2           3           1           4           1           0
           2           0
RBond                                      R   N=           8
  3.00000000E+00  1.00000000E+00  3.00000000E+00  1.00000000E+00  1.00000000E+00
  0.00000000E+00  1.00000000E+00  0.00000000E+00
Virial Ratio                               R      1.955340294741023E+00
SCF Energy                                 R     -7.627597248723069E+01
Total Energy                               R     -7.627597248723069E+01
S**2                                       R      7.522547150057175E-01
S**2 after annihilation                    R      7.500035963196749E-01
RMS Force                                  R      9.985435068176696E-01
RMS Density                                R      6.696076412171387E-09
Job Status                                 I                1
Nuclear derivative order                   I                1
External E-field                           R   N=          35
  0.00000000E+00  0.00000000E+00  0.00000000E+00  0.00000000E+00  0.00000000E+00
  0.00000000E+00  0.00000000E+00  0.00000000E+00  0.00000000E+00  0.00000000E+00
  0.00000000E+00  0.00000000E+00  0.00000000E+00  0.00000000E+00  0.00000000E+00
  0.00000000E+00  0.00000000E+00  0.00000000E+00  0.00000000E+00  0.00000000E+00
  0.00000000E+00  0.00000000E+00  0.00000000E+00  0.00000000E+00  0.00000000E+00
  0.00000000E+00  0.00000000E+00  0.00000000E+00  0.00000000E+00  0.00000000E+00
  0.00000000E+00  0.00000000E+00  0.00000000E+00  0.00000000E+00  0.00000000E+00
IOpCl                                      I                1
IROHF                                      I                0
Alpha Orbital Energies                     R   N=          56
 -1.09289041E+01 -1.08762290E+01 -1.34084546E+00 -9.39283028E-01 -9.20082199E-01
 -8.96013581E-01 -8.55511100E-01 -1.53541230E-01 -1.49329329E-01 -1.39922039E-01
 -1.33728916E-01 -1.20804067E-01 -1.18875822E-01 -1.17538806E-01 -1.89040706E-02
 -8.99761806E-03 -7.63088315E-03  2.64573950E-02  3.77025760E-02  1.69726364E-01
  2.30206161E-01  2.33287341E-01  2.43047088E-01  4.53564655E-01  4.64261360E-01
  4.66543792E-01  4.98580568E-01  5.81154037E-01  7.79932925E-01  7.81558837E-01
  8.58123107E-01  9.09207111E-01  9.22146287E-01  1.27162928E+00  1.33256400E+00
  1.33884326E+00  1.36801090E+00  1.42500395E+00  1.42589064E+00  1.77715976E+00
  1.79635518E+00  2.15052663E+00  2.38279054E+00  2.40957320E+00  2.42440934E+00
  2.52543283E+00  2.55517170E+00  2.56410823E+00  2.61374828E+00  2.74290477E+00
  2.76765089E+00  3.10570378E+00  3.11931918E+00  4.52702037E+00  2.47477814E+01
  2.49611639E+01
Beta Orbital Energies                      R   N=          56
 -1.09236861E+01 -1.08726848E+01 -1.27226614E+00 -9.24215642E-01 -9.09493248E-01
 -8.28023957E-01 -5.66091614E-01 -1.54532150E-01 -1.32992966E-01 -1.30633913E-01
 -1.27910844E-01 -1.21756491E-01 -1.17788085E-01 -1.17759556E-01 -4.63964499E-03
 -2.84674975E-03  8.36896504E-03  3.11575046E-02  4.30492773E-02  1.73472910E-01
  2.20702880E-01  2.34234758E-01  2.39540002E-01  4.62545955E-01  4.76452581E-01
  4.82864693E-01  4.97546122E-01  5.77679404E-01  8.23835956E-01  8.41933922E-01
  8.47812658E-01  9.32318958E-01  9.43921500E-01  1.29731906E+00  1.34936199E+00
  1.35744141E+00  1.37960459E+00  1.44905269E+00  1.46018725E+00  1.79759904E+00
  1.80823085E+00  2.16521330E+00  2.42514354E+00  2.42865148E+00  2.42877244E+00
  2.56761250E+00  2.56955045E+00  2.62074946E+00  2.68528185E+00  2.74483858E+00
  2.77512886E+00  3.12143175E+00  3.14701431E+00  4.57587275E+00  2.47590694E+01
  2.49774208E+01
Alpha MO coefficients                      R   N=        3136
  3.95984948E-01  3.25188411E-01  0.00000000E+00  0.00000000E+00 -5.37664710E-03
  9.13195122E-03  0.00000000E+00  0.00000000E+00  3.93387377E-03  3.01626855E-03
  0.00000000E+00  0.00000000E+00  1.74752625E-03 -1.20247603E-03  0.00000000E+00
  0.00000000E+00 -7.20805189E-05  7.25912242E-03  0.00000000E+00  0.00000000E+00
  7.59071469E-05  0.00000000E+00  3.95984948E-01  3.25188411E-01  0.00000000E+00
  0.00000000E+00  5.37664710E-03  9.13195122E-03  0.00000000E+00  0.00000000E+00
 -3.93387377E-03  3.01626855E-03  0.00000000E+00  0.00000000E+00 -1.74752625E-03
 -1.20247603E-03  0.00000000E+00  0.00000000E+00  7.20805189E-05  7.25912242E-03
  0.00000000E+00  0.00000000E+00  7.59071469E-05  0.00000000E+00 -1.12022791E-03
 -8.52077568E-03  2.12906336E-03  0.00000000E+00  0.00000000E+00  4.58679105E-03
 -1.12022791E-03 -8.52077568E-03  2.12906336E-03  0.00000000E+00  0.00000000E+00
 -4.58679105E-03  3.99471368E-01  3.28297705E-01  0.00000000E+00  0.00000000E+00
 -4.10279768E-03  7.03938384E-02  0.00000000E+00  0.00000000E+00 -4.17595028E-02
 -4.92321105E-03  0.00000000E+00  0.00000000E+00  6.50175765E-03 -8.48935123E-02
  0.00000000E+00  0.00000000E+00  1.48239452E-02  1.24007061E-02  0.00000000E+00
  0.00000000E+00  1.07301347E-04  0.00000000E+00 -3.99471368E-01 -3.28297705E-01
  0.00000000E+00  0.00000000E+00 -4.10279768E-03 -7.03938384E-02  0.00000000E+00
  0.00000000E+00 -4.17595028E-02  4.92321105E-03  0.00000000E+00  0.00000000E+00
  6.50175765E-03  8.48935123E-02  0.00000000E+00  0.00000000E+00  1.48239452E-02
 -1.24007061E-02  0.00000000E+00  0.00000000E+00 -1.07301347E-04  0.00000000E+00
 -4.68952495E-04  2.37736089E-04 -3.92876950E-03  0.00000000E+00  0.00000000E+00
  7.98917602E-04  4.68952495E-04 -2.37736089E-04  3.92876950E-03  0.00000000E+00
  0.00000000E+00  7.98917602E-04 -1.17123378E-01 -1.88836144E-01  0.00000000E+00
  0.00000000E+00 -1.61738544E-01  3.77743141E-01  0.00000000E+00  0.00000000E+00
 -1.10642482E-01  1.45137091E-01  0.00000000E+00  0.00000000E+00 -2.12251181E-02
 -8.36093282E-03  0.00000000E+00  0.00000000E+00  2.55944872E-02  3.27908722E-02
  0.00000000E+00  0.00000000E+00  7.63909792E-03  0.00000000E+00 -1.17123378E-01
 -1.88836144E-01  0.00000000E+00  0.00000000E+00  1.61738544E-01  3.77743141E-01
  0.00000000E+00  0.00000000E+00  1.10642482E-01  1.45137091E-01  0.00000000E+00
  0.00000000E+00  2.12251181E-02 -8.36093282E-03  0.00000000E+00  0.00000000E+00
 -2.55944872E-02  3.27908722E-02  0.00000000E+00  0.00000000E+00  7.63909792E-03
  0.00000000E+00  1.64431154E-02  1.20677921E-03 -6.30697274E-03  0.00000000E+00
  0.00000000E+00  7.64587597E-03  1.64431154E-02  1.20677921E-03 -6.30697274E-03
  0.00000000E+00  0.00000000E+00 -7.64587597E-03  6.04768313E-02  1.00651888E-01
  0.00000000E+00  0.00000000E+00 -1.04032358E-01 -2.60082942E-01  0.00000000E+00
  0.00000000E+00 -1.52418785E-01 -5.59970704E-01  0.00000000E+00  0.00000000E+00
  6.00893273E-02  6.99778599E-01  0.00000000E+00  0.00000000E+00 -1.19554687E-01
 -7.62590062E-03  0.00000000E+00  0.00000000E+00 -5.27372335E-03  0.00000000E+00
 -6.04768313E-02 -1.00651888E-01  0.00000000E+00  0.00000000E+00 -1.04032358E-01
  2.60082942E-01  0.00000000E+00  0.00000000E+00 -1.52418785E-01  5.59970704E-01
  0.00000000E+00  0.00000000E+00  6.00893273E-02 -6.99778599E-01  0.00000000E+00
  0.00000000E+00 -1.19554687E-01  7.62590062E-03  0.00000000E+00  0.00000000E+00
  5.27372335E-03  0.00000000E+00 -1.32467411E-01 -1.81375968E-01 -1.59707947E-02
  0.00000000E+00  0.00000000E+00  2.26199557E-02  1.32467411E-01  1.81375968E-01
  1.59707947E-02  0.00000000E+00  0.00000000E+00  2.26199557E-02 -1.80944383E-03
 -5.78898092E-03  0.00000000E+00  0.00000000E+00  2.27780554E-01  8.57733910E-02
  0.00000000E+00  0.00000000E+00  2.19055978E-01  1.30477898E-01  0.00000000E+00
  0.00000000E+00  9.01500672E-02  1.10806093E-02  0.00000000E+00  0.00000000E+00
  1.46068799E-02 -2.17181241E-02  0.00000000E+00  0.00000000E+00  9.53701819E-04
  0.00000000E+00 -1.80944383E-03 -5.78898092E-03  0.00000000E+00  0.00000000E+00
 -2.27780554E-01  8.57733910E-02  0.00000000E+00  0.00000000E+00 -2.19055978E-01
  1.30477898E-01  0.00000000E+00  0.00000000E+00 -9.01500672E-02  1.10806093E-02
  0.00000000E+00  0.00000000E+00 -1.46068799E-02 -2.17181241E-02  0.00000000E+00
  0.00000000E+00  9.53701819E-04  0.00000000E+00  1.36392604E-01  2.04442218E-01
 -1.25152262E-02  0.00000000E+00  0.00000000E+00 -3.65241928E-02  1.36392604E-01
  2.04442218E-01 -1.25152262E-02  0.00000000E+00  0.00000000E+00  3.65241928E-02
  0.00000000E+00  0.00000000E+00  2.34997135E-01  0.00000000E+00  0.00000000E+00
  0.00000000E+00  3.09032749E-01  0.00000000E+00  0.00000000E+00  0.00000000E+00
  1.23975142E-01  0.00000000E+00  0.00000000E+00  0.00000000E+00 -8.85682579E-03
  0.00000000E+00  0.00000000E+00  0.00000000E+00 -4.40687000E-02  0.00000000E+00
  0.00000000E+00  0.00000000E+00  0.00000000E+00  0.00000000E+00  2.34997135E-01
  0.00000000E+00  0.00000000E+00  0.00000000E+00  3.09032749E-01  0.00000000E+00
  0.00000000E+00  0.00000000E+00  1.23975142E-01  0.00000000E+00  0.00000000E+00
  0.00000000E+00 -8.85682579E-03  0.00000000E+00  0.00000000E+00  0.00000000E+00
  4.40687000E-02  0.00000000E+00  0.00000000E+00  0.00000000E+00  0.00000000E+00
  0.00000000E+00  0.00000000E+00  1.26342676E-02  0.00000000E+00  0.00000000E+00
  0.00000000E+00  0.00000000E+00  0.00000000E+00  1.26342676E-02  0.00000000E+00
  0.00000000E+00  0.00000000E+00  0.00000000E+00  0.00000000E+00  2.34867064E-01
  0.00000000E+00  0.00000000E+00  0.00000000E+00  3.06102583E-01  0.00000000E+00
  0.00000000E+00  0.00000000E+00  1.28782716E-01  0.00000000E+00  0.00000000E+00
  0.00000000E+00 -7.47209613E-03  0.00000000E+00  0.00000000E+00  0.00000000E+00
 -4.02931954E-02  0.00000000E+00  0.00000000E+00  0.00000000E+00  0.00000000E+00
  0.00000000E+00  2.34867064E-01  0.00000000E+00  0.00000000E+00  0.00000000E+00
  3.06102583E-01  0.00000000E+00  0.00000000E+00  0.00000000E+00  1.28782716E-01
  0.00000000E+00  0.00000000E+00  0.00000000E+00 -7.47209613E-03  0.00000000E+00
  0.00000000E+00  0.00000000E+00  4.02931954E-02  0.00000000E+00  0.00000000E+00
  0.00000000E+00  0.00000000E+00  0.00000000E+00  0.00000000E+00  1.36686439E-02
  0.00000000E+00  0.00000000E+00  0.00000000E+00  0.00000000E+00  0.00000000E+00
  1.36686439E-02  0.00000000E+00  0.00000000E+00  0.00000000E+00  1.43336610E-01
  0.00000000E+00  0.00000000E+00  0.00000000E+00  2.69231236E-01  0.00000000E+00
  0.00000000E+00  0.00000000E+00  7.53855996E-01  0.00000000E+00  0.00000000E+00
  0.00000000E+00  1.16657879E+00  0.00000000E+00  0.00000000E+00  0.00000000E+00
  4.80985523E-02  0.00000000E+00  0.00000000E+00  0.00000000E+00  0.00000000E+00
  0.00000000E+00 -1.43336610E-01  0.00000000E+00  0.00000000E+00  0.00000000E+00
 -2.69231236E-01  0.00000000E+00  0.00000000E+00  0.00000000E+00 -7.53855996E-01
  0.00000000E+00  0.00000000E+00  0.00000000E+00 -1.16657879E+00  0.00000000E+00
  0.00000000E+00  0.00000000E+00  4.80985523E-02  0.00000000E+00  0.00000000E+00
  0.00000000E+00  0.00000000E+00  0.00000000E+00  0.00000000E+00  3.32139530E-02
  0.00000000E+00  0.00000000E+00  0.00000000E+00  0.00000000E+00  0.00000000E+00
 -3.32139530E-02  0.00000000E+00  0.00000000E+00  1.96047946E-02  3.60675289E-02
  0.00000000E+00  0.00000000E+00 -4.45200563E-02 -1.05583204E-01  0.00000000E+00
  0.00000000E+00 -6.96443649E-02 -2.99089810E-01  0.00000000E+00  0.00000000E+00
 -5.36593345E-02  9.24410411E-01  0.00000000E+00  0.00000000E+00  6.63904617E-01
 -1.97073657E-02  0.00000000E+00  0.00000000E+00 -6.33813495E-05  0.00000000E+00
  1.96047946E-02  3.60675289E-02  0.00000000E+00  0.00000000E+00  4.45200563E-02
 -1.05583204E-01  0.00000000E+00  0.00000000E+00  6.96443649E-02 -2.99089810E-01
  0.00000000E+00  0.00000000E+00  5.36593345E-02  9.24410411E-01  0.00000000E+00
  0.00000000E+00 -6.63904617E-01 -1.97073657E-02  0.00000000E+00  0.00000000E+00
 -6.33813495E-05  0.00000000E+00 -2.53112618E-02  2.51794141E-02 -2.81310869E-01
  0.00000000E+00  0.00000000E+00  9.46964892E-03 -2.53112618E-02  2.51794141E-02
 -2.81310869E-01  0.00000000E+00  0.00000000E+00 -9.46964892E-03  0.00000000E+00
  0.00000000E+00  0.00000000E+00  1.30271852E-01  0.00000000E+00  0.00000000E+00
  0.00000000E+00  2.28937917E-01  0.00000000E+00  0.00000000E+00  0.00000000E+00
  7.30864759E-01  0.00000000E+00  0.00000000E+00  0.00000000E+00  1.36066505E+00
  0.00000000E+00  0.00000000E+00  0.00000000E+00  5.10850493E-02  0.00000000E+00
  0.00000000E+00  0.00000000E+00  0.00000000E+00  0.00000000E+00 -1.30271852E-01
  0.00000000E+00  0.00000000E+00  0.00000000E+00 -2.28937917E-01  0.00000000E+00
  0.00000000E+00  0.00000000E+00 -7.30864759E-01  0.00000000E+00  0.00000000E+00
  0.00000000E+00 -1.36066505E+00  0.00000000E+00  0.00000000E+00  0.00000000E+00
  5.10850493E-02  0.00000000E+00  0.00000000E+00  0.00000000E+00  0.00000000E+00
  0.00000000E+00  0.00000000E+00  3.29668004E-02  0.00000000E+00  0.00000000E+00
  0.00000000E+00  0.00000000E+00  0.00000000E+00 -3.29668004E-02  0.00000000E+00
 -2.93011351E-02 -5.18495541E-02  0.00000000E+00  0.00000000E+00  4.68913820E-02
  1.33969896E-01  0.00000000E+00  0.00000000E+00  8.89136007E-02  1.53757609E+00
  0.00000000E+00  0.00000000E+00 -3.01119686E-01  2.69843007E+01  0.00000000E+00
  0.00000000E+00 -5.12618408E+00 -1.29787810E-02  0.00000000E+00  0.00000000E+00
  2.95975467E-03  0.00000000E+00  2.93011351E-02  5.18495541E-02  0.00000000E+00
  0.00000000E+00  4.68913820E-02 -1.33969896E-01  0.00000000E+00  0.00000000E+00
  8.89136007E-02 -1.53757609E+00  0.00000000E+00  0.00000000E+00 -3.01119686E-01
 -2.69843007E+01  0.00000000E+00  0.00000000E+00 -5.12618408E+00  1.29787810E-02
  0.00000000E+00  0.00000000E+00 -2.95975467E-03  0.00000000E+00 -1.61555217E-02
 -8.09750664E-02 -9.55021639E-02  0.00000000E+00  0.00000000E+00 -2.23753635E-02
  1.61555217E-02  8.09750664E-02  9.55021639E-02  0.00000000E+00  0.00000000E+00
 -2.23753635E-02  0.00000000E+00  0.00000000E+00 -6.58616129E-02  0.00000000E+00
  0.00000000E+00  0.00000000E+00 -6.70725042E-02  0.00000000E+00  0.00000000E+00
  0.00000000E+00 -9.97335484E-02  0.00000000E+00  0.00000000E+00  0.00000000E+00
  5.63779495E-01  0.00000000E+00  0.00000000E+00  0.00000000E+00  2.28489356E-02
  0.00000000E+00  0.00000000E+00  0.00000000E+00  0.00000000E+00  0.00000000E+00
 -6.58616129E-02  0.00000000E+00  0.00000000E+00  0.00000000E+00 -6.70725042E-02
  0.00000000E+00  0.00000000E+00  0.00000000E+00 -9.97335484E-02  0.00000000E+00
  0.00000000E+00  0.00000000E+00  5.63779495E-01  0.00000000E+00  0.00000000E+00
  0.00000000E+00 -2.28489356E-02  0.00000000E+00  0.00000000E+00  0.00000000E+00
  0.00000000E+00  0.00000000E+00  0.00000000E+00  1.02720895E-02  0.00000000E+00
  0.00000000E+00  0.00000000E+00  0.00000000E+00  0.00000000E+00  1.02720895E-02
  0.00000000E+00  0.00000000E+00 -9.74931564E-03 -1.84062712E-02  0.00000000E+00
  0.00000000E+00 -1.22423722E-01  1.54504035E-02  0.00000000E+00  0.00000000E+00
 -1.16808245E-01 -2.76799458E-01  0.00000000E+00  0.00000000E+00 -1.85344971E-01
 -3.01553889E-01  0.00000000E+00  0.00000000E+00  1.19492182E+00  6.22270850E-02
  0.00000000E+00  0.00000000E+00 -4.08081669E-03  0.00000000E+00 -9.74931564E-03
 -1.84062712E-02  0.00000000E+00  0.00000000E+00  1.22423722E-01  1.54504035E-02
  0.00000000E+00  0.00000000E+00  1.16808245E-01 -2.76799458E-01  0.00000000E+00
  0.00000000E+00  1.85344971E-01 -3.01553889E-01  0.00000000E+00  0.00000000E+00
 -1.19492182E+00  6.22270850E-02  0.00000000E+00  0.00000000E+00 -4.08081669E-03
  0.00000000E+00  6.42593736E-02  1.86373583E-01  7.20242421E-01  0.00000000E+00
  0.00000000E+00  3.02270379E-02  6.42593736E-02  1.86373583E-01  7.20242421E-01
  0.00000000E+00  0.00000000E+00 -3.02270379E-02  0.00000000E+00  0.00000000E+00
  0.00000000E+00 -6.54675508E-02  0.00000000E+00  0.00000000E+00  0.00000000E+00
 -7.22134584E-02  0.00000000E+00  0.00000000E+00  0.00000000E+00 -1.00246394E-01
  0.00000000E+00  0.00000000E+00  0.00000000E+00  5.64013104E-01  0.00000000E+00
  0.00000000E+00  0.00000000E+00  2.12356532E-02  0.00000000E+00  0.00000000E+00
  0.00000000E+00  0.00000000E+00  0.00000000E+00 -6.54675508E-02  0.00000000E+00
  0.00000000E+00  0.00000000E+00 -7.22134584E-02  0.00000000E+00  0.00000000E+00
  0.00000000E+00 -1.00246394E-01  0.00000000E+00  0.00000000E+00  0.00000000E+00
  5.64013104E-01  0.00000000E+00  0.00000000E+00  0.00000000E+00 -2.12356532E-02
  0.00000000E+00  0.00000000E+00  0.00000000E+00  0.00000000E+00  0.00000000E+00
  0.00000000E+00  9.90498628E-03  0.00000000E+00  0.00000000E+00  0.00000000E+00
  0.00000000E+00  0.00000000E+00  9.90498628E-03  0.00000000E+00  0.00000000E+00
  0.00000000E+00 -1.23704280E-01  0.00000000E+00  0.00000000E+00  0.00000000E+00
 -1.99233217E-01  0.00000000E+00  0.00000000E+00  0.00000000E+00 -9.03241393E-01
  0.00000000E+00  0.00000000E+00  0.00000000E+00  3.21163473E+00  0.00000000E+00
  0.00000000E+00  0.00000000E+00 -3.91354427E-02  0.00000000E+00  0.00000000E+00
  0.00000000E+00  0.00000000E+00  0.00000000E+00  1.23704280E-01  0.00000000E+00
  0.00000000E+00  0.00000000E+00  1.99233217E-01  0.00000000E+00  0.00000000E+00
  0.00000000E+00  9.03241393E-01  0.00000000E+00  0.00000000E+00  0.00000000E+00
 -3.21163473E+00  0.00000000E+00  0.00000000E+00  0.00000000E+00 -3.91354427E-02
  0.00000000E+00  0.00000000E+00  0.00000000E+00  0.00000000E+00  0.00000000E+00
  0.00000000E+00 -8.09345355E-03  0.00000000E+00  0.00000000E+00  0.00000000E+00
  0.00000000E+00  0.00000000E+00  8.09345355E-03  0.00000000E+00  0.00000000E+00
  0.00000000E+00  0.00000000E+00  0.00000000E+00 -1.28804206E-01  0.00000000E+00
  0.00000000E+00  0.00000000E+00 -1.95113048E-01  0.00000000E+00  0.00000000E+00
  0.00000000E+00 -9.95695463E-01  0.00000000E+00  0.00000000E+00  0.00000000E+00
  3.15097762E+00  0.00000000E+00  0.00000000E+00  0.00000000E+00 -4.77037005E-02
  0.00000000E+00  0.00000000E+00  0.00000000E+00  0.00000000E+00  0.00000000E+00
  1.28804206E-01  0.00000000E+00  0.00000000E+00  0.00000000E+00  1.95113048E-01
  0.00000000E+00  0.00000000E+00  0.00000000E+00  9.95695463E-01  0.00000000E+00
  0.00000000E+00  0.00000000E+00 -3.15097762E+00  0.00000000E+00  0.00000000E+00
  0.00000000E+00 -4.77037005E-02  0.00000000E+00  0.00000000E+00  0.00000000E+00
  0.00000000E+00  0.00000000E+00  0.00000000E+00 -1.13662767E-02  0.00000000E+00
  0.00000000E+00  0.00000000E+00  0.00000000E+00  0.00000000E+00  1.13662767E-02
  0.00000000E+00 -2.36842812E-02 -4.24596517E-02  0.00000000E+00  0.00000000E+00
  2.45409569E-02 -8.56160995E-03  0.00000000E+00  0.00000000E+00  1.40863332E-01
 -3.86301231E+00  0.00000000E+00  0.00000000E+00  2.13097209E+00  7.43487491E+01
  0.00000000E+00  0.00000000E+00 -1.16312496E+01 -6.27025971E-02  0.00000000E+00
  0.00000000E+00  4.54927350E-03  0.00000000E+00  2.36842812E-02  4.24596517E-02
  0.00000000E+00  0.00000000E+00  2.45409569E-02  8.56160995E-03  0.00000000E+00
  0.00000000E+00  1.40863332E-01  3.86301231E+00  0.00000000E+00  0.00000000E+00
  2.13097209E+00 -7.43487491E+01  0.00000000E+00  0.00000000E+00 -1.16312496E+01
  6.27025971E-02  0.00000000E+00  0.00000000E+00 -4.54927350E-03  0.00000000E+00
 -7.92281318E-02 -3.25777746E-01 -2.47920842E+00  0.00000000E+00  0.00000000E+00