 Entering Gaussian System, Link 0=g16
 Initial command:
 /home/szhao/Apps/g16/l1.exe "/home/szhao/tmp/Gau-35778.inp" -scrdir="/home/szhao/tmp/"
 Default is to use a total of  16 processors:
                               16 via shared-memory
                                1 via Linda
 Entering Link 1 = /home/szhao/Apps/g16/l1.exe PID=     35781.
  
 Copyright (c) 1988,1990,1992,1993,1995,1998,2003,2009,2016,
            Gaussian, Inc.  All Rights Reserved.
  
 This is part of the Gaussian(R) 16 program.  It is based on
 the Gaussian(R) 09 system (copyright 2009, Gaussian, Inc.),
 the Gaussian(R) 03 system (copyright 2003, Gaussian, Inc.),
 the Gaussian(R) 98 system (copyright 1998, Gaussian, Inc.),
 the Gaussian(R) 94 system (copyright 1995, Gaussian, Inc.),
 the Gaussian 92(TM) system (copyright 1992, Gaussian, Inc.),
 the Gaussian 90(TM) system (copyright 1990, Gaussian, Inc.),
 the Gaussian 88(TM) system (copyright 1988, Gaussian, Inc.),
 the Gaussian 86(TM) system (copyright 1986, Carnegie Mellon
 University), and the Gaussian 82(TM) system (copyright 1983,
 Carnegie Mellon University). Gaussian is a federally registered
 trademark of Gaussian, Inc.
  
 This software contains proprietary and confidential information,
 including trade secrets, belonging to Gaussian, Inc.
  
 This software is provided under written license and may be
 used, copied, transmitted, or stored only in accord with that
 written license.
  
 The following legend is applicable only to US Government
 contracts under FAR:
  
                    RESTRICTED RIGHTS LEGEND
  
 Use, reproduction and disclosure by the US Government is
 subject to restrictions as set forth in subparagraphs (a)
 and (c) of the Commercial Computer Software - Restricted
 Rights clause in FAR 52.227-19.
  
 Gaussian, Inc.
 340 Quinnipiac St., Bldg. 40, Wallingford CT 06492
  
  
 ---------------------------------------------------------------
 Warning -- This program may not be used in any manner that
 competes with the business of Gaussian, Inc. or will provide
 assistance to any competitor of Gaussian, Inc.  The licensee
 of this program is prohibited from giving any competitor of
 Gaussian, Inc. access to this program.  By using this program,
 the user acknowledges that Gaussian, Inc. is engaged in the
 business of creating and licensing software in the field of
 computational chemistry and represents and warrants to the
 licensee that it is not a competitor of Gaussian, Inc. and that
 it will not use this program in any manner prohibited above.
 ---------------------------------------------------------------
  

 Cite this work as:
 Gaussian 16, Revision A.03,
 M. J. Frisch, G. W. Trucks, H. B. Schlegel, G. E. Scuseria, 
 M. A. Robb, J. R. Cheeseman, G. Scalmani, V. Barone, 
 G. A. Petersson, H. Nakatsuji, X. Li, M. Caricato, A. V. Marenich, 
 J. Bloino, B. G. Janesko, R. Gomperts, B. Mennucci, H. P. Hratchian, 
 J. V. Ortiz, A. F. Izmaylov, J. L. Sonnenberg, D. Williams-Young, 
 F. Ding, F. Lipparini, F. Egidi, J. Goings, B. Peng, A. Petrone, 
 T. Henderson, D. Ranasinghe, V. G. Zakrzewski, J. Gao, N. Rega, 
 G. Zheng, W. Liang, M. Hada, M. Ehara, K. Toyota, R. Fukuda, 
 J. Hasegawa, M. Ishida, T. Nakajima, Y. Honda, O. Kitao, H. Nakai, 
 T. Vreven, K. Throssell, J. A. Montgomery, Jr., J. E. Peralta, 
 F. Ogliaro, M. J. Bearpark, J. J. Heyd, E. N. Brothers, K. N. Kudin, 
 V. N. Staroverov, T. A. Keith, R. Kobayashi, J. Normand, 
 K. Raghavachari, A. P. Rendell, J. C. Burant, S. S. Iyengar, 
 J. Tomasi, M. Cossi, J. M. Millam, M. Klene, C. Adamo, R. Cammi, 
 J. W. Ochterski, R. L. Martin, K. Morokuma, O. Farkas, 
 J. B. Foresman, and D. J. Fox, Gaussian, Inc., Wallingford CT, 2016.
 
 ******************************************
 Gaussian 16:  ES64L-G16RevA.03 25-Dec-2016
                16-Apr-2025 
 ******************************************
 %oldchk=force.chk
 %chk=nbo.chk
 Copying data from "force.chk" to current chk file "nbo.chk"
 IOpt=  2 FromEx=T IUOpen= 4 IOptOp= 5 NList=   0 IFRang= 0 IUIn= 4 IUOut= 2.
 --------------------------------
 #p UM062X/6-311+G** Pop=NBO Read
 --------------------------------
 1/38=1,172=1/1;
 2/12=2,17=6,18=5,40=1/2;
 3/5=11,6=8,7=111,11=2,25=1,30=1,74=-55,116=2/1,2,3;
 4//1;
 5/5=2,38=5/2;
 6/7=2,8=2,9=2,10=2,28=1,40=1/1,7;
 99/5=1,9=1/99;
 Leave Link    1 at Wed Apr 16 05:32:23 2025, MaxMem=  8053063680 cpu:               1.0 elap:               0.1
 (Enter /home/szhao/Apps/g16/l101.exe)
 ------------
 NBO Analysis
 ------------
 Symbolic Z-matrix:
 Charge =  0 Multiplicity = 1
 O                    -0.74507   0.        0. 
 S                     0.74507   0.        0. 
 
 ITRead=  0  0
 MicOpt= -1 -1
 NAtoms=      2 NQM=        2 NQMF=       0 NMMI=      0 NMMIF=      0
                NMic=       0 NMicF=      0.
                    Isotopes and Nuclear Properties:
 (Nuclear quadrupole moments (NQMom) in fm**2, nuclear magnetic moments (NMagM)
  in nuclear magnetons)

  Atom         1           2
 IAtWgt=          16          32
 AtmWgt=  15.9949146  31.9720718
 NucSpn=           0           0
 AtZEff=  -0.0000000  -0.0000000
 NQMom=    0.0000000   0.0000000
 NMagM=    0.0000000   0.0000000
 AtZNuc=   8.0000000  16.0000000
 Leave Link  101 at Wed Apr 16 05:32:23 2025, MaxMem=  8053063680 cpu:               2.7 elap:               0.4
 (Enter /home/szhao/Apps/g16/l202.exe)
                          Input orientation:                          
 ---------------------------------------------------------------------
 Center     Atomic      Atomic             Coordinates (Angstroms)
 Number     Number       Type             X           Y           Z
 ---------------------------------------------------------------------
      1          8           0       -0.745068    0.000000    0.000000
      2         16           0        0.745068    0.000000    0.000000
 ---------------------------------------------------------------------
 Stoichiometry    OS
 Framework group  C*V[C*(OS)]
 Deg. of freedom     1
 Full point group                 C*V     NOp   4
 Largest Abelian subgroup         C2V     NOp   4
 Largest concise Abelian subgroup C1      NOp   1
                         Standard orientation:                         
 ---------------------------------------------------------------------
 Center     Atomic      Atomic             Coordinates (Angstroms)
 Number     Number       Type             X           Y           Z
 ---------------------------------------------------------------------
      1          8           0        0.000000    0.000000   -0.993424
      2         16           0        0.000000    0.000000    0.496712
 ---------------------------------------------------------------------
 Rotational constants (GHZ):           0.0000000          21.3478977          21.3478977
 Leave Link  202 at Wed Apr 16 05:32:23 2025, MaxMem=  8053063680 cpu:               1.3 elap:               0.2
 (Enter /home/szhao/Apps/g16/l301.exe)
 Standard basis: CBSB2** (6D, 7F)
 Ernie: Thresh=  0.10000D-02 Tol=  0.10000D-05 Strict=F.
 There are    22 symmetry adapted cartesian basis functions of A1  symmetry.
 There are     2 symmetry adapted cartesian basis functions of A2  symmetry.
 There are     9 symmetry adapted cartesian basis functions of B1  symmetry.
 There are     9 symmetry adapted cartesian basis functions of B2  symmetry.
 There are    22 symmetry adapted basis functions of A1  symmetry.
 There are     2 symmetry adapted basis functions of A2  symmetry.
 There are     9 symmetry adapted basis functions of B1  symmetry.
 There are     9 symmetry adapted basis functions of B2  symmetry.
    42 basis functions,    88 primitive gaussians,    42 cartesian basis functions
    12 alpha electrons       12 beta electrons
       nuclear repulsion energy        45.4553698439 Hartrees.
 IExCor= 4336 DFT=T Ex+Corr=M062X ExCW=0 ScaHFX=  0.540000
 ScaDFX=  1.000000  1.000000  1.000000  1.000000 ScalE2=  1.000000  1.000000
 IRadAn=      5 IRanWt=     -1 IRanGd=            0 ICorTp=0 IEmpDi=  4
 NAtoms=    2 NActive=    2 NUniq=    2 SFac= 1.00D+00 NAtFMM=   60 NAOKFM=F Big=F
 Integral buffers will be    131072 words long.
 Raffenetti 2 integral format.
 Two-electron integral symmetry is turned on.
 Leave Link  301 at Wed Apr 16 05:32:23 2025, MaxMem=  8053063680 cpu:               0.6 elap:               0.1
 (Enter /home/szhao/Apps/g16/l302.exe)
 NPDir=0 NMtPBC=     1 NCelOv=     1 NCel=       1 NClECP=     1 NCelD=      1
         NCelK=      1 NCelE2=     1 NClLst=     1 CellRange=     0.0.
 One-electron integrals computed using PRISM.
 One-electron integral symmetry used in STVInt
 NBasis=    42 RedAO= T EigKep=  5.84D-03  NBF=    22     2     9     9
 NBsUse=    42 1.00D-06 EigRej= -1.00D+00 NBFU=    22     2     9     9
 Precomputing XC quadrature grid using
 IXCGrd= 4 IRadAn=           5 IRanWt=          -1 IRanGd=           0 AccXCQ= 0.00D+00.
 Generated NRdTot=       0 NPtTot=           0 NUsed=           0 NTot=          32
 NSgBfM=    42    42    42    42    42 MxSgAt=     2 MxSgA2=     2.
 Leave Link  302 at Wed Apr 16 05:32:25 2025, MaxMem=  8053063680 cpu:              11.0 elap:               1.3
 (Enter /home/szhao/Apps/g16/l303.exe)
 DipDrv:  MaxL=1.
 Leave Link  303 at Wed Apr 16 05:32:25 2025, MaxMem=  8053063680 cpu:               1.7 elap:               0.2
 (Enter /home/szhao/Apps/g16/l401.exe)
 ExpMin= 4.05D-02 ExpMax= 2.19D+04 ExpMxC= 3.30D+03 IAcc=3 IRadAn=         5 AccDes= 0.00D+00
 Harris functional with IExCor= 1009 and IRadAn=       5 diagonalized for initial guess.
 HarFok:  IExCor= 1009 AccDes= 0.00D+00 IRadAn=         5 IDoV= 1 UseB2=F ITyADJ=14
 ICtDFT=  3500011 ScaDFX=  1.000000  1.000000  1.000000  1.000000
 FoFCou: FMM=F IPFlag=           0 FMFlag=      100000 FMFlg1=           0
         NFxFlg=           0 DoJE=T BraDBF=F KetDBF=T FulRan=T
         wScrn=  0.000000 ICntrl=       500 IOpCl=  0 I1Cent=   200000004 NGrid=           0
         NMat0=    1 NMatS0=      1 NMatT0=    0 NMatD0=    1 NMtDS0=    0 NMtDT0=    0
 Petite list used in FoFCou.
 Harris En= -473.048363710243    
 JPrj=0 DoOrth=F DoCkMO=F.
 Initial guess orbital symmetries:
 Alpha Orbitals:
       Occupied  (SG) (SG) (SG) (SG) (PI) (PI) (SG) (SG) (SG) (PI)
                 (PI) (PI)
       Virtual   (PI) (SG) (SG) (PI) (PI) (SG) (SG) (PI) (PI) (SG)
                 (PI) (PI) (SG) (SG) (DLTA) (DLTA) (PI) (PI) (SG)
                 (PI) (PI) (SG) (SG) (DLTA) (DLTA) (PI) (PI) (SG)
                 (SG) (SG)
 Beta  Orbitals:
       Occupied  (SG) (SG) (SG) (SG) (PI) (PI) (SG) (SG) (SG) (PI)
                 (PI) (PI)
       Virtual   (PI) (SG) (SG) (PI) (PI) (SG) (SG) (PI) (PI) (SG)
                 (PI) (PI) (SG) (SG) (DLTA) (DLTA) (PI) (PI) (SG)
                 (PI) (PI) (SG) (SG) (DLTA) (DLTA) (PI) (PI) (SG)
                 (SG) (SG)
 Initial guess <Sx>= 0.0000 <Sy>= 0.0000 <Sz>= 0.0000 <S**2>=-0.0000 S=-0.0000
 Leave Link  401 at Wed Apr 16 05:32:25 2025, MaxMem=  8053063680 cpu:               2.7 elap:               0.4
 (Enter /home/szhao/Apps/g16/l502.exe)
 Keep R1 and R2 ints in memory in symmetry-blocked form, NReq=14232498.
 FoFCou: FMM=F IPFlag=           0 FMFlag=           0 FMFlg1=           0
         NFxFlg=           0 DoJE=F BraDBF=F KetDBF=F FulRan=T
         wScrn=  0.000000 ICntrl=       600 IOpCl=  0 I1Cent=           0 NGrid=           0
         NMat0=    1 NMatS0=    903 NMatT0=    0 NMatD0=    1 NMtDS0=    0 NMtDT0=    0
 Petite list used in FoFCou.
 UHF open shell SCF:
 Using DIIS extrapolation, IDIIS=  1040.
 NGot=  8053063680 LenX=  8052825824 LenY=  8052823619
 Requested convergence on RMS density matrix=1.00D-08 within 128 cycles.
 Requested convergence on MAX density matrix=1.00D-06.
 Requested convergence on             energy=1.00D-06.
 No special actions if energy rises.

 Cycle   1  Pass 1  IDiag  1:
 E= -473.141969040180    
 DIIS: error= 4.63D-02 at cycle   1 NSaved=   1.
 NSaved= 1 IEnMin= 1 EnMin= -473.141969040180     IErMin= 1 ErrMin= 4.63D-02
 ErrMax= 4.63D-02  0.00D+00 EMaxC= 1.00D-01 BMatC= 5.03D-01 BMatP= 5.03D-01
 IDIUse=3 WtCom= 5.37D-01 WtEn= 4.63D-01
 Coeff-Com:  0.100D+01
 Coeff-En:   0.100D+01
 Coeff:      0.100D+01
 Gap=     0.143 Goal=   None    Shift=    0.000
 Gap=     0.143 Goal=   None    Shift=    0.000
 GapD=    0.143 DampG=1.000 DampE=0.500 DampFc=0.5000 IDamp=-1.
 Damping current iteration by 5.00D-01
 RMSDP=1.82D-02 MaxDP=2.83D-01              OVMax= 4.38D-01

 Cycle   2  Pass 1  IDiag  1:
 E= -473.141347837728     Delta-E=        0.000621202453 Rises=F Damp=T
 DIIS: error= 2.60D-02 at cycle   2 NSaved=   2.
 NSaved= 2 IEnMin= 1 EnMin= -473.141969040180     IErMin= 2 ErrMin= 2.60D-02
 ErrMax= 2.60D-02  0.00D+00 EMaxC= 1.00D-01 BMatC= 1.52D-01 BMatP= 5.03D-01
 IDIUse=3 WtCom= 7.40D-01 WtEn= 2.60D-01
 Coeff-Com:  0.320D+00 0.680D+00
 Coeff-En:   0.502D+00 0.498D+00
 Coeff:      0.368D+00 0.632D+00
 Gap=     0.173 Goal=   None    Shift=    0.000
 Gap=     0.173 Goal=   None    Shift=    0.000
 RMSDP=3.74D-03 MaxDP=4.73D-02 DE= 6.21D-04 OVMax= 2.76D-01

 Cycle   3  Pass 1  IDiag  1:
 E= -473.241390926344     Delta-E=       -0.100043088616 Rises=F Damp=F
 DIIS: error= 3.24D-03 at cycle   3 NSaved=   3.
 NSaved= 3 IEnMin= 3 EnMin= -473.241390926344     IErMin= 3 ErrMin= 3.24D-03
 ErrMax= 3.24D-03  0.00D+00 EMaxC= 1.00D-01 BMatC= 2.26D-03 BMatP= 1.52D-01
 IDIUse=3 WtCom= 9.68D-01 WtEn= 3.24D-02
 Coeff-Com:  0.452D-01 0.861D-02 0.946D+00
 Coeff-En:   0.000D+00 0.000D+00 0.100D+01
 Coeff:      0.438D-01 0.833D-02 0.948D+00
 Gap=     0.152 Goal=   None    Shift=    0.000
 Gap=     0.152 Goal=   None    Shift=    0.000
 RMSDP=8.88D-04 MaxDP=1.82D-02 DE=-1.00D-01 OVMax= 8.75D-03

 Cycle   4  Pass 1  IDiag  1:
 E= -473.241848849279     Delta-E=       -0.000457922935 Rises=F Damp=F
 DIIS: error= 2.04D-03 at cycle   4 NSaved=   4.
 NSaved= 4 IEnMin= 4 EnMin= -473.241848849279     IErMin= 4 ErrMin= 2.04D-03
 ErrMax= 2.04D-03  0.00D+00 EMaxC= 1.00D-01 BMatC= 4.59D-04 BMatP= 2.26D-03
 IDIUse=3 WtCom= 9.80D-01 WtEn= 2.04D-02
 Coeff-Com:  0.112D-01-0.344D-01 0.236D+00 0.788D+00
 Coeff-En:   0.000D+00 0.000D+00 0.000D+00 0.100D+01
 Coeff:      0.109D-01-0.337D-01 0.231D+00 0.792D+00
 Gap=     0.152 Goal=   None    Shift=    0.000
 Gap=     0.152 Goal=   None    Shift=    0.000
 RMSDP=2.57D-04 MaxDP=3.63D-03 DE=-4.58D-04 OVMax= 2.91D-03

 Cycle   5  Pass 1  IDiag  1:
 E= -473.241942770090     Delta-E=       -0.000093920811 Rises=F Damp=F
 DIIS: error= 4.76D-04 at cycle   5 NSaved=   5.
 NSaved= 5 IEnMin= 5 EnMin= -473.241942770090     IErMin= 5 ErrMin= 4.76D-04
 ErrMax= 4.76D-04  0.00D+00 EMaxC= 1.00D-01 BMatC= 5.51D-05 BMatP= 4.59D-04
 IDIUse=3 WtCom= 9.95D-01 WtEn= 4.76D-03
 Coeff-Com:  0.448D-02-0.897D-02-0.400D-01-0.310D-01 0.108D+01
 Coeff-En:   0.000D+00 0.000D+00 0.000D+00 0.000D+00 0.100D+01
 Coeff:      0.446D-02-0.892D-02-0.398D-01-0.308D-01 0.108D+01
 Gap=     0.152 Goal=   None    Shift=    0.000
 Gap=     0.152 Goal=   None    Shift=    0.000
 RMSDP=1.06D-04 MaxDP=1.57D-03 DE=-9.39D-05 OVMax= 1.51D-03

 Cycle   6  Pass 1  IDiag  1:
 E= -473.241956487062     Delta-E=       -0.000013716972 Rises=F Damp=F
 DIIS: error= 7.62D-05 at cycle   6 NSaved=   6.
 NSaved= 6 IEnMin= 6 EnMin= -473.241956487062     IErMin= 6 ErrMin= 7.62D-05
 ErrMax= 7.62D-05  0.00D+00 EMaxC= 1.00D-01 BMatC= 1.16D-06 BMatP= 5.51D-05
 IDIUse=1 WtCom= 1.00D+00 WtEn= 0.00D+00
 Coeff-Com: -0.155D-03 0.284D-03-0.601D-02-0.286D-01-0.840D-01 0.112D+01
 Coeff:     -0.155D-03 0.284D-03-0.601D-02-0.286D-01-0.840D-01 0.112D+01
 Gap=     0.152 Goal=   None    Shift=    0.000
 Gap=     0.152 Goal=   None    Shift=    0.000
 RMSDP=2.31D-05 MaxDP=2.79D-04 DE=-1.37D-05 OVMax= 3.99D-04

 Cycle   7  Pass 1  IDiag  1:
 E= -473.241956943189     Delta-E=       -0.000000456127 Rises=F Damp=F
 DIIS: error= 1.83D-05 at cycle   7 NSaved=   7.
 NSaved= 7 IEnMin= 7 EnMin= -473.241956943189     IErMin= 7 ErrMin= 1.83D-05
 ErrMax= 1.83D-05  0.00D+00 EMaxC= 1.00D-01 BMatC= 7.79D-08 BMatP= 1.16D-06
 IDIUse=1 WtCom= 1.00D+00 WtEn= 0.00D+00
 Coeff-Com: -0.220D-04 0.239D-03 0.187D-02 0.231D-02-0.661D-01 0.413D-01
 Coeff-Com:  0.102D+01
 Coeff:     -0.220D-04 0.239D-03 0.187D-02 0.231D-02-0.661D-01 0.413D-01
 Coeff:      0.102D+01
 Gap=     0.152 Goal=   None    Shift=    0.000
 Gap=     0.152 Goal=   None    Shift=    0.000
 RMSDP=6.04D-06 MaxDP=1.02D-04 DE=-4.56D-07 OVMax= 1.04D-04

 Cycle   8  Pass 1  IDiag  1:
 E= -473.241956969378     Delta-E=       -0.000000026189 Rises=F Damp=F
 DIIS: error= 1.96D-06 at cycle   8 NSaved=   8.
 NSaved= 8 IEnMin= 8 EnMin= -473.241956969378     IErMin= 8 ErrMin= 1.96D-06
 ErrMax= 1.96D-06  0.00D+00 EMaxC= 1.00D-01 BMatC= 6.98D-10 BMatP= 7.79D-08
 IDIUse=1 WtCom= 1.00D+00 WtEn= 0.00D+00
 Coeff-Com:  0.179D-04-0.506D-04 0.153D-03 0.148D-02 0.380D-02-0.472D-01
 Coeff-Com:  0.110D-01 0.103D+01
 Coeff:      0.179D-04-0.506D-04 0.153D-03 0.148D-02 0.380D-02-0.472D-01
 Coeff:      0.110D-01 0.103D+01
 Gap=     0.152 Goal=   None    Shift=    0.000
 Gap=     0.152 Goal=   None    Shift=    0.000
 RMSDP=6.14D-07 MaxDP=8.24D-06 DE=-2.62D-08 OVMax= 1.09D-05

 Cycle   9  Pass 1  IDiag  1:
 E= -473.241956969679     Delta-E=       -0.000000000300 Rises=F Damp=F
 DIIS: error= 3.35D-07 at cycle   9 NSaved=   9.
 NSaved= 9 IEnMin= 9 EnMin= -473.241956969679     IErMin= 9 ErrMin= 3.35D-07
 ErrMax= 3.35D-07  0.00D+00 EMaxC= 1.00D-01 BMatC= 1.11D-11 BMatP= 6.98D-10
 IDIUse=1 WtCom= 1.00D+00 WtEn= 0.00D+00
 Coeff-Com: -0.466D-06-0.201D-06-0.251D-04-0.264D-03 0.400D-03 0.617D-02
 Coeff-Com: -0.187D-01-0.151D+00 0.116D+01
 Coeff:     -0.466D-06-0.201D-06-0.251D-04-0.264D-03 0.400D-03 0.617D-02
 Coeff:     -0.187D-01-0.151D+00 0.116D+01
 Gap=     0.152 Goal=   None    Shift=    0.000
 Gap=     0.152 Goal=   None    Shift=    0.000
 RMSDP=8.78D-08 MaxDP=1.09D-06 DE=-3.00D-10 OVMax= 1.72D-06

 Cycle  10  Pass 1  IDiag  1:
 E= -473.241956969684     Delta-E=       -0.000000000005 Rises=F Damp=F
 DIIS: error= 4.40D-08 at cycle  10 NSaved=  10.
 NSaved=10 IEnMin=10 EnMin= -473.241956969684     IErMin=10 ErrMin= 4.40D-08
 ErrMax= 4.40D-08  0.00D+00 EMaxC= 1.00D-01 BMatC= 2.75D-13 BMatP= 1.11D-11
 IDIUse=1 WtCom= 1.00D+00 WtEn= 0.00D+00
 Coeff-Com: -0.680D-06 0.134D-05-0.611D-05-0.321D-04-0.290D-04 0.944D-03
 Coeff-Com: -0.891D-03-0.197D-01 0.283D-01 0.991D+00
 Coeff:     -0.680D-06 0.134D-05-0.611D-05-0.321D-04-0.290D-04 0.944D-03
 Coeff:     -0.891D-03-0.197D-01 0.283D-01 0.991D+00
 Gap=     0.152 Goal=   None    Shift=    0.000
 Gap=     0.152 Goal=   None    Shift=    0.000
 RMSDP=7.98D-09 MaxDP=9.83D-08 DE=-4.89D-12 OVMax= 1.32D-07

 SCF Done:  E(UM062X) =  -473.241956970     A.U. after   10 cycles
            NFock= 10  Conv=0.80D-08     -V/T= 2.0035
 <Sx>= 0.0000 <Sy>= 0.0000 <Sz>= 0.0000 <S**2>= 0.0000 S= 0.0000
 <L.S>=  0.00000000000    
 KE= 4.716127180624D+02 PE=-1.214268928463D+03 EE= 2.239588835874D+02
 Annihilation of the first spin contaminant:
 S**2 before annihilation     0.0000,   after     0.0000
 Leave Link  502 at Wed Apr 16 05:32:26 2025, MaxMem=  8053063680 cpu:               8.7 elap:               1.0
 (Enter /home/szhao/Apps/g16/l601.exe)
 Copying SCF densities to generalized density rwf, IOpCl= 1 IROHF=0.

 **********************************************************************

            Population analysis using the SCF density.

 **********************************************************************

 Orbital symmetries:
 Alpha Orbitals:
       Occupied  (SG) (SG) (SG) (PI) (SG) (PI) (SG) (SG) (SG) (?A)
                 (?A) (?A)
       Virtual   (?A) (SG) (SG) (PI) (PI) (SG) (SG) (PI) (PI) (SG)
                 (PI) (PI) (SG) (SG) (?B) (?B) (PI) (PI) (?B) (PI)
                 (PI) (SG) (SG) (DLTA) (DLTA) (PI) (PI) (SG) (SG)
                 (SG)
 Beta  Orbitals:
       Occupied  (SG) (SG) (SG) (PI) (SG) (PI) (SG) (SG) (SG) (?A)
                 (?A) (?A)
       Virtual   (?A) (SG) (SG) (PI) (PI) (SG) (SG) (PI) (PI) (SG)
                 (PI) (PI) (SG) (SG) (?B) (?B) (PI) (PI) (?B) (PI)
                 (PI) (SG) (SG) (DLTA) (DLTA) (PI) (PI) (SG) (SG)
                 (SG)
 Unable to determine electronic state:  an orbital has unidentified symmetry.
 Alpha  occ. eigenvalues --  -90.03009 -19.72164  -8.37064  -6.29176  -6.29034
 Alpha  occ. eigenvalues --   -6.28116  -1.20630  -0.75117  -0.52057  -0.51225
 Alpha  occ. eigenvalues --   -0.49792  -0.28759
 Alpha virt. eigenvalues --   -0.13519   0.01359   0.02882   0.05401   0.06424
 Alpha virt. eigenvalues --    0.12971   0.19442   0.21757   0.22403   0.30050
 Alpha virt. eigenvalues --    0.49128   0.50170   0.50756   0.61944   0.76151
 Alpha virt. eigenvalues --    0.76749   0.77804   0.79336   1.10869   1.24369
 Alpha virt. eigenvalues --    1.25412   1.25644   1.61225   2.82612   2.83626
 Alpha virt. eigenvalues --    2.92257   2.94639   3.39434   4.03367   6.00917
  Beta  occ. eigenvalues --  -90.03009 -19.72164  -8.37064  -6.29176  -6.29034
  Beta  occ. eigenvalues --   -6.28116  -1.20630  -0.75117  -0.52057  -0.51225
  Beta  occ. eigenvalues --   -0.49792  -0.28759
  Beta virt. eigenvalues --   -0.13519   0.01359   0.02882   0.05401   0.06424
  Beta virt. eigenvalues --    0.12971   0.19442   0.21757   0.22403   0.30050
  Beta virt. eigenvalues --    0.49128   0.50170   0.50756   0.61944   0.76151
  Beta virt. eigenvalues --    0.76749   0.77804   0.79336   1.10869   1.24369
  Beta virt. eigenvalues --    1.25412   1.25644   1.61225   2.82612   2.83626
  Beta virt. eigenvalues --    2.92257   2.94639   3.39434   4.03367   6.00917
          Condensed to atoms (all electrons):
               1          2
     1  O    8.260566   0.038148
     2  S    0.038148  15.663138
          Atomic-Atomic Spin Densities.
               1          2
     1  O    0.000000   0.000000
     2  S    0.000000   0.000000
 Mulliken charges and spin densities:
               1          2
     1  O   -0.298714   0.000000
     2  S    0.298714   0.000000
 Sum of Mulliken charges =   0.00000   0.00000
 Mulliken charges and spin densities with hydrogens summed into heavy atoms:
               1          2
     1  O   -0.298714   0.000000
     2  S    0.298714   0.000000
 Electronic spatial extent (au):  <R**2>=             82.9004
 Charge=              0.0000 electrons
 Dipole moment (field-independent basis, Debye):
    X=              0.0000    Y=              0.0000    Z=              1.8246  Tot=              1.8246
 Quadrupole moment (field-independent basis, Debye-Ang):
   XX=            -19.9726   YY=            -15.7379   ZZ=            -18.9106
   XY=              0.0000   XZ=              0.0000   YZ=              0.0000
 Traceless Quadrupole moment (field-independent basis, Debye-Ang):
   XX=             -1.7656   YY=              2.4691   ZZ=             -0.7036
   XY=              0.0000   XZ=              0.0000   YZ=              0.0000
 Octapole moment (field-independent basis, Debye-Ang**2):
  XXX=              0.0000  YYY=              0.0000  ZZZ=              1.5228  XYY=              0.0000
  XXY=              0.0000  XXZ=             -2.1667  XZZ=              0.0000  YZZ=              0.0000
  YYZ=             -0.1441  XYZ=              0.0000
 Hexadecapole moment (field-independent basis, Debye-Ang**3):
 XXXX=            -26.6234 YYYY=            -15.8334 ZZZZ=            -70.2726 XXXY=              0.0000
 XXXZ=              0.0000 YYYX=              0.0000 YYYZ=              0.0000 ZZZX=              0.0000
 ZZZY=              0.0000 XXYY=             -7.0760 XXZZ=            -18.1139 YYZZ=            -13.6887
 XXYZ=              0.0000 YYXZ=              0.0000 ZZXY=              0.0000
 N-N= 4.545536984393D+01 E-N=-1.214268927504D+03  KE= 4.716127180624D+02
 Symmetry A1   KE= 3.887260811362D+02
 Symmetry A2   KE= 4.085589528318D-35
 Symmetry B1   KE= 4.379142061876D+01
 Symmetry B2   KE= 3.909521630745D+01
 Symmetry A1   SP= 0.000000000000D+00
 Symmetry A2   SP= 0.000000000000D+00
 Symmetry B1   SP= 0.000000000000D+00
 Symmetry B2   SP= 0.000000000000D+00
                          Isotropic Fermi Contact Couplings
        Atom                 a.u.       MegaHertz       Gauss      10(-4) cm-1
     1  O(17)              0.00000      -0.00000      -0.00000      -0.00000
     2  S(33)              0.00000       0.00000       0.00000       0.00000
 --------------------------------------------------------
       Center         ----  Spin Dipole Couplings  ----
                      3XX-RR        3YY-RR        3ZZ-RR
 --------------------------------------------------------
     1   Atom        0.000000      0.000000      0.000000
     2   Atom        0.000000      0.000000      0.000000
 --------------------------------------------------------
                        XY            XZ            YZ
 --------------------------------------------------------
     1   Atom        0.000000      0.000000      0.000000
     2   Atom        0.000000      0.000000      0.000000
 --------------------------------------------------------


 ---------------------------------------------------------------------------------
              Anisotropic Spin Dipole Couplings in Principal Axis System
 ---------------------------------------------------------------------------------

       Atom             a.u.   MegaHertz   Gauss  10(-4) cm-1        Axes

              Baa     0.0000    -0.000    -0.000    -0.000  1.0000  0.0000  0.0000
     1 O(17)  Bbb     0.0000    -0.000    -0.000    -0.000 -0.0000  1.0000  0.0000
              Bcc     0.0000    -0.000    -0.000    -0.000  0.0000  0.0000  1.0000
 
              Baa     0.0000     0.000     0.000     0.000  1.0000  0.0000  0.0000
     2 S(33)  Bbb     0.0000     0.000     0.000     0.000 -0.0000  1.0000  0.0000
              Bcc     0.0000     0.000     0.000     0.000  0.0000  0.0000  1.0000
 

 ---------------------------------------------------------------------------------

 No NMR shielding tensors so no spin-rotation constants.
 Leave Link  601 at Wed Apr 16 05:32:27 2025, MaxMem=  8053063680 cpu:               4.1 elap:               0.6
 (Enter /home/szhao/Apps/g16/l607.exe)
 ******************************Gaussian NBO Version 3.1******************************
             N A T U R A L   A T O M I C   O R B I T A L   A N D
          N A T U R A L   B O N D   O R B I T A L   A N A L Y S I S
 ******************************Gaussian NBO Version 3.1******************************
       /RESON  / : Allow strongly delocalized NBO set

 Analyzing the SCF density

 Job title: NBO Analysis                                                    

 Storage needed:      5622 in NPA,      7209 in NBO (8053063652 available)
 GSVD:  LWork=         804 too small for GESVD, short by         936 words or         936 for optimal perf.


 NATURAL POPULATIONS:  Natural atomic orbital occupancies 
                                                          
   NAO  Atom  No  lang   Type(AO)    Occupancy
 --------------------------------------------
     1    O    1  S      Cor( 1S)     1.99991
     2    O    1  S      Val( 2S)     1.85213
     3    O    1  S      Ryd( 3S)     0.00563
     4    O    1  S      Ryd( 4S)     0.00043
     5    O    1  S      Ryd( 5S)     0.00000
     6    O    1  px     Val( 2p)     1.97419
     7    O    1  px     Ryd( 3p)     0.00343
     8    O    1  px     Ryd( 4p)     0.00003
     9    O    1  py     Val( 2p)     1.27112
    10    O    1  py     Ryd( 3p)     0.00010
    11    O    1  py     Ryd( 4p)     0.00008
    12    O    1  pz     Val( 2p)     1.51605
    13    O    1  pz     Ryd( 3p)     0.00105
    14    O    1  pz     Ryd( 4p)     0.00004
    15    O    1  dxy    Ryd( 3d)     0.00000
    16    O    1  dxz    Ryd( 3d)     0.00205
    17    O    1  dyz    Ryd( 3d)     0.00244
    18    O    1  dx2y2  Ryd( 3d)     0.00005
    19    O    1  dz2    Ryd( 3d)     0.00330
 
    20    S    2  S      Cor( 1S)     2.00000
    21    S    2  S      Cor( 2S)     1.99986
    22    S    2  S      Val( 3S)     1.81083
    23    S    2  S      Ryd( 4S)     0.01867
    24    S    2  S      Ryd( 5S)     0.00001
    25    S    2  S      Ryd( 6S)     0.00001
    26    S    2  px     Cor( 2p)     1.99999
    27    S    2  px     Val( 3p)     1.98855
    28    S    2  px     Ryd( 4p)     0.01772
    29    S    2  px     Ryd( 5p)     0.00004
    30    S    2  py     Cor( 2p)     1.99989
    31    S    2  py     Val( 3p)     0.71309
    32    S    2  py     Ryd( 4p)     0.00122
    33    S    2  py     Ryd( 5p)     0.00015
    34    S    2  pz     Cor( 2p)     1.99984
    35    S    2  pz     Val( 3p)     0.76466
    36    S    2  pz     Ryd( 4p)     0.01498
    37    S    2  pz     Ryd( 5p)     0.00026
    38    S    2  dxy    Ryd( 3d)     0.00000
    39    S    2  dxz    Ryd( 3d)     0.01400
    40    S    2  dyz    Ryd( 3d)     0.01191
    41    S    2  dx2y2  Ryd( 3d)     0.00050
    42    S    2  dz2    Ryd( 3d)     0.01180


 Summary of Natural Population Analysis:                  
                                                          
                                       Natural Population 
                Natural  -----------------------------------------------
    Atom  No    Charge         Core      Valence    Rydberg      Total
 -----------------------------------------------------------------------
      O    1   -0.63203      1.99991     6.61349    0.01863     8.63203
      S    2    0.63203      9.99958     5.27713    0.09127    15.36797
 =======================================================================
   * Total *   -0.00000     11.99948    11.89062    0.10990    24.00000

                                 Natural Population      
 --------------------------------------------------------
   Core                      11.99948 ( 99.9957% of  12)
   Valence                   11.89062 ( 99.0885% of  12)
   Natural Minimal Basis     23.89010 ( 99.5421% of  24)
   Natural Rydberg Basis      0.10990 (  0.4579% of  24)
 --------------------------------------------------------

    Atom  No          Natural Electron Configuration
 ----------------------------------------------------------------------------
      O    1      [core]2S( 1.85)2p( 4.76)3S( 0.01)3d( 0.01)
      S    2      [core]3S( 1.81)3p( 3.47)4S( 0.02)3d( 0.04)4p( 0.03)


 ***************************************************
 *******         Alpha spin orbitals         *******
 ***************************************************


 NATURAL POPULATIONS:  Natural atomic orbital occupancies 
                                                          
   NAO  Atom  No  lang   Type(AO)    Occupancy      Energy
 ----------------------------------------------------------
     1    O    1  S      Cor( 1S)     0.99995     -19.55073
     2    O    1  S      Val( 2S)     0.92607      -1.13374
     3    O    1  S      Ryd( 3S)     0.00281       0.31381
     4    O    1  S      Ryd( 4S)     0.00021       1.42028
     5    O    1  S      Ryd( 5S)     0.00000       5.94461
     6    O    1  px     Val( 2p)     0.98710      -0.43795
     7    O    1  px     Ryd( 3p)     0.00171       0.47307
     8    O    1  px     Ryd( 4p)     0.00001       0.94529
     9    O    1  py     Val( 2p)     0.63556      -0.35000
    10    O    1  py     Ryd( 3p)     0.00005       0.46781
    11    O    1  py     Ryd( 4p)     0.00004       0.93509
    12    O    1  pz     Val( 2p)     0.75803      -0.43526
    13    O    1  pz     Ryd( 3p)     0.00053       0.65809
    14    O    1  pz     Ryd( 4p)     0.00002       0.82106
    15    O    1  dxy    Ryd( 3d)     0.00000       2.83335
    16    O    1  dxz    Ryd( 3d)     0.00103       2.88058
    17    O    1  dyz    Ryd( 3d)     0.00122       2.85721
    18    O    1  dx2y2  Ryd( 3d)     0.00002       2.82345
    19    O    1  dz2    Ryd( 3d)     0.00165       3.26587
 
    20    S    2  S      Cor( 1S)     1.00000     -88.48329
    21    S    2  S      Cor( 2S)     0.99993      -9.76189
    22    S    2  S      Val( 3S)     0.90541      -0.82795
    23    S    2  S      Ryd( 4S)     0.00934       0.43821
    24    S    2  S      Ryd( 6S)     0.00000       3.47300
    25    S    2  S      Ryd( 5S)     0.00000       0.76525
    26    S    2  px     Cor( 2p)     1.00000      -6.27969
    27    S    2  px     Val( 3p)     0.99428      -0.34572
    28    S    2  px     Ryd( 5p)     0.00886       0.36541
    29    S    2  px     Ryd( 4p)     0.00002       0.21660
    30    S    2  py     Cor( 2p)     0.99995      -6.28994
    31    S    2  py     Val( 3p)     0.35654      -0.25969
    32    S    2  py     Ryd( 5p)     0.00061       0.35382
    33    S    2  py     Ryd( 4p)     0.00007       0.20588
    34    S    2  pz     Cor( 2p)     0.99992      -6.28438
    35    S    2  pz     Val( 3p)     0.38233      -0.17447
    36    S    2  pz     Ryd( 5p)     0.00749       0.42655
    37    S    2  pz     Ryd( 4p)     0.00013       0.24194
    38    S    2  dxy    Ryd( 3d)     0.00000       0.77039
    39    S    2  dxz    Ryd( 3d)     0.00700       0.88526
    40    S    2  dyz    Ryd( 3d)     0.00595       0.86211
    41    S    2  dx2y2  Ryd( 3d)     0.00025       0.76430
    42    S    2  dz2    Ryd( 3d)     0.00590       1.20076

 WARNING:  Population inversion found on atom  S    2


 Summary of Natural Population Analysis:                  
                                                          
                                       Natural Population 
                Natural  -----------------------------------------------
    Atom  No    Charge         Core      Valence    Rydberg      Total
 -----------------------------------------------------------------------
      O    1   -0.31601      0.99995     3.30675    0.00932     4.31601
      S    2    0.31601      4.99979     2.63856    0.04563     7.68399
 =======================================================================
   * Total *    0.00000      5.99974     5.94531    0.05495    12.00000

                                 Natural Population      
 --------------------------------------------------------
   Core                       5.99974 ( 99.9957% of   6)
   Valence                    5.94531 ( 99.0885% of   6)
   Natural Minimal Basis     11.94505 ( 99.5421% of  12)
   Natural Rydberg Basis      0.05495 (  0.4579% of  12)
 --------------------------------------------------------

    Atom  No          Natural Electron Configuration
 ----------------------------------------------------------------------------
      O    1      [core]2S( 0.93)2p( 2.38)
      S    2      [core]3S( 0.91)3p( 1.73)4S( 0.01)3d( 0.02)5p( 0.02)


 NATURAL BOND ORBITAL ANALYSIS, alpha spin orbitals:

                       Occupancies       Lewis Structure    Low   High
           Occ.    -------------------  -----------------   occ   occ
  Cycle   Thresh.   Lewis   Non-Lewis     CR  BD  3C  LP    (L)   (NL)   Dev
 =============================================================================
   1(1)    0.90    11.98518   0.01482      6   2   0   4     0      0    0.00
 -----------------------------------------------------------------------------

 Structure accepted: No low occupancy Lewis orbitals

 --------------------------------------------------------
   Core                      5.99974 ( 99.996% of   6)
   Valence Lewis             5.98544 ( 99.757% of   6)
  ==================       ============================
   Total Lewis              11.98518 ( 99.877% of  12)
  -----------------------------------------------------
   Valence non-Lewis         0.00012 (  0.001% of  12)
   Rydberg non-Lewis         0.01470 (  0.123% of  12)
  ==================       ============================
   Total non-Lewis           0.01482 (  0.123% of  12)
 --------------------------------------------------------


       (Occupancy)   Bond orbital/ Coefficients/ Hybrids
 ---------------------------------------------------------------------------------
     1. (1.00000) BD ( 1) O   1 - S   2  
                ( 63.69%)   0.7980* O   1 s(  0.00%)p 1.00( 99.81%)d 0.00(  0.19%)
                                            0.0000  0.0000  0.0000  0.0000  0.0000
                                            0.0000  0.0000  0.0000  0.9990  0.0089
                                            0.0080  0.0000  0.0000  0.0000  0.0000
                                            0.0000  0.0438  0.0000  0.0000
                ( 36.31%)   0.6026* S   2 s(  0.00%)p 1.00( 98.36%)d 0.02(  1.64%)
                                            0.0000  0.0000  0.0000  0.0000  0.0000
                                            0.0000  0.0000  0.0000  0.0000  0.0000
                                            0.0000  0.9908 -0.0410 -0.0143  0.0000
                                            0.0000  0.0000  0.0000  0.0000  0.0000
                                           -0.1280  0.0000  0.0000
     2. (1.00000) BD ( 2) O   1 - S   2  
                ( 68.96%)   0.8304* O   1 s( 23.85%)p 3.18( 75.93%)d 0.01(  0.23%)
                                            0.0000  0.4851 -0.0565 -0.0034  0.0000
                                            0.0000  0.0000  0.0000  0.0000  0.0000
                                            0.0000  0.8710 -0.0226 -0.0053  0.0000
                                            0.0000  0.0000 -0.0028  0.0475
                ( 31.04%)   0.5571* S   2 s( 15.68%)p 5.27( 82.59%)d 0.11(  1.73%)
                                           -0.0000  0.0000  0.3605 -0.1639  0.0009
                                           -0.0008  0.0000  0.0000  0.0000  0.0000
                                            0.0000  0.0000  0.0000  0.0000 -0.0000
                                           -0.8959  0.1513 -0.0155  0.0000  0.0000
                                            0.0000 -0.0039  0.1316
     3. (0.99995) CR ( 1) O   1           s(100.00%)
                                            1.0000  0.0001  0.0000  0.0000 -0.0000
                                            0.0000  0.0000  0.0000  0.0000  0.0000
                                            0.0000 -0.0000  0.0000  0.0000  0.0000
                                            0.0000  0.0000 -0.0000 -0.0000
     4. (1.00000) CR ( 1) S   2           s(100.00%)
                                            1.0000 -0.0000  0.0000  0.0000 -0.0000
                                            0.0000  0.0000  0.0000  0.0000  0.0000
                                            0.0000  0.0000  0.0000  0.0000  0.0000
                                            0.0000 -0.0000 -0.0000  0.0000  0.0000
                                            0.0000 -0.0000 -0.0000
     5. (0.99993) CR ( 2) S   2           s(100.00%)
                                           -0.0000  1.0000  0.0000  0.0000 -0.0000
                                            0.0000  0.0000  0.0000  0.0000  0.0000
                                            0.0000  0.0000  0.0000  0.0000  0.0000
                                            0.0000 -0.0000 -0.0000  0.0000  0.0000
                                            0.0000 -0.0000 -0.0000
     6. (1.00000) CR ( 3) S   2           s(  0.00%)p 1.00(100.00%)
                                            0.0000  0.0000  0.0000  0.0000  0.0000
                                            0.0000  1.0000 -0.0000 -0.0000 -0.0000
                                            0.0000  0.0000  0.0000  0.0000  0.0000
                                            0.0000  0.0000  0.0000  0.0000 -0.0000
                                            0.0000  0.0000  0.0000
     7. (0.99995) CR ( 4) S   2           s(  0.00%)p 1.00(100.00%)
                                            0.0000  0.0000  0.0000  0.0000  0.0000
                                            0.0000  0.0000  0.0000  0.0000  0.0000
                                            1.0000  0.0000  0.0000  0.0000  0.0000
                                            0.0000  0.0000  0.0000  0.0000  0.0000
                                            0.0000  0.0000  0.0000
     8. (0.99992) CR ( 5) S   2           s(  0.00%)p 1.00(100.00%)
                                            0.0000  0.0000 -0.0000 -0.0000  0.0000
                                           -0.0000  0.0000  0.0000  0.0000  0.0000
                                            0.0000  0.0000  0.0000  0.0000  1.0000
                                           -0.0000  0.0000  0.0000  0.0000  0.0000
                                            0.0000  0.0000  0.0000
     9. (0.99925) LP ( 1) O   1           s( 76.49%)p 0.31( 23.51%)d 0.00(  0.01%)
                                           -0.0001  0.8743  0.0216  0.0013 -0.0000
                                            0.0000  0.0000  0.0000  0.0000  0.0000
                                            0.0000 -0.4847  0.0101  0.0009  0.0000
                                            0.0000  0.0000 -0.0043 -0.0088
    10. (0.98821) LP ( 2) O   1           s(  0.00%)p 1.00( 99.90%)d 0.00(  0.10%)
                                            0.0000  0.0000  0.0000  0.0000  0.0000
                                            0.9994  0.0130 -0.0015  0.0000  0.0000
                                            0.0000  0.0000  0.0000  0.0000  0.0000
                                            0.0309  0.0000  0.0000  0.0000
    11. (0.99962) LP ( 1) S   2           s( 86.58%)p 0.15( 13.35%)d 0.00(  0.07%)
                                           -0.0000 -0.0000  0.9303  0.0197 -0.0001
                                            0.0001  0.0000  0.0000  0.0000  0.0000
                                            0.0000  0.0000  0.0000  0.0000  0.0000
                                            0.3649 -0.0160 -0.0070  0.0000  0.0000
                                            0.0000 -0.0157 -0.0222
    12. (0.99836) LP ( 2) S   2           s(  0.00%)p 1.00( 99.99%)d 0.00(  0.01%)
                                            0.0000  0.0000  0.0000  0.0000  0.0000
                                            0.0000  0.0000  0.9979  0.0632  0.0034
                                            0.0000  0.0000  0.0000  0.0000  0.0000
                                            0.0000  0.0000  0.0000  0.0000  0.0104
                                            0.0000  0.0000  0.0000
    13. (0.00164) RY*( 1) O   1           s(  0.00%)p 1.00( 94.82%)d 0.05(  5.18%)
                                            0.0000  0.0000  0.0000  0.0000  0.0000
                                           -0.0057  0.9705 -0.0791  0.0000  0.0000
                                            0.0000  0.0000  0.0000  0.0000  0.0000
                                           -0.2277  0.0000  0.0000  0.0000
    14. (0.00038) RY*( 2) O   1           s( 86.53%)p 0.11(  9.95%)d 0.04(  3.52%)
                                           -0.0000 -0.0082 -0.6070  0.7048 -0.0001
                                            0.0000  0.0000  0.0000  0.0000  0.0000
                                            0.0000 -0.0502 -0.3112 -0.0114  0.0000
                                            0.0000  0.0000  0.0337  0.1846
    15. (0.00006) RY*( 3) O   1           s( 26.89%)p 2.45( 66.01%)d 0.26(  7.09%)
    16. (0.00000) RY*( 4) O   1           s( 84.60%)p 0.16( 13.77%)d 0.02(  1.63%)
    17. (0.00000) RY*( 5) O   1           s(  0.00%)p 1.00(100.00%)
    18. (0.00000) RY*( 6) O   1           s(  0.00%)p 1.00(100.00%)d 0.00(  0.00%)
    19. (0.00000) RY*( 7) O   1           s(  0.00%)p 1.00(100.00%)d 0.00(  0.00%)
    20. (0.00000) RY*( 8) O   1           s(100.00%)p 0.00(  0.00%)d 0.00(  0.00%)
    21. (0.00000) RY*( 9) O   1           s(  0.90%)p99.99( 98.81%)d 0.32(  0.29%)
    22. (0.00000) RY*(10) O   1           s(  0.00%)p 0.00(  0.00%)d 1.00(100.00%)
    23. (0.00000) RY*(11) O   1           s(  0.00%)p 1.00(  5.28%)d17.95( 94.72%)
    24. (0.00000) RY*(12) O   1           s(  0.00%)p 1.00(  0.19%)d99.99( 99.81%)
    25. (0.00000) RY*(13) O   1           s(  0.21%)p 0.15(  0.03%)d99.99( 99.76%)
    26. (0.00000) RY*(14) O   1           s(  0.53%)p22.45( 11.99%)d99.99( 87.47%)
    27. (0.01180) RY*( 1) S   2           s(  0.00%)p 1.00( 41.58%)d 1.41( 58.42%)
                                            0.0000  0.0000  0.0000  0.0000  0.0000
                                            0.0000  0.0000 -0.0487  0.6424  0.0262
                                            0.0000  0.0000  0.0000  0.0000  0.0000
                                            0.0000  0.0000  0.0000  0.0000  0.7643
                                            0.0000  0.0000  0.0000
    28. (0.00078) RY*( 2) S   2           s( 78.61%)p 0.24( 18.58%)d 0.04(  2.81%)
                                           -0.0000  0.0000  0.0592  0.8796  0.0727
                                           -0.0602  0.0000  0.0000  0.0000  0.0000
                                            0.0000  0.0000  0.0000  0.0000 -0.0000
                                           -0.2240 -0.3681  0.0141  0.0000  0.0000
                                            0.0000  0.0088 -0.1673
    29. (0.00004) RY*( 3) S   2           s( 16.49%)p 3.40( 56.00%)d 1.67( 27.51%)
    30. (0.00000) RY*( 4) S   2           s(  0.00%)p 1.00( 58.47%)d 0.71( 41.53%)
    31. (0.00000) RY*( 5) S   2           s(  0.00%)p 1.00( 99.96%)d 0.00(  0.04%)
    32. (0.00000) RY*( 6) S   2           s(  0.00%)p 1.00(100.00%)d 0.00(  0.00%)
    33. (0.00000) RY*( 7) S   2           s(  0.00%)p 1.00(100.00%)d 0.00(  0.00%)
    34. (0.00000) RY*( 8) S   2           s( 99.69%)p 0.00(  0.26%)d 0.00(  0.05%)
    35. (0.00000) RY*( 9) S   2           s(  3.07%)p31.56( 96.86%)d 0.02(  0.07%)
    36. (0.00000) RY*(10) S   2           s(  0.00%)p 0.00(  0.00%)d 1.00(100.00%)
    37. (0.00000) RY*(11) S   2           s( 97.81%)p 0.00(  0.01%)d 0.02(  2.18%)
    38. (0.00000) RY*(12) S   2           s(  0.00%)p 1.00(  1.64%)d59.89( 98.36%)
    39. (0.00000) RY*(13) S   2           s(  0.32%)p 9.87(  3.21%)d99.99( 96.47%)
    40. (0.00000) RY*(14) S   2           s(  1.74%)p16.76( 29.15%)d39.74( 69.11%)
    41. (0.00005) BD*( 1) O   1 - S   2  
                ( 36.31%)   0.6026* O   1 s(  0.00%)p 1.00( 99.81%)d 0.00(  0.19%)
                ( 63.69%)  -0.7980* S   2 s(  0.00%)p 1.00( 98.36%)d 0.02(  1.64%)
    42. (0.00007) BD*( 2) O   1 - S   2  
                ( 31.04%)   0.5571* O   1 s( 23.85%)p 3.18( 75.93%)d 0.01(  0.23%)
                ( 68.96%)  -0.8304* S   2 s( 15.68%)p 5.27( 82.59%)d 0.11(  1.73%)


 NHO Directionality and "Bond Bending" (deviations from line of nuclear centers)

         [Thresholds for printing:  angular deviation  >  1.0 degree]
                                    hybrid p-character > 25.0%
                                    orbital occupancy  >  0.10e

                                Line of Centers        Hybrid 1              Hybrid 2
                                ---------------  -------------------   ------------------
                NBO               Theta   Phi    Theta   Phi    Dev    Theta   Phi    Dev
 ========================================================================================
     1. BD (   1) O   1 - S   2     0.0    0.0    90.0   90.0  90.0     90.0   90.0  90.0
    10. LP (   2) O   1             --     --     90.0    0.0   --       --     --    --
    12. LP (   2) S   2             --     --     90.0    0.0   --       --     --    --


 Second Order Perturbation Theory Analysis of Fock Matrix in NBO Basis

     Threshold for printing:   0.25 kcal/mol
                                                                              E(2)  E(j)-E(i) F(i,j)
         Donor NBO (i)                     Acceptor NBO (j)                 kcal/mol   a.u.    a.u. 
 ===================================================================================================

 within unit  1
   3. CR (   1) O   1                / 28. RY*(   2) S   2                    0.60   20.02    0.138
   5. CR (   2) S   2                / 15. RY*(   3) O   1                    0.31   10.75    0.073
   8. CR (   5) S   2                / 42. BD*(   2) O   1 - S   2            0.28    6.60    0.054
   9. LP (   1) O   1                / 28. RY*(   2) S   2                    0.95    1.44    0.047
  10. LP (   2) O   1                / 27. RY*(   1) S   2                    8.09    1.05    0.117
  10. LP (   2) O   1                / 30. RY*(   4) S   2                    0.49    1.07    0.029
  11. LP (   1) S   2                / 14. RY*(   2) O   1                    0.50    1.93    0.039
  12. LP (   2) S   2                / 13. RY*(   1) O   1                    0.89    0.86    0.035


 Natural Bond Orbitals (Summary):

                                                            Principal Delocalizations
           NBO                        Occupancy    Energy   (geminal,vicinal,remote)
 ====================================================================================
 Molecular unit  1  (OS)
     1. BD (   1) O   1 - S   2          1.00000    -0.49941   
     2. BD (   2) O   1 - S   2          1.00000    -1.01257   
     3. CR (   1) O   1                  0.99995   -19.55092  28(v)
     4. CR (   1) S   2                  1.00000   -88.48329   
     5. CR (   2) S   2                  0.99993    -9.76192  15(v)
     6. CR (   3) S   2                  1.00000    -6.27968   
     7. CR (   4) S   2                  0.99995    -6.28994   
     8. CR (   5) S   2                  0.99992    -6.28437  42(g)
     9. LP (   1) O   1                  0.99925    -0.96370  28(v)
    10. LP (   2) O   1                  0.98821    -0.43926  27(v),30(v)
    11. LP (   1) S   2                  0.99962    -0.82947  14(v)
    12. LP (   2) S   2                  0.99836    -0.34787  13(v)
    13. RY*(   1) O   1                  0.00164     0.51594   
    14. RY*(   2) O   1                  0.00038     1.10427   
    15. RY*(   3) O   1                  0.00006     0.98792   
    16. RY*(   4) O   1                  0.00000     0.73988   
    17. RY*(   5) O   1                  0.00000     1.01340   
    18. RY*(   6) O   1                  0.00000     0.46823   
    19. RY*(   7) O   1                  0.00000     0.93521   
    20. RY*(   8) O   1                  0.00000     5.94463   
    21. RY*(   9) O   1                  0.00000     0.69296   
    22. RY*(  10) O   1                  0.00000     2.83335   
    23. RY*(  11) O   1                  0.00000     2.77092   
    24. RY*(  12) O   1                  0.00000     2.85791   
    25. RY*(  13) O   1                  0.00000     2.81855   
    26. RY*(  14) O   1                  0.00000     2.95730   
    27. RY*(   1) S   2                  0.01180     0.61536   
    28. RY*(   2) S   2                  0.00078     0.47236   
    29. RY*(   3) S   2                  0.00004     0.64045   
    30. RY*(   4) S   2                  0.00000     0.63086   
    31. RY*(   5) S   2                  0.00000     0.22320   
    32. RY*(   6) S   2                  0.00000     0.35031   
    33. RY*(   7) S   2                  0.00000     0.20610   
    34. RY*(   8) S   2                  0.00000     3.45333   
    35. RY*(   9) S   2                  0.00000     0.14429   
    36. RY*(  10) S   2                  0.00000     0.77039   
    37. RY*(  11) S   2                  0.00000     0.77705   
    38. RY*(  12) S   2                  0.00000     0.84702   
    39. RY*(  13) S   2                  0.00000     0.75238   
    40. RY*(  14) S   2                  0.00000     0.99447   
    41. BD*(   1) O   1 - S   2          0.00005    -0.09315   
    42. BD*(   2) O   1 - S   2          0.00007     0.31190   
       -------------------------------
              Total Lewis   11.98518  ( 99.8765%)
        Valence non-Lewis    0.00012  (  0.0010%)
        Rydberg non-Lewis    0.01470  (  0.1225%)
       -------------------------------
            Total unit  1   12.00000  (100.0000%)
           Charge unit  1    0.00000


 ***************************************************
 *******         Beta  spin orbitals         *******
 ***************************************************


 NATURAL POPULATIONS:  Natural atomic orbital occupancies 
                                                          
   NAO  Atom  No  lang   Type(AO)    Occupancy      Energy
 ----------------------------------------------------------
     1    O    1  S      Cor( 1S)     0.99995     -19.55073
     2    O    1  S      Val( 2S)     0.92607      -1.13374
     3    O    1  S      Ryd( 3S)     0.00281       0.31381
     4    O    1  S      Ryd( 4S)     0.00021       1.42028
     5    O    1  S      Ryd( 5S)     0.00000       5.94461
     6    O    1  px     Val( 2p)     0.98710      -0.43795
     7    O    1  px     Ryd( 3p)     0.00171       0.47307
     8    O    1  px     Ryd( 4p)     0.00001       0.94529
     9    O    1  py     Val( 2p)     0.63556      -0.35000
    10    O    1  py     Ryd( 3p)     0.00005       0.46781
    11    O    1  py     Ryd( 4p)     0.00004       0.93509
    12    O    1  pz     Val( 2p)     0.75803      -0.43526
    13    O    1  pz     Ryd( 3p)     0.00053       0.65809
    14    O    1  pz     Ryd( 4p)     0.00002       0.82106
    15    O    1  dxy    Ryd( 3d)     0.00000       2.83335
    16    O    1  dxz    Ryd( 3d)     0.00103       2.88058
    17    O    1  dyz    Ryd( 3d)     0.00122       2.85721
    18    O    1  dx2y2  Ryd( 3d)     0.00002       2.82345
    19    O    1  dz2    Ryd( 3d)     0.00165       3.26587
 
    20    S    2  S      Cor( 1S)     1.00000     -88.48329
    21    S    2  S      Cor( 2S)     0.99993      -9.76189
    22    S    2  S      Val( 3S)     0.90541      -0.82795
    23    S    2  S      Ryd( 4S)     0.00934       0.43821
    24    S    2  S      Ryd( 6S)     0.00000       3.47300
    25    S    2  S      Ryd( 5S)     0.00000       0.76525
    26    S    2  px     Cor( 2p)     1.00000      -6.27969
    27    S    2  px     Val( 3p)     0.99428      -0.34572
    28    S    2  px     Ryd( 5p)     0.00886       0.36541
    29    S    2  px     Ryd( 4p)     0.00002       0.21660
    30    S    2  py     Cor( 2p)     0.99995      -6.28994
    31    S    2  py     Val( 3p)     0.35654      -0.25969
    32    S    2  py     Ryd( 5p)     0.00061       0.35382
    33    S    2  py     Ryd( 4p)     0.00007       0.20588
    34    S    2  pz     Cor( 2p)     0.99992      -6.28438
    35    S    2  pz     Val( 3p)     0.38233      -0.17447
    36    S    2  pz     Ryd( 5p)     0.00749       0.42655
    37    S    2  pz     Ryd( 4p)     0.00013       0.24194
    38    S    2  dxy    Ryd( 3d)     0.00000       0.77039
    39    S    2  dxz    Ryd( 3d)     0.00700       0.88526
    40    S    2  dyz    Ryd( 3d)     0.00595       0.86211
    41    S    2  dx2y2  Ryd( 3d)     0.00025       0.76430
    42    S    2  dz2    Ryd( 3d)     0.00590       1.20076

 WARNING:  Population inversion found on atom  S    2


 Summary of Natural Population Analysis:                  
                                                          
                                       Natural Population 
                Natural  -----------------------------------------------
    Atom  No    Charge         Core      Valence    Rydberg      Total
 -----------------------------------------------------------------------
      O    1   -0.31601      0.99995     3.30675    0.00932     4.31601
      S    2    0.31601      4.99979     2.63856    0.04563     7.68399
 =======================================================================
   * Total *    0.00000      5.99974     5.94531    0.05495    12.00000

                                 Natural Population      
 --------------------------------------------------------
   Core                       5.99974 ( 99.9957% of   6)
   Valence                    5.94531 ( 99.0885% of   6)
   Natural Minimal Basis     11.94505 ( 99.5421% of  12)
   Natural Rydberg Basis      0.05495 (  0.4579% of  12)
 --------------------------------------------------------

    Atom  No          Natural Electron Configuration
 ----------------------------------------------------------------------------
      O    1      [core]2S( 0.93)2p( 2.38)
      S    2      [core]3S( 0.91)3p( 1.73)4S( 0.01)3d( 0.02)5p( 0.02)


 NATURAL BOND ORBITAL ANALYSIS, beta spin orbitals:

                       Occupancies       Lewis Structure    Low   High
           Occ.    -------------------  -----------------   occ   occ
  Cycle   Thresh.   Lewis   Non-Lewis     CR  BD  3C  LP    (L)   (NL)   Dev
 =============================================================================
   1(1)    0.90    11.98518   0.01482      6   2   0   4     0      0    0.00
 -----------------------------------------------------------------------------

 Structure accepted: No low occupancy Lewis orbitals

 --------------------------------------------------------
   Core                      5.99974 ( 99.996% of   6)
   Valence Lewis             5.98544 ( 99.757% of   6)
  ==================       ============================
   Total Lewis              11.98518 ( 99.877% of  12)
  -----------------------------------------------------
   Valence non-Lewis         0.00012 (  0.001% of  12)
   Rydberg non-Lewis         0.01470 (  0.123% of  12)
  ==================       ============================
   Total non-Lewis           0.01482 (  0.123% of  12)
 --------------------------------------------------------


       (Occupancy)   Bond orbital/ Coefficients/ Hybrids
 ---------------------------------------------------------------------------------
     1. (1.00000) BD ( 1) O   1 - S   2  
                ( 63.69%)   0.7980* O   1 s(  0.00%)p 1.00( 99.81%)d 0.00(  0.19%)
                                            0.0000  0.0000  0.0000  0.0000  0.0000
                                            0.0000  0.0000  0.0000  0.9990  0.0089
                                            0.0080  0.0000  0.0000  0.0000  0.0000
                                            0.0000  0.0438  0.0000  0.0000
                ( 36.31%)   0.6026* S   2 s(  0.00%)p 1.00( 98.36%)d 0.02(  1.64%)
                                            0.0000  0.0000  0.0000  0.0000  0.0000
                                            0.0000  0.0000  0.0000  0.0000  0.0000
                                            0.0000  0.9908 -0.0410 -0.0143  0.0000
                                            0.0000  0.0000  0.0000  0.0000  0.0000
                                           -0.1280  0.0000  0.0000
     2. (1.00000) BD ( 2) O   1 - S   2  
                ( 68.96%)   0.8304* O   1 s( 23.85%)p 3.18( 75.93%)d 0.01(  0.23%)
                                            0.0000  0.4851 -0.0565 -0.0034  0.0000
                                            0.0000  0.0000  0.0000  0.0000  0.0000
                                            0.0000  0.8710 -0.0226 -0.0053  0.0000
                                            0.0000  0.0000 -0.0028  0.0475
                ( 31.04%)   0.5571* S   2 s( 15.68%)p 5.27( 82.59%)d 0.11(  1.73%)
                                           -0.0000  0.0000  0.3605 -0.1639  0.0009
                                           -0.0008  0.0000  0.0000  0.0000  0.0000
                                            0.0000  0.0000  0.0000  0.0000 -0.0000
                                           -0.8959  0.1513 -0.0155  0.0000  0.0000
                                            0.0000 -0.0039  0.1316
     3. (0.99995) CR ( 1) O   1           s(100.00%)
                                            1.0000  0.0001  0.0000  0.0000 -0.0000
                                            0.0000  0.0000  0.0000  0.0000  0.0000
                                            0.0000 -0.0000  0.0000  0.0000  0.0000
                                            0.0000  0.0000 -0.0000 -0.0000
     4. (1.00000) CR ( 1) S   2           s(100.00%)
                                            1.0000 -0.0000  0.0000  0.0000 -0.0000
                                            0.0000  0.0000  0.0000  0.0000  0.0000
                                            0.0000  0.0000  0.0000  0.0000  0.0000
                                            0.0000 -0.0000 -0.0000  0.0000  0.0000
                                            0.0000 -0.0000 -0.0000
     5. (0.99993) CR ( 2) S   2           s(100.00%)
                                           -0.0000  1.0000  0.0000  0.0000 -0.0000
                                            0.0000  0.0000  0.0000  0.0000  0.0000
                                            0.0000  0.0000  0.0000  0.0000  0.0000
                                            0.0000 -0.0000 -0.0000  0.0000  0.0000
                                            0.0000 -0.0000 -0.0000
     6. (1.00000) CR ( 3) S   2           s(  0.00%)p 1.00(100.00%)
                                            0.0000  0.0000  0.0000  0.0000  0.0000
                                            0.0000  1.0000 -0.0000 -0.0000 -0.0000
                                            0.0000  0.0000  0.0000  0.0000  0.0000
                                            0.0000  0.0000  0.0000  0.0000 -0.0000
                                            0.0000  0.0000  0.0000
     7. (0.99995) CR ( 4) S   2           s(  0.00%)p 1.00(100.00%)
                                            0.0000  0.0000  0.0000  0.0000  0.0000
                                            0.0000  0.0000  0.0000  0.0000  0.0000
                                            1.0000  0.0000  0.0000  0.0000  0.0000
                                            0.0000  0.0000  0.0000  0.0000  0.0000
                                            0.0000  0.0000  0.0000
     8. (0.99992) CR ( 5) S   2           s(  0.00%)p 1.00(100.00%)
                                            0.0000  0.0000 -0.0000 -0.0000  0.0000
                                           -0.0000  0.0000  0.0000  0.0000  0.0000
                                            0.0000  0.0000  0.0000  0.0000  1.0000
                                           -0.0000  0.0000  0.0000  0.0000  0.0000
                                            0.0000  0.0000  0.0000
     9. (0.99925) LP ( 1) O   1           s( 76.49%)p 0.31( 23.51%)d 0.00(  0.01%)
                                           -0.0001  0.8743  0.0216  0.0013 -0.0000
                                            0.0000  0.0000  0.0000  0.0000  0.0000
                                            0.0000 -0.4847  0.0101  0.0009  0.0000
                                            0.0000  0.0000 -0.0043 -0.0088
    10. (0.98821) LP ( 2) O   1           s(  0.00%)p 1.00( 99.90%)d 0.00(  0.10%)
                                            0.0000  0.0000  0.0000  0.0000  0.0000
                                            0.9994  0.0130 -0.0015  0.0000  0.0000
                                            0.0000  0.0000  0.0000  0.0000  0.0000
                                            0.0309  0.0000  0.0000  0.0000
    11. (0.99962) LP ( 1) S   2           s( 86.58%)p 0.15( 13.35%)d 0.00(  0.07%)
                                           -0.0000 -0.0000  0.9303  0.0197 -0.0001
                                            0.0001  0.0000  0.0000  0.0000  0.0000
                                            0.0000  0.0000  0.0000  0.0000  0.0000
                                            0.3649 -0.0160 -0.0070  0.0000  0.0000
                                            0.0000 -0.0157 -0.0222
    12. (0.99836) LP ( 2) S   2           s(  0.00%)p 1.00( 99.99%)d 0.00(  0.01%)
                                            0.0000  0.0000  0.0000  0.0000  0.0000
                                            0.0000  0.0000  0.9979  0.0632  0.0034
                                            0.0000  0.0000  0.0000  0.0000  0.0000
                                            0.0000  0.0000  0.0000  0.0000  0.0104
                                            0.0000  0.0000  0.0000
    13. (0.00164) RY*( 1) O   1           s(  0.00%)p 1.00( 94.82%)d 0.05(  5.18%)
                                            0.0000  0.0000  0.0000  0.0000  0.0000
                                           -0.0057  0.9705 -0.0791  0.0000  0.0000
                                            0.0000  0.0000  0.0000  0.0000  0.0000
                                           -0.2277  0.0000  0.0000  0.0000
    14. (0.00038) RY*( 2) O   1           s( 86.53%)p 0.11(  9.95%)d 0.04(  3.52%)
                                           -0.0000 -0.0082 -0.6070  0.7048 -0.0001
                                            0.0000  0.0000  0.0000  0.0000  0.0000
                                            0.0000 -0.0502 -0.3112 -0.0114  0.0000
                                            0.0000  0.0000  0.0337  0.1846
    15. (0.00006) RY*( 3) O   1           s( 26.89%)p 2.45( 66.01%)d 0.26(  7.09%)
    16. (0.00000) RY*( 4) O   1           s( 84.60%)p 0.16( 13.77%)d 0.02(  1.63%)
    17. (0.00000) RY*( 5) O   1           s(  0.00%)p 1.00(100.00%)
    18. (0.00000) RY*( 6) O   1           s(  0.00%)p 1.00(100.00%)d 0.00(  0.00%)
    19. (0.00000) RY*( 7) O   1           s(  0.00%)p 1.00(100.00%)d 0.00(  0.00%)
    20. (0.00000) RY*( 8) O   1           s(100.00%)p 0.00(  0.00%)d 0.00(  0.00%)
    21. (0.00000) RY*( 9) O   1           s(  0.90%)p99.99( 98.81%)d 0.32(  0.29%)
    22. (0.00000) RY*(10) O   1           s(  0.00%)p 0.00(  0.00%)d 1.00(100.00%)
    23. (0.00000) RY*(11) O   1           s(  0.00%)p 1.00(  5.28%)d17.95( 94.72%)
    24. (0.00000) RY*(12) O   1           s(  0.00%)p 1.00(  0.19%)d99.99( 99.81%)
    25. (0.00000) RY*(13) O   1           s(  0.21%)p 0.15(  0.03%)d99.99( 99.76%)
    26. (0.00000) RY*(14) O   1           s(  0.53%)p22.45( 11.99%)d99.99( 87.47%)
    27. (0.01180) RY*( 1) S   2           s(  0.00%)p 1.00( 41.58%)d 1.41( 58.42%)
                                            0.0000  0.0000  0.0000  0.0000  0.0000
                                            0.0000  0.0000 -0.0487  0.6424  0.0262
                                            0.0000  0.0000  0.0000  0.0000  0.0000
                                            0.0000  0.0000  0.0000  0.0000  0.7643
                                            0.0000  0.0000  0.0000
    28. (0.00078) RY*( 2) S   2           s( 78.61%)p 0.24( 18.58%)d 0.04(  2.81%)
                                           -0.0000  0.0000  0.0592  0.8796  0.0727
                                           -0.0602  0.0000  0.0000  0.0000  0.0000
                                            0.0000  0.0000  0.0000  0.0000 -0.0000
                                           -0.2240 -0.3681  0.0141  0.0000  0.0000
                                            0.0000  0.0088 -0.1673
    29. (0.00004) RY*( 3) S   2           s( 16.49%)p 3.40( 56.00%)d 1.67( 27.51%)
    30. (0.00000) RY*( 4) S   2           s(  0.00%)p 1.00( 58.47%)d 0.71( 41.53%)
    31. (0.00000) RY*( 5) S   2           s(  0.00%)p 1.00( 99.96%)d 0.00(  0.04%)
    32. (0.00000) RY*( 6) S   2           s(  0.00%)p 1.00(100.00%)d 0.00(  0.00%)
    33. (0.00000) RY*( 7) S   2           s(  0.00%)p 1.00(100.00%)d 0.00(  0.00%)
    34. (0.00000) RY*( 8) S   2           s( 99.69%)p 0.00(  0.26%)d 0.00(  0.05%)
    35. (0.00000) RY*( 9) S   2           s(  3.07%)p31.56( 96.86%)d 0.02(  0.07%)
    36. (0.00000) RY*(10) S   2           s(  0.00%)p 0.00(  0.00%)d 1.00(100.00%)
    37. (0.00000) RY*(11) S   2           s( 97.81%)p 0.00(  0.01%)d 0.02(  2.18%)
    38. (0.00000) RY*(12) S   2           s(  0.00%)p 1.00(  1.64%)d59.89( 98.36%)
    39. (0.00000) RY*(13) S   2           s(  0.32%)p 9.87(  3.21%)d99.99( 96.47%)
    40. (0.00000) RY*(14) S   2           s(  1.74%)p16.76( 29.15%)d39.74( 69.11%)
    41. (0.00005) BD*( 1) O   1 - S   2  
                ( 36.31%)   0.6026* O   1 s(  0.00%)p 1.00( 99.81%)d 0.00(  0.19%)
                ( 63.69%)  -0.7980* S   2 s(  0.00%)p 1.00( 98.36%)d 0.02(  1.64%)
    42. (0.00007) BD*( 2) O   1 - S   2  
                ( 31.04%)   0.5571* O   1 s( 23.85%)p 3.18( 75.93%)d 0.01(  0.23%)
                ( 68.96%)  -0.8304* S   2 s( 15.68%)p 5.27( 82.59%)d 0.11(  1.73%)


 NHO Directionality and "Bond Bending" (deviations from line of nuclear centers)

         [Thresholds for printing:  angular deviation  >  1.0 degree]
                                    hybrid p-character > 25.0%
                                    orbital occupancy  >  0.10e

                                Line of Centers        Hybrid 1              Hybrid 2
                                ---------------  -------------------   ------------------
                NBO               Theta   Phi    Theta   Phi    Dev    Theta   Phi    Dev
 ========================================================================================
     1. BD (   1) O   1 - S   2     0.0    0.0    90.0   90.0  90.0     90.0   90.0  90.0
    10. LP (   2) O   1             --     --     90.0    0.0   --       --     --    --
    12. LP (   2) S   2             --     --     90.0    0.0   --       --     --    --


 Second Order Perturbation Theory Analysis of Fock Matrix in NBO Basis

     Threshold for printing:   0.25 kcal/mol
                                                                              E(2)  E(j)-E(i) F(i,j)
         Donor NBO (i)                     Acceptor NBO (j)                 kcal/mol   a.u.    a.u. 
 ===================================================================================================

 within unit  1
   3. CR (   1) O   1                / 28. RY*(   2) S   2                    0.60   20.02    0.138
   5. CR (   2) S   2                / 15. RY*(   3) O   1                    0.31   10.75    0.073
   8. CR (   5) S   2                / 42. BD*(   2) O   1 - S   2            0.28    6.60    0.054
   9. LP (   1) O   1                / 28. RY*(   2) S   2                    0.95    1.44    0.047
  10. LP (   2) O   1                / 27. RY*(   1) S   2                    8.09    1.05    0.117
  10. LP (   2) O   1                / 30. RY*(   4) S   2                    0.49    1.07    0.029
  11. LP (   1) S   2                / 14. RY*(   2) O   1                    0.50    1.93    0.039
  12. LP (   2) S   2                / 13. RY*(   1) O   1                    0.89    0.86    0.035


 Natural Bond Orbitals (Summary):

                                                            Principal Delocalizations
           NBO                        Occupancy    Energy   (geminal,vicinal,remote)
 ====================================================================================
 Molecular unit  1  (OS)
     1. BD (   1) O   1 - S   2          1.00000    -0.49941   
     2. BD (   2) O   1 - S   2          1.00000    -1.01257   
     3. CR (   1) O   1                  0.99995   -19.55092  28(v)
     4. CR (   1) S   2                  1.00000   -88.48329   
     5. CR (   2) S   2                  0.99993    -9.76192  15(v)
     6. CR (   3) S   2                  1.00000    -6.27968   
     7. CR (   4) S   2                  0.99995    -6.28994   
     8. CR (   5) S   2                  0.99992    -6.28437  42(g)
     9. LP (   1) O   1                  0.99925    -0.96370  28(v)
    10. LP (   2) O   1                  0.98821    -0.43926  27(v),30(v)
    11. LP (   1) S   2                  0.99962    -0.82947  14(v)
    12. LP (   2) S   2                  0.99836    -0.34787  13(v)
    13. RY*(   1) O   1                  0.00164     0.51594   
    14. RY*(   2) O   1                  0.00038     1.10427   
    15. RY*(   3) O   1                  0.00006     0.98792   
    16. RY*(   4) O   1                  0.00000     0.73988   
    17. RY*(   5) O   1                  0.00000     1.01340   
    18. RY*(   6) O   1                  0.00000     0.46823   
    19. RY*(   7) O   1                  0.00000     0.93521   
    20. RY*(   8) O   1                  0.00000     5.94463   
    21. RY*(   9) O   1                  0.00000     0.69296   
    22. RY*(  10) O   1                  0.00000     2.83335   
    23. RY*(  11) O   1                  0.00000     2.77092   
    24. RY*(  12) O   1                  0.00000     2.85791   
    25. RY*(  13) O   1                  0.00000     2.81855   
    26. RY*(  14) O   1                  0.00000     2.95730   
    27. RY*(   1) S   2                  0.01180     0.61536   
    28. RY*(   2) S   2                  0.00078     0.47236   
    29. RY*(   3) S   2                  0.00004     0.64045   
    30. RY*(   4) S   2                  0.00000     0.63086   
    31. RY*(   5) S   2                  0.00000     0.22320   
    32. RY*(   6) S   2                  0.00000     0.35031   
    33. RY*(   7) S   2                  0.00000     0.20610   
    34. RY*(   8) S   2                  0.00000     3.45333   
    35. RY*(   9) S   2                  0.00000     0.14429   
    36. RY*(  10) S   2                  0.00000     0.77039   
    37. RY*(  11) S   2                  0.00000     0.77705   
    38. RY*(  12) S   2                  0.00000     0.84702   
    39. RY*(  13) S   2                  0.00000     0.75238   
    40. RY*(  14) S   2                  0.00000     0.99447   
    41. BD*(   1) O   1 - S   2          0.00005    -0.09315   
    42. BD*(   2) O   1 - S   2          0.00007     0.31190   
       -------------------------------
              Total Lewis   11.98518  ( 99.8765%)
        Valence non-Lewis    0.00012  (  0.0010%)
        Rydberg non-Lewis    0.01470  (  0.1225%)
       -------------------------------
            Total unit  1   12.00000  (100.0000%)
           Charge unit  1    0.00000
 Leave Link  607 at Wed Apr 16 05:32:42 2025, MaxMem=  8053063680 cpu:             140.0 elap:              15.2
 (Enter /home/szhao/Apps/g16/l9999.exe)
 1\1\GINC-NODE01\SP\UM062X\CBSB2**\O1S1\SZHAO\16-Apr-2025\0\\#p UM062X/
 6-311+G** Pop=NBO Read\\NBO Analysis\\0,1\O,0,-0.745068,0.,0.\S,0,0.74
 5068,0.,0.\\Version=ES64L-G16RevA.03\HF=-473.241957\S2=0.\S2-1=0.\S2A=
 0.\RMSD=7.978e-09\Dipole=0.7178452,0.,0.\Quadrupole=-0.5230724,1.83575
 ,-1.3126775,0.,0.,0.\PG=C*V [C*(O1S1)]\\@


 Just remember, when you're over the hill, you begin to pick up speed.
 -- Charles Schulz
 Job cpu time:       0 days  0 hours  3 minutes  2.9 seconds.
 Elapsed time:       0 days  0 hours  0 minutes 19.6 seconds.
 File lengths (MBytes):  RWF=      6 Int=      0 D2E=      0 Chk=      1 Scr=      1
 Normal termination of Gaussian 16 at Wed Apr 16 05:32:53 2025.
