 Entering Gaussian System, Link 0=g16
 Initial command:
 /home/szhao/Apps/g16/l1.exe "/home/szhao/tmp/Gau-59250.inp" -scrdir="/home/szhao/tmp/"
 Default is to use a total of  16 processors:
                               16 via shared-memory
                                1 via Linda
 Entering Link 1 = /home/szhao/Apps/g16/l1.exe PID=     59281.
  
 Copyright (c) 1988,1990,1992,1993,1995,1998,2003,2009,2016,
            Gaussian, Inc.  All Rights Reserved.
  
 This is part of the Gaussian(R) 16 program.  It is based on
 the Gaussian(R) 09 system (copyright 2009, Gaussian, Inc.),
 the Gaussian(R) 03 system (copyright 2003, Gaussian, Inc.),
 the Gaussian(R) 98 system (copyright 1998, Gaussian, Inc.),
 the Gaussian(R) 94 system (copyright 1995, Gaussian, Inc.),
 the Gaussian 92(TM) system (copyright 1992, Gaussian, Inc.),
 the Gaussian 90(TM) system (copyright 1990, Gaussian, Inc.),
 the Gaussian 88(TM) system (copyright 1988, Gaussian, Inc.),
 the Gaussian 86(TM) system (copyright 1986, Carnegie Mellon
 University), and the Gaussian 82(TM) system (copyright 1983,
 Carnegie Mellon University). Gaussian is a federally registered
 trademark of Gaussian, Inc.
  
 This software contains proprietary and confidential information,
 including trade secrets, belonging to Gaussian, Inc.
  
 This software is provided under written license and may be
 used, copied, transmitted, or stored only in accord with that
 written license.
  
 The following legend is applicable only to US Government
 contracts under FAR:
  
                    RESTRICTED RIGHTS LEGEND
  
 Use, reproduction and disclosure by the US Government is
 subject to restrictions as set forth in subparagraphs (a)
 and (c) of the Commercial Computer Software - Restricted
 Rights clause in FAR 52.227-19.
  
 Gaussian, Inc.
 340 Quinnipiac St., Bldg. 40, Wallingford CT 06492
  
  
 ---------------------------------------------------------------
 Warning -- This program may not be used in any manner that
 competes with the business of Gaussian, Inc. or will provide
 assistance to any competitor of Gaussian, Inc.  The licensee
 of this program is prohibited from giving any competitor of
 Gaussian, Inc. access to this program.  By using this program,
 the user acknowledges that Gaussian, Inc. is engaged in the
 business of creating and licensing software in the field of
 computational chemistry and represents and warrants to the
 licensee that it is not a competitor of Gaussian, Inc. and that
 it will not use this program in any manner prohibited above.
 ---------------------------------------------------------------
  

 Cite this work as:
 Gaussian 16, Revision A.03,
 M. J. Frisch, G. W. Trucks, H. B. Schlegel, G. E. Scuseria, 
 M. A. Robb, J. R. Cheeseman, G. Scalmani, V. Barone, 
 G. A. Petersson, H. Nakatsuji, X. Li, M. Caricato, A. V. Marenich, 
 J. Bloino, B. G. Janesko, R. Gomperts, B. Mennucci, H. P. Hratchian, 
 J. V. Ortiz, A. F. Izmaylov, J. L. Sonnenberg, D. Williams-Young, 
 F. Ding, F. Lipparini, F. Egidi, J. Goings, B. Peng, A. Petrone, 
 T. Henderson, D. Ranasinghe, V. G. Zakrzewski, J. Gao, N. Rega, 
 G. Zheng, W. Liang, M. Hada, M. Ehara, K. Toyota, R. Fukuda, 
 J. Hasegawa, M. Ishida, T. Nakajima, Y. Honda, O. Kitao, H. Nakai, 
 T. Vreven, K. Throssell, J. A. Montgomery, Jr., J. E. Peralta, 
 F. Ogliaro, M. J. Bearpark, J. J. Heyd, E. N. Brothers, K. N. Kudin, 
 V. N. Staroverov, T. A. Keith, R. Kobayashi, J. Normand, 
 K. Raghavachari, A. P. Rendell, J. C. Burant, S. S. Iyengar, 
 J. Tomasi, M. Cossi, J. M. Millam, M. Klene, C. Adamo, R. Cammi, 
 J. W. Ochterski, R. L. Martin, K. Morokuma, O. Farkas, 
 J. B. Foresman, and D. J. Fox, Gaussian, Inc., Wallingford CT, 2016.
 
 ******************************************
 Gaussian 16:  ES64L-G16RevA.03 25-Dec-2016
                21-Apr-2025 
 ******************************************
 %chk=force.chk
 %mem=4GB
 %nprocshared=8
 Will use up to    8 processors via shared memory.
 ---------------------------------------------------
 #p UM062X/6-311+G** force int=superfine pop=saveNBO
 ---------------------------------------------------
 1/10=7,30=1,38=1/1,3;
 2/12=2,17=6,18=5,40=1/2;
 3/5=4,6=6,7=111,11=2,25=1,30=1,71=1,74=-55,75=-7,116=2/1,2,3;
 4//1;
 5/5=2,38=5/2;
 6/7=2,8=2,9=2,10=2,28=1,40=1,73=1/1,7;
 7/29=1/1,2,3,16;
 1/10=7,30=1/3;
 99//99;
 Leave Link    1 at Mon Apr 21 19:30:10 2025, MaxMem=   536870912 cpu:               1.3 elap:               0.2
 (Enter /home/szhao/Apps/g16/l101.exe)
 -------------------
 Title Card Required
 -------------------
 Symbolic Z-matrix:
 Charge =  0 Multiplicity = 1
 C                    -0.68608   0.        0. 
 O                     0.68608   0.        0. 
 
 ITRead=  0  0
 MicOpt= -1 -1
 NAtoms=      2 NQM=        2 NQMF=       0 NMMI=      0 NMMIF=      0
                NMic=       0 NMicF=      0.
                    Isotopes and Nuclear Properties:
 (Nuclear quadrupole moments (NQMom) in fm**2, nuclear magnetic moments (NMagM)
  in nuclear magnetons)

  Atom         1           2
 IAtWgt=          12          16
 AtmWgt=  12.0000000  15.9949146
 NucSpn=           0           0
 AtZEff=  -0.0000000  -0.0000000
 NQMom=    0.0000000   0.0000000
 NMagM=    0.0000000   0.0000000
 AtZNuc=   6.0000000   8.0000000
 Leave Link  101 at Mon Apr 21 19:30:12 2025, MaxMem=   536870912 cpu:               1.5 elap:               0.2
 (Enter /home/szhao/Apps/g16/l103.exe)

 GradGradGradGradGradGradGradGradGradGradGradGradGradGradGradGradGradGrad
 Berny optimization.
 Initialization pass.
 Trust Radius=3.00D-01 FncErr=1.00D-07 GrdErr=1.00D-07 EigMax=2.50D+02 EigMin=1.00D-04
 Number of steps in this run=      2 maximum allowed number of steps=      2.
 GradGradGradGradGradGradGradGradGradGradGradGradGradGradGradGradGradGrad

 Leave Link  103 at Mon Apr 21 19:30:13 2025, MaxMem=   536870912 cpu:               0.3 elap:               0.2
 (Enter /home/szhao/Apps/g16/l202.exe)
                          Input orientation:                          
 ---------------------------------------------------------------------
 Center     Atomic      Atomic             Coordinates (Angstroms)
 Number     Number       Type             X           Y           Z
 ---------------------------------------------------------------------
      1          6           0       -0.686082    0.000000    0.000000
      2          8           0        0.686082    0.000000    0.000000
 ---------------------------------------------------------------------
 Stoichiometry    CO
 Framework group  C*V[C*(CO)]
 Deg. of freedom     1
 Full point group                 C*V     NOp   4
 Largest Abelian subgroup         C2V     NOp   4
 Largest concise Abelian subgroup C1      NOp   1
                         Standard orientation:                         
 ---------------------------------------------------------------------
 Center     Atomic      Atomic             Coordinates (Angstroms)
 Number     Number       Type             X           Y           Z
 ---------------------------------------------------------------------
      1          6           0        0.000000    0.000000   -0.784094
      2          8           0        0.000000    0.000000    0.588070
 ---------------------------------------------------------------------
 Rotational constants (GHZ):           0.0000000          39.1490414          39.1490414
 Leave Link  202 at Mon Apr 21 19:30:14 2025, MaxMem=   536870912 cpu:               2.5 elap:               0.5
 (Enter /home/szhao/Apps/g16/l301.exe)
 Standard basis: 6-311+G(d,p) (5D, 7F)
 Ernie: Thresh=  0.10000D-02 Tol=  0.10000D-05 Strict=F.
 There are    24 symmetry adapted cartesian basis functions of A1  symmetry.
 There are     2 symmetry adapted cartesian basis functions of A2  symmetry.
 There are    10 symmetry adapted cartesian basis functions of B1  symmetry.
 There are    10 symmetry adapted cartesian basis functions of B2  symmetry.
 There are    22 symmetry adapted basis functions of A1  symmetry.
 There are     2 symmetry adapted basis functions of A2  symmetry.
 There are    10 symmetry adapted basis functions of B1  symmetry.
 There are    10 symmetry adapted basis functions of B2  symmetry.
    44 basis functions,    72 primitive gaussians,    46 cartesian basis functions
     7 alpha electrons        7 beta electrons
       nuclear repulsion energy        18.5112757106 Hartrees.
 IExCor= 4336 DFT=T Ex+Corr=M062X ExCW=0 ScaHFX=  0.540000
 ScaDFX=  1.000000  1.000000  1.000000  1.000000 ScalE2=  1.000000  1.000000
 IRadAn=      7 IRanWt=     -1 IRanGd=            0 ICorTp=0 IEmpDi=  4
 NAtoms=    2 NActive=    2 NUniq=    2 SFac= 1.00D+00 NAtFMM=   60 NAOKFM=F Big=F
 Integral buffers will be    131072 words long.
 Raffenetti 2 integral format.
 Two-electron integral symmetry is turned on.
 Leave Link  301 at Mon Apr 21 19:30:15 2025, MaxMem=   536870912 cpu:               1.0 elap:               0.4
 (Enter /home/szhao/Apps/g16/l302.exe)
 NPDir=0 NMtPBC=     1 NCelOv=     1 NCel=       1 NClECP=     1 NCelD=      1
         NCelK=      1 NCelE2=     1 NClLst=     1 CellRange=     0.0.
 One-electron integrals computed using PRISM.
 One-electron integral symmetry used in STVInt
 NBasis=    44 RedAO= T EigKep=  7.05D-03  NBF=    22     2    10    10
 NBsUse=    44 1.00D-06 EigRej= -1.00D+00 NBFU=    22     2    10    10
 Precomputing XC quadrature grid using
 IXCGrd= 4 IRadAn=           7 IRanWt=          -1 IRanGd=           0 AccXCQ= 0.00D+00.
 Generated NRdTot=       0 NPtTot=           0 NUsed=           0 NTot=          32
 NSgBfM=    46    46    46    46    46 MxSgAt=     2 MxSgA2=     2.
 Leave Link  302 at Mon Apr 21 19:30:15 2025, MaxMem=   536870912 cpu:               1.6 elap:               0.3
 (Enter /home/szhao/Apps/g16/l303.exe)
 DipDrv:  MaxL=1.
 Leave Link  303 at Mon Apr 21 19:30:16 2025, MaxMem=   536870912 cpu:               0.4 elap:               0.3
 (Enter /home/szhao/Apps/g16/l401.exe)
 ExpMin= 4.38D-02 ExpMax= 8.59D+03 ExpMxC= 1.30D+03 IAcc=3 IRadAn=         7 AccDes= 0.00D+00
 Harris functional with IExCor= 1009 and IRadAn=       7 diagonalized for initial guess.
 HarFok:  IExCor= 1009 AccDes= 0.00D+00 IRadAn=         7 IDoV= 1 UseB2=F ITyADJ=14
 ICtDFT=  3500011 ScaDFX=  1.000000  1.000000  1.000000  1.000000
 FoFCou: FMM=F IPFlag=           0 FMFlag=      100000 FMFlg1=           0
         NFxFlg=           0 DoJE=T BraDBF=F KetDBF=T FulRan=T
         wScrn=  0.000000 ICntrl=       500 IOpCl=  0 I1Cent=   200000004 NGrid=           0
         NMat0=    1 NMatS0=      1 NMatT0=    0 NMatD0=    1 NMtDS0=    0 NMtDT0=    0
 Petite list used in FoFCou.
 Harris En= -113.153716509522    
 JPrj=0 DoOrth=F DoCkMO=F.
 Initial guess orbital symmetries:
 Alpha Orbitals:
       Occupied  (SG) (SG) (SG) (SG) (PI) (PI) (SG)
       Virtual   (PI) (PI) (SG) (SG) (PI) (PI) (SG) (SG) (PI) (PI)
                 (SG) (PI) (PI) (SG) (SG) (SG) (PI) (PI) (DLTA)
                 (DLTA) (PI) (PI) (SG) (SG) (PI) (PI) (DLTA) (DLTA)
                 (SG) (PI) (PI) (SG) (PI) (PI) (SG) (SG) (SG)
 Beta  Orbitals:
       Occupied  (SG) (SG) (SG) (SG) (PI) (PI) (SG)
       Virtual   (PI) (PI) (SG) (SG) (PI) (PI) (SG) (SG) (PI) (PI)
                 (SG) (PI) (PI) (SG) (SG) (SG) (PI) (PI) (DLTA)
                 (DLTA) (PI) (PI) (SG) (SG) (PI) (PI) (DLTA) (DLTA)
                 (SG) (PI) (PI) (SG) (PI) (PI) (SG) (SG) (SG)
 The electronic state of the initial guess is 1-SG.
 Initial guess <Sx>= 0.0000 <Sy>= 0.0000 <Sz>= 0.0000 <S**2>=-0.0000 S=-0.0000
 Leave Link  401 at Mon Apr 21 19:30:17 2025, MaxMem=   536870912 cpu:               1.5 elap:               0.4
 (Enter /home/szhao/Apps/g16/l502.exe)
 Keep R1 and R2 ints in memory in symmetry-blocked form, NReq=7469717.
 FoFCou: FMM=F IPFlag=           0 FMFlag=           0 FMFlg1=           0
         NFxFlg=           0 DoJE=F BraDBF=F KetDBF=F FulRan=T
         wScrn=  0.000000 ICntrl=       600 IOpCl=  0 I1Cent=           0 NGrid=           0
         NMat0=    1 NMatS0=    990 NMatT0=    0 NMatD0=    1 NMtDS0=    0 NMtDT0=    0
 Petite list used in FoFCou.
 UHF open shell SCF:
 Using DIIS extrapolation, IDIIS=  1040.
 NGot=   536870912 LenX=   536591038 LenY=   536588481
 Requested convergence on RMS density matrix=1.00D-08 within 128 cycles.
 Requested convergence on MAX density matrix=1.00D-06.
 Requested convergence on             energy=1.00D-06.
 No special actions if energy rises.

 Cycle   1  Pass 1  IDiag  1:
 E= -113.168877137582    
 DIIS: error= 4.95D-02 at cycle   1 NSaved=   1.
 NSaved= 1 IEnMin= 1 EnMin= -113.168877137582     IErMin= 1 ErrMin= 4.95D-02
 ErrMax= 4.95D-02  0.00D+00 EMaxC= 1.00D-01 BMatC= 3.24D-01 BMatP= 3.24D-01
 IDIUse=3 WtCom= 5.05D-01 WtEn= 4.95D-01
 Coeff-Com:  0.100D+01
 Coeff-En:   0.100D+01
 Coeff:      0.100D+01
 Gap=     0.297 Goal=   None    Shift=    0.000
 Gap=     0.297 Goal=   None    Shift=    0.000
 GapD=    0.297 DampG=1.000 DampE=0.500 DampFc=0.5000 IDamp=-1.
 Damping current iteration by 5.00D-01
 RMSDP=8.65D-03 MaxDP=9.10D-02              OVMax= 2.81D-01

 Cycle   2  Pass 1  IDiag  1:
 E= -113.129951479444     Delta-E=        0.038925658137 Rises=F Damp=T
 DIIS: error= 5.16D-02 at cycle   2 NSaved=   2.
 NSaved= 2 IEnMin= 1 EnMin= -113.168877137582     IErMin= 1 ErrMin= 4.95D-02
 ErrMax= 5.16D-02  0.00D+00 EMaxC= 1.00D-01 BMatC= 2.14D-01 BMatP= 3.24D-01
 IDIUse=3 WtCom= 4.84D-01 WtEn= 5.16D-01
 Coeff-Com:  0.439D+00 0.561D+00
 Coeff-En:   0.652D+00 0.348D+00
 Coeff:      0.549D+00 0.451D+00
 Gap=     0.379 Goal=   None    Shift=    0.000
 Gap=     0.379 Goal=   None    Shift=    0.000
 RMSDP=1.51D-03 MaxDP=1.39D-02 DE= 3.89D-02 OVMax= 1.88D-01

 Cycle   3  Pass 1  IDiag  1:
 E= -113.216828411018     Delta-E=       -0.086876931574 Rises=F Damp=F
 DIIS: error= 1.54D-02 at cycle   3 NSaved=   3.
 NSaved= 3 IEnMin= 3 EnMin= -113.216828411018     IErMin= 3 ErrMin= 1.54D-02
 ErrMax= 1.54D-02  0.00D+00 EMaxC= 1.00D-01 BMatC= 2.33D-02 BMatP= 2.14D-01
 IDIUse=3 WtCom= 8.46D-01 WtEn= 1.54D-01
 Coeff-Com:  0.145D+00-0.191D+00 0.105D+01
 Coeff-En:   0.719D-01 0.000D+00 0.928D+00
 Coeff:      0.134D+00-0.161D+00 0.103D+01
 Gap=     0.403 Goal=   None    Shift=    0.000
 Gap=     0.403 Goal=   None    Shift=    0.000
 RMSDP=7.90D-04 MaxDP=1.12D-02 DE=-8.69D-02 OVMax= 2.21D-02

 Cycle   4  Pass 1  IDiag  1:
 E= -113.220865298126     Delta-E=       -0.004036887108 Rises=F Damp=F
 DIIS: error= 1.63D-03 at cycle   4 NSaved=   4.
 NSaved= 4 IEnMin= 4 EnMin= -113.220865298126     IErMin= 4 ErrMin= 1.63D-03
 ErrMax= 1.63D-03  0.00D+00 EMaxC= 1.00D-01 BMatC= 3.70D-04 BMatP= 2.33D-02
 IDIUse=3 WtCom= 9.84D-01 WtEn= 1.63D-02
 Coeff-Com:  0.189D-01-0.432D-01 0.270D+00 0.754D+00
 Coeff-En:   0.000D+00 0.000D+00 0.000D+00 0.100D+01
 Coeff:      0.186D-01-0.425D-01 0.265D+00 0.758D+00
 Gap=     0.402 Goal=   None    Shift=    0.000
 Gap=     0.402 Goal=   None    Shift=    0.000
 RMSDP=1.00D-04 MaxDP=1.51D-03 DE=-4.04D-03 OVMax= 2.85D-03

 Cycle   5  Pass 1  IDiag  1:
 E= -113.220916198276     Delta-E=       -0.000050900150 Rises=F Damp=F
 DIIS: error= 5.79D-04 at cycle   5 NSaved=   5.
 NSaved= 5 IEnMin= 5 EnMin= -113.220916198276     IErMin= 5 ErrMin= 5.79D-04
 ErrMax= 5.79D-04  0.00D+00 EMaxC= 1.00D-01 BMatC= 2.17D-05 BMatP= 3.70D-04
 IDIUse=3 WtCom= 9.94D-01 WtEn= 5.79D-03
 Coeff-Com:  0.592D-02-0.152D-01 0.577D-01 0.155D+00 0.797D+00
 Coeff-En:   0.000D+00 0.000D+00 0.000D+00 0.000D+00 0.100D+01
 Coeff:      0.588D-02-0.151D-01 0.574D-01 0.154D+00 0.798D+00
 Gap=     0.402 Goal=   None    Shift=    0.000
 Gap=     0.402 Goal=   None    Shift=    0.000
 RMSDP=1.76D-05 MaxDP=2.75D-04 DE=-5.09D-05 OVMax= 4.23D-04

 Cycle   6  Pass 1  IDiag  1:
 E= -113.220919730767     Delta-E=       -0.000003532491 Rises=F Damp=F
 DIIS: error= 1.93D-04 at cycle   6 NSaved=   6.
 NSaved= 6 IEnMin= 6 EnMin= -113.220919730767     IErMin= 6 ErrMin= 1.93D-04
 ErrMax= 1.93D-04  0.00D+00 EMaxC= 1.00D-01 BMatC= 2.07D-06 BMatP= 2.17D-05
 IDIUse=3 WtCom= 9.98D-01 WtEn= 1.93D-03
 Coeff-Com:  0.940D-03-0.146D-02-0.736D-02-0.462D-01 0.895D-02 0.105D+01
 Coeff-En:   0.000D+00 0.000D+00 0.000D+00 0.000D+00 0.000D+00 0.100D+01
 Coeff:      0.938D-03-0.146D-02-0.734D-02-0.461D-01 0.893D-02 0.105D+01
 Gap=     0.402 Goal=   None    Shift=    0.000
 Gap=     0.402 Goal=   None    Shift=    0.000
 RMSDP=1.00D-05 MaxDP=1.66D-04 DE=-3.53D-06 OVMax= 1.85D-04

 Cycle   7  Pass 1  IDiag  1:
 E= -113.220920180663     Delta-E=       -0.000000449896 Rises=F Damp=F
 DIIS: error= 2.57D-05 at cycle   7 NSaved=   7.
 NSaved= 7 IEnMin= 7 EnMin= -113.220920180663     IErMin= 7 ErrMin= 2.57D-05
 ErrMax= 2.57D-05  0.00D+00 EMaxC= 1.00D-01 BMatC= 2.66D-08 BMatP= 2.07D-06
 IDIUse=1 WtCom= 1.00D+00 WtEn= 0.00D+00
 Coeff-Com: -0.166D-03 0.353D-03 0.807D-03 0.688D-02-0.185D-01-0.261D+00
 Coeff-Com:  0.127D+01
 Coeff:     -0.166D-03 0.353D-03 0.807D-03 0.688D-02-0.185D-01-0.261D+00
 Coeff:      0.127D+01
 Gap=     0.402 Goal=   None    Shift=    0.000
 Gap=     0.402 Goal=   None    Shift=    0.000
 RMSDP=1.93D-06 MaxDP=2.83D-05 DE=-4.50D-07 OVMax= 4.53D-05

 Cycle   8  Pass 1  IDiag  1:
 E= -113.220920187598     Delta-E=       -0.000000006934 Rises=F Damp=F
 DIIS: error= 1.35D-06 at cycle   8 NSaved=   8.
 NSaved= 8 IEnMin= 8 EnMin= -113.220920187598     IErMin= 8 ErrMin= 1.35D-06
 ErrMax= 1.35D-06  0.00D+00 EMaxC= 1.00D-01 BMatC= 1.29D-10 BMatP= 2.66D-08
 IDIUse=1 WtCom= 1.00D+00 WtEn= 0.00D+00
 Coeff-Com: -0.227D-04 0.381D-04 0.280D-04 0.105D-02 0.302D-02-0.140D-01
 Coeff-Com: -0.100D+00 0.111D+01
 Coeff:     -0.227D-04 0.381D-04 0.280D-04 0.105D-02 0.302D-02-0.140D-01
 Coeff:     -0.100D+00 0.111D+01
 Gap=     0.402 Goal=   None    Shift=    0.000
 Gap=     0.402 Goal=   None    Shift=    0.000
 RMSDP=2.08D-07 MaxDP=1.70D-06 DE=-6.93D-09 OVMax= 4.95D-06

 Cycle   9  Pass 1  IDiag  1:
 E= -113.220920187656     Delta-E=       -0.000000000058 Rises=F Damp=F
 DIIS: error= 1.96D-07 at cycle   9 NSaved=   9.
 NSaved= 9 IEnMin= 9 EnMin= -113.220920187656     IErMin= 9 ErrMin= 1.96D-07
 ErrMax= 1.96D-07  0.00D+00 EMaxC= 1.00D-01 BMatC= 3.08D-12 BMatP= 1.29D-10
 IDIUse=1 WtCom= 1.00D+00 WtEn= 0.00D+00
 Coeff-Com:  0.104D-05-0.176D-05-0.168D-04-0.122D-03 0.159D-03 0.289D-02
 Coeff-Com: -0.420D-02-0.106D+00 0.111D+01
 Coeff:      0.104D-05-0.176D-05-0.168D-04-0.122D-03 0.159D-03 0.289D-02
 Coeff:     -0.420D-02-0.106D+00 0.111D+01
 Gap=     0.402 Goal=   None    Shift=    0.000
 Gap=     0.402 Goal=   None    Shift=    0.000
 RMSDP=2.12D-08 MaxDP=1.91D-07 DE=-5.82D-11 OVMax= 5.25D-07

 Cycle  10  Pass 1  IDiag  1:
 E= -113.220920187657     Delta-E=       -0.000000000001 Rises=F Damp=F
 DIIS: error= 1.44D-08 at cycle  10 NSaved=  10.
 NSaved=10 IEnMin=10 EnMin= -113.220920187657     IErMin=10 ErrMin= 1.44D-08
 ErrMax= 1.44D-08  0.00D+00 EMaxC= 1.00D-01 BMatC= 1.99D-14 BMatP= 3.08D-12
 IDIUse=1 WtCom= 1.00D+00 WtEn= 0.00D+00
 Coeff-Com:  0.202D-06-0.383D-06 0.291D-05 0.477D-05-0.789D-04-0.235D-03
 Coeff-Com:  0.230D-02-0.500D-02-0.940D-01 0.110D+01
 Coeff:      0.202D-06-0.383D-06 0.291D-05 0.477D-05-0.789D-04-0.235D-03
 Coeff:      0.230D-02-0.500D-02-0.940D-01 0.110D+01
 Gap=     0.402 Goal=   None    Shift=    0.000
 Gap=     0.402 Goal=   None    Shift=    0.000
 RMSDP=1.90D-09 MaxDP=1.83D-08 DE=-1.19D-12 OVMax= 4.19D-08

 SCF Done:  E(UM062X) =  -113.220920188     A.U. after   10 cycles
            NFock= 10  Conv=0.19D-08     -V/T= 2.0090
 <Sx>= 0.0000 <Sy>= 0.0000 <Sz>= 0.0000 <S**2>=-0.0000 S=-0.0000
 <L.S>=  0.00000000000    
 KE= 1.122090231461D+02 PE=-3.027211712935D+02 EE= 5.877995224916D+01
 Annihilation of the first spin contaminant:
 S**2 before annihilation    -0.0000,   after     0.0000
 Leave Link  502 at Mon Apr 21 19:30:19 2025, MaxMem=   536870912 cpu:               9.7 elap:               1.4
 (Enter /home/szhao/Apps/g16/l601.exe)
 Copying SCF densities to generalized density rwf, IOpCl= 1 IROHF=0.

 **********************************************************************

            Population analysis using the SCF density.

 **********************************************************************

 Orbital symmetries:
 Alpha Orbitals:
       Occupied  (SG) (SG) (SG) (SG) (PI) (PI) (SG)
       Virtual   (PI) (PI) (SG) (SG) (PI) (PI) (SG) (PI) (PI) (SG)
                 (SG) (PI) (PI) (SG) (SG) (SG) (PI) (PI) (DLTA)
                 (DLTA) (PI) (PI) (SG) (SG) (PI) (PI) (SG) (DLTA)
                 (DLTA) (PI) (PI) (SG) (PI) (PI) (SG) (SG) (SG)
 Beta  Orbitals:
       Occupied  (SG) (SG) (SG) (SG) (PI) (PI) (SG)
       Virtual   (PI) (PI) (SG) (SG) (PI) (PI) (SG) (PI) (PI) (SG)
                 (SG) (PI) (PI) (SG) (SG) (SG) (PI) (PI) (DLTA)
                 (DLTA) (PI) (PI) (SG) (SG) (PI) (PI) (SG) (DLTA)
                 (DLTA) (PI) (PI) (SG) (PI) (PI) (SG) (SG) (SG)
 The electronic state is 1-SG.
 Alpha  occ. eigenvalues --  -19.73929 -10.74361  -1.17075  -0.67290  -0.48106
 Alpha  occ. eigenvalues --   -0.48106  -0.46555
 Alpha virt. eigenvalues --   -0.06335  -0.06335   0.03636   0.05531   0.06972
 Alpha virt. eigenvalues --    0.06972   0.19344   0.22470   0.22470   0.25677
 Alpha virt. eigenvalues --    0.32422   0.55016   0.55016   0.57433   0.78806
 Alpha virt. eigenvalues --    1.04030   1.08070   1.08070   1.28902   1.28902
 Alpha virt. eigenvalues --    1.36748   1.36748   1.47883   1.82299   2.59577
 Alpha virt. eigenvalues --    2.59577   2.80176   2.83806   2.83806   3.15896
 Alpha virt. eigenvalues --    3.15896   3.72674   5.00538   5.00538   5.35623
 Alpha virt. eigenvalues --   23.39203  49.81970
  Beta  occ. eigenvalues --  -19.73929 -10.74361  -1.17075  -0.67290  -0.48106
  Beta  occ. eigenvalues --   -0.48106  -0.46555
  Beta virt. eigenvalues --   -0.06335  -0.06335   0.03636   0.05531   0.06972
  Beta virt. eigenvalues --    0.06972   0.19344   0.22470   0.22470   0.25677
  Beta virt. eigenvalues --    0.32422   0.55016   0.55016   0.57433   0.78806
  Beta virt. eigenvalues --    1.04030   1.08070   1.08070   1.28902   1.28902
  Beta virt. eigenvalues --    1.36748   1.36748   1.47883   1.82299   2.59577
  Beta virt. eigenvalues --    2.59577   2.80176   2.83806   2.83806   3.15896
  Beta virt. eigenvalues --    3.15896   3.72674   5.00538   5.00538   5.35623
  Beta virt. eigenvalues --   23.39203  49.81970
          Condensed to atoms (all electrons):
               1          2
     1  C    5.474515   0.362972
     2  O    0.362972   7.799541
          Atomic-Atomic Spin Densities.
               1          2
     1  C   -0.000000   0.000000
     2  O    0.000000  -0.000000
 Mulliken charges and spin densities:
               1          2
     1  C    0.162513  -0.000000
     2  O   -0.162513   0.000000
 Sum of Mulliken charges =  -0.00000  -0.00000
 Mulliken charges and spin densities with hydrogens summed into heavy atoms:
               1          2
     1  C    0.162513  -0.000000
     2  O   -0.162513   0.000000
 Electronic spatial extent (au):  <R**2>=             48.2105
 Charge=             -0.0000 electrons
 Dipole moment (field-independent basis, Debye):
    X=              0.0000    Y=              0.0000    Z=             -1.0659  Tot=              1.0659
 Quadrupole moment (field-independent basis, Debye-Ang):
   XX=            -10.7991   YY=            -10.7991   ZZ=            -12.2398
   XY=              0.0000   XZ=              0.0000   YZ=              0.0000
 Traceless Quadrupole moment (field-independent basis, Debye-Ang):
   XX=              0.4802   YY=              0.4802   ZZ=             -0.9604
   XY=              0.0000   XZ=              0.0000   YZ=              0.0000
 Octapole moment (field-independent basis, Debye-Ang**2):
  XXX=              0.0000  YYY=              0.0000  ZZZ=              5.5891  XYY=              0.0000
  XXY=              0.0000  XXZ=              0.9652  XZZ=              0.0000  YZZ=              0.0000
  YYZ=              0.9652  XYZ=              0.0000
 Hexadecapole moment (field-independent basis, Debye-Ang**3):
 XXXX=            -10.2139 YYYY=            -10.2139 ZZZZ=            -47.7564 XXXY=              0.0000
 XXXZ=              0.0000 YYYX=              0.0000 YYYZ=              0.0000 ZZZX=              0.0000
 ZZZY=              0.0000 XXYY=             -3.4046 XXZZ=             -9.0397 YYZZ=             -9.0397
 XXYZ=              0.0000 YYXZ=              0.0000 ZZXY=              0.0000
 N-N= 1.851127571060D+01 E-N=-3.027211715116D+02  KE= 1.122090231461D+02
 Symmetry A1   KE= 1.042890118719D+02
 Symmetry A2   KE=-2.299846449286D-52
 Symmetry B1   KE= 3.960005637082D+00
 Symmetry B2   KE= 3.960005637082D+00
 Symmetry A1   SP=-2.199208457286D-14
 Symmetry A2   SP=-1.291056458542D-51
 Symmetry B1   SP=-2.422165379078D-15
 Symmetry B2   SP= 4.669215981676D-15
                          Isotropic Fermi Contact Couplings
        Atom                 a.u.       MegaHertz       Gauss      10(-4) cm-1
     1  C(13)              0.00000       0.00000       0.00000       0.00000
     2  O(17)             -0.00000       0.00000       0.00000       0.00000
 --------------------------------------------------------
       Center         ----  Spin Dipole Couplings  ----
                      3XX-RR        3YY-RR        3ZZ-RR
 --------------------------------------------------------
     1   Atom        0.000000      0.000000      0.000000
     2   Atom        0.000000      0.000000      0.000000
 --------------------------------------------------------
                        XY            XZ            YZ
 --------------------------------------------------------
     1   Atom        0.000000      0.000000      0.000000
     2   Atom        0.000000      0.000000      0.000000
 --------------------------------------------------------


 ---------------------------------------------------------------------------------
              Anisotropic Spin Dipole Couplings in Principal Axis System
 ---------------------------------------------------------------------------------

       Atom             a.u.   MegaHertz   Gauss  10(-4) cm-1        Axes

              Baa     0.0000     0.000     0.000     0.000  1.0000  0.0000  0.0000
     1 C(13)  Bbb     0.0000     0.000     0.000     0.000 -0.0000  1.0000  0.0000
              Bcc     0.0000     0.000     0.000     0.000  0.0000  0.0000  1.0000
 
              Baa     0.0000    -0.000    -0.000    -0.000  1.0000  0.0000  0.0000
     2 O(17)  Bbb     0.0000    -0.000    -0.000    -0.000 -0.0000  1.0000  0.0000
              Bcc     0.0000    -0.000    -0.000    -0.000  0.0000  0.0000  1.0000
 

 ---------------------------------------------------------------------------------

 No NMR shielding tensors so no spin-rotation constants.
 Leave Link  601 at Mon Apr 21 19:30:20 2025, MaxMem=   536870912 cpu:               5.4 elap:               0.9
 (Enter /home/szhao/Apps/g16/l607.exe)
 ******************************Gaussian NBO Version 3.1******************************
             N A T U R A L   A T O M I C   O R B I T A L   A N D
          N A T U R A L   B O N D   O R B I T A L   A N A L Y S I S
 ******************************Gaussian NBO Version 3.1******************************
       /RESON  / : Allow strongly delocalized NBO set

 Analyzing the SCF density

 Job title: Title Card Required                                             

 Storage needed:      6104 in NPA,      7902 in NBO ( 536870884 available)
 GSVD:  LWork=         376 too small for GESVD, short by        2510 words or        2510 for optimal perf.


 NATURAL POPULATIONS:  Natural atomic orbital occupancies 
                                                          
   NAO  Atom  No  lang   Type(AO)    Occupancy
 --------------------------------------------
     1    C    1  S      Cor( 1S)     1.99991
     2    C    1  S      Val( 2S)     1.76308
     3    C    1  S      Ryd( 3S)     0.01900
     4    C    1  S      Ryd( 4S)     0.00008
     5    C    1  S      Ryd( 5S)     0.00000
     6    C    1  px     Val( 2p)     0.40408
     7    C    1  px     Ryd( 3p)     0.00025
     8    C    1  px     Ryd( 4p)     0.00001
     9    C    1  px     Ryd( 5p)     0.00000
    10    C    1  py     Val( 2p)     0.40408
    11    C    1  py     Ryd( 3p)     0.00025
    12    C    1  py     Ryd( 4p)     0.00001
    13    C    1  py     Ryd( 5p)     0.00000
    14    C    1  pz     Val( 2p)     0.79277
    15    C    1  pz     Ryd( 3p)     0.00637
    16    C    1  pz     Ryd( 4p)     0.00015
    17    C    1  pz     Ryd( 5p)     0.00003
    18    C    1  dxy    Ryd( 3d)     0.00000
    19    C    1  dxz    Ryd( 3d)     0.00392
    20    C    1  dyz    Ryd( 3d)     0.00392
    21    C    1  dx2y2  Ryd( 3d)     0.00000
    22    C    1  dz2    Ryd( 3d)     0.00313
 
    23    O    2  S      Cor( 1S)     1.99991
    24    O    2  S      Val( 2S)     1.84750
    25    O    2  S      Ryd( 3S)     0.00636
    26    O    2  S      Ryd( 4S)     0.00023
    27    O    2  S      Ryd( 5S)     0.00000
    28    O    2  px     Val( 2p)     1.59036
    29    O    2  px     Ryd( 3p)     0.00008
    30    O    2  px     Ryd( 4p)     0.00000
    31    O    2  px     Ryd( 5p)     0.00000
    32    O    2  py     Val( 2p)     1.59036
    33    O    2  py     Ryd( 3p)     0.00008
    34    O    2  py     Ryd( 4p)     0.00000
    35    O    2  py     Ryd( 5p)     0.00000
    36    O    2  pz     Val( 2p)     1.55943
    37    O    2  pz     Ryd( 3p)     0.00046
    38    O    2  pz     Ryd( 4p)     0.00010
    39    O    2  pz     Ryd( 5p)     0.00003
    40    O    2  dxy    Ryd( 3d)     0.00000
    41    O    2  dxz    Ryd( 3d)     0.00130
    42    O    2  dyz    Ryd( 3d)     0.00130
    43    O    2  dx2y2  Ryd( 3d)     0.00000
    44    O    2  dz2    Ryd( 3d)     0.00147


 Summary of Natural Population Analysis:                  
                                                          
                                       Natural Population 
                Natural  -----------------------------------------------
    Atom  No    Charge         Core      Valence    Rydberg      Total
 -----------------------------------------------------------------------
      C    1    0.59896      1.99991     3.36400    0.03713     5.40104
      O    2   -0.59896      1.99991     6.58764    0.01141     8.59896
 =======================================================================
   * Total *   -0.00000      3.99982     9.95164    0.04854    14.00000

                                 Natural Population      
 --------------------------------------------------------
   Core                       3.99982 ( 99.9955% of   4)
   Valence                    9.95164 ( 99.5164% of  10)
   Natural Minimal Basis     13.95146 ( 99.6533% of  14)
   Natural Rydberg Basis      0.04854 (  0.3467% of  14)
 --------------------------------------------------------

    Atom  No          Natural Electron Configuration
 ----------------------------------------------------------------------------
      C    1      [core]2S( 1.76)2p( 1.60)3S( 0.02)3p( 0.01)3d( 0.01)
      O    2      [core]2S( 1.85)2p( 4.74)3S( 0.01)


 ***************************************************
 *******         Alpha spin orbitals         *******
 ***************************************************


 NATURAL POPULATIONS:  Natural atomic orbital occupancies 
                                                          
   NAO  Atom  No  lang   Type(AO)    Occupancy      Energy
 ----------------------------------------------------------
     1    C    1  S      Cor( 1S)     0.99996     -10.67120
     2    C    1  S      Val( 2S)     0.88154      -0.60020
     3    C    1  S      Ryd( 3S)     0.00950       0.65233
     4    C    1  S      Ryd( 4S)     0.00004       0.73562
     5    C    1  S      Ryd( 5S)     0.00000      22.67096
     6    C    1  px     Val( 2p)     0.20204      -0.12724
     7    C    1  px     Ryd( 3p)     0.00012       0.62709
     8    C    1  px     Ryd( 5p)     0.00001       2.00227
     9    C    1  px     Ryd( 4p)     0.00000       0.64891
    10    C    1  py     Val( 2p)     0.20204      -0.12724
    11    C    1  py     Ryd( 3p)     0.00012       0.62709
    12    C    1  py     Ryd( 5p)     0.00001       2.00227
    13    C    1  py     Ryd( 4p)     0.00000       0.64891
    14    C    1  pz     Val( 2p)     0.39639      -0.05763
    15    C    1  pz     Ryd( 3p)     0.00318       0.65608
    16    C    1  pz     Ryd( 5p)     0.00007       2.14535
    17    C    1  pz     Ryd( 4p)     0.00001       0.76741
    18    C    1  dxy    Ryd( 3d)     0.00000       1.29869
    19    C    1  dxz    Ryd( 3d)     0.00196       1.47641
    20    C    1  dyz    Ryd( 3d)     0.00196       1.47641
    21    C    1  dx2y2  Ryd( 3d)     0.00000       1.29869
    22    C    1  dz2    Ryd( 3d)     0.00157       2.05078
 
    23    O    2  S      Cor( 1S)     0.99995     -19.57593
    24    O    2  S      Val( 2S)     0.92375      -1.11775
    25    O    2  S      Ryd( 3S)     0.00318       0.48149
    26    O    2  S      Ryd( 4S)     0.00011       1.60854
    27    O    2  S      Ryd( 5S)     0.00000      49.61583
    28    O    2  px     Val( 2p)     0.79518      -0.38843
    29    O    2  px     Ryd( 3p)     0.00004       0.59863
    30    O    2  px     Ryd( 5p)     0.00000       4.77994
    31    O    2  px     Ryd( 4p)     0.00000       0.92205
    32    O    2  py     Val( 2p)     0.79518      -0.38843
    33    O    2  py     Ryd( 3p)     0.00004       0.59863
    34    O    2  py     Ryd( 5p)     0.00000       4.77994
    35    O    2  py     Ryd( 4p)     0.00000       0.92205
    36    O    2  pz     Val( 2p)     0.77971      -0.41798
    37    O    2  pz     Ryd( 3p)     0.00023       0.62149
    38    O    2  pz     Ryd( 5p)     0.00005       4.83426
    39    O    2  pz     Ryd( 4p)     0.00001       1.04516
    40    O    2  dxy    Ryd( 3d)     0.00000       2.82838
    41    O    2  dxz    Ryd( 3d)     0.00065       2.96882
    42    O    2  dyz    Ryd( 3d)     0.00065       2.96882
    43    O    2  dx2y2  Ryd( 3d)     0.00000       2.82838
    44    O    2  dz2    Ryd( 3d)     0.00074       3.43037

 WARNING:  Population inversion found on atom  C    1
           Population inversion found on atom  O    2


 Summary of Natural Population Analysis:                  
                                                          
                                       Natural Population 
                Natural  -----------------------------------------------
    Atom  No    Charge         Core      Valence    Rydberg      Total
 -----------------------------------------------------------------------
      C    1    0.29948      0.99996     1.68200    0.01856     2.70052
      O    2   -0.29948      0.99995     3.29382    0.00571     4.29948
 =======================================================================
   * Total *   -0.00000      1.99991     4.97582    0.02427     7.00000

                                 Natural Population      
 --------------------------------------------------------
   Core                       1.99991 ( 99.9955% of   2)
   Valence                    4.97582 ( 99.5164% of   5)
   Natural Minimal Basis      6.97573 ( 99.6533% of   7)
   Natural Rydberg Basis      0.02427 (  0.3467% of   7)
 --------------------------------------------------------

    Atom  No          Natural Electron Configuration
 ----------------------------------------------------------------------------
      C    1      [core]2S( 0.88)2p( 0.80)3S( 0.01)3d( 0.01)
      O    2      [core]2S( 0.92)2p( 2.37)


 NATURAL BOND ORBITAL ANALYSIS, alpha spin orbitals:

                       Occupancies       Lewis Structure    Low   High
           Occ.    -------------------  -----------------   occ   occ
  Cycle   Thresh.   Lewis   Non-Lewis     CR  BD  3C  LP    (L)   (NL)   Dev
 =============================================================================
   1(1)    0.90     6.99774   0.00226      2   3   0   2     0      0    0.00
 -----------------------------------------------------------------------------

 Structure accepted: No low occupancy Lewis orbitals

 --------------------------------------------------------
   Core                      1.99991 ( 99.995% of   2)
   Valence Lewis             4.99783 ( 99.957% of   5)
  ==================       ============================
   Total Lewis               6.99774 ( 99.968% of   7)
  -----------------------------------------------------
   Valence non-Lewis         0.00000 (  0.000% of   7)
   Rydberg non-Lewis         0.00226 (  0.032% of   7)
  ==================       ============================
   Total non-Lewis           0.00226 (  0.032% of   7)
 --------------------------------------------------------


       (Occupancy)   Bond orbital/ Coefficients/ Hybrids
 ---------------------------------------------------------------------------------
     1. (1.00000) BD ( 1) C   1 - O   2  
                ( 20.41%)   0.4518* C   1 s(  0.00%)p 1.00( 99.04%)d 0.01(  0.96%)
                                            0.0000  0.0000  0.0000  0.0000  0.0000
                                            0.9949  0.0246  0.0058  0.0033  0.0000
                                            0.0000  0.0000  0.0000  0.0000  0.0000
                                            0.0000  0.0000  0.0000  0.0980  0.0000
                                            0.0000  0.0000
                ( 79.59%)   0.8921* O   2 s(  0.00%)p 1.00( 99.92%)d 0.00(  0.08%)
                                            0.0000  0.0000  0.0000  0.0000  0.0000
                                            0.9996  0.0072 -0.0012  0.0000  0.0000
                                            0.0000  0.0000  0.0000  0.0000  0.0000
                                            0.0000  0.0000  0.0000 -0.0285  0.0000
                                            0.0000  0.0000
     2. (1.00000) BD ( 2) C   1 - O   2  
                ( 20.41%)   0.4518* C   1 s(  0.00%)p 1.00( 99.04%)d 0.01(  0.96%)
                                            0.0000  0.0000  0.0000  0.0000  0.0000
                                            0.0000  0.0000  0.0000  0.0000  0.9949
                                            0.0246  0.0058  0.0033  0.0000  0.0000
                                            0.0000  0.0000  0.0000  0.0000  0.0980
                                            0.0000  0.0000
                ( 79.59%)   0.8921* O   2 s(  0.00%)p 1.00( 99.92%)d 0.00(  0.08%)
                                            0.0000  0.0000  0.0000  0.0000  0.0000
                                            0.0000  0.0000  0.0000  0.0000  0.9996
                                            0.0072 -0.0012  0.0000  0.0000  0.0000
                                            0.0000  0.0000  0.0000  0.0000 -0.0285
                                            0.0000  0.0000
     3. (1.00000) BD ( 3) C   1 - O   2  
                ( 29.07%)   0.5391* C   1 s( 18.82%)p 4.29( 80.74%)d 0.02(  0.44%)
                                           -0.0000 -0.3993  0.1696  0.0030  0.0000
                                            0.0000  0.0000  0.0000  0.0000  0.0000
                                            0.0000  0.0000  0.0000 -0.8955  0.0736
                                           -0.0018  0.0037  0.0000  0.0000  0.0000
                                            0.0000 -0.0663
                ( 70.93%)   0.8422* O   2 s( 26.02%)p 2.84( 73.88%)d 0.00(  0.10%)
                                            0.0000 -0.5067  0.0587  0.0022 -0.0000
                                            0.0000  0.0000  0.0000  0.0000  0.0000
                                            0.0000  0.0000  0.0000  0.8594 -0.0149
                                           -0.0007 -0.0019  0.0000  0.0000  0.0000
                                            0.0000 -0.0313
     4. (0.99996) CR ( 1) C   1           s(100.00%)
                                            1.0000  0.0000  0.0000  0.0000  0.0000
                                            0.0000  0.0000  0.0000  0.0000  0.0000
                                            0.0000  0.0000  0.0000 -0.0000 -0.0000
                                            0.0000  0.0000  0.0000  0.0000  0.0000
                                            0.0000 -0.0000
     5. (0.99995) CR ( 1) O   2           s(100.00%)
                                            1.0000  0.0001  0.0000  0.0000 -0.0000
                                            0.0000  0.0000  0.0000  0.0000  0.0000
                                            0.0000  0.0000  0.0000  0.0001 -0.0000
                                            0.0000  0.0000  0.0000  0.0000  0.0000
                                            0.0000 -0.0000
     6. (0.99971) LP ( 1) C   1           s( 83.59%)p 0.20( 16.38%)d 0.00(  0.03%)
                                           -0.0000  0.9140  0.0215  0.0004  0.0000
                                            0.0000  0.0000  0.0000  0.0000  0.0000
                                            0.0000  0.0000  0.0000 -0.4041 -0.0222
                                            0.0071  0.0008  0.0000  0.0000  0.0000
                                            0.0000 -0.0165
     7. (0.99812) LP ( 1) O   2           s( 74.36%)p 0.34( 25.63%)d 0.00(  0.00%)
                                           -0.0001  0.8620  0.0245  0.0009 -0.0000
                                            0.0000  0.0000  0.0000  0.0000  0.0000
                                            0.0000  0.0000  0.0000  0.5063 -0.0046
                                            0.0048  0.0022  0.0000  0.0000  0.0000
                                            0.0000 -0.0062
     8. (0.00191) RY*( 1) C   1           s( 37.43%)p 1.65( 61.82%)d 0.02(  0.76%)
                                            0.0000  0.0687  0.5927 -0.1350 -0.0009
                                            0.0000  0.0000  0.0000  0.0000  0.0000
                                            0.0000  0.0000  0.0000  0.1499  0.7630
                                            0.0968 -0.0642  0.0000  0.0000  0.0000
                                            0.0000 -0.0870
     9. (0.00000) RY*( 2) C   1           s( 99.85%)p 0.00(  0.15%)d 0.00(  0.00%)
    10. (0.00000) RY*( 3) C   1           s(100.00%)p 0.00(  0.00%)
    11. (0.00000) RY*( 4) C   1           s(  0.00%)p 1.00(100.00%)d 0.00(  0.00%)
    12. (0.00000) RY*( 5) C   1           s(  0.00%)p 1.00(100.00%)d 0.00(  0.00%)
    13. (0.00000) RY*( 6) C   1           s(  0.00%)p 1.00(100.00%)d 0.00(  0.00%)
    14. (0.00000) RY*( 7) C   1           s(  0.00%)p 1.00(100.00%)d 0.00(  0.00%)
    15. (0.00000) RY*( 8) C   1           s(  0.00%)p 1.00(100.00%)d 0.00(  0.00%)
    16. (0.00000) RY*( 9) C   1           s(  0.00%)p 1.00(100.00%)d 0.00(  0.00%)
    17. (0.00000) RY*(10) C   1           s( 59.33%)p 0.69( 40.67%)d 0.00(  0.00%)
    18. (0.00000) RY*(11) C   1           s(  0.38%)p99.99( 99.62%)d 0.00(  0.00%)
    19. (0.00000) RY*(12) C   1           s(  0.15%)p99.99( 99.85%)d 0.00(  0.00%)
    20. (0.00000) RY*(13) C   1           s(  0.00%)p 0.00(  0.00%)d 1.00(100.00%)
    21. (0.00000) RY*(14) C   1           s(  0.00%)p 1.00(  0.96%)d99.99( 99.04%)
    22. (0.00000) RY*(15) C   1           s(  0.00%)p 1.00(  0.96%)d99.99( 99.04%)
    23. (0.00000) RY*(16) C   1           s(  0.00%)p 0.00(  0.00%)d 1.00(100.00%)
    24. (0.00000) RY*(17) C   1           s(  0.45%)p 1.73(  0.78%)d99.99( 98.78%)
    25. (0.00030) RY*( 1) O   2           s( 78.18%)p 0.28( 21.73%)d 0.00(  0.09%)
                                           -0.0000  0.0081  0.6639 -0.5839  0.0001
                                            0.0000  0.0000  0.0000  0.0000  0.0000
                                            0.0000  0.0000  0.0000 -0.0458 -0.3230
                                           -0.3071  0.1288  0.0000  0.0000  0.0000
                                            0.0000 -0.0301
    26. (0.00003) RY*( 2) O   2           s( 21.23%)p 3.30( 69.99%)d 0.41(  8.77%)
    27. (0.00000) RY*( 3) O   2           s(100.00%)p 0.00(  0.00%)d 0.00(  0.00%)
    28. (0.00000) RY*( 4) O   2           s(  0.00%)p 1.00(100.00%)d 0.00(  0.00%)
    29. (0.00000) RY*( 5) O   2           s(  0.00%)p 1.00(100.00%)
    30. (0.00000) RY*( 6) O   2           s(  0.00%)p 1.00(100.00%)
    31. (0.00000) RY*( 7) O   2           s(  0.00%)p 1.00(100.00%)d 0.00(  0.00%)
    32. (0.00000) RY*( 8) O   2           s(  0.00%)p 1.00(100.00%)
    33. (0.00000) RY*( 9) O   2           s(  0.00%)p 1.00(100.00%)
    34. (0.00000) RY*(10) O   2           s( 86.63%)p 0.15( 13.37%)d 0.00(  0.00%)
    35. (0.00000) RY*(11) O   2           s(  9.73%)p 9.28( 90.23%)d 0.00(  0.04%)
    36. (0.00000) RY*(12) O   2           s(  2.13%)p45.95( 97.87%)d 0.00(  0.00%)
    37. (0.00000) RY*(13) O   2           s(  0.00%)p 0.00(  0.00%)d 1.00(100.00%)
    38. (0.00000) RY*(14) O   2           s(  0.00%)p 1.00(  0.08%)d99.99( 99.92%)
    39. (0.00000) RY*(15) O   2           s(  0.00%)p 1.00(  0.08%)d99.99( 99.92%)
    40. (0.00000) RY*(16) O   2           s(  0.00%)p 0.00(  0.00%)d 1.00(100.00%)
    41. (0.00000) RY*(17) O   2           s(  1.72%)p 4.24(  7.29%)d52.88( 90.99%)
    42. (0.00000) BD*( 1) C   1 - O   2  
                ( 79.59%)   0.8921* C   1 s(  0.00%)p 1.00( 99.04%)d 0.01(  0.96%)
                ( 20.41%)  -0.4518* O   2 s(  0.00%)p 1.00( 99.92%)d 0.00(  0.08%)
    43. (0.00000) BD*( 2) C   1 - O   2  
                ( 79.59%)   0.8921* C   1 s(  0.00%)p 1.00( 99.04%)d 0.01(  0.96%)
                ( 20.41%)  -0.4518* O   2 s(  0.00%)p 1.00( 99.92%)d 0.00(  0.08%)
    44. (0.00000) BD*( 3) C   1 - O   2  
                ( 70.93%)   0.8422* C   1 s( 18.82%)p 4.29( 80.74%)d 0.02(  0.44%)
                ( 29.07%)  -0.5391* O   2 s( 26.02%)p 2.84( 73.88%)d 0.00(  0.10%)


 NHO Directionality and "Bond Bending" (deviations from line of nuclear centers)

         [Thresholds for printing:  angular deviation  >  1.0 degree]
                                    hybrid p-character > 25.0%
                                    orbital occupancy  >  0.10e

                                Line of Centers        Hybrid 1              Hybrid 2
                                ---------------  -------------------   ------------------
                NBO               Theta   Phi    Theta   Phi    Dev    Theta   Phi    Dev
 ========================================================================================
     1. BD (   1) C   1 - O   2     0.0    0.0    90.0    0.0  90.0     90.0    0.0  90.0
     2. BD (   2) C   1 - O   2     0.0    0.0    90.0   90.0  90.0     90.0   90.0  90.0
     7. LP (   1) O   2             --     --      0.0    0.0   --       --     --    --


 Second Order Perturbation Theory Analysis of Fock Matrix in NBO Basis

     Threshold for printing:   0.25 kcal/mol
                                                                              E(2)  E(j)-E(i) F(i,j)
         Donor NBO (i)                     Acceptor NBO (j)                 kcal/mol   a.u.    a.u. 
 ===================================================================================================

 within unit  1
   5. CR (   1) O   2                /  8. RY*(   1) C   1                    1.03   20.37    0.183
   6. LP (   1) C   1                / 25. RY*(   1) O   2                    0.39    1.88    0.034
   7. LP (   1) O   2                /  8. RY*(   1) C   1                    2.58    1.76    0.085


 Natural Bond Orbitals (Summary):

                                                            Principal Delocalizations
           NBO                        Occupancy    Energy   (geminal,vicinal,remote)
 ====================================================================================
 Molecular unit  1  (CO)
     1. BD (   1) C   1 - O   2          1.00000    -0.48106   
     2. BD (   2) C   1 - O   2          1.00000    -0.48106   
     3. BD (   3) C   1 - O   2          1.00000    -0.95928   
     4. CR (   1) C   1                  0.99996   -10.67123   
     5. CR (   1) O   2                  0.99995   -19.57630  8(v)
     6. LP (   1) C   1                  0.99971    -0.61493  25(v)
     7. LP (   1) O   2                  0.99812    -0.96423  8(v)
     8. RY*(   1) C   1                  0.00191     0.79794   
     9. RY*(   2) C   1                  0.00000     0.83185   
    10. RY*(   3) C   1                  0.00000    22.67130   
    11. RY*(   4) C   1                  0.00000     0.63119   
    12. RY*(   5) C   1                  0.00000     2.00238   
    13. RY*(   6) C   1                  0.00000     0.64886   
    14. RY*(   7) C   1                  0.00000     0.63119   
    15. RY*(   8) C   1                  0.00000     2.00238   
    16. RY*(   9) C   1                  0.00000     0.64886   
    17. RY*(  10) C   1                  0.00000     0.50466   
    18. RY*(  11) C   1                  0.00000     2.05173   
    19. RY*(  12) C   1                  0.00000     0.72288   
    20. RY*(  13) C   1                  0.00000     1.29869   
    21. RY*(  14) C   1                  0.00000     1.46681   
    22. RY*(  15) C   1                  0.00000     1.46681   
    23. RY*(  16) C   1                  0.00000     1.29869   
    24. RY*(  17) C   1                  0.00000     2.05200   
    25. RY*(   1) O   2                  0.00030     1.26747   
    26. RY*(   2) O   2                  0.00003     0.93716   
    27. RY*(   3) O   2                  0.00000    49.61140   
    28. RY*(   4) O   2                  0.00000     0.59894   
    29. RY*(   5) O   2                  0.00000     4.77995   
    30. RY*(   6) O   2                  0.00000     0.92205   
    31. RY*(   7) O   2                  0.00000     0.59894   
    32. RY*(   8) O   2                  0.00000     4.77995   
    33. RY*(   9) O   2                  0.00000     0.92205   
    34. RY*(  10) O   2                  0.00000     1.09496   
    35. RY*(  11) O   2                  0.00000     4.25037   
    36. RY*(  12) O   2                  0.00000     1.19366   
    37. RY*(  13) O   2                  0.00000     2.82838   
    38. RY*(  14) O   2                  0.00000     2.96898   
    39. RY*(  15) O   2                  0.00000     2.96898   
    40. RY*(  16) O   2                  0.00000     2.82838   
    41. RY*(  17) O   2                  0.00000     3.27683   
    42. BD*(   1) C   1 - O   2          0.00000    -0.02964   
    43. BD*(   2) C   1 - O   2          0.00000    -0.02964   
    44. BD*(   3) C   1 - O   2          0.00000     0.39673   
       -------------------------------
              Total Lewis    6.99774  ( 99.9677%)
        Valence non-Lewis    0.00000  (  0.0000%)
        Rydberg non-Lewis    0.00226  (  0.0323%)
       -------------------------------
            Total unit  1    7.00000  (100.0000%)
           Charge unit  1    0.00000
 Sorting of NBOs:                    5    4    7    3    6    2    1   42   43   44
 Sorting of NBOs:                   17   31   28   11   14   13   16   19    8    9
 Sorting of NBOs:                   30   33   26   34   36   25   20   23   22   21
 Sorting of NBOs:                   12   15   18   24   40   37   38   39   41   35
 Sorting of NBOs:                   32   29   10   27
 Reordering of NBOs for storage:     5    4    7    3    6    2    1   42   43   44
 Reordering of NBOs for storage:    17   31   28   11   14   13   16   19    8    9
 Reordering of NBOs for storage:    30   33   26   34   36   25   20   23   22   21
 Reordering of NBOs for storage:    12   15   18   24   40   37   38   39   41   35
 Reordering of NBOs for storage:    32   29   10   27
 Labels of output orbitals:  CR  CR  LP  BD  LP  BD  BD  BD* BD* BD* RY* RY* RY* RY* RY* RY* RY* RY* RY* RY* 
 Labels of output orbitals:  RY* RY* RY* RY* RY* RY* RY* RY* RY* RY* RY* RY* RY* RY* RY* RY* RY* RY* RY* RY* 
 Labels of output orbitals:  RY* RY* RY* RY* 
 GSVD:  LWork=       -1665 too small for GESVD, short by        7400 words or        7400 for optimal perf.


 ***************************************************
 *******         Beta  spin orbitals         *******
 ***************************************************


 NATURAL POPULATIONS:  Natural atomic orbital occupancies 
                                                          
   NAO  Atom  No  lang   Type(AO)    Occupancy      Energy
 ----------------------------------------------------------
     1    C    1  S      Cor( 1S)     0.99996     -10.67120
     2    C    1  S      Val( 2S)     0.88154      -0.60020
     3    C    1  S      Ryd( 3S)     0.00950       0.65233
     4    C    1  S      Ryd( 4S)     0.00004       0.73562
     5    C    1  S      Ryd( 5S)     0.00000      22.67096
     6    C    1  px     Val( 2p)     0.20204      -0.12724
     7    C    1  px     Ryd( 3p)     0.00012       0.62709
     8    C    1  px     Ryd( 5p)     0.00001       2.00227
     9    C    1  px     Ryd( 4p)     0.00000       0.64891
    10    C    1  py     Val( 2p)     0.20204      -0.12724
    11    C    1  py     Ryd( 3p)     0.00012       0.62709
    12    C    1  py     Ryd( 5p)     0.00001       2.00227
    13    C    1  py     Ryd( 4p)     0.00000       0.64891
    14    C    1  pz     Val( 2p)     0.39639      -0.05763
    15    C    1  pz     Ryd( 3p)     0.00318       0.65608
    16    C    1  pz     Ryd( 5p)     0.00007       2.14535
    17    C    1  pz     Ryd( 4p)     0.00001       0.76741
    18    C    1  dxy    Ryd( 3d)     0.00000       1.29869
    19    C    1  dxz    Ryd( 3d)     0.00196       1.47641
    20    C    1  dyz    Ryd( 3d)     0.00196       1.47641
    21    C    1  dx2y2  Ryd( 3d)     0.00000       1.29869
    22    C    1  dz2    Ryd( 3d)     0.00157       2.05078
 
    23    O    2  S      Cor( 1S)     0.99995     -19.57593
    24    O    2  S      Val( 2S)     0.92375      -1.11775
    25    O    2  S      Ryd( 3S)     0.00318       0.48149
    26    O    2  S      Ryd( 4S)     0.00011       1.60854
    27    O    2  S      Ryd( 5S)     0.00000      49.61583
    28    O    2  px     Val( 2p)     0.79518      -0.38843
    29    O    2  px     Ryd( 3p)     0.00004       0.59863
    30    O    2  px     Ryd( 5p)     0.00000       4.77994
    31    O    2  px     Ryd( 4p)     0.00000       0.92205
    32    O    2  py     Val( 2p)     0.79518      -0.38843
    33    O    2  py     Ryd( 3p)     0.00004       0.59863
    34    O    2  py     Ryd( 5p)     0.00000       4.77994
    35    O    2  py     Ryd( 4p)     0.00000       0.92205
    36    O    2  pz     Val( 2p)     0.77971      -0.41798
    37    O    2  pz     Ryd( 3p)     0.00023       0.62149
    38    O    2  pz     Ryd( 5p)     0.00005       4.83426
    39    O    2  pz     Ryd( 4p)     0.00001       1.04516
    40    O    2  dxy    Ryd( 3d)     0.00000       2.82838
    41    O    2  dxz    Ryd( 3d)     0.00065       2.96882
    42    O    2  dyz    Ryd( 3d)     0.00065       2.96882
    43    O    2  dx2y2  Ryd( 3d)     0.00000       2.82838
    44    O    2  dz2    Ryd( 3d)     0.00074       3.43037

 WARNING:  Population inversion found on atom  C    1
           Population inversion found on atom  O    2


 Summary of Natural Population Analysis:                  
                                                          
                                       Natural Population 
                Natural  -----------------------------------------------
    Atom  No    Charge         Core      Valence    Rydberg      Total
 -----------------------------------------------------------------------
      C    1    0.29948      0.99996     1.68200    0.01856     2.70052
      O    2   -0.29948      0.99995     3.29382    0.00571     4.29948
 =======================================================================
   * Total *   -0.00000      1.99991     4.97582    0.02427     7.00000

                                 Natural Population      
 --------------------------------------------------------
   Core                       1.99991 ( 99.9955% of   2)
   Valence                    4.97582 ( 99.5164% of   5)
   Natural Minimal Basis      6.97573 ( 99.6533% of   7)
   Natural Rydberg Basis      0.02427 (  0.3467% of   7)
 --------------------------------------------------------

    Atom  No          Natural Electron Configuration
 ----------------------------------------------------------------------------
      C    1      [core]2S( 0.88)2p( 0.80)3S( 0.01)3d( 0.01)
      O    2      [core]2S( 0.92)2p( 2.37)


 NATURAL BOND ORBITAL ANALYSIS, beta spin orbitals:

                       Occupancies       Lewis Structure    Low   High
           Occ.    -------------------  -----------------   occ   occ
  Cycle   Thresh.   Lewis   Non-Lewis     CR  BD  3C  LP    (L)   (NL)   Dev
 =============================================================================
   1(1)    0.90     6.99774   0.00226      2   3   0   2     0      0    0.00
 -----------------------------------------------------------------------------

 Structure accepted: No low occupancy Lewis orbitals

 --------------------------------------------------------
   Core                      1.99991 ( 99.995% of   2)
   Valence Lewis             4.99783 ( 99.957% of   5)
  ==================       ============================
   Total Lewis               6.99774 ( 99.968% of   7)
  -----------------------------------------------------
   Valence non-Lewis         0.00000 (  0.000% of   7)
   Rydberg non-Lewis         0.00226 (  0.032% of   7)
  ==================       ============================
   Total non-Lewis           0.00226 (  0.032% of   7)
 --------------------------------------------------------


       (Occupancy)   Bond orbital/ Coefficients/ Hybrids
 ---------------------------------------------------------------------------------
     1. (1.00000) BD ( 1) C   1 - O   2  
                ( 20.41%)   0.4518* C   1 s(  0.00%)p 1.00( 99.04%)d 0.01(  0.96%)
                                            0.0000  0.0000  0.0000  0.0000  0.0000
                                            0.9949  0.0246  0.0058  0.0033  0.0000
                                            0.0000  0.0000  0.0000  0.0000  0.0000
                                            0.0000  0.0000  0.0000  0.0980  0.0000
                                            0.0000  0.0000
                ( 79.59%)   0.8921* O   2 s(  0.00%)p 1.00( 99.92%)d 0.00(  0.08%)
                                            0.0000  0.0000  0.0000  0.0000  0.0000
                                            0.9996  0.0072 -0.0012  0.0000  0.0000
                                            0.0000  0.0000  0.0000  0.0000  0.0000
                                            0.0000  0.0000  0.0000 -0.0285  0.0000
                                            0.0000  0.0000
     2. (1.00000) BD ( 2) C   1 - O   2  
                ( 20.41%)   0.4518* C   1 s(  0.00%)p 1.00( 99.04%)d 0.01(  0.96%)
                                            0.0000  0.0000  0.0000  0.0000  0.0000
                                            0.0000  0.0000  0.0000  0.0000  0.9949
                                            0.0246  0.0058  0.0033  0.0000  0.0000
                                            0.0000  0.0000  0.0000  0.0000  0.0980
                                            0.0000  0.0000
                ( 79.59%)   0.8921* O   2 s(  0.00%)p 1.00( 99.92%)d 0.00(  0.08%)
                                            0.0000  0.0000  0.0000  0.0000  0.0000
                                            0.0000  0.0000  0.0000  0.0000  0.9996
                                            0.0072 -0.0012  0.0000  0.0000  0.0000
                                            0.0000  0.0000  0.0000  0.0000 -0.0285
                                            0.0000  0.0000
     3. (1.00000) BD ( 3) C   1 - O   2  
                ( 29.07%)   0.5391* C   1 s( 18.82%)p 4.29( 80.74%)d 0.02(  0.44%)
                                           -0.0000 -0.3993  0.1696  0.0030  0.0000
                                            0.0000  0.0000  0.0000  0.0000  0.0000
                                            0.0000  0.0000  0.0000 -0.8955  0.0736
                                           -0.0018  0.0037  0.0000  0.0000  0.0000
                                            0.0000 -0.0663
                ( 70.93%)   0.8422* O   2 s( 26.02%)p 2.84( 73.88%)d 0.00(  0.10%)
                                           -0.0000 -0.5067  0.0587  0.0022 -0.0000
                                            0.0000  0.0000  0.0000  0.0000  0.0000
                                            0.0000  0.0000  0.0000  0.8594 -0.0149
                                           -0.0007 -0.0019  0.0000  0.0000  0.0000
                                            0.0000 -0.0313
     4. (0.99996) CR ( 1) C   1           s(100.00%)
                                            1.0000  0.0000  0.0000  0.0000  0.0000
                                            0.0000  0.0000  0.0000  0.0000  0.0000
                                            0.0000  0.0000  0.0000 -0.0000 -0.0000
                                            0.0000  0.0000  0.0000  0.0000  0.0000
                                            0.0000 -0.0000
     5. (0.99995) CR ( 1) O   2           s(100.00%)
                                            1.0000  0.0001  0.0000  0.0000 -0.0000
                                            0.0000  0.0000  0.0000  0.0000  0.0000
                                            0.0000  0.0000  0.0000  0.0001 -0.0000
                                            0.0000  0.0000  0.0000  0.0000  0.0000
                                            0.0000 -0.0000
     6. (0.99971) LP ( 1) C   1           s( 83.59%)p 0.20( 16.38%)d 0.00(  0.03%)
                                           -0.0000  0.9140  0.0215  0.0004  0.0000
                                            0.0000  0.0000  0.0000  0.0000  0.0000
                                            0.0000  0.0000  0.0000 -0.4041 -0.0222
                                            0.0071  0.0008  0.0000  0.0000  0.0000
                                            0.0000 -0.0165
     7. (0.99812) LP ( 1) O   2           s( 74.36%)p 0.34( 25.63%)d 0.00(  0.00%)
                                           -0.0001  0.8620  0.0245  0.0009 -0.0000
                                            0.0000  0.0000  0.0000  0.0000  0.0000
                                            0.0000  0.0000  0.0000  0.5063 -0.0046
                                            0.0048  0.0022  0.0000  0.0000  0.0000
                                            0.0000 -0.0062
     8. (0.00191) RY*( 1) C   1           s( 37.43%)p 1.65( 61.82%)d 0.02(  0.76%)
                                            0.0000  0.0687  0.5927 -0.1350 -0.0009
                                            0.0000  0.0000  0.0000  0.0000  0.0000
                                            0.0000  0.0000  0.0000  0.1499  0.7630
                                            0.0968 -0.0642  0.0000  0.0000  0.0000
                                            0.0000 -0.0870
     9. (0.00000) RY*( 2) C   1           s( 99.85%)p 0.00(  0.15%)d 0.00(  0.00%)
    10. (0.00000) RY*( 3) C   1           s(100.00%)p 0.00(  0.00%)
    11. (0.00000) RY*( 4) C   1           s(  0.00%)p 1.00(100.00%)d 0.00(  0.00%)
    12. (0.00000) RY*( 5) C   1           s(  0.00%)p 1.00(100.00%)d 0.00(  0.00%)
    13. (0.00000) RY*( 6) C   1           s(  0.00%)p 1.00(100.00%)d 0.00(  0.00%)
    14. (0.00000) RY*( 7) C   1           s(  0.00%)p 1.00(100.00%)d 0.00(  0.00%)
    15. (0.00000) RY*( 8) C   1           s(  0.00%)p 1.00(100.00%)d 0.00(  0.00%)
    16. (0.00000) RY*( 9) C   1           s(  0.00%)p 1.00(100.00%)d 0.00(  0.00%)
    17. (0.00000) RY*(10) C   1           s( 59.33%)p 0.69( 40.67%)d 0.00(  0.00%)
    18. (0.00000) RY*(11) C   1           s(  0.38%)p99.99( 99.62%)d 0.00(  0.00%)
    19. (0.00000) RY*(12) C   1           s(  0.15%)p99.99( 99.85%)d 0.00(  0.00%)
    20. (0.00000) RY*(13) C   1           s(  0.00%)p 0.00(  0.00%)d 1.00(100.00%)
    21. (0.00000) RY*(14) C   1           s(  0.00%)p 1.00(  0.96%)d99.99( 99.04%)
    22. (0.00000) RY*(15) C   1           s(  0.00%)p 1.00(  0.96%)d99.99( 99.04%)
    23. (0.00000) RY*(16) C   1           s(  0.00%)p 0.00(  0.00%)d 1.00(100.00%)
    24. (0.00000) RY*(17) C   1           s(  0.45%)p 1.73(  0.78%)d99.99( 98.78%)
    25. (0.00030) RY*( 1) O   2           s( 78.18%)p 0.28( 21.73%)d 0.00(  0.09%)
                                            0.0000  0.0081  0.6639 -0.5839  0.0001
                                            0.0000  0.0000  0.0000  0.0000  0.0000
                                            0.0000  0.0000  0.0000 -0.0458 -0.3230
                                           -0.3071  0.1288  0.0000  0.0000  0.0000
                                            0.0000 -0.0301
    26. (0.00003) RY*( 2) O   2           s( 21.23%)p 3.30( 69.99%)d 0.41(  8.77%)
    27. (0.00000) RY*( 3) O   2           s(100.00%)p 0.00(  0.00%)d 0.00(  0.00%)
    28. (0.00000) RY*( 4) O   2           s(  0.00%)p 1.00(100.00%)d 0.00(  0.00%)
    29. (0.00000) RY*( 5) O   2           s(  0.00%)p 1.00(100.00%)
    30. (0.00000) RY*( 6) O   2           s(  0.00%)p 1.00(100.00%)
    31. (0.00000) RY*( 7) O   2           s(  0.00%)p 1.00(100.00%)d 0.00(  0.00%)
    32. (0.00000) RY*( 8) O   2           s(  0.00%)p 1.00(100.00%)
    33. (0.00000) RY*( 9) O   2           s(  0.00%)p 1.00(100.00%)
    34. (0.00000) RY*(10) O   2           s( 86.63%)p 0.15( 13.37%)d 0.00(  0.00%)
    35. (0.00000) RY*(11) O   2           s(  9.73%)p 9.28( 90.23%)d 0.00(  0.04%)
    36. (0.00000) RY*(12) O   2           s(  2.13%)p45.95( 97.87%)d 0.00(  0.00%)
    37. (0.00000) RY*(13) O   2           s(  0.00%)p 0.00(  0.00%)d 1.00(100.00%)
    38. (0.00000) RY*(14) O   2           s(  0.00%)p 1.00(  0.08%)d99.99( 99.92%)
    39. (0.00000) RY*(15) O   2           s(  0.00%)p 1.00(  0.08%)d99.99( 99.92%)
    40. (0.00000) RY*(16) O   2           s(  0.00%)p 0.00(  0.00%)d 1.00(100.00%)
    41. (0.00000) RY*(17) O   2           s(  1.72%)p 4.24(  7.29%)d52.88( 90.99%)
    42. (0.00000) BD*( 1) C   1 - O   2  
                ( 79.59%)   0.8921* C   1 s(  0.00%)p 1.00( 99.04%)d 0.01(  0.96%)
                ( 20.41%)  -0.4518* O   2 s(  0.00%)p 1.00( 99.92%)d 0.00(  0.08%)
    43. (0.00000) BD*( 2) C   1 - O   2  
                ( 79.59%)   0.8921* C   1 s(  0.00%)p 1.00( 99.04%)d 0.01(  0.96%)
                ( 20.41%)  -0.4518* O   2 s(  0.00%)p 1.00( 99.92%)d 0.00(  0.08%)
    44. (0.00000) BD*( 3) C   1 - O   2  
                ( 70.93%)   0.8422* C   1 s( 18.82%)p 4.29( 80.74%)d 0.02(  0.44%)
                ( 29.07%)  -0.5391* O   2 s( 26.02%)p 2.84( 73.88%)d 0.00(  0.10%)


 NHO Directionality and "Bond Bending" (deviations from line of nuclear centers)

         [Thresholds for printing:  angular deviation  >  1.0 degree]
                                    hybrid p-character > 25.0%
                                    orbital occupancy  >  0.10e

                                Line of Centers        Hybrid 1              Hybrid 2
                                ---------------  -------------------   ------------------
                NBO               Theta   Phi    Theta   Phi    Dev    Theta   Phi    Dev
 ========================================================================================
     1. BD (   1) C   1 - O   2     0.0    0.0    90.0    0.0  90.0     90.0    0.0  90.0
     2. BD (   2) C   1 - O   2     0.0    0.0    90.0   90.0  90.0     90.0   90.0  90.0
     7. LP (   1) O   2             --     --      0.0    0.0   --       --     --    --


 Second Order Perturbation Theory Analysis of Fock Matrix in NBO Basis

     Threshold for printing:   0.25 kcal/mol
                                                                              E(2)  E(j)-E(i) F(i,j)
         Donor NBO (i)                     Acceptor NBO (j)                 kcal/mol   a.u.    a.u. 
 ===================================================================================================

 within unit  1
   5. CR (   1) O   2                /  8. RY*(   1) C   1                    1.03   20.37    0.183
   6. LP (   1) C   1                / 25. RY*(   1) O   2                    0.39    1.88    0.034
   7. LP (   1) O   2                /  8. RY*(   1) C   1                    2.58    1.76    0.085


 Natural Bond Orbitals (Summary):

                                                            Principal Delocalizations
           NBO                        Occupancy    Energy   (geminal,vicinal,remote)
 ====================================================================================
 Molecular unit  1  (CO)
     1. BD (   1) C   1 - O   2          1.00000    -0.48106   
     2. BD (   2) C   1 - O   2          1.00000    -0.48106   
     3. BD (   3) C   1 - O   2          1.00000    -0.95928   
     4. CR (   1) C   1                  0.99996   -10.67123   
     5. CR (   1) O   2                  0.99995   -19.57630  8(v)
     6. LP (   1) C   1                  0.99971    -0.61493  25(v)
     7. LP (   1) O   2                  0.99812    -0.96423  8(v)
     8. RY*(   1) C   1                  0.00191     0.79794   
     9. RY*(   2) C   1                  0.00000     0.83185   
    10. RY*(   3) C   1                  0.00000    22.67130   
    11. RY*(   4) C   1                  0.00000     0.63119   
    12. RY*(   5) C   1                  0.00000     2.00238   
    13. RY*(   6) C   1                  0.00000     0.64886   
    14. RY*(   7) C   1                  0.00000     0.63119   
    15. RY*(   8) C   1                  0.00000     2.00238   
    16. RY*(   9) C   1                  0.00000     0.64886   
    17. RY*(  10) C   1                  0.00000     0.50466   
    18. RY*(  11) C   1                  0.00000     2.05173   
    19. RY*(  12) C   1                  0.00000     0.72288   
    20. RY*(  13) C   1                  0.00000     1.29869   
    21. RY*(  14) C   1                  0.00000     1.46681   
    22. RY*(  15) C   1                  0.00000     1.46681   
    23. RY*(  16) C   1                  0.00000     1.29869   
    24. RY*(  17) C   1                  0.00000     2.05200   
    25. RY*(   1) O   2                  0.00030     1.26747   
    26. RY*(   2) O   2                  0.00003     0.93716   
    27. RY*(   3) O   2                  0.00000    49.61140   
    28. RY*(   4) O   2                  0.00000     0.59894   
    29. RY*(   5) O   2                  0.00000     4.77995   
    30. RY*(   6) O   2                  0.00000     0.92205   
    31. RY*(   7) O   2                  0.00000     0.59894   
    32. RY*(   8) O   2                  0.00000     4.77995   
    33. RY*(   9) O   2                  0.00000     0.92205   
    34. RY*(  10) O   2                  0.00000     1.09496   
    35. RY*(  11) O   2                  0.00000     4.25037   
    36. RY*(  12) O   2                  0.00000     1.19366   
    37. RY*(  13) O   2                  0.00000     2.82838   
    38. RY*(  14) O   2                  0.00000     2.96898   
    39. RY*(  15) O   2                  0.00000     2.96898   
    40. RY*(  16) O   2                  0.00000     2.82838   
    41. RY*(  17) O   2                  0.00000     3.27683   
    42. BD*(   1) C   1 - O   2          0.00000    -0.02964   
    43. BD*(   2) C   1 - O   2          0.00000    -0.02964   
    44. BD*(   3) C   1 - O   2          0.00000     0.39673   
       -------------------------------
              Total Lewis    6.99774  ( 99.9677%)
        Valence non-Lewis    0.00000  (  0.0000%)
        Rydberg non-Lewis    0.00226  (  0.0323%)
       -------------------------------
            Total unit  1    7.00000  (100.0000%)
           Charge unit  1    0.00000
 Sorting of NBOs:                    5    4    7    3    6    1    2   43   42   44
 Sorting of NBOs:                   17   31   28   11   14   13   16   19    8    9
 Sorting of NBOs:                   30   33   26   34   36   25   20   23   22   21
 Sorting of NBOs:                   12   15   18   24   40   37   38   39   41   35
 Sorting of NBOs:                   32   29   10   27
 Reordering of NBOs for storage:     5    4    7    3    6    1    2   43   42   44
 Reordering of NBOs for storage:    17   31   28   11   14   13   16   19    8    9
 Reordering of NBOs for storage:    30   33   26   34   36   25   20   23   22   21
 Reordering of NBOs for storage:    12   15   18   24   40   37   38   39   41   35
 Reordering of NBOs for storage:    32   29   10   27
 Labels of output orbitals:  CR  CR  LP  BD  LP  BD  BD  BD* BD* BD* RY* RY* RY* RY* RY* RY* RY* RY* RY* RY* 
 Labels of output orbitals:  RY* RY* RY* RY* RY* RY* RY* RY* RY* RY* RY* RY* RY* RY* RY* RY* RY* RY* RY* RY* 
 Labels of output orbitals:  RY* RY* RY* RY* 
 GSVD:  LWork=       -1665 too small for GESVD, short by        7400 words or        7400 for optimal perf.
 Leave Link  607 at Mon Apr 21 19:30:24 2025, MaxMem=   536870912 cpu:              25.4 elap:               3.3
 (Enter /home/szhao/Apps/g16/l701.exe)
 ... and contract with generalized density number  0.
 Compute integral first derivatives.
 Leave Link  701 at Mon Apr 21 19:30:26 2025, MaxMem=   536870912 cpu:               3.6 elap:               0.5
 (Enter /home/szhao/Apps/g16/l702.exe)
 L702 exits ... SP integral derivatives will be done elsewhere.
 Leave Link  702 at Mon Apr 21 19:30:27 2025, MaxMem=   536870912 cpu:               0.6 elap:               0.2
 (Enter /home/szhao/Apps/g16/l703.exe)
 Integral derivatives from FoFJK, PRISM(SPDF).
 Compute integral first derivatives, UseDBF=F ICtDFT=           0.
 Calling FoFJK, ICntrl=      2127 FMM=F ISym2X=1 I1Cent= 0 IOpClX= 1 NMat=1 NMatS=1 NMatT=0.
 FoFJK:  IHMeth= 1 ICntrl=    2127 DoSepK=F KAlg= 0 I1Cent=           0 FoldK=F
 IRaf=         0 NMat=       1 IRICut=       1 DoRegI=T DoRafI=F ISym2E= 1 IDoP0=0 IntGTp=1.
 FoFCou: FMM=F IPFlag=           0 FMFlag=      100000 FMFlg1=         800
         NFxFlg=           0 DoJE=F BraDBF=F KetDBF=F FulRan=T
         wScrn=  0.000000 ICntrl=      2127 IOpCl=  1 I1Cent=           0 NGrid=           0
         NMat0=    1 NMatS0=      1 NMatT0=    0 NMatD0=    1 NMtDS0=    0 NMtDT0=    0
 Petite list used in FoFCou.
 Leave Link  703 at Mon Apr 21 19:30:27 2025, MaxMem=   536870912 cpu:               2.1 elap:               0.4
 (Enter /home/szhao/Apps/g16/l716.exe)
 Dipole        = 0.00000000D+00 0.00000000D+00-4.19344086D-01
 ***** Axes restored to original set *****
 -------------------------------------------------------------------
 Center     Atomic                   Forces (Hartrees/Bohr)
 Number     Number              X              Y              Z
 -------------------------------------------------------------------
      1        6           0.284315634   -0.000000000   -0.000000000
      2        8          -0.284315634   -0.000000000   -0.000000000
 -------------------------------------------------------------------
 Cartesian Forces:  Max     0.284315634 RMS     0.164149708
 Z-matrix is all fixed cartesians, so copy forces.
 Force constants in Cartesian coordinates: 
                1             2             3             4             5 
      1  0.505630D+00
      2  0.000000D+00  0.100000D+01
      3  0.000000D+00  0.000000D+00  0.100000D+01
      4 -0.505630D+00  0.000000D+00  0.000000D+00  0.505630D+00
      5  0.000000D+00  0.000000D+00  0.000000D+00  0.000000D+00  0.100000D+01
      6  0.000000D+00  0.000000D+00  0.000000D+00  0.000000D+00  0.000000D+00
                6 
      6  0.100000D+01
 Leave Link  716 at Mon Apr 21 19:30:28 2025, MaxMem=   536870912 cpu:               0.7 elap:               0.1
 (Enter /home/szhao/Apps/g16/l103.exe)

 GradGradGradGradGradGradGradGradGradGradGradGradGradGradGradGradGradGrad
 Berny optimization.
 Search for a local minimum.
 Step number   1 out of a maximum of    2
 All quantities printed in internal units (Hartrees-Bohrs-Radians)
 Second derivative matrix not updated -- first step.
 The second derivative matrix:
                          X1        Y1        Z1        X2        Y2
           X1           0.50563
           Y1           0.00000   1.00000
           Z1           0.00000   0.00000   1.00000
           X2          -0.50563   0.00000   0.00000   0.50563
           Y2           0.00000   0.00000   0.00000   0.00000   1.00000
           Z2           0.00000   0.00000   0.00000   0.00000   0.00000
                          Z2
           Z2           1.00000
 ITU=  0
     Eigenvalues ---    1.00607
 Quadratic step=3.986D-01 exceeds max=3.000D-01 adjusted using Lamda=-3.307D-01.
 Angle between NR and scaled steps=   0.00 degrees.
 Angle between quadratic step and forces=   4.11 degrees.
 ClnCor:  largest displacement from symmetrization is 0.00D+00 for atom     0.
 Linear search not attempted -- first point.
 ClnCor:  largest displacement from symmetrization is 0.00D+00 for atom     0.
 B after Tr=    -0.015192    0.000000    0.000000
         Rot=    1.000000    0.000000    0.000000    0.000000 Ang=   0.00 deg.
 Variable       Old X    -DE/DX   Delta X   Delta X   Delta X     New X
                                 (Linear)    (Quad)   (Total)
    X1       -1.29651   0.28432   0.00000   0.22679   0.21160  -1.08491
    Y1        0.00000  -0.00000   0.00000   0.00000   0.00000   0.00000
    Z1        0.00000  -0.00000   0.00000   0.00000   0.00000   0.00000
    X2        1.29651  -0.28432   0.00000  -0.19640  -0.21160   1.08491
    Y2        0.00000  -0.00000   0.00000   0.00000   0.00000   0.00000
    Z2        0.00000  -0.00000   0.00000   0.00000   0.00000   0.00000
         Item               Value     Threshold  Converged?
 Maximum Force            0.284316     0.000450     NO 
 RMS     Force            0.164150     0.000300     NO 
 Maximum Displacement     0.211596     0.001800     NO 
 RMS     Displacement     0.122165     0.001200     NO 
 Predicted change in Energy=-7.504309D-02
 GradGradGradGradGradGradGradGradGradGradGradGradGradGradGradGradGradGrad

 Leave Link  103 at Mon Apr 21 19:30:28 2025, MaxMem=   536870912 cpu:               1.4 elap:               0.4
 (Enter /home/szhao/Apps/g16/l9999.exe)
 1\1\GINC-NODE06\Force\UM062X\6-311+G(d,p)\C1O1\SZHAO\21-Apr-2025\0\\#p
  UM062X/6-311+G** force int=superfine pop=saveNBO\\Title Card Required
 \\0,1\C,-0.686082,0.,0.\O,0.686082,0.,0.\\Version=ES64L-G16RevA.03\Sta
 te=1-SG\HF=-113.2209202\S2=0.\S2-1=0.\S2A=0.\RMSD=1.898e-09\RMSF=1.641
 e-01\Dipole=-0.4193441,0.,0.\Quadrupole=-0.7140667,0.3570334,0.3570334
 ,0.,0.,0.\PG=C*V [C*(C1O1)]\\@


 TERRY FORSTER, PORTLY ATLANTA BRAVES RELIEVER,
 ANNOUNCING THAT HE WAS GOING TO A FAT FARM:
 "A WAIST IS A TERRIBLE THING TO MIND."
 Job cpu time:       0 days  0 hours  1 minutes  1.3 seconds.
 Elapsed time:       0 days  0 hours  0 minutes 10.1 seconds.
 File lengths (MBytes):  RWF=     17 Int=      0 D2E=      0 Chk=      2 Scr=      2
 Normal termination of Gaussian 16 at Mon Apr 21 19:30:29 2025.
