Title Card Required                                                     
FOpt      UM062X                                                      6-311+G(d,p)        
Number of atoms                            I                4
Info1-9                                    I   N=           9
          15          14           0           0           0         110
           2          18        -502
Full Title                                 C   N=           2
Title Card Required     
Route                                      C   N=           8
#p opt UM062X/6-311+G** nosymm int=superfine SCF=(MaxCycle=2
00,NoVarAcc,noincfock) guess=read   
Charge                                     I                0
Multiplicity                               I                1
Number of electrons                        I               26
Number of alpha electrons                  I               13
Number of beta electrons                   I               13
Number of basis functions                  I               64
Number of independent functions            I               64
Number of point charges in /Mol/           I                0
Number of translation vectors              I                0
Atomic numbers                             I   N=           4
           8          16           1           1
Nuclear charges                            R   N=           4
  8.00000000E+00  1.60000000E+01  1.00000000E+00  1.00000000E+00
Current cartesian coordinates              R   N=          12
 -2.38295598E+00  9.25965801E-05 -7.55890450E-06  2.38295598E+00 -9.25965801E-05
  7.55890450E-06 -2.45837656E+00  1.96330585E-01 -1.81912594E+00  2.19174875E+00
 -2.38328188E+00  8.62725764E-01
Number of symbols in /Mol/                 I                0
Force Field                                I                0
Atom Types                                 C   N=           4
                                                
Int Atom Types                             I   N=           4
           0           0           0           0
MM charges                                 R   N=           4
  0.00000000E+00  0.00000000E+00  0.00000000E+00  0.00000000E+00
Integer atomic weights                     I   N=           4
          16          32           1           1
Real atomic weights                        R   N=           4
  1.59949146E+01  3.19720718E+01  1.00782504E+00  1.00782504E+00
Atom fragment info                         I   N=           4
           0           0           0           0
Atom residue num                           I   N=           4
           0           0           0           0
Nuclear spins                              I   N=           4
           0           0           1           1
Nuclear ZEff                               R   N=           4
 -5.60000000E+00 -1.36000000E+01 -1.00000000E+00 -1.00000000E+00
Nuclear ZNuc                               R   N=           4
  8.00000000E+00  1.60000000E+01  1.00000000E+00  1.00000000E+00
Nuclear QMom                               R   N=           4
  0.00000000E+00  0.00000000E+00  0.00000000E+00  0.00000000E+00
Nuclear GFac                               R   N=           4
  0.00000000E+00  0.00000000E+00  2.79284600E+00  2.79284600E+00
MicOpt                                     I   N=           4
          -2          -2          -1          -1
Number of residues                         I                0
Number of secondary structures             I                0
Redundant internal dimensions              I   N=           4
          11           8           2           1
Redundant internal coordinate indices      I   N=          44
           1          -1           0           0           1          -2
           0           0           1          -3           0           0
           2          -1           0           0           2          -2
           0           0           2          -3           0           0
           1           3           0           0           2           4
           0           0           2           1           3           0
           1           2           4           0           3           1
           2           4
Redundant internal coordinates             R   N=          11
 -2.38295598E+00  9.25965801E-05 -7.55890450E-06  2.38295598E+00 -9.25965801E-05
  7.55890450E-06  1.83122618E+00  2.54173839E+00  1.61200114E+00  1.49553586E+00
 -2.02558010E+00
ZRed-IntVec                                I   N=          11
          -1          -1          -1          -1          -1          -1
           0           0           0           0           0
ZRed-FPVec                                 R   N=          11
  0.00000000E+00  0.00000000E+00  0.00000000E+00  0.00000000E+00  0.00000000E+00
  0.00000000E+00  0.00000000E+00  0.00000000E+00  0.00000000E+00  0.00000000E+00
  0.00000000E+00
ZRed-Constraint1                           R   N=          11
 -2.38295598E+00  9.25965801E-05 -7.55890450E-06  2.38295598E+00 -9.25965801E-05
  7.55890450E-06  1.84074506E+00  2.58033948E+00  1.57722868E+00  1.59800184E+00
 -1.76503599E+00
ZRed-Constraint2                           R   N=          11
 -2.38295598E+00  9.25965801E-05 -7.55890450E-06  2.38295598E+00 -9.25965801E-05
  7.55890450E-06  0.00000000E+00  0.00000000E+00  0.00000000E+00  0.00000000E+00
  0.00000000E+00
Number of contracted shells                I               27
Number of primitive shells                 I               49
Pure/Cartesian d shells                    I                0
Pure/Cartesian f shells                    I                0
Highest angular momentum                   I                2
Largest degree of contraction              I                6
Shell types                                I   N=          27
           0          -1          -1          -1          -1          -2
           0           0           0           0           0           0
          -1           1           1           1           1           1
          -2           0           0           0           1           0
           0           0           1
Number of primitives per shell             I   N=          27
           6           3           1           1           1           1
           6           3           1           1           1           1
           1           4           2           1           1           1
           1           3           1           1           1           3
           1           1           1
Shell to atom map                          I   N=          27
           1           1           1           1           1           1
           2           2           2           2           2           2
           2           2           2           2           2           2
           2           3           3           3           3           4
           4           4           4
Primitive exponents                        R   N=          49
  8.58850000E+03  1.29723000E+03  2.99296000E+02  8.73771000E+01  2.56789000E+01
  3.74004000E+00  4.21175000E+01  9.62837000E+00  2.85332000E+00  9.05661000E-01
  2.55611000E-01  8.45000000E-02  1.29200000E+00  9.34134000E+04  1.39617000E+04
  3.16991000E+03  9.02456000E+02  2.97158000E+02  1.08702000E+02  1.08702000E+02
  4.31553000E+01  1.81079000E+01  5.56009000E+00  2.13183000E+00  4.20403000E-01
  1.36045000E-01  4.05000000E-02  4.95040000E+02  1.17221000E+02  3.77749000E+01
  1.40584000E+01  5.56574000E+00  2.26297000E+00  8.07994000E-01  2.77460000E-01
  7.71410000E-02  6.50000000E-01  3.38650000E+01  5.09479000E+00  1.15879000E+00
  3.25840000E-01  1.02741000E-01  7.50000000E-01  3.38650000E+01  5.09479000E+00
  1.15879000E+00  3.25840000E-01  1.02741000E-01  7.50000000E-01
Contraction coefficients                   R   N=          49
  1.89515008E-03  1.43859006E-02  7.07320031E-02  2.40001011E-01  5.94797026E-01
  2.80802012E-01  1.13889012E-01  9.20811101E-01 -3.27447036E-03  1.00000000E+00
  1.00000000E+00  1.00000000E+00  1.00000000E+00  7.42999957E-04  5.79299966E-03
  2.99539983E-02  1.19027993E-01  3.68431979E-01  5.77298966E-01  1.43186060E-01
  6.24465262E-01  2.83366119E-01  1.00000000E+00  1.00000000E+00  1.00000000E+00
  1.00000000E+00  1.00000000E+00  8.30900251E-03  6.40240194E-02  2.77614084E-01
  7.45076225E-01  6.13711672E-01  4.43817763E-01  1.00000000E+00  1.00000000E+00
  1.00000000E+00  1.00000000E+00  2.54938145E-02  1.90373109E-01  8.52161486E-01
  1.00000000E+00  1.00000000E+00  1.00000000E+00  2.54938145E-02  1.90373109E-01
  8.52161486E-01  1.00000000E+00  1.00000000E+00  1.00000000E+00
P(S=P) Contraction coefficients            R   N=          49
  0.00000000E+00  0.00000000E+00  0.00000000E+00  0.00000000E+00  0.00000000E+00
  0.00000000E+00  3.65113974E-02  2.37152983E-01  8.19701941E-01  1.00000000E+00
  1.00000000E+00  1.00000000E+00  0.00000000E+00  0.00000000E+00  0.00000000E+00
  0.00000000E+00  0.00000000E+00  0.00000000E+00  0.00000000E+00  0.00000000E+00
  0.00000000E+00  0.00000000E+00  0.00000000E+00  0.00000000E+00  0.00000000E+00
  0.00000000E+00  1.00000000E+00  0.00000000E+00  0.00000000E+00  0.00000000E+00
  0.00000000E+00  0.00000000E+00  0.00000000E+00  0.00000000E+00  0.00000000E+00
  0.00000000E+00  0.00000000E+00  0.00000000E+00  0.00000000E+00  0.00000000E+00
  0.00000000E+00  0.00000000E+00  0.00000000E+00  0.00000000E+00  0.00000000E+00
  0.00000000E+00  0.00000000E+00  0.00000000E+00  0.00000000E+00
Coordinates of each shell                  R   N=          81
 -2.38295598E+00  9.25965801E-05 -7.55890450E-06 -2.38295598E+00  9.25965801E-05
 -7.55890450E-06 -2.38295598E+00  9.25965801E-05 -7.55890450E-06 -2.38295598E+00
  9.25965801E-05 -7.55890450E-06 -2.38295598E+00  9.25965801E-05 -7.55890450E-06
 -2.38295598E+00  9.25965801E-05 -7.55890450E-06  2.38295598E+00 -9.25965801E-05
  7.55890450E-06  2.38295598E+00 -9.25965801E-05  7.55890450E-06  2.38295598E+00
 -9.25965801E-05  7.55890450E-06  2.38295598E+00 -9.25965801E-05  7.55890450E-06
  2.38295598E+00 -9.25965801E-05  7.55890450E-06  2.38295598E+00 -9.25965801E-05
  7.55890450E-06  2.38295598E+00 -9.25965801E-05  7.55890450E-06  2.38295598E+00
 -9.25965801E-05  7.55890450E-06  2.38295598E+00 -9.25965801E-05  7.55890450E-06
  2.38295598E+00 -9.25965801E-05  7.55890450E-06  2.38295598E+00 -9.25965801E-05
  7.55890450E-06  2.38295598E+00 -9.25965801E-05  7.55890450E-06  2.38295598E+00
 -9.25965801E-05  7.55890450E-06 -2.45837656E+00  1.96330585E-01 -1.81912594E+00
 -2.45837656E+00  1.96330585E-01 -1.81912594E+00 -2.45837656E+00  1.96330585E-01
 -1.81912594E+00 -2.45837656E+00  1.96330585E-01 -1.81912594E+00  2.19174875E+00
 -2.38328188E+00  8.62725764E-01  2.19174875E+00 -2.38328188E+00  8.62725764E-01
  2.19174875E+00 -2.38328188E+00  8.62725764E-01  2.19174875E+00 -2.38328188E+00
  8.62725764E-01
Num ILSW                                   I              100
ILSW                                       I   N=         100
           1           0           0           1           2           0
           0           0           0           0        4336          -1
           7           0           0           0           2           0
           0           0           0           0           1           0
           1           1           0           0           0           0
           0           0      100000           0          -1           0
           0           0           0           0           0           0
           0           0           0           1           0           0
           0 -2000000000           1           0           0           0
           0           0           4          52           0           0
           0           0          55           0           0           0
           0           0           0           4           0           1
           0           0           0           0           0           0
           0           0           0           0           0           0
           0           0           0           0           0           0
           0           0           0           0           0           0
           0           0           0           0
Num RLSW                                   I               52
RLSW                                       R   N=          52
  1.00000000E+00  1.00000000E+00  1.00000000E+00  1.00000000E+00  5.40000000E-01
  0.00000000E+00  0.00000000E+00  1.00000000E+00  0.00000000E+00  0.00000000E+00
  0.00000000E+00  0.00000000E+00  1.00000000E+00  0.00000000E+00  0.00000000E+00
  0.00000000E+00  0.00000000E+00  1.00000000E+00  0.00000000E+00  0.00000000E+00
  0.00000000E+00  0.00000000E+00  1.00000000E+00  0.00000000E+00  0.00000000E+00
  0.00000000E+00  0.00000000E+00  1.00000000E+00  0.00000000E+00  0.00000000E+00
  0.00000000E+00  0.00000000E+00  1.00000000E+00  0.00000000E+00  0.00000000E+00
  0.00000000E+00  0.00000000E+00  0.00000000E+00  1.00000000E+00  1.00000000E+00
  0.00000000E+00  1.00000000E+00  0.00000000E+00  0.00000000E+00  0.00000000E+00
  0.00000000E+00  0.00000000E+00  0.00000000E+00  0.00000000E+00  0.00000000E+00
  0.00000000E+00  0.00000000E+00
MxBond                                     I                2
NBond                                      I   N=           4
           2           2           1           1
IBond                                      I   N=           8
           2           3           1           4           1           0
           2           0
RBond                                      R   N=           8
  1.00000000E-01  1.00000000E+00  1.00000000E-01  1.00000000E+00  1.00000000E+00
  0.00000000E+00  1.00000000E+00  0.00000000E+00
Virial Ratio                               R      2.002058847613196E+00
SCF Energy                                 R     -4.744609035162989E+02
Total Energy                               R     -4.744609035162989E+02
S**2                                       R      1.669953064720175E-10
S**2 after annihilation                    R     -5.275779813459292E-13
RMS Force                                  R      2.258589629478050E-05
RMS Density                                R      6.274741118023341E-09
Job Status                                 I                1
Nuclear derivative order                   I                1
External E-field                           R   N=          35
  0.00000000E+00  0.00000000E+00  0.00000000E+00  0.00000000E+00  0.00000000E+00
  0.00000000E+00  0.00000000E+00  0.00000000E+00  0.00000000E+00  0.00000000E+00
  0.00000000E+00  0.00000000E+00  0.00000000E+00  0.00000000E+00  0.00000000E+00
  0.00000000E+00  0.00000000E+00  0.00000000E+00  0.00000000E+00  0.00000000E+00
  0.00000000E+00  0.00000000E+00  0.00000000E+00  0.00000000E+00  0.00000000E+00
  0.00000000E+00  0.00000000E+00  0.00000000E+00  0.00000000E+00  0.00000000E+00
  0.00000000E+00  0.00000000E+00  0.00000000E+00  0.00000000E+00  0.00000000E+00
IOpCl                                      I                1
IROHF                                      I                0
Alpha Orbital Energies                     R   N=          64
 -8.99742772E+01 -1.96743649E+01 -8.33460698E+00 -6.25679341E+00 -6.25309621E+00
 -6.24760416E+00 -1.08930681E+00 -8.31698425E-01 -5.28676098E-01 -4.91945198E-01
 -3.99929790E-01 -3.92439844E-01 -3.49041599E-01 -1.59613485E-01  1.57113672E-02
  4.09615062E-02  4.75600663E-02  5.67826623E-02  7.46084263E-02  1.50415320E-01
  1.95108570E-01  1.99930125E-01  2.15583743E-01  2.67813056E-01  3.13702273E-01
  3.40204803E-01  3.53852274E-01  4.02919904E-01  5.45784506E-01  6.11210348E-01
  7.17244008E-01  7.25403514E-01  7.96101713E-01  8.03539686E-01  9.75283975E-01
  1.04551545E+00  1.08959939E+00  1.13061192E+00  1.36113857E+00  1.39776472E+00
  1.39891877E+00  1.47060368E+00  1.50246446E+00  1.65025998E+00  1.66739339E+00
  1.77262463E+00  2.06999824E+00  2.09922774E+00  2.49381249E+00  2.55634983E+00
  2.89257385E+00  2.91396933E+00  3.17434714E+00  3.18862452E+00  3.85332528E+00
  5.05270592E+00  5.07157018E+00  5.52727040E+00  7.84343774E+00  1.74117173E+01
  1.74506765E+01  1.74591886E+01  4.98843346E+01  1.89106946E+02
Beta Orbital Energies                      R   N=          64
 -8.99742773E+01 -1.96743648E+01 -8.33460700E+00 -6.25679365E+00 -6.25309625E+00
 -6.24760419E+00 -1.08930621E+00 -8.31698811E-01 -5.28675747E-01 -4.91945341E-01
 -3.99929301E-01 -3.92438887E-01 -3.49041834E-01 -1.59613179E-01  1.57114292E-02
  4.09615445E-02  4.75600837E-02  5.67826887E-02  7.46084142E-02  1.50415360E-01
  1.95108568E-01  1.99930196E-01  2.15583768E-01  2.67813240E-01  3.13702341E-01
  3.40204835E-01  3.53852318E-01  4.02919914E-01  5.45784600E-01  6.11209949E-01
  7.17243349E-01  7.25403242E-01  7.96101387E-01  8.03539078E-01  9.75283708E-01
  1.04551561E+00  1.08959959E+00  1.13061228E+00  1.36113885E+00  1.39776476E+00
  1.39891880E+00  1.47060357E+00  1.50246421E+00  1.65025962E+00  1.66739314E+00
  1.77262353E+00  2.06999838E+00  2.09922751E+00  2.49381251E+00  2.55634977E+00
  2.89257481E+00  2.91396972E+00  3.17434794E+00  3.18862479E+00  3.85332572E+00
  5.05270623E+00  5.07157123E+00  5.52727079E+00  7.84343768E+00  1.74117172E+01
  1.74506758E+01  1.74591884E+01  4.98843345E+01  1.89106946E+02
Alpha MO coefficients                      R   N=        4096
 -4.71125671E-07  1.99268622E-06 -1.95938351E-06 -1.60157246E-07 -4.88287174E-07
 -1.36962579E-05 -2.36255328E-07  2.70621759E-07  2.88379851E-06  1.01414410E-05
  2.30017278E-05 -8.40950573E-07 -8.39048860E-06  1.72499302E-04  1.00469599E-04
  3.55604152E-06 -4.21230146E-05 -2.68342442E-06  1.74978640E-07 -6.45976839E-07
  9.84612706E-06 -3.80806903E-09  4.10787592E-01  6.54411118E-01  1.53509939E-02
 -4.35447777E-03  1.64161393E-03 -9.76417044E-04  9.56428767E-05 -5.78594203E-05
 -2.32575147E-05  7.88578850E-06 -4.97934087E-05 -7.10499124E-05  2.26786004E-05
  1.29468515E-05  2.40877376E-05 -7.82408142E-06 -2.81718849E-06  3.62903669E-06
 -2.07358193E-06 -2.83180487E-05 -1.56558158E-04  5.73587047E-05  1.68605321E-04
  1.78541841E-04 -6.22564307E-05 -2.51147593E-05 -3.56652724E-06 -4.66438907E-05
 -6.77142364E-05  8.26746681E-06 -4.80237401E-06 -6.09600457E-06 -8.70997714E-05
  2.01663159E-07 -2.22164613E-06  2.73355981E-06  2.06267378E-05 -1.87462633E-04
  2.64227103E-04 -1.52755651E-05 -1.58620583E-04  5.77354373E-05  5.52857202E-01
  4.69685264E-01  5.10478591E-04  1.22743266E-04 -1.23932799E-03  8.08129709E-03
 -1.52326582E-04 -1.41476031E-05  1.35220507E-04 -3.26031327E-03 -1.14418975E-04
  3.06529195E-05 -2.27852776E-04  2.88958455E-03  4.85381882E-04  2.44867739E-05
 -2.90185547E-04  1.41886494E-04  9.61816826E-06 -2.49284606E-05 -1.72462760E-05
 -1.76383351E-06  1.99678479E-08  1.10373064E-06 -7.83064504E-06  1.69788172E-05
 -6.89351409E-05  8.65554363E-06 -7.42046028E-04  4.44339683E-04  2.17605391E-05
 -4.07492877E-05  6.79018258E-06 -1.45515104E-07  1.32520582E-07 -1.06559298E-05
 -1.46991256E-06 -5.95598919E-07  5.05485751E-05  1.26201466E-05 -7.83657409E-07
 -3.40911675E-05 -6.67488956E-05  1.80629630E-05  9.85484735E-05  4.89265955E-05
  7.58421957E-06 -1.91887553E-05 -5.53135545E-06 -1.81663335E-05 -3.25365190E-06
  1.50591535E-05  8.24196228E-05 -9.50881688E-05 -8.96170584E-04 -1.19127142E-05
  4.56736956E-05 -4.37714291E-04  3.84472253E-05 -1.68022780E-04  1.76791141E-04
  5.14390255E-05 -3.87393856E-05  1.72412982E-05 -2.31706664E-06  7.41869652E-06
 -2.95840893E-05  3.57612400E-08 -9.94509974E-06 -1.42459630E-04  1.77427404E-04
 -1.19829422E-08  6.64682137E-05  7.46824099E-05  1.77177747E-04 -2.56943679E-05
  3.37554931E-05  2.18315716E-03  1.34746192E-03  5.31235115E-05 -6.34648237E-04
 -7.68222848E-05  1.08098717E-05  1.69178347E-07  1.24674067E-04 -1.23828820E-06
 -1.19761741E-01 -3.20484718E-01  5.16050793E-01  5.98893762E-01  4.32348648E-02
 -1.57991136E-02  1.91102948E-03 -8.15591888E-04 -2.64766571E-04  8.21034840E-05
 -1.28585190E-03 -1.75430505E-03  5.45474225E-04 -2.96404539E-03 -3.95959538E-03
  1.23302690E-03 -3.43309989E-04 -3.85276688E-04  1.01305141E-04 -3.16397882E-04
 -1.66933536E-03  6.04478081E-04  2.15637712E-03  2.23734202E-03 -7.66093404E-04
 -6.93768248E-04 -7.88776754E-06 -6.90093954E-04 -4.39828853E-04 -4.02622312E-06
 -9.66892167E-05  2.10734153E-04 -1.34507473E-03  6.47662981E-05 -3.33318259E-05
  1.11232098E-04  9.86588305E-05 -1.70690385E-03  3.36122665E-03 -1.56601618E-04
 -1.48884600E-03  5.42792560E-04 -2.20903956E-06 -1.95735131E-05 -7.25948335E-05
  2.65161035E-06 -1.52540790E-05  2.37424133E-04  2.93743807E-04 -1.34030458E-05
  8.59778468E-05 -7.02209123E-04 -7.51187360E-04 -2.20281211E-05  5.19657053E-04
  1.01992389E-03  8.77666566E-04 -8.23726957E-06 -3.27317965E-04 -7.22863241E-05
  3.18269087E-05  2.28327055E-05 -7.33738191E-05 -1.98949769E-06 -3.23238770E-04
 -8.86540066E-04  1.66235060E-03  1.27811912E-03  9.18790519E-05  3.04950105E-05
 -3.88558029E-04 -2.45222606E-03  4.86343621E-04 -1.76121317E-04  3.68847515E-01
 -8.19795006E-02  2.71842090E-02  6.90305695E-01 -1.53366223E-01  5.08391238E-02
  5.36154475E-02 -1.18580837E-02  3.94736313E-03 -7.66656192E-03  1.46842487E-03
 -5.09867196E-04  4.95721516E-03 -9.43915764E-04  3.49067177E-04  2.15120792E-05
  1.19216314E-04 -1.08007665E-04 -3.29254437E-04 -4.05181793E-04 -6.48097067E-05
  1.02150179E-03 -8.28352481E-04  1.92449299E-04 -1.93471362E-05  2.30857265E-04
  1.09045871E-04 -1.70166918E-04 -7.63790247E-05  1.03370676E-04 -1.83981143E-04
  6.98275242E-05 -2.94781355E-07 -3.48028913E-06 -2.15259742E-05  2.89337253E-06
 -5.55026642E-06  4.16868872E-05  7.67288696E-05  3.08986490E-09  2.49523000E-05
 -7.89040557E-05 -1.71507427E-04 -6.35544371E-05  9.18223156E-05 -8.99746917E-05
  1.25852782E-04  2.98336827E-06  1.16425438E-04 -1.16687399E-05  6.34532776E-06
  7.83318730E-07 -1.85985856E-05 -4.99703038E-06 -8.14079842E-04 -2.20410984E-03
  3.91038368E-03  3.92210188E-03 -7.00645101E-04 -2.76123074E-04 -5.64766182E-04
 -4.22110288E-04 -1.80391437E-03  6.67918676E-04  8.64215834E-02  3.46644383E-01
 -1.28061759E-01  1.61500763E-01  6.47511539E-01 -2.39213626E-01  1.22694159E-02
  4.90945752E-02 -1.81334774E-02 -1.68649655E-03 -6.36867286E-03  2.35161983E-03
  1.03157696E-03  4.02499388E-03 -1.48811103E-03  2.83579807E-04  1.32825195E-04
  3.69077589E-04  4.66547413E-04 -3.75763642E-04 -5.82295266E-07  1.12773641E-04
  2.51944295E-04  2.96217195E-05 -2.65581214E-05  5.24604734E-05 -5.44518778E-04
 -1.40797587E-04  1.16438829E-03  1.62098699E-05  5.90188156E-04 -2.19057946E-04
 -3.27987524E-07 -1.59866686E-06 -8.55947517E-07  4.82550258E-07  2.20710105E-06
  1.98211385E-05  3.69708347E-06  2.87644644E-06  3.15124596E-06 -1.11726139E-04
 -2.50975799E-05 -3.54343873E-05  4.30599446E-05  1.57728141E-04 -1.40490147E-05
  1.68301095E-05 -9.53824690E-05 -1.58258373E-05  3.81225069E-06  1.51427535E-06
 -8.49570286E-07 -3.26433192E-06 -4.05235346E-05 -1.09805621E-04  1.95068010E-04
  1.95133368E-04 -5.22901696E-05  3.86752590E-05  1.69930298E-05 -3.77683714E-05
 -7.27005082E-04 -1.99649098E-03  2.85059845E-03  1.31160404E-01  3.56958677E-01
  5.30261670E-03  2.44588336E-01  6.65652203E-01  4.03712577E-04  1.78969975E-02
  4.87006094E-02 -7.59706583E-05 -2.41814596E-03 -6.55848497E-03  3.54780906E-05
  1.37942838E-03  3.80534941E-03  2.06774938E-04 -2.38120728E-04 -3.36614348E-04
  1.32652480E-04 -8.91543648E-05 -2.80094465E-05  2.32144983E-04 -2.74531313E-04
  5.23679249E-05 -7.95019659E-06  1.31034252E-05 -1.55610616E-06 -2.11143741E-05
 -8.10273436E-06  1.72466719E-06  2.78870855E-05  9.20567798E-05 -1.17813814E-01
 -1.93929242E-01  2.18757652E-03  4.59208214E-03 -4.63020943E-02  5.65905104E-01
  1.48372535E-03  7.47658482E-03 -7.52383712E-02  4.30674243E-01  1.54363648E-02
  2.42214532E-03 -3.19351430E-02 -3.25066568E-02 -1.18368552E-02 -9.68315537E-04
  8.08055829E-03  9.97433184E-03  1.27863098E-04 -2.47911169E-03  5.15599170E-03
  5.61172037E-05  1.98135180E-03  5.60844229E-03 -1.15739622E-02 -2.16785534E-02
  3.63990640E-02  2.89459825E-02  9.80508731E-03 -6.27995278E-03  1.55142632E-04
  6.90314930E-05  3.21087405E-03  3.43361817E-04  3.28670568E-05  6.22583986E-03
  6.94746041E-04  5.15654654E-05 -7.30779986E-03 -8.27081657E-04 -3.87947296E-05
 -1.93571684E-02 -1.00935588E-03 -5.40241735E-04 -4.40986020E-03 -2.01597148E-03
 -1.16106173E-04 -3.13155147E-03  4.20857437E-04 -6.09321978E-04  4.06283442E-03
  2.62697481E-04  1.09442709E-01  8.16407957E-02  2.11409260E-02  4.37681800E-04
 -2.46306386E-03  2.34123995E-02  3.76801711E-03  4.05375086E-03 -3.06641896E-03
 -6.60319398E-04  9.68764911E-04 -3.78431342E-04  9.47577479E-03  1.57713168E-02
  1.64577639E-02 -1.68456671E-03  8.42998039E-03 -4.89881226E-02  2.44284427E-02
 -2.36008915E-03  1.23570677E-02 -2.96236650E-02  2.12771017E-02 -1.48995773E-03
  2.67178353E-03 -1.75106394E-02 -8.23743933E-03 -2.91645947E-04  4.59367654E-03
 -1.82448749E-03 -9.23894412E-04  2.17269927E-04  1.36270638E-03 -7.70006166E-05
  3.32143983E-02  9.44106188E-02 -1.98403971E-01 -3.65713509E-01  6.61363584E-01
  4.12343251E-01 -7.43541763E-03  4.11799088E-03 -8.44717768E-04  2.01552994E-03
  1.96690221E-04  1.60304634E-02 -5.38468908E-03  4.41643361E-04  3.19767614E-02
 -1.07638278E-02 -7.78391162E-04 -4.43161801E-02  1.51569119E-02  4.26921793E-03
 -6.07864359E-02  1.93029249E-02 -9.20319240E-03 -9.85784190E-03 -2.53970066E-04
 -1.50847272E-02  3.54103766E-04 -1.56280333E-02 -1.11951654E-02  4.93521199E-04
 -1.29007322E-02 -1.92967546E-02  1.04211848E-02  1.10421161E-03  4.79901250E-04
 -4.45657619E-03  1.01100494E-01  1.30776976E-01  3.10847601E-03  3.18097311E-03
  2.14223476E-02 -7.83092161E-03 -3.81624599E-02 -6.38000541E-02  1.45340513E-02
 -2.89096349E-02  2.47768804E-01  1.92648392E-01  1.97203024E-02 -4.14059838E-02
  3.54827717E-01  2.86794857E-01  2.52812345E-02 -2.93206750E-02  2.39509218E-01
  5.77078760E-02 -3.44835634E-03 -4.32474847E-03  2.66024787E-02 -1.86787307E-02
  1.11893865E-03  3.15102311E-03  2.17265348E-03 -2.06908599E-04 -1.87166411E-03
 -5.34495025E-03  1.14639163E-02  2.09486350E-02 -4.08716357E-02 -2.87963528E-02
 -5.73651030E-03  3.97253993E-03  1.64180223E-03 -4.32509129E-03  6.79564268E-03
  2.44158591E-03 -6.54627440E-03  1.30963307E-02  4.70219568E-03 -1.25337645E-02
 -1.72791086E-02 -6.41612874E-03  1.70897608E-02 -4.13798871E-02 -1.30514918E-02
  3.75441979E-02 -1.33107543E-02 -1.28364162E-03  1.67979332E-02 -2.91359895E-03
 -6.43572153E-03 -1.41754455E-03  2.73220946E-03  2.18935192E-03 -1.64883962E-01
 -2.59805438E-01 -7.81660095E-02 -3.58815955E-03  3.29750573E-03 -3.03734951E-02
  5.30059941E-03  6.85256015E-03  1.09356354E-02 -2.18310570E-03  6.07673196E-04
  6.26288995E-04 -7.33209653E-05 -3.52585856E-05  2.55014481E-02  2.80594175E-02
  2.11081609E-02 -2.05619498E-03  3.69249518E-02  4.04391241E-02  3.04733279E-02
  1.41251364E-02  3.81994688E-02  3.96953514E-02  1.56656110E-02 -1.24307687E-03
  7.65357286E-03  3.82067811E-03  8.53484843E-03 -2.00675506E-03 -1.69697717E-03
 -1.21000167E-03  1.20331525E-03  1.66393159E-03  1.16594834E-02  3.33159612E-02
 -7.16608328E-02 -1.30692975E-01  2.39030635E-01  2.91849800E-01  1.89035310E-02
  5.57061854E-04 -2.13012722E-02  9.18584345E-03 -4.37601853E-03 -7.67802607E-02
  2.78952995E-02 -8.55115377E-03 -1.49509024E-01  5.43217254E-02  1.36541302E-02
  2.17968016E-01 -7.91134495E-02  1.96400141E-02  3.79251481E-01 -1.37948544E-01
  7.85609616E-03  1.01705820E-01 -4.03141328E-02  1.27739004E-02  2.43608021E-03
  2.58965946E-02  4.36817887E-02 -7.41088051E-03 -1.40887774E-02 -2.88714010E-02
  7.26970335E-03  3.22698334E-03  3.80357084E-03 -4.00426584E-03 -1.56712471E-01
 -2.82774075E-01 -1.31135061E-01 -4.62875452E-03 -2.45068199E-02  9.37649555E-03
 -4.20224005E-03 -7.19703680E-03 -7.75002545E-02  2.77981100E-01  3.52873162E-02
  2.57930069E-02 -1.14091978E-01  4.05585364E-01  5.16741050E-02  1.39667927E-02
 -1.15749244E-01  3.69588689E-01  5.49957687E-02 -1.21631585E-02 -2.38595040E-02
  8.55895256E-02  1.09323822E-02 -1.83019978E-03  4.76729484E-03 -1.29533876E-02
 -3.29914697E-03  1.88803770E-03  1.58549842E-04  4.43931410E-04 -8.77429750E-04
 -2.19851471E-03  9.27027896E-03 -2.04281612E-02 -2.22688826E-03 -1.27821211E-02
 -2.47786186E-03 -9.97422355E-03 -1.99866823E-02  3.35671557E-03 -1.62515608E-02
 -3.85931212E-02  6.80158336E-03 -3.14074097E-02  5.28257503E-02 -1.13534649E-02
  4.62045542E-02  1.19917386E-01 -9.95768533E-03  8.96474394E-02  5.36247895E-02
  1.20602644E-02  4.64958488E-02  2.55737445E-03 -6.53631267E-04 -5.70292344E-03
 -1.16847625E-02 -1.10816529E-02  1.21391905E-03  1.22406124E-02  1.43892813E-03
 -8.86650085E-03  3.20017813E-02  6.82584529E-03  2.07236958E-02  4.08630942E-02
  2.91287012E-02  7.27505312E-03  5.00151123E-03  1.11924551E-03 -1.07542156E-02
 -1.84308451E-02 -1.95857492E-01 -1.08966032E-01  1.05640895E-02  6.56950500E-02
 -2.89081731E-01 -1.59030194E-01  1.58246857E-02  3.63931985E-02 -2.95629650E-01
 -1.48743498E-01  2.99584481E-02  7.07359771E-03 -5.08484956E-02 -2.78562882E-02
 -5.65694993E-03  1.60649915E-03  1.08315585E-02  5.47580535E-03 -5.04014339E-03
 -1.75524712E-03  3.98418857E-03  1.13786401E-02 -2.44428288E-02 -4.58037899E-02
  9.54091741E-02  6.02223021E-02  2.01480785E-02 -4.09872368E-02 -5.76518138E-03
 -5.34034883E-03 -5.86600824E-02 -6.93011884E-03 -1.80462620E-05 -1.13136524E-01
 -1.33392023E-02 -7.17264438E-05  1.55017780E-01  2.00903272E-02  2.78107158E-04
  3.53462763E-01  3.78076793E-02 -1.44152551E-03  1.60411541E-01  1.32988274E-02
  1.53165831E-02  1.06800918E-02  1.89281945E-03  1.45927197E-03 -1.39208159E-02
 -7.42933898E-03 -3.28904470E-03  1.95023769E-02 -2.41883661E-02 -2.18258604E-02
 -1.32224888E-02  5.19757742E-03 -1.05971578E-02 -1.52547643E-02 -1.45299523E-02
  9.13307908E-03 -9.02278726E-04  6.89209064E-04  3.08792676E-03  5.22404866E-03
  1.90415597E-02 -3.94632136E-02 -2.90953930E-02 -1.69251792E-02  2.78911266E-02
 -5.75916455E-02 -4.26971442E-02 -2.08063500E-02  3.12543781E-02 -5.38965381E-02