 vasp.6.3.1 04May22 (build Aug 04 2022 13:02:54) complex                        
  
 executed on             LinuxIFC date 2024.12.04  11:13:38
 running on   28 total cores
 distrk:  each k-point on   28 cores,    1 groups
 distr:  one band on NCORE=  14 cores,    2 groups


--------------------------------------------------------------------------------------------------------


 INCAR:
   ISTART = 1            (Read existing wavefunction
   ISPIN = 1            (Non-Spin polarised DFT)
   LREAL = .FALSE.       (Projection operators: automatic)
   ENCUT = 520        (Cut-off energy for plane wave basis set, in eV)
   PREC = A       (Precision level)
   LWAVE = .FALSE.        (Write WAVECAR or not)
   LCHARG = .FALSE.        (Write CHGCAR or not)
   ADDGRID = .TRUE.        (Increase grid
   KSPACING = 0.2000
   KGAMMA = .FALSE.
   IVDW = 12
   ISMEAR = 0            (Gaussian smearing
   SIGMA = 0.05         (Smearing value in eV
   NELM = 200           (Max electronic SCF steps)
   NELMIN = 6            (Min electronic SCF steps)
   EDIFF = 1E-08        (SCF energy convergence
   NSW = 0          (Max ionic steps)
   IBRION = -1            (Algorithm: 0-MD
   ISIF = 3           (Stress/relaxation: 2-Ions, 3-Shape/Ions/V, 4-Shape/Ions)
   EDIFFG = -1E-04        (Ionic convergence
   ISYM = 0
   SYMPREC = 1E-08
   NCORE = 14

 POTCAR:    PAW_PBE C 08Apr2002                   
 -----------------------------------------------------------------------------
|                                                                             |
|           W    W    AA    RRRRR   N    N  II  N    N   GGGG   !!!           |
|           W    W   A  A   R    R  NN   N  II  NN   N  G    G  !!!           |
|           W    W  A    A  R    R  N N  N  II  N N  N  G       !!!           |
|           W WW W  AAAAAA  RRRRR   N  N N  II  N  N N  G  GGG   !            |
|           WW  WW  A    A  R   R   N   NN  II  N   NN  G    G                |
|           W    W  A    A  R    R  N    N  II  N    N   GGGG   !!!           |
|                                                                             |
|     For optimal performance we recommend to set                             |
|       NCORE = 2 up to number-of-cores-per-socket                            |
|     NCORE specifies how many cores store one orbital (NPAR=cpu/NCORE).      |
|     This setting can greatly improve the performance of VASP for DFT.       |
|     The default, NCORE=1 might be grossly inefficient on modern             |
|     multi-core architectures or massively parallel machines. Do your        |
|     own testing! More info at https://www.vasp.at/wiki/index.php/NCORE      |
|     Unfortunately you need to use the default for GW and RPA                |
|     calculations (for HF NCORE is supported but not extensively tested      |
|     yet).                                                                   |
|                                                                             |
 -----------------------------------------------------------------------------

 POTCAR:    PAW_PBE C 08Apr2002                   
   VRHFIN =C: s2p2                                                                                  
   LEXCH  = PE                                                                                      
   EATOM  =   147.1560 eV,   10.8157 Ry                                                             
                                                                                                    
   TITEL  = PAW_PBE C 08Apr2002                                                                     
   LULTRA =        F    use ultrasoft PP ?                                                          
   IUNSCR =        1    unscreen: 0-lin 1-nonlin 2-no                                               
   RPACOR =    1.200    partial core radius                                                         
   POMASS =   12.011; ZVAL   =    4.000    mass and valenz                                          
   RCORE  =    1.500    outmost cutoff radius                                                       
   RWIGS  =    1.630; RWIGS  =    0.863    wigner-seitz radius (au A)                               
   ENMAX  =  400.000; ENMIN  =  300.000 eV                                                          
   ICORE  =        2    local potential                                                             
   LCOR   =        T    correct aug charges                                                         
   LPAW   =        T    paw PP                                                                      
   EAUG   =  644.873                                                                                
   DEXC   =    0.000                                                                                
   RMAX   =    1.529    core radius for proj-oper                                                   
   RAUG   =    1.300    factor for augmentation sphere                                              
   RDEP   =    1.501    radius for radial grids                                                     
   RDEPT  =    1.300    core radius for aug-charge                                                  
                                                                                                    
   Atomic configuration                                                                             
    4 entries                                                                                       
     n  l   j            E        occ.                                                              
     1  0  0.50      -273.3789   2.0000                                                             
     2  0  0.50       -13.7508   2.0000                                                             
     2  1  0.50        -5.2854   2.0000                                                             
     3  2  1.50        -5.4423   0.0000                                                             
   Description                                                                                      
     l       E           TYP  RCUT    TYP  RCUT                                                     
     0    -13.7508458     23  1.200                                                                 
     0     -8.2022199     23  1.200                                                                 
     1     -5.2854383     23  1.500                                                                 
     1     34.0145650     23  1.500                                                                 
     2     -5.4423304      7  1.500                                                                 
  local pseudopotential read in
  partial core-charges read in
  partial kinetic energy density read in
  atomic valenz-charges read in
  non local Contribution for L=           0  read in
    real space projection operators read in
  non local Contribution for L=           0  read in
    real space projection operators read in
  non local Contribution for L=           1  read in
    real space projection operators read in
  non local Contribution for L=           1  read in
    real space projection operators read in
    PAW grid and wavefunctions read in
 
   number of l-projection  operators is LMAX  =           4
   number of lm-projection operators is LMMAX =           8
 
  PAW_PBE C 08Apr2002                   :
 energy of atom  1       EATOM= -147.1560
 kinetic energy error for atom=    0.0071 (will be added to EATOM!!)
 
 
 POSCAR: Graphene
  positions in direct lattice
  No initial velocities read in
 exchange correlation table for  LEXCH =        8
   RHO(1)=    0.500       N(1)  =     2000
   RHO(2)=  100.500       N(2)  =     4000
 


--------------------------------------------------------------------------------------------------------


 ion  position               nearest neighbor table
   1  0.000  0.000  0.500-
   2  0.667  0.333  0.500-
 

IMPORTANT INFORMATION: All symmetrisations will be switched off!
NOSYMM: (Re-)initialisation of all symmetry stuff for point group C_1.


----------------------------------------------------------------------------------------

                                     Primitive cell                                     

  volume of cell :     264.8480

  direct lattice vectors                    reciprocal lattice vectors
     4.515296526  0.000000000  0.000000000     0.221469397  0.127861721  0.000000000
    -2.257595036  3.910382305  0.000000000     0.000000000  0.255729471  0.000000000
     0.000000000  0.000000000 15.000000000     0.000000000  0.000000000  0.066666667

  length of vectors
     4.515296526  4.515287933 15.000000000     0.255728985  0.255729471  0.066666667

  position of ions in fractional coordinates (direct lattice)
     0.000000000  0.000000000  0.500000000
     0.666668846  0.333334637  0.500000000

  ion indices of the primitive-cell ions
   primitive index   ion index
                 1           1
                 2           2

----------------------------------------------------------------------------------------

 
 
 KPOINTS: K-Spacing Value to Generate K-Mesh: 0.03

Automatic generation of k-mesh.
 Grid dimensions read from file:
 generate k-points for:   12   12    1

 Generating k-lattice:

  Cartesian coordinates                     Fractional coordinates (reciprocal lattice)
     0.018455783  0.010655143  0.000000000     0.083333333  0.000000000  0.000000000
     0.000000000  0.021310789  0.000000000     0.000000000  0.083333333  0.000000000
     0.000000000  0.000000000  0.066666667     0.000000000  0.000000000  1.000000000

  Length of vectors
     0.021310749  0.021310789  0.066666667

  Shift w.r.t. Gamma in fractional coordinates (k-lattice)
     0.000000000  0.000000000  0.000000000

 
 Subroutine IBZKPT returns following result:
 ===========================================
 
 Found     74 irreducible k-points:
 
 Following reciprocal coordinates:
            Coordinates               Weight
  0.000000  0.000000  0.000000      1.000000
  0.083333  0.000000  0.000000      2.000000
  0.166667  0.000000  0.000000      2.000000
  0.250000 -0.000000  0.000000      2.000000
  0.333333  0.000000  0.000000      2.000000
  0.416667  0.000000  0.000000      2.000000
  0.500000 -0.000000  0.000000      1.000000
  0.000000  0.083333  0.000000      2.000000
  0.083333  0.083333  0.000000      2.000000
  0.166667  0.083333  0.000000      2.000000
  0.250000  0.083333  0.000000      2.000000
  0.333333  0.083333  0.000000      2.000000
  0.416667  0.083333  0.000000      2.000000
  0.500000  0.083333  0.000000      2.000000
 -0.416667  0.083333  0.000000      2.000000
 -0.333333  0.083333  0.000000      2.000000
 -0.250000  0.083333  0.000000      2.000000
 -0.166667  0.083333  0.000000      2.000000
 -0.083333  0.083333  0.000000      2.000000
  0.000000  0.166667  0.000000      2.000000
  0.083333  0.166667  0.000000      2.000000
  0.166667  0.166667  0.000000      2.000000
  0.250000  0.166667  0.000000      2.000000
  0.333333  0.166667  0.000000      2.000000
  0.416667  0.166667  0.000000      2.000000
  0.500000  0.166667  0.000000      2.000000
 -0.416667  0.166667  0.000000      2.000000
 -0.333333  0.166667  0.000000      2.000000
 -0.250000  0.166667  0.000000      2.000000
 -0.166667  0.166667  0.000000      2.000000
 -0.083333  0.166667  0.000000      2.000000
  0.000000  0.250000  0.000000      2.000000
  0.083333  0.250000  0.000000      2.000000
  0.166667  0.250000  0.000000      2.000000
  0.250000  0.250000  0.000000      2.000000
  0.333333  0.250000  0.000000      2.000000
  0.416667  0.250000  0.000000      2.000000
  0.500000  0.250000  0.000000      2.000000
 -0.416667  0.250000  0.000000      2.000000
 -0.333333  0.250000  0.000000      2.000000
 -0.250000  0.250000  0.000000      2.000000
 -0.166667  0.250000  0.000000      2.000000
 -0.083333  0.250000  0.000000      2.000000
  0.000000  0.333333  0.000000      2.000000
  0.083333  0.333333  0.000000      2.000000
  0.166667  0.333333  0.000000      2.000000
  0.250000  0.333333  0.000000      2.000000
  0.333333  0.333333  0.000000      2.000000
  0.416667  0.333333  0.000000      2.000000
  0.500000  0.333333  0.000000      2.000000
 -0.416667  0.333333  0.000000      2.000000
 -0.333333  0.333333  0.000000      2.000000
 -0.250000  0.333333  0.000000      2.000000
 -0.166667  0.333333  0.000000      2.000000
 -0.083333  0.333333  0.000000      2.000000
  0.000000  0.416667  0.000000      2.000000
  0.083333  0.416667  0.000000      2.000000
  0.166667  0.416667  0.000000      2.000000
  0.250000  0.416667  0.000000      2.000000
  0.333333  0.416667  0.000000      2.000000
  0.416667  0.416667  0.000000      2.000000
  0.500000  0.416667  0.000000      2.000000
 -0.416667  0.416667  0.000000      2.000000
 -0.333333  0.416667  0.000000      2.000000
 -0.250000  0.416667  0.000000      2.000000
 -0.166667  0.416667  0.000000      2.000000
 -0.083333  0.416667  0.000000      2.000000
  0.000000  0.500000  0.000000      1.000000
  0.083333  0.500000  0.000000      2.000000
  0.166667  0.500000  0.000000      2.000000
  0.250000  0.500000  0.000000      2.000000
  0.333333  0.500000  0.000000      2.000000
  0.416667  0.500000  0.000000      2.000000
  0.500000  0.500000  0.000000      1.000000
 
 Following cartesian coordinates:
            Coordinates               Weight
  0.000000  0.000000  0.000000      1.000000
  0.018456  0.010655  0.000000      2.000000
  0.036912  0.021310  0.000000      2.000000
  0.055367  0.031965  0.000000      2.000000
  0.073823  0.042621  0.000000      2.000000
  0.092279  0.053276  0.000000      2.000000
  0.110735  0.063931  0.000000      1.000000
  0.000000  0.021311  0.000000      2.000000
  0.018456  0.031966  0.000000      2.000000
  0.036912  0.042621  0.000000      2.000000
  0.055367  0.053276  0.000000      2.000000
  0.073823  0.063931  0.000000      2.000000
  0.092279  0.074587  0.000000      2.000000
  0.110735  0.085242  0.000000      2.000000
 -0.092279 -0.031965  0.000000      2.000000
 -0.073823 -0.021310  0.000000      2.000000
 -0.055367 -0.010655  0.000000      2.000000
 -0.036912  0.000001  0.000000      2.000000
 -0.018456  0.010656  0.000000      2.000000
  0.000000  0.042622  0.000000      2.000000
  0.018456  0.053277  0.000000      2.000000
  0.036912  0.063932  0.000000      2.000000
  0.055367  0.074587  0.000000      2.000000
  0.073823  0.085242  0.000000      2.000000
  0.092279  0.095897  0.000000      2.000000
  0.110735  0.106552  0.000000      2.000000
 -0.092279 -0.010654  0.000000      2.000000
 -0.073823  0.000001  0.000000      2.000000
 -0.055367  0.010656  0.000000      2.000000
 -0.036912  0.021311  0.000000      2.000000
 -0.018456  0.031966  0.000000      2.000000
  0.000000  0.063932  0.000000      2.000000
  0.018456  0.074588  0.000000      2.000000
  0.036912  0.085243  0.000000      2.000000
  0.055367  0.095898  0.000000      2.000000
  0.073823  0.106553  0.000000      2.000000
  0.092279  0.117208  0.000000      2.000000
  0.110735  0.127863  0.000000      2.000000
 -0.092279  0.010657  0.000000      2.000000
 -0.073823  0.021312  0.000000      2.000000
 -0.055367  0.031967  0.000000      2.000000
 -0.036912  0.042622  0.000000      2.000000
 -0.018456  0.053277  0.000000      2.000000
  0.000000  0.085243  0.000000      2.000000
  0.018456  0.095898  0.000000      2.000000
  0.036912  0.106553  0.000000      2.000000
  0.055367  0.117209  0.000000      2.000000
  0.073823  0.127864  0.000000      2.000000
  0.092279  0.138519  0.000000      2.000000
  0.110735  0.149174  0.000000      2.000000
 -0.092279  0.031967  0.000000      2.000000
 -0.073823  0.042623  0.000000      2.000000
 -0.055367  0.053278  0.000000      2.000000
 -0.036912  0.063933  0.000000      2.000000
 -0.018456  0.074588  0.000000      2.000000
  0.000000  0.106554  0.000000      2.000000
  0.018456  0.117209  0.000000      2.000000
  0.036912  0.127864  0.000000      2.000000
  0.055367  0.138519  0.000000      2.000000
  0.073823  0.149175  0.000000      2.000000
  0.092279  0.159830  0.000000      2.000000
  0.110735  0.170485  0.000000      2.000000
 -0.092279  0.053278  0.000000      2.000000
 -0.073823  0.063933  0.000000      2.000000
 -0.055367  0.074589  0.000000      2.000000
 -0.036912  0.085244  0.000000      2.000000
 -0.018456  0.095899  0.000000      2.000000
  0.000000  0.127865  0.000000      1.000000
  0.018456  0.138520  0.000000      2.000000
  0.036912  0.149175  0.000000      2.000000
  0.055367  0.159830  0.000000      2.000000
  0.073823  0.170485  0.000000      2.000000
  0.092279  0.181140  0.000000      2.000000
  0.110735  0.191796  0.000000      1.000000
 


--------------------------------------------------------------------------------------------------------




 Dimension of arrays:
   k-points           NKPTS =     74   k-points in BZ     NKDIM =     74   number of bands    NBANDS=      8
   number of dos      NEDOS =    301   number of ions     NIONS =      2
   non local maximal  LDIM  =      4   non local SUM 2l+1 LMDIM =      8
   total plane-waves  NPLWV = 145152
   max r-space proj   IRMAX =      1   max aug-charges    IRDMAX=  51934
   dimension x,y,z NGX =    36 NGY =   36 NGZ =  112
   dimension x,y,z NGXF=    72 NGYF=   72 NGZF=  224
   support grid    NGXF=   144 NGYF=  144 NGZF=  448
   ions per type =               2
   NGX,Y,Z   is equivalent  to a cutoff of  13.25, 13.25, 12.41 a.u.
   NGXF,Y,Z  is equivalent  to a cutoff of  26.51, 26.51, 24.83 a.u.

 SYSTEM =  unknown system                          
 POSCAR =  Graphene                                

 Startparameter for this run:
   NWRITE =      2    write-flag & timer
   PREC   = a         normal or accurate (medium, high low for compatibility)
   ISTART =      0    job   : 0-new  1-cont  2-samecut
   ICHARG =      2    charge: 1-file 2-atom 10-const
   ISPIN  =      1    spin polarized calculation?
   LNONCOLLINEAR =      F non collinear calculations
   LSORBIT =      F    spin-orbit coupling
   INIWAV =      1    electr: 0-lowe 1-rand  2-diag
   LASPH  =      F    aspherical Exc in radial PAW
 Electronic Relaxation 1
   ENCUT  =  520.0 eV  38.22 Ry    6.18 a.u.   8.40  8.40 27.89*2*pi/ulx,y,z
   ENINI  =  520.0     initial cutoff
   ENAUG  =  644.9 eV  augmentation charge cutoff
   NELM   =    200;   NELMIN=  6; NELMDL=  0     # of ELM steps 
   EDIFF  = 0.1E-07   stopping-criterion for ELM
   LREAL  =      F    real-space projection
   NLSPLINE    = F    spline interpolate recip. space projectors
   LCOMPAT=      F    compatible to vasp.4.4
   GGA_COMPAT  = T    GGA compatible to vasp.4.4-vasp.4.6
   LMAXPAW     = -100 max onsite density
   LMAXMIX     =    2 max onsite mixed and CHGCAR
   VOSKOWN=      0    Vosko Wilk Nusair interpolation
   ROPT   =    0.00000
 Ionic relaxation
   EDIFFG = -.1E-03   stopping-criterion for IOM
   NSW    =      0    number of steps for IOM
   NBLOCK =      1;   KBLOCK =      1    inner block; outer block 
   IBRION =     -1    ionic relax: 0-MD 1-quasi-New 2-CG
   NFREE  =      0    steps in history (QN), initial steepest desc. (CG)
   ISIF   =      3    stress and relaxation
   IWAVPR =     10    prediction:  0-non 1-charg 2-wave 3-comb
   ISYM   =      0    0-nonsym 1-usesym 2-fastsym
   LCORR  =      T    Harris-Foulkes like correction to forces

   POTIM  = 0.5000    time-step for ionic-motion
   TEIN   =    0.0    initial temperature
   TEBEG  =    0.0;   TEEND  =   0.0 temperature during run
   SMASS  =  -3.00    Nose mass-parameter (am)
   estimated Nose-frequenzy (Omega)   =  0.10E-29 period in steps = 0.13E+47 mass=  -0.466E-27a.u.
   SCALEE = 1.0000    scale energy and forces
   NPACO  =    256;   APACO  = 10.0  distance and # of slots for P.C.
   PSTRESS=    0.0 pullay stress

  Mass of Ions in am
   POMASS =  12.01
  Ionic Valenz
   ZVAL   =   4.00
  Atomic Wigner-Seitz radii
   RWIGS  =  -1.00
  virtual crystal weights 
   VCA    =   1.00
   NELECT =       8.0000    total number of electrons
   NUPDOWN=      -1.0000    fix difference up-down

 DOS related values:
   EMIN   =  10.00;   EMAX   =-10.00  energy-range for DOS
   EFERMI =   0.00
   ISMEAR =     0;   SIGMA  =   0.05  broadening in eV -4-tet -1-fermi 0-gaus

 Electronic relaxation 2 (details)
   IALGO  =     38    algorithm
   LDIAG  =      T    sub-space diagonalisation (order eigenvalues)
   LSUBROT=      F    optimize rotation matrix (better conditioning)
   TURBO    =      0    0=normal 1=particle mesh
   IRESTART =      0    0=no restart 2=restart with 2 vectors
   NREBOOT  =      0    no. of reboots
   NMIN     =      0    reboot dimension
   EREF     =   0.00    reference energy to select bands
   IMIX   =      4    mixing-type and parameters
     AMIX     =   0.40;   BMIX     =  1.00
     AMIX_MAG =   1.60;   BMIX_MAG =  1.00
     AMIN     =   0.10
     WC   =   100.;   INIMIX=   1;  MIXPRE=   1;  MAXMIX= -45

 Intra band minimization:
   WEIMIN = 0.0000     energy-eigenvalue tresh-hold
   EBREAK =  0.31E-09  absolut break condition
   DEPER  =   0.30     relativ break condition  

   TIME   =   0.40     timestep for ELM

  volume/ion in A,a.u.               =     132.42       893.64
  Fermi-wavevector in a.u.,A,eV,Ry     =   0.509846  0.963470  3.536742  0.259943
  Thomas-Fermi vector in A             =   1.522557
 
 Write flags
   LWAVE        =      F    write WAVECAR
   LDOWNSAMPLE  =      F    k-point downsampling of WAVECAR
   LCHARG       =      F    write CHGCAR
   LVTOT        =      F    write LOCPOT, total local potential
   LVHAR        =      F    write LOCPOT, Hartree potential only
   LELF         =      F    write electronic localiz. function (ELF)
   LORBIT       =      0    0 simple, 1 ext, 2 COOP (PROOUT), +10 PAW based schemes


 Dipole corrections
   LMONO  =      F    monopole corrections only (constant potential shift)
   LDIPOL =      F    correct potential (dipole corrections)
   IDIPOL =      0    1-x, 2-y, 3-z, 4-all directions 
   EPSILON=  1.0000000 bulk dielectric constant

 Exchange correlation treatment:
   GGA     =    --    GGA type
   LEXCH   =     8    internal setting for exchange type
   LIBXC   =     F    Libxc                    
   VOSKOWN =     0    Vosko Wilk Nusair interpolation
   LHFCALC =     F    Hartree Fock is set to
   LHFONE  =     F    Hartree Fock one center treatment
   AEXX    =    0.0000 exact exchange contribution

 Linear response parameters
   LEPSILON=     F    determine dielectric tensor
   LRPA    =     F    only Hartree local field effects (RPA)
   LNABLA  =     F    use nabla operator in PAW spheres
   LVEL    =     F    velocity operator in full k-point grid
   CSHIFT  =0.1000    complex shift for real part using Kramers Kronig
   OMEGAMAX=  -1.0    maximum frequency
   DEG_THRESHOLD= 0.2000000E-02 threshold for treating states as degnerate
   RTIME   =   -0.100 relaxation time in fs
  (WPLASMAI=    0.000 imaginary part of plasma frequency in eV, 0.658/RTIME)
   DFIELD  = 0.0000000 0.0000000 0.0000000 field for delta impulse in time
 
  Optional k-point grid parameters
   LKPOINTS_OPT  =     F    use optional k-point grid
   KPOINTS_OPT_MODE=     1    mode for optional k-point grid
 
 Orbital magnetization related:
   ORBITALMAG=     F  switch on orbital magnetization
   LCHIMAG   =     F  perturbation theory with respect to B field
   DQ        =  0.001000  dq finite difference perturbation B field
   LLRAUG    =     F  two centre corrections for induced B field



--------------------------------------------------------------------------------------------------------


 Static calculation
 charge density and potential will be updated during run
 non-spin polarized calculation
 Variant of blocked Davidson
 Davidson routine will perform the subspace rotation
 perform sub-space diagonalisation
    after iterative eigenvector-optimisation
 modified Broyden-mixing scheme, WC =      100.0
 initial mixing is a Kerker type mixing with AMIX =  0.4000 and BMIX =      1.0000
 Hartree-type preconditioning will be used
 using additional bands            4
 reciprocal scheme for non local part
 use partial core corrections
 calculate Harris-corrections to forces 
   (improved forces if not selfconsistent)
 use gradient corrections 
 use of overlap-Matrix (Vanderbilt PP)
 Gauss-broadening in eV      SIGMA  =   0.05


--------------------------------------------------------------------------------------------------------


  energy-cutoff  :      520.00
  volume of cell :      264.85
      direct lattice vectors                 reciprocal lattice vectors
     4.515296526  0.000000000  0.000000000     0.221469397  0.127861721  0.000000000
    -2.257595036  3.910382305  0.000000000     0.000000000  0.255729471  0.000000000
     0.000000000  0.000000000 15.000000000     0.000000000  0.000000000  0.066666667

  length of vectors
     4.515296526  4.515287933 15.000000000     0.255728985  0.255729471  0.066666667


 
 k-points in units of 2pi/SCALE and weight: K-Spacing Value to Generate K-Mesh: 0.03
   0.00000000  0.00000000  0.00000000       0.007
   0.01845578  0.01065514  0.00000000       0.014
   0.03691157  0.02131029  0.00000000       0.014
   0.05536735  0.03196543  0.00000000       0.014
   0.07382313  0.04262057  0.00000000       0.014
   0.09227892  0.05327572  0.00000000       0.014
   0.11073470  0.06393086  0.00000000       0.007
   0.00000000  0.02131079  0.00000000       0.014
   0.01845578  0.03196593  0.00000000       0.014
   0.03691157  0.04262108  0.00000000       0.014
   0.05536735  0.05327622  0.00000000       0.014
   0.07382313  0.06393136  0.00000000       0.014
   0.09227892  0.07458651  0.00000000       0.014
   0.11073470  0.08524165  0.00000000       0.014
  -0.09227892 -0.03196493  0.00000000       0.014
  -0.07382313 -0.02130978  0.00000000       0.014
  -0.05536735 -0.01065464  0.00000000       0.014
  -0.03691157  0.00000050  0.00000000       0.014
  -0.01845578  0.01065565  0.00000000       0.014
   0.00000000  0.04262158  0.00000000       0.014
   0.01845578  0.05327672  0.00000000       0.014
   0.03691157  0.06393187  0.00000000       0.014
   0.05536735  0.07458701  0.00000000       0.014
   0.07382313  0.08524215  0.00000000       0.014
   0.09227892  0.09589730  0.00000000       0.014
   0.11073470  0.10655244  0.00000000       0.014
  -0.09227892 -0.01065414  0.00000000       0.014
  -0.07382313  0.00000100  0.00000000       0.014
  -0.05536735  0.01065615  0.00000000       0.014
  -0.03691157  0.02131129  0.00000000       0.014
  -0.01845578  0.03196644  0.00000000       0.014
   0.00000000  0.06393237  0.00000000       0.014
   0.01845578  0.07458751  0.00000000       0.014
   0.03691157  0.08524265  0.00000000       0.014
   0.05536735  0.09589780  0.00000000       0.014
   0.07382313  0.10655294  0.00000000       0.014
   0.09227892  0.11720809  0.00000000       0.014
   0.11073470  0.12786323  0.00000000       0.014
  -0.09227892  0.01065665  0.00000000       0.014
  -0.07382313  0.02131179  0.00000000       0.014
  -0.05536735  0.03196694  0.00000000       0.014
  -0.03691157  0.04262208  0.00000000       0.014
  -0.01845578  0.05327722  0.00000000       0.014
   0.00000000  0.08524316  0.00000000       0.014
   0.01845578  0.09589830  0.00000000       0.014
   0.03691157  0.10655344  0.00000000       0.014
   0.05536735  0.11720859  0.00000000       0.014
   0.07382313  0.12786373  0.00000000       0.014
   0.09227892  0.13851887  0.00000000       0.014
   0.11073470  0.14917402  0.00000000       0.014
  -0.09227892  0.03196744  0.00000000       0.014
  -0.07382313  0.04262258  0.00000000       0.014
  -0.05536735  0.05327773  0.00000000       0.014
  -0.03691157  0.06393287  0.00000000       0.014
  -0.01845578  0.07458801  0.00000000       0.014
   0.00000000  0.10655395  0.00000000       0.014
   0.01845578  0.11720909  0.00000000       0.014
   0.03691157  0.12786423  0.00000000       0.014
   0.05536735  0.13851938  0.00000000       0.014
   0.07382313  0.14917452  0.00000000       0.014
   0.09227892  0.15982966  0.00000000       0.014
   0.11073470  0.17048481  0.00000000       0.014
  -0.09227892  0.05327823  0.00000000       0.014
  -0.07382313  0.06393337  0.00000000       0.014
  -0.05536735  0.07458852  0.00000000       0.014
  -0.03691157  0.08524366  0.00000000       0.014
  -0.01845578  0.09589880  0.00000000       0.014
   0.00000000  0.12786474  0.00000000       0.007
   0.01845578  0.13851988  0.00000000       0.014
   0.03691157  0.14917502  0.00000000       0.014
   0.05536735  0.15983017  0.00000000       0.014
   0.07382313  0.17048531  0.00000000       0.014
   0.09227892  0.18114045  0.00000000       0.014
   0.11073470  0.19179560  0.00000000       0.007
 
 k-points in reciprocal lattice and weights: K-Spacing Value to Generate K-Mesh: 0.03
   0.00000000  0.00000000  0.00000000       0.007
   0.08333333  0.00000000  0.00000000       0.014
   0.16666667  0.00000000  0.00000000       0.014
   0.25000000 -0.00000000  0.00000000       0.014
   0.33333333  0.00000000  0.00000000       0.014
   0.41666667  0.00000000  0.00000000       0.014
   0.50000000 -0.00000000  0.00000000       0.007
   0.00000000  0.08333333  0.00000000       0.014
   0.08333333  0.08333333  0.00000000       0.014
   0.16666667  0.08333333  0.00000000       0.014
   0.25000000  0.08333333  0.00000000       0.014
   0.33333333  0.08333333  0.00000000       0.014
   0.41666667  0.08333333  0.00000000       0.014
   0.50000000  0.08333333  0.00000000       0.014
  -0.41666667  0.08333333  0.00000000       0.014
  -0.33333333  0.08333333  0.00000000       0.014
  -0.25000000  0.08333333  0.00000000       0.014
  -0.16666667  0.08333333  0.00000000       0.014
  -0.08333333  0.08333333  0.00000000       0.014
   0.00000000  0.16666667  0.00000000       0.014
   0.08333333  0.16666667  0.00000000       0.014
   0.16666667  0.16666667  0.00000000       0.014
   0.25000000  0.16666667  0.00000000       0.014
   0.33333333  0.16666667  0.00000000       0.014
   0.41666667  0.16666667  0.00000000       0.014
   0.50000000  0.16666667  0.00000000       0.014
  -0.41666667  0.16666667  0.00000000       0.014
  -0.33333333  0.16666667  0.00000000       0.014
  -0.25000000  0.16666667  0.00000000       0.014
  -0.16666667  0.16666667  0.00000000       0.014
  -0.08333333  0.16666667  0.00000000       0.014
   0.00000000  0.25000000  0.00000000       0.014
   0.08333333  0.25000000  0.00000000       0.014
   0.16666667  0.25000000  0.00000000       0.014
   0.25000000  0.25000000  0.00000000       0.014
   0.33333333  0.25000000  0.00000000       0.014
   0.41666667  0.25000000  0.00000000       0.014
   0.50000000  0.25000000  0.00000000       0.014
  -0.41666667  0.25000000  0.00000000       0.014
  -0.33333333  0.25000000  0.00000000       0.014
  -0.25000000  0.25000000  0.00000000       0.014
  -0.16666667  0.25000000  0.00000000       0.014
  -0.08333333  0.25000000  0.00000000       0.014
   0.00000000  0.33333333  0.00000000       0.014
   0.08333333  0.33333333  0.00000000       0.014
   0.16666667  0.33333333  0.00000000       0.014
   0.25000000  0.33333333  0.00000000       0.014
   0.33333333  0.33333333  0.00000000       0.014
   0.41666667  0.33333333  0.00000000       0.014
   0.50000000  0.33333333  0.00000000       0.014
  -0.41666667  0.33333333  0.00000000       0.014
  -0.33333333  0.33333333  0.00000000       0.014
  -0.25000000  0.33333333  0.00000000       0.014
  -0.16666667  0.33333333  0.00000000       0.014
  -0.08333333  0.33333333  0.00000000       0.014
   0.00000000  0.41666667  0.00000000       0.014
   0.08333333  0.41666667  0.00000000       0.014
   0.16666667  0.41666667  0.00000000       0.014
   0.25000000  0.41666667  0.00000000       0.014
   0.33333333  0.41666667  0.00000000       0.014
   0.41666667  0.41666667  0.00000000       0.014
   0.50000000  0.41666667  0.00000000       0.014
  -0.41666667  0.41666667  0.00000000       0.014
  -0.33333333  0.41666667  0.00000000       0.014
  -0.25000000  0.41666667  0.00000000       0.014
  -0.16666667  0.41666667  0.00000000       0.014
  -0.08333333  0.41666667  0.00000000       0.014
   0.00000000  0.50000000  0.00000000       0.007
   0.08333333  0.50000000  0.00000000       0.014
   0.16666667  0.50000000  0.00000000       0.014
   0.25000000  0.50000000  0.00000000       0.014
   0.33333333  0.50000000  0.00000000       0.014
   0.41666667  0.50000000  0.00000000       0.014
   0.50000000  0.50000000  0.00000000       0.007
 
 position of ions in fractional coordinates (direct lattice) 
   0.00000000  0.00000000  0.50000000
   0.66666885  0.33333464  0.50000000
 
 position of ions in cartesian coordinates  (Angst):
   0.00000000  0.00000000  7.50000000
   2.25767290  1.30346587  7.50000000
 


--------------------------------------------------------------------------------------------------------


 k-point   1 :   0.0000 0.0000 0.0000  plane waves:    7201
 k-point   2 :   0.0833 0.0000 0.0000  plane waves:    7171
 k-point   3 :   0.1667 0.0000 0.0000  plane waves:    7167
 k-point   4 :   0.2500-0.0000 0.0000  plane waves:    7131
 k-point   5 :   0.3333 0.0000 0.0000  plane waves:    7114
 k-point   6 :   0.4167 0.0000 0.0000  plane waves:    7112
 k-point   7 :   0.5000-0.0000 0.0000  plane waves:    7130
 k-point   8 :   0.0000 0.0833 0.0000  plane waves:    7171
 k-point   9 :   0.0833 0.0833 0.0000  plane waves:    7167
 k-point  10 :   0.1667 0.0833 0.0000  plane waves:    7140
 k-point  11 :   0.2500 0.0833 0.0000  plane waves:    7127
 k-point  12 :   0.3333 0.0833 0.0000  plane waves:    7121
 k-point  13 :   0.4167 0.0833 0.0000  plane waves:    7118
 k-point  14 :   0.5000 0.0833 0.0000  plane waves:    7118
 k-point  15 :  -0.4167 0.0833 0.0000  plane waves:    7121
 k-point  16 :  -0.3333 0.0833 0.0000  plane waves:    7127
 k-point  17 :  -0.2500 0.0833 0.0000  plane waves:    7142
 k-point  18 :  -0.1667 0.0833 0.0000  plane waves:    7167
 k-point  19 :  -0.0833 0.0833 0.0000  plane waves:    7171
 k-point  20 :   0.0000 0.1667 0.0000  plane waves:    7167
 k-point  21 :   0.0833 0.1667 0.0000  plane waves:    7140
 k-point  22 :   0.1667 0.1667 0.0000  plane waves:    7107
 k-point  23 :   0.2500 0.1667 0.0000  plane waves:    7112
 k-point  24 :   0.3333 0.1667 0.0000  plane waves:    7136
 k-point  25 :   0.4167 0.1667 0.0000  plane waves:    7118
 k-point  26 :   0.5000 0.1667 0.0000  plane waves:    7136
 k-point  27 :  -0.4167 0.1667 0.0000  plane waves:    7112
 k-point  28 :  -0.3333 0.1667 0.0000  plane waves:    7107
 k-point  29 :  -0.2500 0.1667 0.0000  plane waves:    7140
 k-point  30 :  -0.1667 0.1667 0.0000  plane waves:    7167
 k-point  31 :  -0.0833 0.1667 0.0000  plane waves:    7167
 k-point  32 :   0.0000 0.2500 0.0000  plane waves:    7131
 k-point  33 :   0.0833 0.2500 0.0000  plane waves:    7127
 k-point  34 :   0.1667 0.2500 0.0000  plane waves:    7112
 k-point  35 :   0.2500 0.2500 0.0000  plane waves:    7118
 k-point  36 :   0.3333 0.2500 0.0000  plane waves:    7120
 k-point  37 :   0.4167 0.2500 0.0000  plane waves:    7120
 k-point  38 :   0.5000 0.2500 0.0000  plane waves:    7118
 k-point  39 :  -0.4167 0.2500 0.0000  plane waves:    7112
 k-point  40 :  -0.3333 0.2500 0.0000  plane waves:    7127
 k-point  41 :  -0.2500 0.2500 0.0000  plane waves:    7131
 k-point  42 :  -0.1667 0.2500 0.0000  plane waves:    7140
 k-point  43 :  -0.0833 0.2500 0.0000  plane waves:    7142
 k-point  44 :   0.0000 0.3333 0.0000  plane waves:    7114
 k-point  45 :   0.0833 0.3333 0.0000  plane waves:    7121
 k-point  46 :   0.1667 0.3333 0.0000  plane waves:    7136
 k-point  47 :   0.2500 0.3333 0.0000  plane waves:    7120
 k-point  48 :   0.3333 0.3333 0.0000  plane waves:    7164
 k-point  49 :   0.4167 0.3333 0.0000  plane waves:    7120
 k-point  50 :   0.5000 0.3333 0.0000  plane waves:    7136
 k-point  51 :  -0.4167 0.3333 0.0000  plane waves:    7121
 k-point  52 :  -0.3333 0.3333 0.0000  plane waves:    7114
 k-point  53 :  -0.2500 0.3333 0.0000  plane waves:    7127
 k-point  54 :  -0.1667 0.3333 0.0000  plane waves:    7107
 k-point  55 :  -0.0833 0.3333 0.0000  plane waves:    7127
 k-point  56 :   0.0000 0.4167 0.0000  plane waves:    7112
 k-point  57 :   0.0833 0.4167 0.0000  plane waves:    7118
 k-point  58 :   0.1667 0.4167 0.0000  plane waves:    7118
 k-point  59 :   0.2500 0.4167 0.0000  plane waves:    7120
 k-point  60 :   0.3333 0.4167 0.0000  plane waves:    7120
 k-point  61 :   0.4167 0.4167 0.0000  plane waves:    7118
 k-point  62 :   0.5000 0.4167 0.0000  plane waves:    7118
 k-point  63 :  -0.4167 0.4167 0.0000  plane waves:    7112
 k-point  64 :  -0.3333 0.4167 0.0000  plane waves:    7121
 k-point  65 :  -0.2500 0.4167 0.0000  plane waves:    7112
 k-point  66 :  -0.1667 0.4167 0.0000  plane waves:    7112
 k-point  67 :  -0.0833 0.4167 0.0000  plane waves:    7121
 k-point  68 :   0.0000 0.5000 0.0000  plane waves:    7130
 k-point  69 :   0.0833 0.5000 0.0000  plane waves:    7118
 k-point  70 :   0.1667 0.5000 0.0000  plane waves:    7136
 k-point  71 :   0.2500 0.5000 0.0000  plane waves:    7118
 k-point  72 :   0.3333 0.5000 0.0000  plane waves:    7136
 k-point  73 :   0.4167 0.5000 0.0000  plane waves:    7118
 k-point  74 :   0.5000 0.5000 0.0000  plane waves:    7130

 maximum and minimum number of plane-waves per node :       539      494

 maximum number of plane-waves:      7201
 maximum index in each direction: 
   IXMAX=    8   IYMAX=    8   IZMAX=   27
   IXMIN=   -8   IYMIN=   -8   IZMIN=  -27


 parallel 3D FFT for wavefunctions:
    minimum data exchange during FFTs selected (reduces bandwidth)
 parallel 3D FFT for charge:
    minimum data exchange during FFTs selected (reduces bandwidth)


 total amount of memory used by VASP MPI-rank0    45075. kBytes
=======================================================================

   base      :      30000. kBytes
   nonl-proj :       2517. kBytes
   fftplans  :       7196. kBytes
   grid      :       2821. kBytes
   one-center:          3. kBytes
   wavefun   :       2538. kBytes
 
     INWAV:  cpu time      0.0000: real time      0.0000
 Broyden mixing: mesh for mixing (old mesh)
   NGX = 17   NGY = 17   NGZ = 55
  (NGX  = 72   NGY  = 72   NGZ  =224)
  gives a total of  15895 points

 initial charge density was supplied:
 charge density of overlapping atoms calculated
 number of electron       8.0000000 magnetization 
 keeping initial charge density in first step


--------------------------------------------------------------------------------------------------------


 Maximum index for augmentation-charges         2890 (set IRDMAX)


--------------------------------------------------------------------------------------------------------


 First call to EWALD:  gamma=   0.276
 Maximum number of real-space cells 4x 4x 1
 Maximum number of reciprocal cells 2x 2x 6

    FEWALD:  cpu time      0.0018: real time      0.0019


--------------------------------------- Iteration      1(   1)  ---------------------------------------


    POTLOK:  cpu time      0.0291: real time      2.1178
    SETDIJ:  cpu time      0.0249: real time      0.0249
     EDDAV:  cpu time      0.4510: real time      0.4524
       DOS:  cpu time      0.0014: real time      0.0014
    --------------------------------------------
      LOOP:  cpu time      0.5064: real time      2.5965

 eigenvalue-minimisations  :  1184
 total energy-change (2. order) : 0.4294325E+02  (-0.2254403E+03)
 number of electron       8.0000000 magnetization 
 augmentation part        8.0000000 magnetization 

 Free energy of the ion-electron system (eV)
  ---------------------------------------------------
  alpha Z        PSCENC =         1.24066189
  Ewald energy   TEWEN  =       116.25468073
  -Hartree energ DENC   =      -360.69474615
  -exchange      EXHF   =         0.00000000
  -V(xc)+E(xc)   XCENC  =        21.70967640
  PAW double counting   =       217.04409276     -218.18290438
  entropy T*S    EENTRO =        -0.00160160
  eigenvalues    EBANDS =       -28.72439757
  atomic energy  EATOM  =       294.29778662
  Solvation  Ediel_sol  =         0.00000000
  ---------------------------------------------------
  free energy    TOTEN  =        42.94324871 eV

  energy without entropy =       42.94485031  energy(sigma->0) =       42.94404951


--------------------------------------------------------------------------------------------------------




--------------------------------------- Iteration      1(   2)  ---------------------------------------


     EDDAV:  cpu time      0.7473: real time      0.7499
       DOS:  cpu time      0.0019: real time      5.0996
    --------------------------------------------
      LOOP:  cpu time      0.7493: real time      5.8495

 eigenvalue-minimisations  :  2048
 total energy-change (2. order) :-0.4304144E+02  (-0.4187105E+02)
 number of electron       8.0000000 magnetization 
 augmentation part        8.0000000 magnetization 

 Free energy of the ion-electron system (eV)
  ---------------------------------------------------
  alpha Z        PSCENC =         1.24066189
  Ewald energy   TEWEN  =       116.25468073
  -Hartree energ DENC   =      -360.69474615
  -exchange      EXHF   =         0.00000000
  -V(xc)+E(xc)   XCENC  =        21.70967640
  PAW double counting   =       217.04409276     -218.18290438
  entropy T*S    EENTRO =        -0.00144439
  eigenvalues    EBANDS =       -71.76599208
  atomic energy  EATOM  =       294.29778662
  Solvation  Ediel_sol  =         0.00000000
  ---------------------------------------------------
  free energy    TOTEN  =        -0.09818860 eV

  energy without entropy =       -0.09674420  energy(sigma->0) =       -0.09746640


--------------------------------------------------------------------------------------------------------




--------------------------------------- Iteration      1(   3)  ---------------------------------------


     EDDAV:  cpu time      0.6658: real time      0.6681
       DOS:  cpu time      0.0014: real time      0.0014
    --------------------------------------------
      LOOP:  cpu time      0.6672: real time      0.6695

 eigenvalue-minimisations  :  1856
 total energy-change (2. order) :-0.4757278E+01  (-0.4375558E+01)
 number of electron       8.0000000 magnetization 
 augmentation part        8.0000000 magnetization 

 Free energy of the ion-electron system (eV)
  ---------------------------------------------------
  alpha Z        PSCENC =         1.24066189
  Ewald energy   TEWEN  =       116.25468073
  -Hartree energ DENC   =      -360.69474615
  -exchange      EXHF   =         0.00000000
  -V(xc)+E(xc)   XCENC  =        21.70967640
  PAW double counting   =       217.04409276     -218.18290438
  entropy T*S    EENTRO =        -0.00811236
  eigenvalues    EBANDS =       -76.51660192
  atomic energy  EATOM  =       294.29778662
  Solvation  Ediel_sol  =         0.00000000
  ---------------------------------------------------
  free energy    TOTEN  =        -4.85546640 eV

  energy without entropy =       -4.84735404  energy(sigma->0) =       -4.85141022


--------------------------------------------------------------------------------------------------------




--------------------------------------- Iteration      1(   4)  ---------------------------------------


     EDDAV:  cpu time      0.6504: real time      0.6526
       DOS:  cpu time      0.0013: real time      0.0013
    --------------------------------------------
      LOOP:  cpu time      0.6517: real time      0.6539

 eigenvalue-minimisations  :  1792
 total energy-change (2. order) :-0.1463789E+00  (-0.1419146E+00)
 number of electron       8.0000000 magnetization 
 augmentation part        8.0000000 magnetization 

 Free energy of the ion-electron system (eV)
  ---------------------------------------------------
  alpha Z        PSCENC =         1.24066189
  Ewald energy   TEWEN  =       116.25468073
  -Hartree energ DENC   =      -360.69474615
  -exchange      EXHF   =         0.00000000
  -V(xc)+E(xc)   XCENC  =        21.70967640
  PAW double counting   =       217.04409276     -218.18290438
  entropy T*S    EENTRO =        -0.00637113
  eigenvalues    EBANDS =       -76.66472203
  atomic energy  EATOM  =       294.29778662
  Solvation  Ediel_sol  =         0.00000000
  ---------------------------------------------------
  free energy    TOTEN  =        -5.00184528 eV

  energy without entropy =       -4.99547415  energy(sigma->0) =       -4.99865971


--------------------------------------------------------------------------------------------------------




--------------------------------------- Iteration      1(   5)  ---------------------------------------


     EDDAV:  cpu time      0.6374: real time      0.6394
       DOS:  cpu time      0.0015: real time      0.0015
    CHARGE:  cpu time      0.0569: real time      0.0571
    MIXING:  cpu time      0.0023: real time      0.0023
    --------------------------------------------
      LOOP:  cpu time      0.6981: real time      0.7003

 eigenvalue-minimisations  :  1768
 total energy-change (2. order) :-0.2067769E-02  (-0.2061202E-02)
 number of electron       8.0000000 magnetization 
 augmentation part       -0.0479283 magnetization 

 Broyden mixing:
  rms(total) = 0.20941E+00    rms(broyden)= 0.20917E+00
  rms(prec ) = 0.23527E+00
  weight for this iteration     100.00

 Free energy of the ion-electron system (eV)
  ---------------------------------------------------
  alpha Z        PSCENC =         1.24066189
  Ewald energy   TEWEN  =       116.25468073
  -Hartree energ DENC   =      -360.69474615
  -exchange      EXHF   =         0.00000000
  -V(xc)+E(xc)   XCENC  =        21.70967640
  PAW double counting   =       217.04409276     -218.18290438
  entropy T*S    EENTRO =        -0.00628860
  eigenvalues    EBANDS =       -76.66687233
  atomic energy  EATOM  =       294.29778662
  Solvation  Ediel_sol  =         0.00000000
  ---------------------------------------------------
  free energy    TOTEN  =        -5.00391305 eV

  energy without entropy =       -4.99762445  energy(sigma->0) =       -5.00076875


--------------------------------------------------------------------------------------------------------




--------------------------------------- Iteration      1(   6)  ---------------------------------------


    POTLOK:  cpu time      0.0225: real time      0.0232
    SETDIJ:  cpu time      0.0195: real time      0.0195
     EDDAV:  cpu time      0.5573: real time      0.5589
       DOS:  cpu time      0.0015: real time      0.0015
    CHARGE:  cpu time      0.0531: real time      0.0533
    MIXING:  cpu time      0.0032: real time      0.0032
    --------------------------------------------
      LOOP:  cpu time      0.6571: real time      0.6596

 eigenvalue-minimisations  :  1520
 total energy-change (2. order) : 0.5505488E-01  (-0.4679426E-02)
 number of electron       8.0000000 magnetization 
 augmentation part       -0.0467136 magnetization 

 Broyden mixing:
  rms(total) = 0.95497E-01    rms(broyden)= 0.95496E-01
  rms(prec ) = 0.10866E+00
  weight for this iteration     100.00

 eigenvalues of (default mixing * dielectric matrix)
  average eigenvalue GAMMA=   1.7695
  1.7695

 Free energy of the ion-electron system (eV)
  ---------------------------------------------------
  alpha Z        PSCENC =         1.24066189
  Ewald energy   TEWEN  =       116.25468073
  -Hartree energ DENC   =      -359.80909821
  -exchange      EXHF   =         0.00000000
  -V(xc)+E(xc)   XCENC  =        21.58460128
  PAW double counting   =       213.03249570     -214.13033348
  entropy T*S    EENTRO =        -0.00735804
  eigenvalues    EBANDS =       -77.41229467
  atomic energy  EATOM  =       294.29778662
  Solvation  Ediel_sol  =         0.00000000
  ---------------------------------------------------
  free energy    TOTEN  =        -4.94885816 eV

  energy without entropy =       -4.94150013  energy(sigma->0) =       -4.94517915


--------------------------------------------------------------------------------------------------------




--------------------------------------- Iteration      1(   7)  ---------------------------------------


    POTLOK:  cpu time      0.0214: real time      0.0215
    SETDIJ:  cpu time      0.0202: real time      0.0202
     EDDAV:  cpu time      0.5432: real time      0.5448
       DOS:  cpu time      0.0035: real time      5.7931
    CHARGE:  cpu time      0.0547: real time      0.0549
    MIXING:  cpu time      0.0038: real time      0.0038
    --------------------------------------------
      LOOP:  cpu time      0.6469: real time      6.4384

 eigenvalue-minimisations  :  1352
 total energy-change (2. order) : 0.9988481E-02  (-0.4305351E-02)
 number of electron       8.0000000 magnetization 
 augmentation part       -0.0458462 magnetization 

 Broyden mixing:
  rms(total) = 0.19896E-01    rms(broyden)= 0.19812E-01
  rms(prec ) = 0.21848E-01
  weight for this iteration     100.00

 eigenvalues of (default mixing * dielectric matrix)
  average eigenvalue GAMMA=   2.2463
  1.8717  2.6210

 Free energy of the ion-electron system (eV)
  ---------------------------------------------------
  alpha Z        PSCENC =         1.24066189
  Ewald energy   TEWEN  =       116.25468073
  -Hartree energ DENC   =      -359.23232873
  -exchange      EXHF   =         0.00000000
  -V(xc)+E(xc)   XCENC  =        21.48981479
  PAW double counting   =       206.22886364     -207.29496459
  entropy T*S    EENTRO =        -0.00688840
  eigenvalues    EBANDS =       -77.91649564
  atomic energy  EATOM  =       294.29778662
  Solvation  Ediel_sol  =         0.00000000
  ---------------------------------------------------
  free energy    TOTEN  =        -4.93886968 eV

  energy without entropy =       -4.93198128  energy(sigma->0) =       -4.93542548


--------------------------------------------------------------------------------------------------------




--------------------------------------- Iteration      1(   8)  ---------------------------------------


    POTLOK:  cpu time      0.0260: real time      0.0268
    SETDIJ:  cpu time      0.0192: real time      0.0193
     EDDAV:  cpu time      0.6185: real time      0.6202
       DOS:  cpu time      0.0030: real time      5.0830
    CHARGE:  cpu time      0.0434: real time      0.0446
    MIXING:  cpu time      0.0038: real time      0.0039
    --------------------------------------------
      LOOP:  cpu time      0.7139: real time      5.7979

 eigenvalue-minimisations  :  1768
 total energy-change (2. order) :-0.1280251E-02  (-0.1310008E-03)
 number of electron       8.0000000 magnetization 
 augmentation part       -0.0459576 magnetization 

 Broyden mixing:
  rms(total) = 0.22107E-02    rms(broyden)= 0.21536E-02
  rms(prec ) = 0.32973E-02
  weight for this iteration     100.00

 eigenvalues of (default mixing * dielectric matrix)
  average eigenvalue GAMMA=   1.8584
  2.8357  0.8812  1.8584

 Free energy of the ion-electron system (eV)
  ---------------------------------------------------
  alpha Z        PSCENC =         1.24066189
  Ewald energy   TEWEN  =       116.25468073
  -Hartree energ DENC   =      -359.46615257
  -exchange      EXHF   =         0.00000000
  -V(xc)+E(xc)   XCENC  =        21.49197925
  PAW double counting   =       199.76595713     -200.83544294
  entropy T*S    EENTRO =        -0.00686170
  eigenvalues    EBANDS =       -77.68275835
  atomic energy  EATOM  =       294.29778662
  Solvation  Ediel_sol  =         0.00000000
  ---------------------------------------------------
  free energy    TOTEN  =        -4.94014993 eV

  energy without entropy =       -4.93328823  energy(sigma->0) =       -4.93671908


--------------------------------------------------------------------------------------------------------




--------------------------------------- Iteration      1(   9)  ---------------------------------------


    POTLOK:  cpu time      0.0222: real time      0.0223
    SETDIJ:  cpu time      0.0178: real time      0.0179
     EDDAV:  cpu time      0.5744: real time      0.5761
       DOS:  cpu time      0.0016: real time      0.0016
    CHARGE:  cpu time      0.0447: real time      0.0448
    MIXING:  cpu time      0.0029: real time      0.0029
    --------------------------------------------
      LOOP:  cpu time      0.6635: real time      0.6656

 eigenvalue-minimisations  :  1752
 total energy-change (2. order) :-0.6528553E-04  (-0.3281973E-05)
 number of electron       8.0000000 magnetization 
 augmentation part       -0.0459696 magnetization 

 Broyden mixing:
  rms(total) = 0.11021E-02    rms(broyden)= 0.10948E-02
  rms(prec ) = 0.21963E-02
  weight for this iteration     100.00

 eigenvalues of (default mixing * dielectric matrix)
  average eigenvalue GAMMA=   1.6160
  2.8395  1.8658  0.8794  0.8794

 Free energy of the ion-electron system (eV)
  ---------------------------------------------------
  alpha Z        PSCENC =         1.24066189
  Ewald energy   TEWEN  =       116.25468073
  -Hartree energ DENC   =      -359.53376410
  -exchange      EXHF   =         0.00000000
  -V(xc)+E(xc)   XCENC  =        21.49330928
  PAW double counting   =       199.01808135     -200.08758969
  entropy T*S    EENTRO =        -0.00685754
  eigenvalues    EBANDS =       -77.61652377
  atomic energy  EATOM  =       294.29778662
  Solvation  Ediel_sol  =         0.00000000
  ---------------------------------------------------
  free energy    TOTEN  =        -4.94021522 eV

  energy without entropy =       -4.93335768  energy(sigma->0) =       -4.93678645


--------------------------------------------------------------------------------------------------------




--------------------------------------- Iteration      1(  10)  ---------------------------------------


    POTLOK:  cpu time      0.0206: real time      0.0207
    SETDIJ:  cpu time      0.0184: real time      0.0185
     EDDAV:  cpu time      0.5968: real time      0.5986
       DOS:  cpu time      0.0034: real time      4.2941
    CHARGE:  cpu time      0.0467: real time      0.0468
    MIXING:  cpu time      0.0018: real time      0.0018
    --------------------------------------------
      LOOP:  cpu time      0.6876: real time      4.9805

 eigenvalue-minimisations  :  1824
 total energy-change (2. order) :-0.3359469E-04  (-0.6904654E-05)
 number of electron       8.0000000 magnetization 
 augmentation part       -0.0459743 magnetization 

 Broyden mixing:
  rms(total) = 0.16849E-02    rms(broyden)= 0.16843E-02
  rms(prec ) = 0.26301E-02
  weight for this iteration     100.00

 eigenvalues of (default mixing * dielectric matrix)
  average eigenvalue GAMMA=   1.8473
  3.1114  2.9811  1.0146  1.8304  0.2989

 Free energy of the ion-electron system (eV)
  ---------------------------------------------------
  alpha Z        PSCENC =         1.24066189
  Ewald energy   TEWEN  =       116.25468073
  -Hartree energ DENC   =      -359.57880406
  -exchange      EXHF   =         0.00000000
  -V(xc)+E(xc)   XCENC  =        21.49449229
  PAW double counting   =       198.95043492     -200.01976505
  entropy T*S    EENTRO =        -0.00685605
  eigenvalues    EBANDS =       -77.57288010
  atomic energy  EATOM  =       294.29778662
  Solvation  Ediel_sol  =         0.00000000
  ---------------------------------------------------
  free energy    TOTEN  =        -4.94024881 eV

  energy without entropy =       -4.93339276  energy(sigma->0) =       -4.93682079


--------------------------------------------------------------------------------------------------------




--------------------------------------- Iteration      1(  11)  ---------------------------------------


    POTLOK:  cpu time      0.0230: real time      0.0237
    SETDIJ:  cpu time      0.0185: real time      0.0186
     EDDAV:  cpu time      0.4364: real time      0.4376
       DOS:  cpu time      0.0016: real time      0.0016
    CHARGE:  cpu time      0.0470: real time      0.0471
    MIXING:  cpu time      0.0019: real time      0.0019
    --------------------------------------------
      LOOP:  cpu time      0.5285: real time      0.5305

 eigenvalue-minimisations  :  1184
 total energy-change (2. order) :-0.5779259E-04  (-0.5590696E-05)
 number of electron       8.0000000 magnetization 
 augmentation part       -0.0459785 magnetization 

 Broyden mixing:
  rms(total) = 0.37454E-03    rms(broyden)= 0.37343E-03
  rms(prec ) = 0.82044E-03
  weight for this iteration     100.00

 eigenvalues of (default mixing * dielectric matrix)
  average eigenvalue GAMMA=   2.0027
  4.1349  2.7934  0.9885  2.0225  1.7762  0.3006

 Free energy of the ion-electron system (eV)
  ---------------------------------------------------
  alpha Z        PSCENC =         1.24066189
  Ewald energy   TEWEN  =       116.25468073
  -Hartree energ DENC   =      -359.70508179
  -exchange      EXHF   =         0.00000000
  -V(xc)+E(xc)   XCENC  =        21.49769153
  PAW double counting   =       198.82614273     -199.89495473
  entropy T*S    EENTRO =        -0.00685221
  eigenvalues    EBANDS =       -77.45038138
  atomic energy  EATOM  =       294.29778662
  Solvation  Ediel_sol  =         0.00000000
  ---------------------------------------------------
  free energy    TOTEN  =        -4.94030661 eV

  energy without entropy =       -4.93345440  energy(sigma->0) =       -4.93688050


--------------------------------------------------------------------------------------------------------




--------------------------------------- Iteration      1(  12)  ---------------------------------------


    POTLOK:  cpu time      0.0213: real time      0.0215
    SETDIJ:  cpu time      0.0184: real time      0.0184
     EDDAV:  cpu time      0.4345: real time      0.4358
       DOS:  cpu time      0.0016: real time      0.4520
    CHARGE:  cpu time      0.0498: real time      0.0499
    MIXING:  cpu time      0.0027: real time      0.0027
    --------------------------------------------
      LOOP:  cpu time      0.5283: real time      0.9804

 eigenvalue-minimisations  :  1184
 total energy-change (2. order) :-0.3416473E-04  (-0.1687182E-05)
 number of electron       8.0000000 magnetization 
 augmentation part       -0.0459791 magnetization 

 Broyden mixing:
  rms(total) = 0.38680E-03    rms(broyden)= 0.38624E-03
  rms(prec ) = 0.55253E-03
  weight for this iteration     100.00

 eigenvalues of (default mixing * dielectric matrix)
  average eigenvalue GAMMA=   2.1194
  5.3809  2.8423  2.6717  1.8384  0.9907  0.8110  0.3005

 Free energy of the ion-electron system (eV)
  ---------------------------------------------------
  alpha Z        PSCENC =         1.24066189
  Ewald energy   TEWEN  =       116.25468073
  -Hartree energ DENC   =      -359.77193739
  -exchange      EXHF   =         0.00000000
  -V(xc)+E(xc)   XCENC  =        21.49788704
  PAW double counting   =       198.80670242     -199.87550886
  entropy T*S    EENTRO =        -0.00685018
  eigenvalues    EBANDS =       -77.38376304
  atomic energy  EATOM  =       294.29778662
  Solvation  Ediel_sol  =         0.00000000
  ---------------------------------------------------
  free energy    TOTEN  =        -4.94034077 eV

  energy without entropy =       -4.93349059  energy(sigma->0) =       -4.93691568


--------------------------------------------------------------------------------------------------------




--------------------------------------- Iteration      1(  13)  ---------------------------------------


    POTLOK:  cpu time      0.0207: real time      0.0209
    SETDIJ:  cpu time      0.0183: real time      0.0183
     EDDAV:  cpu time      0.4481: real time      0.4495
       DOS:  cpu time      0.0015: real time      0.0015
    CHARGE:  cpu time      0.0475: real time      0.0476
    MIXING:  cpu time      0.0017: real time      0.0017
    --------------------------------------------
      LOOP:  cpu time      0.5378: real time      0.5396

 eigenvalue-minimisations  :  1344
 total energy-change (2. order) :-0.1098744E-04  (-0.3369636E-06)
 number of electron       8.0000000 magnetization 
 augmentation part       -0.0459810 magnetization 

 Broyden mixing:
  rms(total) = 0.16007E-03    rms(broyden)= 0.16006E-03
  rms(prec ) = 0.29831E-03
  weight for this iteration     100.00

 eigenvalues of (default mixing * dielectric matrix)
  average eigenvalue GAMMA=   2.2251
  5.9083  2.9302  2.9302  1.9670  1.8010  0.9820  0.9820  0.3004

 Free energy of the ion-electron system (eV)
  ---------------------------------------------------
  alpha Z        PSCENC =         1.24066189
  Ewald energy   TEWEN  =       116.25468073
  -Hartree energ DENC   =      -359.78404608
  -exchange      EXHF   =         0.00000000
  -V(xc)+E(xc)   XCENC  =        21.49794011
  PAW double counting   =       198.85948068     -199.92844853
  entropy T*S    EENTRO =        -0.00685044
  eigenvalues    EBANDS =       -77.37155674
  atomic energy  EATOM  =       294.29778662
  Solvation  Ediel_sol  =         0.00000000
  ---------------------------------------------------
  free energy    TOTEN  =        -4.94035176 eV

  energy without entropy =       -4.93350132  energy(sigma->0) =       -4.93692654


--------------------------------------------------------------------------------------------------------




--------------------------------------- Iteration      1(  14)  ---------------------------------------


    POTLOK:  cpu time      0.0238: real time      0.0240
    SETDIJ:  cpu time      0.0180: real time      0.0180
     EDDAV:  cpu time      0.4310: real time      0.4322
       DOS:  cpu time      0.0016: real time      0.0016
    CHARGE:  cpu time      0.0407: real time      0.0408
    MIXING:  cpu time      0.0025: real time      0.0025
    --------------------------------------------
      LOOP:  cpu time      0.5175: real time      0.5192

 eigenvalue-minimisations  :  1272
 total energy-change (2. order) :-0.2263542E-04  (-0.9050249E-07)
 number of electron       8.0000000 magnetization 
 augmentation part       -0.0459823 magnetization 

 Broyden mixing:
  rms(total) = 0.90881E-04    rms(broyden)= 0.90865E-04
  rms(prec ) = 0.16197E-03
  weight for this iteration     100.00

 eigenvalues of (default mixing * dielectric matrix)
  average eigenvalue GAMMA=   2.2655
  6.4887  3.5214  2.6440  2.6440  1.8407  1.0219  0.9642  0.9642  0.3004

 Free energy of the ion-electron system (eV)
  ---------------------------------------------------
  alpha Z        PSCENC =         1.24066189
  Ewald energy   TEWEN  =       116.25468073
  -Hartree energ DENC   =      -359.79648905
  -exchange      EXHF   =         0.00000000
  -V(xc)+E(xc)   XCENC  =        21.49803860
  PAW double counting   =       198.84211547     -199.91110297
  entropy T*S    EENTRO =        -0.00685033
  eigenvalues    EBANDS =       -77.35921536
  atomic energy  EATOM  =       294.29778662
  Solvation  Ediel_sol  =         0.00000000
  ---------------------------------------------------
  free energy    TOTEN  =        -4.94037439 eV

  energy without entropy =       -4.93352407  energy(sigma->0) =       -4.93694923


--------------------------------------------------------------------------------------------------------




--------------------------------------- Iteration      1(  15)  ---------------------------------------


    POTLOK:  cpu time      0.0227: real time      0.0229
    SETDIJ:  cpu time      0.0282: real time      0.0282
     EDDAV:  cpu time      0.4364: real time      0.4378
       DOS:  cpu time      0.0014: real time      0.0014
    CHARGE:  cpu time      0.0416: real time      0.0417
    MIXING:  cpu time      0.0021: real time      0.0021
    --------------------------------------------
      LOOP:  cpu time      0.5324: real time      0.5341

 eigenvalue-minimisations  :  1184
 total energy-change (2. order) :-0.1503935E-04  (-0.8032747E-07)
 number of electron       8.0000000 magnetization 
 augmentation part       -0.0459823 magnetization 

 Broyden mixing:
  rms(total) = 0.71234E-04    rms(broyden)= 0.71232E-04
  rms(prec ) = 0.95247E-04
  weight for this iteration     100.00

 eigenvalues of (default mixing * dielectric matrix)
  average eigenvalue GAMMA=   2.5148
  7.7578  4.7495  2.8347  2.8347  1.8521  1.8521  0.3004  1.0014  1.0464  0.9192

 Free energy of the ion-electron system (eV)
  ---------------------------------------------------
  alpha Z        PSCENC =         1.24066189
  Ewald energy   TEWEN  =       116.25468073
  -Hartree energ DENC   =      -359.80063810
  -exchange      EXHF   =         0.00000000
  -V(xc)+E(xc)   XCENC  =        21.49797915
  PAW double counting   =       198.85410641     -199.92302843
  entropy T*S    EENTRO =        -0.00685031
  eigenvalues    EBANDS =       -77.35508740
  atomic energy  EATOM  =       294.29778662
  Solvation  Ediel_sol  =         0.00000000
  ---------------------------------------------------
  free energy    TOTEN  =        -4.94038943 eV

  energy without entropy =       -4.93353913  energy(sigma->0) =       -4.93696428


--------------------------------------------------------------------------------------------------------




--------------------------------------- Iteration      1(  16)  ---------------------------------------


    POTLOK:  cpu time      0.0205: real time      0.0215
    SETDIJ:  cpu time      0.0176: real time      0.0177
     EDDAV:  cpu time      0.4516: real time      0.4529
       DOS:  cpu time      0.0015: real time      0.0015
    CHARGE:  cpu time      0.0404: real time      0.0405
    MIXING:  cpu time      0.0034: real time      0.0034
    --------------------------------------------
      LOOP:  cpu time      0.5351: real time      0.5376

 eigenvalue-minimisations  :  1184
 total energy-change (2. order) :-0.1080094E-04  (-0.5923473E-07)
 number of electron       8.0000000 magnetization 
 augmentation part       -0.0459827 magnetization 

 Broyden mixing:
  rms(total) = 0.24295E-04    rms(broyden)= 0.24290E-04
  rms(prec ) = 0.31963E-04
  weight for this iteration     100.00

 eigenvalues of (default mixing * dielectric matrix)
  average eigenvalue GAMMA=   2.6373
  8.3572  5.6103  3.0038  2.8709  2.7119  1.8478  0.3004  1.3403  0.9984  0.9984
  0.9707

 Free energy of the ion-electron system (eV)
  ---------------------------------------------------
  alpha Z        PSCENC =         1.24066189
  Ewald energy   TEWEN  =       116.25468073
  -Hartree energ DENC   =      -359.80328469
  -exchange      EXHF   =         0.00000000
  -V(xc)+E(xc)   XCENC  =        21.49795414
  PAW double counting   =       198.84732627     -199.91624441
  entropy T*S    EENTRO =        -0.00685025
  eigenvalues    EBANDS =       -77.35243054
  atomic energy  EATOM  =       294.29778662
  Solvation  Ediel_sol  =         0.00000000
  ---------------------------------------------------
  free energy    TOTEN  =        -4.94040023 eV

  energy without entropy =       -4.93354999  energy(sigma->0) =       -4.93697511


--------------------------------------------------------------------------------------------------------




--------------------------------------- Iteration      1(  17)  ---------------------------------------


    POTLOK:  cpu time      0.0215: real time      0.0224
    SETDIJ:  cpu time      0.0181: real time      0.0182
     EDDAV:  cpu time      0.5107: real time      0.5124
       DOS:  cpu time      0.0015: real time      0.0015
    CHARGE:  cpu time      0.0406: real time      0.0407
    MIXING:  cpu time      0.0028: real time      0.0028
    --------------------------------------------
      LOOP:  cpu time      0.5952: real time      0.5979

 eigenvalue-minimisations  :  1528
 total energy-change (2. order) :-0.4336940E-05  (-0.4014105E-07)
 number of electron       8.0000000 magnetization 
 augmentation part       -0.0459833 magnetization 

 Broyden mixing:
  rms(total) = 0.12077E-04    rms(broyden)= 0.12075E-04
  rms(prec ) = 0.13161E-04
  weight for this iteration     100.00

 eigenvalues of (default mixing * dielectric matrix)
  average eigenvalue GAMMA=   2.6950
  9.4254  5.9801  3.2212  2.9641  2.6639  1.8429  2.0778  0.3004  1.0119  0.9648
  0.9648  0.9221

 Free energy of the ion-electron system (eV)
  ---------------------------------------------------
  alpha Z        PSCENC =         1.24066189
  Ewald energy   TEWEN  =       116.25468073
  -Hartree energ DENC   =      -359.80325116
  -exchange      EXHF   =         0.00000000
  -V(xc)+E(xc)   XCENC  =        21.49794599
  PAW double counting   =       198.84902447     -199.91796012
  entropy T*S    EENTRO =        -0.00685024
  eigenvalues    EBANDS =       -77.35244276
  atomic energy  EATOM  =       294.29778662
  Solvation  Ediel_sol  =         0.00000000
  ---------------------------------------------------
  free energy    TOTEN  =        -4.94040457 eV

  energy without entropy =       -4.93355433  energy(sigma->0) =       -4.93697945


--------------------------------------------------------------------------------------------------------




--------------------------------------- Iteration      1(  18)  ---------------------------------------


    POTLOK:  cpu time      0.0264: real time      0.0265
    SETDIJ:  cpu time      0.0260: real time      0.0262
     EDDAV:  cpu time      0.4080: real time      0.4092
       DOS:  cpu time      0.0015: real time      0.0015
    CHARGE:  cpu time      0.0398: real time      0.0400
    MIXING:  cpu time      0.0031: real time      0.0031
    --------------------------------------------
      LOOP:  cpu time      0.5048: real time      0.5064

 eigenvalue-minimisations  :  1232
 total energy-change (2. order) :-0.6072242E-06  (-0.2329121E-08)
 number of electron       8.0000000 magnetization 
 augmentation part       -0.0459835 magnetization 

 Broyden mixing:
  rms(total) = 0.56391E-05    rms(broyden)= 0.56379E-05
  rms(prec ) = 0.64096E-05
  weight for this iteration     100.00

 eigenvalues of (default mixing * dielectric matrix)
  average eigenvalue GAMMA=   2.6881
  9.5927  6.0814  3.5869  2.8279  2.8279  2.3203  1.8514  0.3004  1.5761  0.9438
  1.0096  1.0096  1.0170

 Free energy of the ion-electron system (eV)
  ---------------------------------------------------
  alpha Z        PSCENC =         1.24066189
  Ewald energy   TEWEN  =       116.25468073
  -Hartree energ DENC   =      -359.80332917
  -exchange      EXHF   =         0.00000000
  -V(xc)+E(xc)   XCENC  =        21.49795140
  PAW double counting   =       198.84645651     -199.91539193
  entropy T*S    EENTRO =        -0.00685023
  eigenvalues    EBANDS =       -77.35237100
  atomic energy  EATOM  =       294.29778662
  Solvation  Ediel_sol  =         0.00000000
  ---------------------------------------------------
  free energy    TOTEN  =        -4.94040518 eV

  energy without entropy =       -4.93355495  energy(sigma->0) =       -4.93698006


--------------------------------------------------------------------------------------------------------




--------------------------------------- Iteration      1(  19)  ---------------------------------------


    POTLOK:  cpu time      0.0226: real time      0.0227
    SETDIJ:  cpu time      0.0180: real time      0.0181
     EDDAV:  cpu time      0.3171: real time      0.3180
       DOS:  cpu time      0.0020: real time      0.0020
    CHARGE:  cpu time      0.0412: real time      0.0413
    MIXING:  cpu time      0.0032: real time      0.0032
    --------------------------------------------
      LOOP:  cpu time      0.4042: real time      0.4053

 eigenvalue-minimisations  :   744
 total energy-change (2. order) :-0.1506129E-06  (-0.4531144E-09)
 number of electron       8.0000000 magnetization 
 augmentation part       -0.0459835 magnetization 

 Broyden mixing:
  rms(total) = 0.12167E-05    rms(broyden)= 0.12162E-05
  rms(prec ) = 0.15932E-05
  weight for this iteration     100.00

 eigenvalues of (default mixing * dielectric matrix)
  average eigenvalue GAMMA=   2.6213
  9.5723  6.2080  3.4832  2.9008  2.8415  2.2579  2.2579  1.8427  0.3004  0.9525
  0.9525  1.0119  1.0582  1.0582

 Free energy of the ion-electron system (eV)
  ---------------------------------------------------
  alpha Z        PSCENC =         1.24066189
  Ewald energy   TEWEN  =       116.25468073
  -Hartree energ DENC   =      -359.80336391
  -exchange      EXHF   =         0.00000000
  -V(xc)+E(xc)   XCENC  =        21.49794390
  PAW double counting   =       198.84534622     -199.91427735
  entropy T*S    EENTRO =        -0.00685024
  eigenvalues    EBANDS =       -77.35233319
  atomic energy  EATOM  =       294.29778662
  Solvation  Ediel_sol  =         0.00000000
  ---------------------------------------------------
  free energy    TOTEN  =        -4.94040533 eV

  energy without entropy =       -4.93355509  energy(sigma->0) =       -4.93698021


--------------------------------------------------------------------------------------------------------




--------------------------------------- Iteration      1(  20)  ---------------------------------------


    POTLOK:  cpu time      0.0215: real time      0.0217
    SETDIJ:  cpu time      0.0172: real time      0.0172
     EDDAV:  cpu time      0.2741: real time      0.2749
       DOS:  cpu time      0.0014: real time      0.0014
    CHARGE:  cpu time      0.0395: real time      0.0396
    MIXING:  cpu time      0.0050: real time      0.0050
    --------------------------------------------
      LOOP:  cpu time      0.3588: real time      0.3599

 eigenvalue-minimisations  :   592
 total energy-change (2. order) :-0.1735634E-07  (-0.7704365E-10)
 number of electron       8.0000000 magnetization 
 augmentation part       -0.0459835 magnetization 

 Broyden mixing:
  rms(total) = 0.67669E-06    rms(broyden)= 0.67513E-06
  rms(prec ) = 0.78695E-06
  weight for this iteration     100.00

 eigenvalues of (default mixing * dielectric matrix)
  average eigenvalue GAMMA=   2.6051
  9.5863  6.2524  3.4730  3.2437  2.8861  2.4336  2.4336  1.8550  1.6983  0.3004
  1.0152  1.0152  0.9901  0.9466  0.9466

 Free energy of the ion-electron system (eV)
  ---------------------------------------------------
  alpha Z        PSCENC =         1.24066189
  Ewald energy   TEWEN  =       116.25468073
  -Hartree energ DENC   =      -359.80322345
  -exchange      EXHF   =         0.00000000
  -V(xc)+E(xc)   XCENC  =        21.49793942
  PAW double counting   =       198.84561646     -199.91454702
  entropy T*S    EENTRO =        -0.00685025
  eigenvalues    EBANDS =       -77.35246977
  atomic energy  EATOM  =       294.29778662
  Solvation  Ediel_sol  =         0.00000000
  ---------------------------------------------------
  free energy    TOTEN  =        -4.94040535 eV

  energy without entropy =       -4.93355510  energy(sigma->0) =       -4.93698022


--------------------------------------------------------------------------------------------------------




--------------------------------------- Iteration      1(  21)  ---------------------------------------


    POTLOK:  cpu time      0.0224: real time      0.0231
    SETDIJ:  cpu time      0.0189: real time      0.0190
     EDDAV:  cpu time      0.2654: real time      0.2661
       DOS:  cpu time      0.0015: real time      0.1818
    --------------------------------------------
      LOOP:  cpu time      0.3082: real time      0.4899

 eigenvalue-minimisations  :   592
 total energy-change (2. order) :-0.7635379E-08  (-0.3834300E-10)
 number of electron       8.0000000 magnetization 
 augmentation part       -0.0459835 magnetization 

 Free energy of the ion-electron system (eV)
  ---------------------------------------------------
  alpha Z        PSCENC =         1.24066189
  Ewald energy   TEWEN  =       116.25468073
  -Hartree energ DENC   =      -359.80323422
  -exchange      EXHF   =         0.00000000
  -V(xc)+E(xc)   XCENC  =        21.49794009
  PAW double counting   =       198.84550468     -199.91443563
  entropy T*S    EENTRO =        -0.00685024
  eigenvalues    EBANDS =       -77.35245927
  atomic energy  EATOM  =       294.29778662
  Solvation  Ediel_sol  =         0.00000000
  ---------------------------------------------------
  free energy    TOTEN  =        -4.94040535 eV

  energy without entropy =       -4.93355511  energy(sigma->0) =       -4.93698023


--------------------------------------------------------------------------------------------------------




 average (electrostatic) potential at core
  the test charge radii are     0.6991
  (the norm of the test charge is              1.0000)
       1 -61.9884       2 -61.9884
 
 
 
 E-fermi :  -5.3340     XC(G=0):  -1.9656     alpha+bet : -0.7568

 Fermi energy:        -5.3339630812

 k-point     1 :       0.0000    0.0000    0.0000
  band No.  band energies     occupation 
      1     -14.7149      2.00000
      2     -11.5860      2.00000
      3      -5.9070      2.00000
      4      -5.9070      2.00000
      5      -5.8885      2.00000
      6      -3.7237      0.00000
      7      -3.0942      0.00000
      8      -3.0941      0.00000

 k-point     2 :       0.0833    0.0000    0.0000
  band No.  band energies     occupation 
      1     -14.6803      2.00000
      2     -11.6609      2.00000
      3      -5.9488      2.00000
      4      -5.8575      2.00000
      5      -5.8541      2.00000
      6      -3.7597      0.00000
      7      -3.1144      0.00000
      8      -3.0272      0.00000

 k-point     3 :       0.1667    0.0000    0.0000
  band No.  band energies     occupation 
      1     -14.5784      2.00000
      2     -11.8682      2.00000
      3      -6.0547      2.00000
      4      -5.7670      2.00000
      5      -5.7213      2.00000
      6      -3.8635      0.00000
      7      -3.1526      0.00000
      8      -2.8516      0.00000

 k-point     4 :       0.2500   -0.0000    0.0000
  band No.  band energies     occupation 
      1     -14.4157      2.00000
      2     -12.1651      2.00000
      3      -6.1842      2.00000
      4      -5.6249      2.00000
      5      -5.5693      2.00000
      6      -4.0232      0.00000
      7      -3.1626      0.00000
      8      -2.6248      0.00000

 k-point     5 :       0.3333    0.0000    0.0000
  band No.  band energies     occupation 
      1     -14.2074      2.00000
      2     -12.4982      2.00000
      3      -6.3004      2.00000
      4      -5.4539      1.99930
      5      -5.4472      1.99863
      6      -4.2180      0.00000
      7      -3.1203      0.00000
      8      -2.4088      0.00000

 k-point     6 :       0.4167    0.0000    0.0000
  band No.  band energies     occupation 
      1     -13.9930      2.00000
      2     -12.7989      2.00000
      3      -6.3787      2.00000
      4      -5.3932      1.90632
      5      -5.2690      0.06597
      6      -4.4083      0.00000
      7      -3.0544      0.00000
      8      -2.2557      0.00000

 k-point     7 :       0.5000   -0.0000    0.0000
  band No.  band energies     occupation 
      1     -13.8836      2.00000
      2     -12.9389      2.00000
      3      -6.4062      2.00000
      4      -5.3760      1.76519
      5      -5.1796      0.00001
      6      -4.5020      0.00000
      7      -3.0227      0.00000
      8      -2.2004      0.00000

 k-point     8 :       0.0000    0.0833    0.0000
  band No.  band energies     occupation 
      1     -14.6803      2.00000
      2     -11.6609      2.00000
      3      -5.9487      2.00000
      4      -5.8575      2.00000
      5      -5.8541      2.00000
      6      -3.7597      0.00000
      7      -3.1143      0.00000
      8      -3.0272      0.00000

[...]
      6      -4.1399      0.00000
      7      -3.2141      0.00000
      8      -2.4471      0.00000

 k-point    41 :      -0.2500    0.2500    0.0000
  band No.  band energies     occupation 
      1     -14.4157      2.00000
      2     -12.1652      2.00000
      3      -6.1842      2.00000
      4      -5.6249      2.00000
      5      -5.5693      2.00000
      6      -4.0232      0.00000
      7      -3.1625      0.00000
      8      -2.6248      0.00000

 k-point    42 :      -0.1667    0.2500    0.0000
  band No.  band energies     occupation 
      1     -14.4792      2.00000
      2     -12.0533      2.00000
      3      -6.1737      2.00000
      4      -5.6801      2.00000
      5      -5.5736      2.00000
      6      -3.9615      0.00000
      7      -3.2009      0.00000
      8      -2.6823      0.00000

 k-point    43 :      -0.0833    0.2500    0.0000
  band No.  band energies     occupation 
      1     -14.4792      2.00000
      2     -12.0533      2.00000
      3      -6.1737      2.00000
      4      -5.6801      2.00000
      5      -5.5736      2.00000
      6      -3.9615      0.00000
      7      -3.2009      0.00000
      8      -2.6823      0.00000

 k-point    44 :       0.0000    0.3333    0.0000
  band No.  band energies     occupation 
      1     -14.2074      2.00000
      2     -12.4983      2.00000
      3      -6.3004      2.00000
      4      -5.4539      1.99931
      5      -5.4472      1.99863
      6      -4.2180      0.00000
      7      -3.1203      0.00000
      8      -2.4088      0.00000

 k-point    45 :       0.0833    0.3333    0.0000
  band No.  band energies     occupation 
      1     -14.0717      2.00000
      2     -12.6916      2.00000
      3      -6.4338      2.00000
      4      -5.3343      1.00776
      5      -5.2774      0.10975
      6      -4.3382      0.00000
      7      -3.1832      0.00000
      8      -2.2525      0.00000

 k-point    46 :       0.1667    0.3333    0.0000
  band No.  band energies     occupation 
      1     -13.8910      2.00000
      2     -12.9251      2.00000
      3      -6.6345      2.00000
      4      -5.1885      0.00004
      5      -4.9198      0.00000
      6      -4.4893      0.00000
      7      -3.3964      0.00000
      8      -2.0535      0.00000

 k-point    47 :       0.2500    0.3333    0.0000
  band No.  band energies     occupation 
      1     -13.6742      2.00000
      2     -13.1777      2.00000
      3      -6.7868      2.00000
      4      -5.0202      0.00000
      5      -4.6602      0.00000
      6      -4.4980      0.00000
      7      -3.7041      0.00000
      8      -1.9062      0.00000

 k-point    48 :       0.3333    0.3333    0.0000
  band No.  band energies     occupation 
      1     -13.4323      2.00000
      2     -13.4322      2.00000
      3      -6.8418      2.00000
      4      -4.8406      0.00000
      5      -4.8405      0.00000
      6      -4.0796      0.00000
      7      -4.0795      0.00000
      8      -1.8533      0.00000

 k-point    49 :       0.4167    0.3333    0.0000
  band No.  band energies     occupation 
      1     -13.6742      2.00000
      2     -13.1778      2.00000
      3      -6.7868      2.00000
      4      -5.0202      0.00000
      5      -4.6602      0.00000
      6      -4.4981      0.00000
      7      -3.7040      0.00000
      8      -1.9062      0.00000

 k-point    50 :       0.5000    0.3333    0.0000
  band No.  band energies     occupation 
      1     -13.8909      2.00000
      2     -12.9251      2.00000
      3      -6.6345      2.00000
      4      -5.1885      0.00004
      5      -4.9199      0.00000
      6      -4.4893      0.00000
      7      -3.3963      0.00000
      8      -2.0535      0.00000

 k-point    51 :      -0.4167    0.3333    0.0000
  band No.  band energies     occupation 
      1     -14.0716      2.00000
      2     -12.6917      2.00000
      3      -6.4338      2.00000
      4      -5.3343      1.00731
      5      -5.2775      0.11009
      6      -4.3382      0.00000
      7      -3.1832      0.00000
      8      -2.2525      0.00000

 k-point    52 :      -0.3333    0.3333    0.0000
  band No.  band energies     occupation 
      1     -14.2074      2.00000
      2     -12.4983      2.00000
      3      -6.3004      2.00000
      4      -5.4539      1.99931
      5      -5.4471      1.99863
      6      -4.2180      0.00000
      7      -3.1202      0.00000
      8      -2.4088      0.00000

 k-point    53 :      -0.2500    0.3333    0.0000
  band No.  band energies     occupation 
      1     -14.2915      2.00000
      2     -12.3684      2.00000
      3      -6.3192      2.00000
      4      -5.5185      2.00000
      5      -5.3994      1.93598
      6      -4.1399      0.00000
      7      -3.2141      0.00000
      8      -2.4471      0.00000

 k-point    54 :      -0.1667    0.3333    0.0000
  band No.  band energies     occupation 
      1     -14.3200      2.00000
      2     -12.3224      2.00000
      3      -6.3532      2.00000
      4      -5.5430      2.00000
      5      -5.3342      1.00555
      6      -4.1128      0.00000
      7      -3.2848      0.00000
      8      -2.4422      0.00000

 k-point    55 :      -0.0833    0.3333    0.0000
  band No.  band energies     occupation 
      1     -14.2915      2.00000
      2     -12.3684      2.00000
      3      -6.3192      2.00000
      4      -5.5186      2.00000
      5      -5.3994      1.93591
      6      -4.1399      0.00000
      7      -3.2141      0.00000
      8      -2.4471      0.00000

 k-point    56 :       0.0000    0.4167    0.0000
  band No.  band energies     occupation 
      1     -13.9929      2.00000
      2     -12.7990      2.00000
      3      -6.3787      2.00000
      4      -5.3932      1.90634
      5      -5.2689      0.06591
      6      -4.4083      0.00000
      7      -3.0543      0.00000
      8      -2.2557      0.00000

 k-point    57 :       0.0833    0.4167    0.0000
  band No.  band energies     occupation 
      1     -13.8860      2.00000
      2     -12.9343      2.00000
      3      -6.4959      2.00000
      4      -5.2205      0.00133
      5      -5.1826      0.00002
      6      -4.4977      0.00000
      7      -3.1455      0.00000
      8      -2.1430      0.00000

 k-point    58 :       0.1667    0.4167    0.0000
  band No.  band energies     occupation 
      1     -13.7676      2.00000
      2     -13.0737      2.00000
      3      -6.6746      2.00000
      4      -5.0903      0.00000
      5      -4.8586      0.00000
      6      -4.5906      0.00000
      7      -3.4066      0.00000
      8      -1.9961      0.00000

 k-point    59 :       0.2500    0.4167    0.0000
  band No.  band energies     occupation 
      1     -13.6742      2.00000
      2     -13.1778      2.00000
      3      -6.7868      2.00000
      4      -5.0202      0.00000
      5      -4.6602      0.00000
      6      -4.4981      0.00000
      7      -3.7040      0.00000
      8      -1.9062      0.00000

 k-point    60 :       0.3333    0.4167    0.0000
  band No.  band energies     occupation 
      1     -13.6742      2.00000
      2     -13.1778      2.00000
      3      -6.7868      2.00000
      4      -5.0202      0.00000
      5      -4.6602      0.00000
      6      -4.4981      0.00000
      7      -3.7040      0.00000
      8      -1.9062      0.00000

 k-point    61 :       0.4167    0.4167    0.0000
  band No.  band energies     occupation 
      1     -13.7675      2.00000
      2     -13.0738      2.00000
      3      -6.6746      2.00000
      4      -5.0903      0.00000
      5      -4.8587      0.00000
      6      -4.5907      0.00000
      7      -3.4065      0.00000
      8      -1.9961      0.00000

 k-point    62 :       0.5000    0.4167    0.0000
  band No.  band energies     occupation 
      1     -13.8860      2.00000
      2     -12.9344      2.00000
      3      -6.4960      2.00000
      4      -5.2205      0.00133
      5      -5.1826      0.00002
      6      -4.4978      0.00000
      7      -3.1454      0.00000
      8      -2.1430      0.00000

 k-point    63 :      -0.4167    0.4167    0.0000
  band No.  band energies     occupation 
      1     -13.9929      2.00000
      2     -12.7990      2.00000
      3      -6.3788      2.00000
      4      -5.3933      1.90660
      5      -5.2689      0.06581
      6      -4.4083      0.00000
      7      -3.0543      0.00000
      8      -2.2557      0.00000

 k-point    64 :      -0.3333    0.4167    0.0000
  band No.  band energies     occupation 
      1     -14.0716      2.00000
      2     -12.6917      2.00000
      3      -6.4338      2.00000
      4      -5.3343      1.00725
      5      -5.2775      0.11017
      6      -4.3382      0.00000
      7      -3.1831      0.00000
      8      -2.2525      0.00000

 k-point    65 :      -0.2500    0.4167    0.0000
  band No.  band energies     occupation 
      1     -14.1131      2.00000
      2     -12.6319      2.00000
      3      -6.5205      2.00000
      4      -5.3693      1.68281
      5      -5.0922      0.00000
      6      -4.2995      0.00000
      7      -3.3573      0.00000
      8      -2.2136      0.00000

 k-point    66 :      -0.1667    0.4167    0.0000
  band No.  band energies     occupation 
      1     -14.1131      2.00000
      2     -12.6319      2.00000
      3      -6.5205      2.00000
      4      -5.3693      1.68288
      5      -5.0922      0.00000
      6      -4.2995      0.00000
      7      -3.3573      0.00000
      8      -2.2136      0.00000

 k-point    67 :      -0.0833    0.4167    0.0000
  band No.  band energies     occupation 
      1     -14.0717      2.00000
      2     -12.6916      2.00000
      3      -6.4338      2.00000
      4      -5.3343      1.00760
      5      -5.2775      0.10995
      6      -4.3382      0.00000
      7      -3.1832      0.00000
      8      -2.2525      0.00000

 k-point    68 :       0.0000    0.5000    0.0000
  band No.  band energies     occupation 
      1     -13.8836      2.00000
      2     -12.9390      2.00000
      3      -6.4062      2.00000
      4      -5.3760      1.76523
      5      -5.1796      0.00001
      6      -4.5020      0.00000
      7      -3.0227      0.00000
      8      -2.2005      0.00000

 k-point    69 :       0.0833    0.5000    0.0000
  band No.  band energies     occupation 
      1     -13.8860      2.00000
      2     -12.9343      2.00000
      3      -6.4959      2.00000
      4      -5.2205      0.00133
      5      -5.1826      0.00002
      6      -4.4978      0.00000
      7      -3.1455      0.00000
      8      -2.1430      0.00000

 k-point    70 :       0.1667    0.5000    0.0000
  band No.  band energies     occupation 
      1     -13.8909      2.00000
      2     -12.9251      2.00000
      3      -6.6345      2.00000
      4      -5.1885      0.00004
      5      -4.9198      0.00000
      6      -4.4893      0.00000
      7      -3.3963      0.00000
      8      -2.0535      0.00000

 k-point    71 :       0.2500    0.5000    0.0000
  band No.  band energies     occupation 
      1     -13.8934      2.00000
      2     -12.9205      2.00000
      3      -6.6919      2.00000
      4      -5.1914      0.00006
      5      -4.7548      0.00000
      6      -4.4851      0.00000
      7      -3.5408      0.00000
      8      -2.0163      0.00000

 k-point    72 :       0.3333    0.5000    0.0000
  band No.  band energies     occupation 
      1     -13.8909      2.00000
      2     -12.9252      2.00000
      3      -6.6345      2.00000
      4      -5.1885      0.00004
      5      -4.9199      0.00000
      6      -4.4893      0.00000
      7      -3.3963      0.00000
      8      -2.0535      0.00000

 k-point    73 :       0.4167    0.5000    0.0000
  band No.  band energies     occupation 
      1     -13.8860      2.00000
      2     -12.9344      2.00000
      3      -6.4960      2.00000
      4      -5.2205      0.00133
      5      -5.1826      0.00002
      6      -4.4978      0.00000
      7      -3.1454      0.00000
      8      -2.1430      0.00000

 k-point    74 :       0.5000    0.5000    0.0000
  band No.  band energies     occupation 
      1     -13.8835      2.00000
      2     -12.9390      2.00000
      3      -6.4062      2.00000
      4      -5.3760      1.76578
      5      -5.1796      0.00001
      6      -4.5021      0.00000
      7      -3.0226      0.00000
      8      -2.2005      0.00000


--------------------------------------------------------------------------------------------------------


 soft charge-density along one line, spin component           1
         0         1         2         3         4         5         6         7         8         9
 total charge-density along one line
 
 pseudopotential strength for first ion, spin component:           1
 10.410  13.849   0.000   0.000  -0.000  -0.000  -0.000   0.000
 13.849  18.423   0.000   0.000  -0.000  -0.000  -0.000   0.000
  0.000   0.000  -4.574  -0.000  -0.000   8.977   0.000   0.000
  0.000   0.000  -0.000  -4.585   0.000   0.000   8.999  -0.000
 -0.000  -0.000  -0.000   0.000  -4.574   0.000  -0.000   8.977
 -0.000  -0.000   8.977   0.000   0.000 -19.765  -0.000  -0.000
 -0.000  -0.000   0.000   8.999  -0.000  -0.000 -19.810   0.000
  0.000   0.000   0.000  -0.000   8.977  -0.000   0.000 -19.765
 total augmentation occupancy for first ion, spin component:           1
  1.719   0.059   0.000  -0.000  -0.000   0.000  -0.000  -0.000
  0.059   0.074  -0.000  -0.000   0.000  -0.000  -0.000   0.000
  0.000  -0.000   0.728   0.000  -0.000   0.010   0.000  -0.000
 -0.000  -0.000   0.000   0.495  -0.000   0.000   0.002  -0.000
 -0.000   0.000  -0.000  -0.000   0.728  -0.000   0.000   0.010
  0.000  -0.000   0.010   0.000  -0.000   0.000   0.000  -0.000
 -0.000  -0.000   0.000   0.002   0.000   0.000   0.000   0.000
 -0.000   0.000  -0.000  -0.000   0.010  -0.000   0.000   0.000


------------------------ aborting loop because EDIFF is reached ----------------------------------------


    CHARGE:  cpu time      0.0436: real time      0.0438
    FORLOC:  cpu time      0.0020: real time      0.0020
    FORNL :  cpu time      0.1301: real time      0.1304
    STRESS:  cpu time      0.4428: real time      0.4441
    FORCOR:  cpu time      0.0217: real time      0.0217
    FORHAR:  cpu time      0.0048: real time      0.0048
    MIXING:  cpu time      0.0014: real time      0.0014
    OFIELD:  cpu time      0.0001: real time      0.0001

 ---------------------------------------------------------------------------------------------

         DFTD3 V3.0 Rev 1        
 IVDW         = 12
 DF pbe       
 parameters
 VDW_S6       =    1.0000
 VDW_S8       =    0.7875
 VDW_A1       =    0.4289
 VDW_A2       =    4.4407
 k1-k3        =   16.0000    1.3333   -4.0000
 VDW_RADIUS   =   50.2022 A
 VDW_CNRADIUS =   21.1671 A
 Edisp (eV)   -0.08747

 E6    (eV) :    -0.0609
 E8    (eV) :    -0.0265
 % E8        : 30.34
    FORVDW:  cpu time      0.0738: real time      0.0741

  FORCE on cell =-STRESS in cart. coord.  units (eV):
  Direction    XX          YY          ZZ          XY          YZ          ZX
  --------------------------------------------------------------------------------------
  Alpha Z     1.24066     1.24066     1.24066
  Ewald     263.09724   263.09752  -409.94015    -0.00095     0.00000    -0.00000
  Hartree   322.93161   322.93173  -286.06007    -0.00051     0.00000     0.00000
  E(xc)     -24.30593   -24.30593   -24.86751    -0.00001     0.00000    -0.00000
  Local    -677.34400  -677.34427   613.03909     0.00173    -0.00000    -0.00000
  n-local    10.90134    10.90139    13.28877     0.00009     0.00000     0.00000
  augment     0.16299     0.16299     0.10727    -0.00000    -0.00000     0.00000
  Kinetic    95.96982    95.96965    93.17930    -0.00015    -0.00000     0.00000
  Fock        0.00000     0.00000     0.00000     0.00000     0.00000     0.00000
  vdW        -0.10488    -0.10488    -0.00090     0.00000    -0.00000    -0.00000
  -------------------------------------------------------------------------------------
  Total      -7.45114    -7.45114    -0.01354     0.00019    -0.00000    -0.00000
  in kB     -45.07507   -45.07510    -0.08192     0.00118    -0.00000    -0.00000
  external pressure =      -30.08 kB  Pullay stress =        0.00 kB


 VOLUME and BASIS-vectors are now :
 -----------------------------------------------------------------------------
  energy-cutoff  :      520.00
  volume of cell :      264.85
      direct lattice vectors                 reciprocal lattice vectors
     4.515296526  0.000000000  0.000000000     0.221469397  0.127861721  0.000000000
    -2.257595036  3.910382305  0.000000000     0.000000000  0.255729471  0.000000000
     0.000000000  0.000000000 15.000000000     0.000000000  0.000000000  0.066666667

  length of vectors
     4.515296526  4.515287933 15.000000000     0.255728985  0.255729471  0.066666667


 FORCES acting on ions
    electron-ion (+dipol)            ewald-force                    non-local-force                 convergence-correction
 -----------------------------------------------------------------------------------------------
   -.807E-03 0.150E-03 0.104E-05   0.109E-02 -.200E-03 0.101E-18   -.442E-03 0.891E-04 -.554E-06   -.707E-07 -.176E-08 -.678E-06
   0.807E-03 -.150E-03 -.384E-06   -.109E-02 0.200E-03 -.946E-19   0.442E-03 -.891E-04 0.194E-06   0.541E-07 0.103E-06 0.108E-06
 -----------------------------------------------------------------------------------------------
   0.212E-07 -.167E-06 0.652E-06   0.239E-15 -.369E-15 0.679E-20   -.386E-07 0.249E-07 -.360E-06   -.165E-07 0.102E-06 -.570E-06
 
 
 POSITION                                       TOTAL-FORCE (eV/Angst)
 -----------------------------------------------------------------------------------
      0.00000      0.00000      7.50000        -0.000159      0.000038     -0.000000
      2.25767      1.30347      7.50000         0.000159     -0.000038      0.000000
 -----------------------------------------------------------------------------------
    total drift:                               -0.000000     -0.000000     -0.000000


--------------------------------------------------------------------------------------------------------



  FREE ENERGIE OF THE ION-ELECTRON SYSTEM (eV)
  ---------------------------------------------------
  free  energy   TOTEN  =        -5.02787750 eV

  energy  without entropy=       -5.02102726  energy(sigma->0) =       -5.02445238
 


--------------------------------------------------------------------------------------------------------


    POTLOK:  cpu time      0.0552: real time      0.0583


--------------------------------------------------------------------------------------------------------


     LOOP+:  cpu time     12.8052: real time     35.8321
    4ORBIT:  cpu time      0.0000: real time      0.0000

 total amount of memory used by VASP MPI-rank0    45075. kBytes
=======================================================================

   base      :      30000. kBytes
   nonl-proj :       2517. kBytes
   fftplans  :       7196. kBytes
   grid      :       2821. kBytes
   one-center:          3. kBytes
   wavefun   :       2538. kBytes
 
  
  
 General timing and accounting informations for this job:
 ========================================================
  
                  Total CPU time used (sec):       21.847
                            User time (sec):       21.249
                          System time (sec):        0.597
                         Elapsed time (sec):       59.369
  
                   Maximum memory used (kb):       82724.
                   Average memory used (kb):          N/A
  
                          Minor page faults:        30429
                          Major page faults:            0
                 Voluntary context switches:         2440
