Title Card Required                                                     
FOpt      UM062X                                                      6-311+G(d,p)        
Number of atoms                            I                4
Info1-9                                    I   N=           9
          13          13           0           0           0         110
           2          18        -502
Full Title                                 C   N=           2
Title Card Required     
Route                                      C   N=           5
#p opt UM062X/6-311+G** nosymm int=superfine SCF=NoVarAcc   
Charge                                     I                1
Multiplicity                               I                2
Number of electrons                        I               13
Number of alpha electrons                  I                7
Number of beta electrons                   I                6
Number of basis functions                  I               56
Number of independent functions            I               56
Number of point charges in /Mol/           I                0
Number of translation vectors              I                0
Atomic numbers                             I   N=           4
           6           6           1           1
Nuclear charges                            R   N=           4
  6.00000000E+00  6.00000000E+00  1.00000000E+00  1.00000000E+00
Current cartesian coordinates              R   N=          12
 -1.86745759E+01  0.00000000E+00  0.00000000E+00  1.86745759E+01  0.00000000E+00
  0.00000000E+00 -2.07874398E+01 -1.26867359E-08  9.97584647E-10  2.07874381E+01
 -1.42434014E-08 -6.33337726E-10
Number of symbols in /Mol/                 I                0
Force Field                                I                0
Atom Types                                 C   N=           4
                                                
Int Atom Types                             I   N=           4
           0           0           0           0
MM charges                                 R   N=           4
  0.00000000E+00  0.00000000E+00  0.00000000E+00  0.00000000E+00
Integer atomic weights                     I   N=           4
          12          12           1           1
Real atomic weights                        R   N=           4
  1.20000000E+01  1.20000000E+01  1.00782504E+00  1.00782504E+00
Atom fragment info                         I   N=           4
           0           0           0           0
Atom residue num                           I   N=           4
           0           0           0           0
Nuclear spins                              I   N=           4
           0           0           1           1
Nuclear ZEff                               R   N=           4
 -3.60000000E+00 -3.60000000E+00 -1.00000000E+00 -1.00000000E+00
Nuclear ZNuc                               R   N=           4
  6.00000000E+00  6.00000000E+00  1.00000000E+00  1.00000000E+00
Nuclear QMom                               R   N=           4
  0.00000000E+00  0.00000000E+00  0.00000000E+00  0.00000000E+00
Nuclear GFac                               R   N=           4
  0.00000000E+00  0.00000000E+00  2.79284600E+00  2.79284600E+00
MicOpt                                     I   N=           4
          -2          -2          -1          -1
Number of residues                         I                0
Number of secondary structures             I                0
Redundant internal dimensions              I   N=           4
          12           8           4           0
Redundant internal coordinate indices      I   N=          48
           1          -1           0           0           1          -2
           0           0           1          -3           0           0
           2          -1           0           0           2          -2
           0           0           2          -3           0           0
           1           3           0           0           2           4
           0           0           2           1           3          -4
           1           2           4          -4           2           1
           3          -8           1           2           4          -8
Redundant internal coordinates             R   N=          12
 -1.86745759E+01  0.00000000E+00  0.00000000E+00  1.86745759E+01  0.00000000E+00
  0.00000000E+00  2.11286391E+00  2.11286222E+00  3.14159265E+00  3.14159263E+00
  3.14159265E+00  3.14159267E+00
ZRed-IntVec                                I   N=          12
          -1          -1          -1          -1          -1          -1
           0           0           0           0           0           0
ZRed-FPVec                                 R   N=          12
  0.00000000E+00  0.00000000E+00  0.00000000E+00  0.00000000E+00  0.00000000E+00
  0.00000000E+00  0.00000000E+00  0.00000000E+00  0.00000000E+00  0.00000000E+00
  0.00000000E+00  0.00000000E+00
ZRed-Constraint1                           R   N=          12
 -1.86745759E+01  0.00000000E+00  0.00000000E+00  1.86745759E+01  0.00000000E+00
  0.00000000E+00  2.08057524E+00  2.08053366E+00  3.14159265E+00  3.14159265E+00
  3.14159265E+00  3.14159265E+00
ZRed-Constraint2                           R   N=          12
 -1.86745759E+01  0.00000000E+00  0.00000000E+00  1.86745759E+01  0.00000000E+00
  0.00000000E+00  0.00000000E+00  0.00000000E+00  0.00000000E+00  0.00000000E+00
  0.00000000E+00  0.00000000E+00
Number of contracted shells                I               20
Number of primitive shells                 I               38
Pure/Cartesian d shells                    I                0
Pure/Cartesian f shells                    I                0
Highest angular momentum                   I                2
Largest degree of contraction              I                6
Shell types                                I   N=          20
           0          -1          -1          -1          -1          -2
           0          -1          -1          -1          -1          -2
           0           0           0           1           0           0
           0           1
Number of primitives per shell             I   N=          20
           6           3           1           1           1           1
           6           3           1           1           1           1
           3           1           1           1           3           1
           1           1
Shell to atom map                          I   N=          20
           1           1           1           1           1           1
           2           2           2           2           2           2
           3           3           3           3           4           4
           4           4
Primitive exponents                        R   N=          38
  4.56324000E+03  6.82024000E+02  1.54973000E+02  4.44553000E+01  1.30290000E+01
  1.82773000E+00  2.09642000E+01  4.80331000E+00  1.45933000E+00  4.83456000E-01
  1.45585000E-01  4.38000000E-02  6.26000000E-01  4.56324000E+03  6.82024000E+02
  1.54973000E+02  4.44553000E+01  1.30290000E+01  1.82773000E+00  2.09642000E+01
  4.80331000E+00  1.45933000E+00  4.83456000E-01  1.45585000E-01  4.38000000E-02
  6.26000000E-01  3.38650000E+01  5.09479000E+00  1.15879000E+00  3.25840000E-01
  1.02741000E-01  7.50000000E-01  3.38650000E+01  5.09479000E+00  1.15879000E+00
  3.25840000E-01  1.02741000E-01  7.50000000E-01
Contraction coefficients                   R   N=          38
  1.96665025E-03  1.52306019E-02  7.61269097E-02  2.60801033E-01  6.16462078E-01
  2.21006028E-01  1.14660081E-01  9.19999648E-01 -3.03068213E-03  1.00000000E+00
  1.00000000E+00  1.00000000E+00  1.00000000E+00  1.96665025E-03  1.52306019E-02
  7.61269097E-02  2.60801033E-01  6.16462078E-01  2.21006028E-01  1.14660081E-01
  9.19999648E-01 -3.03068213E-03  1.00000000E+00  1.00000000E+00  1.00000000E+00
  1.00000000E+00  2.54938145E-02  1.90373109E-01  8.52161486E-01  1.00000000E+00
  1.00000000E+00  1.00000000E+00  2.54938145E-02  1.90373109E-01  8.52161486E-01
  1.00000000E+00  1.00000000E+00  1.00000000E+00
P(S=P) Contraction coefficients            R   N=          38
  0.00000000E+00  0.00000000E+00  0.00000000E+00  0.00000000E+00  0.00000000E+00
  0.00000000E+00  4.02486927E-02  2.37593957E-01  8.15853851E-01  1.00000000E+00
  1.00000000E+00  1.00000000E+00  0.00000000E+00  0.00000000E+00  0.00000000E+00
  0.00000000E+00  0.00000000E+00  0.00000000E+00  0.00000000E+00  4.02486927E-02
  2.37593957E-01  8.15853851E-01  1.00000000E+00  1.00000000E+00  1.00000000E+00
  0.00000000E+00  0.00000000E+00  0.00000000E+00  0.00000000E+00  0.00000000E+00
  0.00000000E+00  0.00000000E+00  0.00000000E+00  0.00000000E+00  0.00000000E+00
  0.00000000E+00  0.00000000E+00  0.00000000E+00
Coordinates of each shell                  R   N=          60
 -1.86745759E+01  0.00000000E+00  0.00000000E+00 -1.86745759E+01  0.00000000E+00
  0.00000000E+00 -1.86745759E+01  0.00000000E+00  0.00000000E+00 -1.86745759E+01
  0.00000000E+00  0.00000000E+00 -1.86745759E+01  0.00000000E+00  0.00000000E+00
 -1.86745759E+01  0.00000000E+00  0.00000000E+00  1.86745759E+01  0.00000000E+00
  0.00000000E+00  1.86745759E+01  0.00000000E+00  0.00000000E+00  1.86745759E+01
  0.00000000E+00  0.00000000E+00  1.86745759E+01  0.00000000E+00  0.00000000E+00
  1.86745759E+01  0.00000000E+00  0.00000000E+00  1.86745759E+01  0.00000000E+00
  0.00000000E+00 -2.07874398E+01 -1.26867359E-08  9.97584647E-10 -2.07874398E+01
 -1.26867359E-08  9.97584647E-10 -2.07874398E+01 -1.26867359E-08  9.97584647E-10
 -2.07874398E+01 -1.26867359E-08  9.97584647E-10  2.07874381E+01 -1.42434014E-08
 -6.33337726E-10  2.07874381E+01 -1.42434014E-08 -6.33337726E-10  2.07874381E+01
 -1.42434014E-08 -6.33337726E-10  2.07874381E+01 -1.42434014E-08 -6.33337726E-10
Num ILSW                                   I              100
ILSW                                       I   N=         100
           1           0           0           0           2           0
           0           0           0           0        4336          -1
           7           0           0           0           2           0
           0           0           0           0           1           0
           1           1           0           0           0           0
           0           0      100000           0          -1           0
           0           0           0           0           0           0
           0           0           0           1           0           0
           0 -2000000000           1           0           0           0
           0           0           4          52           0           0
           0           0          55           0           0           0
           0           0           0           4           0           1
           0           0           0           0           0           0
           0           0           0           0           0           0
           0           0           0           0           0           0
           0           0           0           0           0           0
           0           0           0           0
Num RLSW                                   I               52
RLSW                                       R   N=          52
  1.00000000E+00  1.00000000E+00  1.00000000E+00  1.00000000E+00  5.40000000E-01
  0.00000000E+00  0.00000000E+00  1.00000000E+00  0.00000000E+00  0.00000000E+00
  0.00000000E+00  0.00000000E+00  1.00000000E+00  0.00000000E+00  0.00000000E+00
  0.00000000E+00  0.00000000E+00  1.00000000E+00  0.00000000E+00  0.00000000E+00
  0.00000000E+00  0.00000000E+00  1.00000000E+00  0.00000000E+00  0.00000000E+00
  0.00000000E+00  0.00000000E+00  1.00000000E+00  0.00000000E+00  0.00000000E+00
  0.00000000E+00  0.00000000E+00  1.00000000E+00  0.00000000E+00  0.00000000E+00
  0.00000000E+00  0.00000000E+00  0.00000000E+00  1.00000000E+00  1.00000000E+00
  0.00000000E+00  1.00000000E+00  0.00000000E+00  0.00000000E+00  0.00000000E+00
  0.00000000E+00  0.00000000E+00  0.00000000E+00  0.00000000E+00  0.00000000E+00
  0.00000000E+00  0.00000000E+00
MxBond                                     I                2
NBond                                      I   N=           4
           2           2           1           1
IBond                                      I   N=           8
           2           3           1           4           1           0
           2           0
RBond                                      R   N=           8
  1.00000000E-01  1.00000000E+00  1.00000000E-01  1.00000000E+00  1.00000000E+00
  0.00000000E+00  1.00000000E+00  0.00000000E+00
Virial Ratio                               R      2.002702040351004E+00
SCF Energy                                 R     -7.658558903117891E+01
Total Energy                               R     -7.658558903117891E+01
S**2                                       R      7.512972493517962E-01
S**2 after annihilation                    R      7.500012108899436E-01
RMS Force                                  R      1.442590182966445E-04
RMS Density                                R      2.524054277503774E-09
Job Status                                 I                1
Nuclear derivative order                   I                1
External E-field                           R   N=          35
  0.00000000E+00  0.00000000E+00  0.00000000E+00  0.00000000E+00  0.00000000E+00
  0.00000000E+00  0.00000000E+00  0.00000000E+00  0.00000000E+00  0.00000000E+00
  0.00000000E+00  0.00000000E+00  0.00000000E+00  0.00000000E+00  0.00000000E+00
  0.00000000E+00  0.00000000E+00  0.00000000E+00  0.00000000E+00  0.00000000E+00
  0.00000000E+00  0.00000000E+00  0.00000000E+00  0.00000000E+00  0.00000000E+00
  0.00000000E+00  0.00000000E+00  0.00000000E+00  0.00000000E+00  0.00000000E+00
  0.00000000E+00  0.00000000E+00  0.00000000E+00  0.00000000E+00  0.00000000E+00
IOpCl                                      I                1
IROHF                                      I                0
Alpha Orbital Energies                     R   N=          56
 -1.09044833E+01 -1.09044832E+01 -9.42520756E-01 -9.42514613E-01 -5.92493956E-01
 -5.92491738E-01 -4.11016963E-01 -3.96615430E-01 -2.91789506E-01 -2.91789480E-01
 -8.25941094E-02 -8.25919610E-02 -2.89014911E-02 -2.89014738E-02 -2.72255826E-02
 -2.72255504E-02 -2.56049798E-02 -2.56040714E-02  3.17952867E-02  3.17961431E-02
  3.14435097E-01  3.14436312E-01  4.07573020E-01  4.07573057E-01  4.16650130E-01
  4.16650161E-01  4.43078888E-01  4.43079186E-01  5.09962726E-01  5.09964068E-01
  9.32932018E-01  9.32932090E-01  9.34858533E-01  9.34867227E-01  1.11774147E+00
  1.11774573E+00  1.12807299E+00  1.12807718E+00  1.39298606E+00  1.39298660E+00
  1.66576377E+00  1.66576442E+00  1.66853903E+00  1.66853997E+00  2.19643322E+00
  2.19643402E+00  2.31622809E+00  2.31622811E+00  2.47914068E+00  2.47914079E+00
  2.49347713E+00  2.49347722E+00  2.97280094E+00  2.97280143E+00  2.32786633E+01
  2.32786646E+01
Beta Orbital Energies                      R   N=          56
 -1.09003394E+01 -1.09003392E+01 -9.18920029E-01 -9.18919802E-01 -5.78558876E-01
 -5.78558860E-01 -2.72978608E-01 -2.72978560E-01 -2.56656560E-01 -2.56656507E-01
 -8.45399399E-02 -8.45399130E-02 -2.57955065E-02 -2.57954917E-02 -2.09241653E-02
 -2.09241478E-02 -1.16571006E-02 -1.16570795E-02  4.98231589E-02  4.98234325E-02
  3.07878930E-01  3.07879032E-01  4.12202572E-01  4.12202608E-01  4.14769977E-01
  4.14770014E-01  4.73064573E-01  4.73064810E-01  5.30964285E-01  5.30964698E-01
  1.00381300E+00  1.00381326E+00  1.01283523E+00  1.01283550E+00  1.15034822E+00
  1.15034825E+00  1.15044975E+00  1.15044978E+00  1.39698982E+00  1.39699021E+00
  1.68285581E+00  1.68285650E+00  1.68963282E+00  1.68963350E+00  2.35403376E+00
  2.35403414E+00  2.36354572E+00  2.36354758E+00  2.50526133E+00  2.50526142E+00
  2.52882316E+00  2.52882325E+00  3.06563756E+00  3.06563885E+00  2.32917627E+01
  2.32917641E+01
Alpha MO coefficients                      R   N=        3136
  5.43922048E-01  4.48123486E-01 -1.96408203E-03 -1.12559344E-11  1.14936113E-12
  9.01201103E-03 -1.13783609E-03 -6.99928704E-12  5.86397178E-13 -3.82234356E-03
 -7.23099205E-05 -4.09937220E-13 -1.26644948E-13  4.18707447E-04  6.22575267E-04
  3.68704142E-12 -2.64144025E-13 -4.74106374E-04 -9.33478524E-13  1.69892911E-05
  8.00238596E-04  9.52132299E-12 -1.49223649E-01 -1.22941552E-01 -5.38840734E-04
  3.44087582E-12  5.99298006E-14 -2.47242018E-03 -3.12167445E-04  2.15481906E-12
  1.15752799E-13  1.04860156E-03 -1.98525262E-05  1.41816033E-13  3.23345001E-15
 -1.14893418E-04  1.70800309E-04 -1.13764369E-12 -3.37183650E-14  1.30059066E-04
  7.80755170E-14 -4.64388596E-06 -2.19543918E-04  2.92188532E-12  3.55829398E-04
 -2.53284903E-03  2.10638790E-03 -1.78185935E-03 -1.06021403E-11  9.08942316E-13
 -9.76222535E-05  6.94899762E-04 -5.77863933E-04 -4.88853188E-04  3.25841337E-12
  1.25313830E-13  1.49223653E-01  1.22941559E-01 -5.38841307E-04 -3.08744990E-12
  3.14062023E-13  2.47242863E-03 -3.12160422E-04 -1.91903424E-12  1.59057393E-13
 -1.04870656E-03 -1.98211335E-05 -1.11313144E-13 -3.63240973E-14  1.14844353E-04
  1.70804404E-04  1.01162074E-12 -7.25784735E-14 -1.30084103E-04 -2.56243423E-13
  4.68033778E-06  2.19544147E-04  2.61211669E-12  5.43922049E-01  4.48123486E-01
  1.96408230E-03 -1.25407779E-11 -2.24362131E-13  9.01202390E-03  1.13784669E-03
 -7.84835876E-12 -4.27851208E-13 -3.82237039E-03  7.23010587E-05 -5.12945479E-13
 -1.78158082E-14  4.18689559E-04 -6.22578128E-04  4.14721242E-12  1.21459092E-13
 -4.74118688E-04 -2.83321421E-13  1.69976195E-05  8.00242819E-04 -1.06505384E-11
  9.76187659E-05 -6.94863884E-04  5.77906423E-04 -4.88846248E-04 -2.90868804E-12
  2.49288603E-13  3.55826527E-04 -2.53285660E-03  2.10640931E-03  1.78186716E-03
 -1.18765148E-11 -4.58336380E-13  7.83173329E-02  1.27855793E-01  5.54535004E-02
  3.61184791E-10 -8.51270042E-12 -3.77045011E-01  8.50746035E-02  5.60586262E-10
 -1.00094773E-11 -2.38073955E-01  3.17888544E-02  2.06573857E-10 -5.03761991E-12
  5.38167825E-03  2.24406811E-03  1.22306950E-11 -2.65299748E-12  4.04334371E-03
  5.88018453E-12  3.09357384E-04 -7.38528685E-03 -8.73856170E-11 -8.11009196E-02
 -1.32400094E-01  5.74246194E-02 -4.27120542E-10 -4.09114704E-11  3.90446112E-01
  8.80985537E-02 -6.64386913E-10 -6.83957302E-11  2.46535317E-01  3.29186716E-02
 -2.43973209E-10 -2.22154728E-11 -5.57314250E-03  2.32381327E-03 -1.38454986E-11
  5.13886655E-13 -4.18706796E-03 -5.43754709E-12 -3.20272137E-04  7.64783123E-03
 -1.01508418E-10 -9.68187490E-02 -1.20399911E-01  1.89802642E-03 -1.65582274E-02
 -1.02750322E-10  5.70184020E-12  1.00260123E-01  1.24679488E-01 -1.96535040E-03
 -1.71467758E-02  1.20325472E-10  8.00335844E-12 -8.11007519E-02 -1.32399891E-01
 -5.74260410E-02 -3.73851464E-10  8.49494970E-12  3.90447350E-01 -8.81004802E-02
 -5.80240743E-10  9.86045727E-12  2.46529050E-01 -3.29172843E-02 -2.13649085E-10
  4.75773754E-12 -5.57853183E-03 -2.32335253E-03 -1.26394605E-11  2.70926081E-12
 -4.18829037E-03 -6.07377655E-12 -3.18817918E-04  7.64802440E-03  9.04809458E-11
 -7.83171231E-02 -1.27855516E-01  5.54551638E-02 -4.12278833E-10 -3.98492305E-11
  3.77046002E-01  8.50767863E-02 -6.41294519E-10 -6.65869532E-11  2.38067063E-01
  3.17874272E-02 -2.35315050E-10 -2.19395746E-11 -5.38723940E-03  2.24359396E-03
 -1.33423664E-11  4.56336362E-13 -4.04454888E-03 -5.26816321E-12 -3.07797310E-04
  7.38557220E-03 -9.80124951E-11  1.00261159E-01  1.24683517E-01 -1.96106290E-03
  1.71471857E-02  1.06417723E-10 -5.92781849E-12  9.68200812E-02  1.20404257E-01
 -1.89362139E-03 -1.65586693E-02  1.16211812E-10  7.70445686E-12  4.25264302E-02
  7.09006323E-02 -1.65182321E-01 -8.70873487E-10  1.57774328E-10 -2.19770153E-01
 -2.44363225E-01 -1.27913610E-09  2.38687699E-10 -2.62861783E-01 -1.39465624E-01
 -7.04919572E-10  1.52684774E-10 -1.79992777E-02  2.26688660E-03  1.10597774E-11
 -3.22669562E-12 -1.48218908E-02 -2.58754853E-11  4.40273093E-06  2.56669192E-02
  3.05574043E-10 -4.30339931E-02 -7.17468499E-02 -1.67153673E-01  9.58259865E-10
 -5.36752184E-11  2.22393173E-01 -2.47279507E-01  1.40472024E-09 -8.74695699E-11
  2.65999156E-01 -1.41129990E-01  7.67206132E-10 -7.02272641E-11  1.82140449E-02
  2.29394143E-03 -1.19853172E-11  1.41311830E-12  1.49987759E-02  1.33538914E-11
 -4.44257842E-06 -2.59732434E-02  3.46510787E-10  9.48334664E-02  1.71143084E-01
  7.90037410E-02  7.83862541E-03  5.36548317E-11  8.64914261E-13 -9.59651953E-02
 -1.73185445E-01 -7.99465610E-02  7.93215804E-03 -6.27388099E-11 -8.26524475E-12
 -4.30350365E-02 -7.17486173E-02  1.67153246E-01  8.81615931E-10 -1.60288241E-10
  2.22399922E-01  2.47279022E-01  1.29495052E-09 -2.42529543E-10  2.65998676E-01
  1.41132338E-01  7.13848112E-10 -1.55406148E-10  1.82083351E-02 -2.29345642E-03
 -1.11451225E-11  3.19001152E-12  1.49979612E-02  2.62313114E-11 -3.35715391E-06
 -2.59731741E-02 -3.09250186E-10 -4.25275382E-02 -7.09025108E-02 -1.65181925E-01
  9.47343141E-10 -5.37403832E-11  2.19777243E-01 -2.44362692E-01  1.38876044E-09
 -8.75371884E-11  2.62861894E-01 -1.39467823E-01  7.58726034E-10 -7.03898515E-11
  1.79935524E-02  2.26640944E-03 -1.17923504E-11  1.31418679E-12  1.48210777E-02
  1.31445551E-11 -3.30501594E-06 -2.56668646E-02  3.42457084E-10 -9.59640076E-02
 -1.73182265E-01 -7.99431453E-02 -7.93172385E-03 -5.42664914E-11 -9.23137836E-13
 -9.48322057E-02 -1.71139715E-01 -7.90002946E-02  7.83816465E-03 -6.19666957E-11
 -8.21981849E-12  1.97521428E-12  2.97574549E-12 -7.01396555E-10  1.01450270E-01
 -1.81841962E-01 -7.50791585E-12 -1.10394508E-09  1.59702255E-01 -2.86253753E-01
 -1.34158197E-11 -9.97408507E-10  1.44438360E-01 -2.58893888E-01 -5.89234884E-12
 -8.25966365E-11  1.19484702E-02 -2.14166030E-02 -4.12182433E-12  1.66562365E-02
  1.10711851E-10  1.25946145E-10 -9.29251296E-03 -1.48228895E-12 -2.24569668E-12
 -6.34423962E-10 -1.01437038E-01  1.81849352E-01  4.49052961E-12 -9.98571350E-10
 -1.59681432E-01  2.86265397E-01  1.39108601E-11 -9.01166947E-10 -1.44419529E-01
  2.58904421E-01  5.04015192E-12 -7.41849021E-11 -1.19469114E-02  2.14174724E-02
 -2.14502284E-11  1.66569286E-02 -1.18385066E-10 -1.28628061E-10 -9.29130944E-03
  3.72000417E-12  6.55795727E-12  3.66003358E-12 -5.48411959E-11  7.99524065E-03
 -1.43308086E-02 -3.02987967E-12 -5.70694063E-12 -5.20786326E-12 -4.96275947E-11
 -7.99420448E-03  1.43314028E-02 -2.38535097E-12 -3.67355630E-12  7.01970091E-10
 -1.01447222E-01  1.81836627E-01  1.01164671E-11  1.10479510E-09 -1.59696084E-01
  2.86242898E-01  1.42182750E-11  9.98775351E-10 -1.44432831E-01  2.58884173E-01
  3.46608325E-12  8.28422119E-11 -1.19545583E-02  2.14275454E-02  4.44240983E-12
 -1.67485095E-02 -1.10653286E-10 -1.26449218E-10  9.34398630E-03 -1.85201149E-12
 -2.87478870E-12 -6.34936587E-10 -1.01433974E-01  1.81843986E-01  6.84576539E-12
 -9.99328965E-10 -1.59675235E-01  2.86254492E-01  1.46149011E-11 -9.02409683E-10
 -1.44413976E-01  2.58894662E-01  2.83792353E-12 -7.44112276E-11 -1.19529967E-02
  2.14284116E-02 -2.11490825E-11  1.67492024E-02 -1.18323432E-10 -1.29075254E-10
 -9.34277447E-03 -3.82852850E-12 -6.35007072E-12 -2.63915597E-12  5.51104445E-11
 -8.02147188E-03  1.43778368E-02 -3.12350669E-12 -5.50422077E-12 -4.26682599E-12
 -4.98716764E-11 -8.02043093E-03  1.43784304E-02 -4.26370911E-11 -6.40644119E-11
 -1.21625669E-09  2.31564057E-01  1.29190946E-01  1.50514118E-10 -1.96522273E-09
  3.74156527E-01  2.08743745E-01  3.26936098E-10 -1.93573259E-09  3.57278738E-01
  1.99327148E-01  1.11930331E-10 -3.56344922E-10  6.77533294E-02  3.77998078E-02
  2.55458157E-11 -1.17734942E-02 -9.73529741E-11  2.62926340E-10 -2.11028766E-02
  1.70625104E-11  2.56278092E-11 -4.28620628E-10 -6.86135736E-02 -3.82734135E-02
 -5.98587892E-11 -6.92719779E-10 -1.10864428E-01 -6.18412961E-02 -1.32102341E-10
 -6.85458022E-10 -1.05863468E-01 -5.90515892E-02 -4.52318248E-11 -1.25852596E-10
 -2.00756719E-02 -1.11983737E-02 -4.63570005E-12 -3.48795471E-03  3.99716082E-11
 -9.15235090E-11 -6.25289105E-03 -5.82895479E-11 -1.15941754E-10 -1.21761031E-10
 -1.20195860E-10  2.04644140E-02  1.14171721E-02  2.33816340E-11  4.67630928E-11
  4.96793660E-11 -4.30795581E-11 -6.06371131E-03 -3.38239202E-03 -1.26334765E-11
 -1.89825242E-11 -3.60368076E-10  6.86108419E-02  3.82783359E-02  4.45992360E-11
 -5.82280833E-10  1.10860012E-01  6.18492529E-02  9.68689174E-11 -5.73541873E-10
  1.05859232E-01  5.90591839E-02  3.31586083E-11 -1.05582351E-10  2.00748197E-02
  1.11998021E-02  7.56887650E-12 -3.48840032E-03 -2.88445852E-11  7.79027702E-11
 -6.25263771E-03 -5.75874925E-11 -8.64965672E-11  1.44661080E-09  2.31573462E-01
  1.29174063E-01  2.02033558E-10  2.33795512E-09  3.74171728E-01  2.08716470E-01
  4.45848015E-10  2.31344429E-09  3.57293269E-01  1.99301115E-01  1.52651669E-10
  4.24755499E-10  6.77560768E-02  3.77948708E-02  1.56436696E-11  1.17719642E-02
 -1.34905669E-10  3.08894380E-10  2.11037493E-02 -1.72709378E-11 -3.43503512E-11
 -3.60757473E-11 -3.56128183E-11  6.06346582E-03  3.38282549E-03 -7.89134441E-11
 -1.57824340E-10 -1.67667434E-10  1.45394790E-10  2.04652610E-02  1.14156892E-02
  2.56097975E-02  4.28903070E-02  4.99624299E-02  2.99345179E-10 -2.84631142E-11
 -1.25176171E-01  1.04896162E-01  6.13220944E-10 -6.28389519E-11 -5.17502507E-01
  1.28241443E-01  7.94734166E-10 -6.20808615E-11  9.57847782E-01 -3.86923644E-01
 -2.39680135E-09  1.77350498E-10  7.39300902E-03  1.86635518E-11 -1.60045919E-03
 -1.08293895E-02 -1.34832917E-10 -2.52044958E-02 -4.22115306E-02  4.91715085E-02
 -3.29015208E-10 -8.70271097E-12  1.23195260E-01  1.03235864E-01 -6.71782171E-10
 -1.29931613E-11  5.09311877E-01  1.26211018E-01 -8.78241441E-10 -3.58421628E-11
 -9.42690080E-01 -3.80800508E-01  2.65147135E-09  1.19300165E-10 -7.27624875E-03
  9.30077172E-13  1.57501348E-03  1.06579331E-02 -1.48498060E-10 -7.91348387E-04
  1.32707725E-01 -9.15453210E-02 -4.44842041E-03 -2.79008204E-11  1.52124084E-12
  7.78973551E-04 -1.30607272E-01  9.00983103E-02 -4.37796797E-03  3.10638592E-11
  2.00751088E-12  2.52035970E-02  4.22099278E-02  4.91749439E-02  2.94450235E-10
 -2.77033111E-11 -1.23187313E-01  1.03240449E-01  6.03266044E-10 -6.13572405E-11
 -5.09321096E-01  1.26229175E-01  7.82006480E-10 -6.06634873E-11  9.42669456E-01
 -3.80812566E-01 -2.35893602E-09  1.74583195E-10  7.27503660E-03  1.83258023E-11
 -1.57360283E-03 -1.06582083E-02 -1.32682717E-10  2.56088779E-02  4.28886826E-02
 -4.99654734E-02  3.34129973E-10  9.19132462E-12 -1.25168334E-01 -1.04900373E-01
  6.82305090E-10  1.37527688E-11 -5.17510497E-01 -1.28258090E-01  8.92195859E-10
  3.69173724E-11  9.57829098E-01  3.86936478E-01 -2.69418104E-09 -1.21174364E-10
  7.39226689E-03 -8.97701861E-13 -1.59878815E-03 -1.08295242E-02  1.50867844E-10
 -7.78018880E-04  1.30614945E-01 -9.00763860E-02 -4.37780442E-03 -2.74730693E-11
  1.52399224E-12 -7.90681121E-04  1.32715052E-01 -9.15266575E-02  4.44814835E-03
 -3.15788626E-11 -2.00876305E-12 -1.42844979E-11 -2.63316919E-11  6.79342631E-10
 -1.00866381E-01 -5.62755206E-02  8.67797779E-11  7.11624557E-10 -1.13442579E-01
 -6.32917479E-02  3.21066627E-10  2.51942477E-09 -3.61264199E-01 -2.01556652E-01
 -7.05930747E-10 -6.97878501E-09  9.87948943E-01  5.51198593E-01 -1.14198586E-12
  4.62468882E-03  3.63241832E-11 -1.17211658E-10  8.28908046E-03  6.83152997E-12
  1.24787472E-11  2.79613250E-10  3.39052833E-02  1.89132474E-02 -4.05305408E-11
  2.90317314E-10  3.81326598E-02  2.12712867E-02 -1.55487250E-10  1.04072259E-09
  1.21435543E-01  6.77397608E-02  3.27305829E-10 -2.89559240E-09 -3.32089679E-01
 -1.85248457E-01 -2.14012533E-12  1.55428179E-03 -1.69736158E-11  4.70515121E-11
  2.78630044E-03 -1.83971606E-11  4.10665649E-11  1.58592496E-11 -4.33438799E-11
  3.35036005E-03  1.86928277E-03  8.76885147E-12 -1.81800274E-11  1.44686952E-12
 -1.86437004E-11 -1.12618564E-03 -6.28230539E-04 -4.79320460E-12 -8.83697441E-12
  2.28295753E-10 -3.39038932E-02 -1.89157095E-02  2.91220305E-11  2.39146397E-10
 -3.81310835E-02 -2.12740473E-02  1.07825906E-10  8.46621833E-10 -1.21430606E-01
 -6.77486066E-02 -2.36978942E-10 -2.34524508E-09  3.32076189E-01  1.85272661E-01
 -3.85939224E-13  1.55448168E-03  1.22068681E-11 -3.93926077E-11  2.78618191E-03
 -2.03077725E-11 -3.70973530E-11 -8.31767087E-10 -1.00870472E-01 -5.62681660E-02
  1.20487136E-10 -8.63611514E-10 -1.13447179E-01 -6.32834773E-02  4.62397343E-10
 -3.09576694E-09 -3.61278902E-01 -2.01530337E-01 -9.73157369E-10  8.61353992E-09
  9.87989114E-01  5.51126609E-01  6.36313441E-12 -4.62409120E-03  5.04904492E-11
 -1.39970148E-10 -8.28942873E-03 -6.17833167E-12  1.37657280E-11  5.24928656E-12
 -1.45625355E-11  1.12614750E-03  6.28317054E-04 -2.60772285E-11  5.40090096E-11
 -4.45910766E-12  5.54537159E-11  3.35048227E-03  1.86903068E-03  1.14015488E-11
  1.85714629E-11 -3.80266805E-10  4.58366376E-02 -8.21558156E-02 -5.16642257E-11
 -3.56692317E-10  4.33118600E-02 -7.76300065E-02 -1.97073875E-10 -1.47948873E-09
  1.72858744E-01 -3.09824835E-01  4.70751119E-10  4.07928711E-09 -4.90181299E-01
  8.78583456E-01 -7.41877220E-12  6.45582995E-03  4.07847044E-11  5.44268161E-11
 -3.60183081E-03 -1.96275672E-12 -3.21968243E-12 -2.04051445E-10 -2.97411341E-02
  5.33159892E-02  8.85848802E-12 -1.93587433E-10 -2.81026059E-02  5.03783323E-02
  2.32120401E-11 -7.83491843E-10 -1.12160740E-01  2.01066687E-01 -1.17634517E-10
  2.14550900E-09  3.18060122E-01 -5.70177247E-01 -3.05892605E-12  4.18952582E-03
 -2.84329263E-11 -3.28688304E-11 -2.33701611E-03  9.63103947E-12 -2.66373280E-11
 -9.65543345E-11  2.79333812E-11 -2.58245215E-03  4.62876298E-03 -9.63003331E-13
  9.26568877E-12  6.65147873E-11  1.34976789E-11  1.67570764E-03 -3.00403688E-03
  7.39201082E-12  1.20402324E-11 -2.46743885E-10  2.97468167E-02 -5.33170434E-02
 -3.34908983E-11 -2.31453226E-10  2.81090959E-02 -5.03813345E-02 -1.27785266E-10
 -9.59948123E-10  1.12177975E-01 -2.01063144E-01  3.05226698E-10  2.64682244E-09
 -3.18101464E-01  5.70153705E-01 -4.81315055E-12  4.18983853E-03  2.64697254E-11