 Entering Gaussian System, Link 0=g16
 Initial command:
 /home/szhao/Apps/g16/l1.exe "/home/szhao/tmp/Gau-94104.inp" -scrdir="/home/szhao/tmp/"
 Default is to use a total of  16 processors:
                               16 via shared-memory
                                1 via Linda
 Entering Link 1 = /home/szhao/Apps/g16/l1.exe PID=     94106.
  
 Copyright (c) 1988,1990,1992,1993,1995,1998,2003,2009,2016,
            Gaussian, Inc.  All Rights Reserved.
  
 This is part of the Gaussian(R) 16 program.  It is based on
 the Gaussian(R) 09 system (copyright 2009, Gaussian, Inc.),
 the Gaussian(R) 03 system (copyright 2003, Gaussian, Inc.),
 the Gaussian(R) 98 system (copyright 1998, Gaussian, Inc.),
 the Gaussian(R) 94 system (copyright 1995, Gaussian, Inc.),
 the Gaussian 92(TM) system (copyright 1992, Gaussian, Inc.),
 the Gaussian 90(TM) system (copyright 1990, Gaussian, Inc.),
 the Gaussian 88(TM) system (copyright 1988, Gaussian, Inc.),
 the Gaussian 86(TM) system (copyright 1986, Carnegie Mellon
 University), and the Gaussian 82(TM) system (copyright 1983,
 Carnegie Mellon University). Gaussian is a federally registered
 trademark of Gaussian, Inc.
  
 This software contains proprietary and confidential information,
 including trade secrets, belonging to Gaussian, Inc.
  
 This software is provided under written license and may be
 used, copied, transmitted, or stored only in accord with that
 written license.
  
 The following legend is applicable only to US Government
 contracts under FAR:
  
                    RESTRICTED RIGHTS LEGEND
  
 Use, reproduction and disclosure by the US Government is
 subject to restrictions as set forth in subparagraphs (a)
 and (c) of the Commercial Computer Software - Restricted
 Rights clause in FAR 52.227-19.
  
 Gaussian, Inc.
 340 Quinnipiac St., Bldg. 40, Wallingford CT 06492
  
  
 ---------------------------------------------------------------
 Warning -- This program may not be used in any manner that
 competes with the business of Gaussian, Inc. or will provide
 assistance to any competitor of Gaussian, Inc.  The licensee
 of this program is prohibited from giving any competitor of
 Gaussian, Inc. access to this program.  By using this program,
 the user acknowledges that Gaussian, Inc. is engaged in the
 business of creating and licensing software in the field of
 computational chemistry and represents and warrants to the
 licensee that it is not a competitor of Gaussian, Inc. and that
 it will not use this program in any manner prohibited above.
 ---------------------------------------------------------------
  

 Cite this work as:
 Gaussian 16, Revision A.03,
 M. J. Frisch, G. W. Trucks, H. B. Schlegel, G. E. Scuseria, 
 M. A. Robb, J. R. Cheeseman, G. Scalmani, V. Barone, 
 G. A. Petersson, H. Nakatsuji, X. Li, M. Caricato, A. V. Marenich, 
 J. Bloino, B. G. Janesko, R. Gomperts, B. Mennucci, H. P. Hratchian, 
 J. V. Ortiz, A. F. Izmaylov, J. L. Sonnenberg, D. Williams-Young, 
 F. Ding, F. Lipparini, F. Egidi, J. Goings, B. Peng, A. Petrone, 
 T. Henderson, D. Ranasinghe, V. G. Zakrzewski, J. Gao, N. Rega, 
 G. Zheng, W. Liang, M. Hada, M. Ehara, K. Toyota, R. Fukuda, 
 J. Hasegawa, M. Ishida, T. Nakajima, Y. Honda, O. Kitao, H. Nakai, 
 T. Vreven, K. Throssell, J. A. Montgomery, Jr., J. E. Peralta, 
 F. Ogliaro, M. J. Bearpark, J. J. Heyd, E. N. Brothers, K. N. Kudin, 
 V. N. Staroverov, T. A. Keith, R. Kobayashi, J. Normand, 
 K. Raghavachari, A. P. Rendell, J. C. Burant, S. S. Iyengar, 
 J. Tomasi, M. Cossi, J. M. Millam, M. Klene, C. Adamo, R. Cammi, 
 J. W. Ochterski, R. L. Martin, K. Morokuma, O. Farkas, 
 J. B. Foresman, and D. J. Fox, Gaussian, Inc., Wallingford CT, 2016.
 
 ******************************************
 Gaussian 16:  ES64L-G16RevA.03 25-Dec-2016
                13-Nov-2024 
 ******************************************
 %chk=opt.chk
 %mem=16GB
 %nprocshared=28
 Will use up to   28 processors via shared memory.
 --------------------------------------------
 #p opt UM062X/6-311+G** nosymm int=superfine
 --------------------------------------------
 1/18=20,19=15,26=5,38=1/1,3;
 2/9=110,12=2,15=1,17=6,18=5,40=1/2;
 3/5=4,6=6,7=111,11=2,25=1,30=1,71=1,74=-55,75=-7,116=2/1,2,3;
 4//1;
 5/5=2,38=5/2;
 6/7=2,8=2,9=2,10=2,28=1/1;
 7/30=1/1,2,3,16;
 1/18=20,19=15,26=5/3(2);
 2/9=110,15=1/2;
 99//99;
 2/9=110,15=1/2;
 3/5=4,6=6,7=111,11=2,25=1,30=1,71=1,74=-55,75=-7,116=2/1,2,3;
 4/5=5,16=3,69=1/1;
 5/5=2,38=5/2;
 7/30=1/1,2,3,16;
 1/18=20,19=15,26=5/3(-5);
 2/9=110,15=1/2;
 6/7=2,8=2,9=2,10=2,19=2,28=1/1;
 99/9=1/99;
 Leave Link    1 at Wed Nov 13 13:21:29 2024, MaxMem=  2147483648 cpu:               1.6 elap:               0.1
 (Enter /home/szhao/Apps/g16/l101.exe)
 -------------------
 Title Card Required
 -------------------
 Symbolic Z-matrix:
 Charge =  1 Multiplicity = 2
 C                    -1   -1.1984    0.        0. 
 C                    -1    1.1984    0.        0. 
 H                    0     1.24802  -0.93683   0.54223 
 H                    0    -1.24677  -0.93793  -0.54043 
 H                    0     1.24751   0.93804   0.54019 
 H                    0     1.24689  -0.00115  -1.08249 
 H                    0    -1.24797   0.93691  -0.54208 
 H                    0    -1.24742   0.00092   1.08246 
 
 Add virtual bond connecting atoms C2         and C1         Dist= 4.53D+00.
 ITRead=  2  2  0  0  0  0  0  0
 MicOpt= -2 -2 -1 -1 -1 -1 -1 -1
 NAtoms=      8 NQM=        6 NQMF=       2 NMMI=      0 NMMIF=      0
                NMic=       0 NMicF=      0.
                    Isotopes and Nuclear Properties:
 (Nuclear quadrupole moments (NQMom) in fm**2, nuclear magnetic moments (NMagM)
  in nuclear magnetons)

  Atom         1           2           3           4           5           6           7           8
 IAtWgt=          12          12           1           1           1           1           1           1
 AtmWgt=  12.0000000  12.0000000   1.0078250   1.0078250   1.0078250   1.0078250   1.0078250   1.0078250
 NucSpn=           0           0           1           1           1           1           1           1
 AtZEff=  -0.0000000  -0.0000000  -0.0000000  -0.0000000  -0.0000000  -0.0000000  -0.0000000  -0.0000000
 NQMom=    0.0000000   0.0000000   0.0000000   0.0000000   0.0000000   0.0000000   0.0000000   0.0000000
 NMagM=    0.0000000   0.0000000   2.7928460   2.7928460   2.7928460   2.7928460   2.7928460   2.7928460
 AtZNuc=   6.0000000   6.0000000   1.0000000   1.0000000   1.0000000   1.0000000   1.0000000   1.0000000
 Leave Link  101 at Wed Nov 13 13:21:30 2024, MaxMem=  2147483648 cpu:              23.9 elap:               0.9
 (Enter /home/szhao/Apps/g16/l103.exe)

 GradGradGradGradGradGradGradGradGradGradGradGradGradGradGradGradGradGrad
 Berny optimization.
 Initialization pass.
                           ----------------------------
                           !    Initial Parameters    !
                           ! (Angstroms and Degrees)  !
 --------------------------                            --------------------------
 ! Name  Definition              Value          Derivative Info.                !
 --------------------------------------------------------------------------------
 ! X1    R(1,-1)                -1.1984         Frozen                          !
 ! Y1    R(1,-2)                 0.0            Frozen                          !
 ! Z1    R(1,-3)                 0.0            Frozen                          !
 ! X2    R(2,-1)                 1.1984         Frozen                          !
 ! Y2    R(2,-2)                 0.0            Frozen                          !
 ! Z2    R(2,-3)                 0.0            Frozen                          !
 ! R1    R(1,4)                  1.0836         estimate D2E/DX2                !
 ! R2    R(1,7)                  1.0836         estimate D2E/DX2                !
 ! R3    R(1,8)                  1.0836         estimate D2E/DX2                !
 ! R4    R(2,3)                  1.0836         estimate D2E/DX2                !
 ! R5    R(2,5)                  1.0836         estimate D2E/DX2                !
 ! R6    R(2,6)                  1.0836         estimate D2E/DX2                !
 ! A1    A(2,1,4)               92.5582         estimate D2E/DX2                !
 ! A2    A(2,1,7)               92.6219         estimate D2E/DX2                !
 ! A3    A(2,1,8)               92.5928         estimate D2E/DX2                !
 ! A4    A(4,1,7)              119.7944         estimate D2E/DX2                !
 ! A5    A(4,1,8)              119.7988         estimate D2E/DX2                !
 ! A6    A(7,1,8)              119.799          estimate D2E/DX2                !
 ! A7    A(1,2,3)               92.6246         estimate D2E/DX2                !
 ! A8    A(1,2,5)               92.5974         estimate D2E/DX2                !
 ! A9    A(1,2,6)               92.5646         estimate D2E/DX2                !
 ! A10   A(3,2,5)              119.7961         estimate D2E/DX2                !
 ! A11   A(3,2,6)              119.7978         estimate D2E/DX2                !
 ! A12   A(5,2,6)              119.7962         estimate D2E/DX2                !
 ! D1    D(4,1,2,3)            -60.0122         estimate D2E/DX2                !
 ! D2    D(4,1,2,5)            179.9859         estimate D2E/DX2                !
 ! D3    D(4,1,2,6)             59.9887         estimate D2E/DX2                !
 ! D4    D(7,1,2,3)            179.9909         estimate D2E/DX2                !
 ! D5    D(7,1,2,5)             59.9891         estimate D2E/DX2                !
 ! D6    D(7,1,2,6)            -60.0082         estimate D2E/DX2                !
 ! D7    D(8,1,2,3)             59.9867         estimate D2E/DX2                !
 ! D8    D(8,1,2,5)            -60.0151         estimate D2E/DX2                !
 ! D9    D(8,1,2,6)            179.9877         estimate D2E/DX2                !
 --------------------------------------------------------------------------------
 Trust Radius=3.00D-01 FncErr=1.00D-07 GrdErr=1.00D-07 EigMax=2.50D+02 EigMin=1.00D-04
 Number of steps in this run=     43 maximum allowed number of steps=    100.
 GradGradGradGradGradGradGradGradGradGradGradGradGradGradGradGradGradGrad

 Leave Link  103 at Wed Nov 13 13:21:30 2024, MaxMem=  2147483648 cpu:               1.0 elap:               0.1
 (Enter /home/szhao/Apps/g16/l202.exe)
                          Input orientation:                          
 ---------------------------------------------------------------------
 Center     Atomic      Atomic             Coordinates (Angstroms)
 Number     Number       Type             X           Y           Z
 ---------------------------------------------------------------------
      1          6           0       -1.198404    0.000000    0.000000
      2          6           0        1.198404    0.000000    0.000000
      3          1           0        1.248024   -0.936832    0.542231
      4          1           0       -1.246769   -0.937931   -0.540431
      5          1           0        1.247509    0.938036    0.540185
      6          1           0        1.246889   -0.001152   -1.082495
      7          1           0       -1.247972    0.936911   -0.542078
      8          1           0       -1.247422    0.000919    1.082457
 ---------------------------------------------------------------------
                    Distance matrix (angstroms):
                    1          2          3          4          5
     1  C    0.000000
     2  C    2.396809   0.000000
     3  H    2.675197   1.083573   0.000000
     4  H    1.083568   2.674071   2.719587   0.000000
     5  H    2.674735   1.083569   1.874869   3.302788   0.000000
     6  H    2.674184   1.083581   1.874895   2.718404   1.874877
     7  H    1.083563   2.675147   3.304033   1.874843   2.720059
     8  H    1.083567   2.674655   2.720013   1.874888   2.719729
                    6          7          8
     6  H    0.000000
     7  H    2.719622   0.000000
     8  H    3.302818   1.874885   0.000000
 Symmetry turned off by external request.
 Stoichiometry    C2H6(1+,2)
 Framework group  C1[X(C2H6)]
 Deg. of freedom    18
 Full point group                 C1      NOp   1
 Rotational constants (GHZ):          71.3274761          10.6574376          10.6574023
 Leave Link  202 at Wed Nov 13 13:21:30 2024, MaxMem=  2147483648 cpu:               2.6 elap:               0.1
 (Enter /home/szhao/Apps/g16/l301.exe)
 Standard basis: 6-311+G(d,p) (5D, 7F)
 Ernie: Thresh=  0.10000D-02 Tol=  0.10000D-05 Strict=F.
    80 basis functions,   120 primitive gaussians,    82 cartesian basis functions
     9 alpha electrons        8 beta electrons
       nuclear repulsion energy        35.9934485898 Hartrees.
 IExCor= 4336 DFT=T Ex+Corr=M062X ExCW=0 ScaHFX=  0.540000
 ScaDFX=  1.000000  1.000000  1.000000  1.000000 ScalE2=  1.000000  1.000000
 IRadAn=      7 IRanWt=     -1 IRanGd=            0 ICorTp=0 IEmpDi=  4
 NAtoms=    8 NActive=    8 NUniq=    8 SFac= 1.00D+00 NAtFMM=   60 NAOKFM=F Big=F
 Integral buffers will be    131072 words long.
 Raffenetti 2 integral format.
 Two-electron integral symmetry is turned off.
 Leave Link  301 at Wed Nov 13 13:21:30 2024, MaxMem=  2147483648 cpu:               2.3 elap:               0.1
 (Enter /home/szhao/Apps/g16/l302.exe)
 NPDir=0 NMtPBC=     1 NCelOv=     1 NCel=       1 NClECP=     1 NCelD=      1
         NCelK=      1 NCelE2=     1 NClLst=     1 CellRange=     0.0.
 One-electron integrals computed using PRISM.
 NBasis=    80 RedAO= T EigKep=  1.30D-03  NBF=    80
 NBsUse=    80 1.00D-06 EigRej= -1.00D+00 NBFU=    80
 Precomputing XC quadrature grid using
 IXCGrd= 4 IRadAn=           7 IRanWt=          -1 IRanGd=           0 AccXCQ= 0.00D+00.
 Generated NRdTot=       0 NPtTot=           0 NUsed=           0 NTot=          32
 NSgBfM=    82    82    82    82    82 MxSgAt=     8 MxSgA2=     8.
 Leave Link  302 at Wed Nov 13 13:21:30 2024, MaxMem=  2147483648 cpu:               9.8 elap:               0.4
 (Enter /home/szhao/Apps/g16/l303.exe)
 DipDrv:  MaxL=1.
 Leave Link  303 at Wed Nov 13 13:21:31 2024, MaxMem=  2147483648 cpu:               3.4 elap:               0.1
 (Enter /home/szhao/Apps/g16/l401.exe)
 ExpMin= 4.38D-02 ExpMax= 4.56D+03 ExpMxC= 6.82D+02 IAcc=3 IRadAn=         7 AccDes= 0.00D+00
 Harris functional with IExCor= 1009 and IRadAn=       7 diagonalized for initial guess.
 HarFok:  IExCor= 1009 AccDes= 0.00D+00 IRadAn=         7 IDoV= 1 UseB2=F ITyADJ=14
 ICtDFT=  3500011 ScaDFX=  1.000000  1.000000  1.000000  1.000000
 FoFCou: FMM=F IPFlag=           0 FMFlag=      100000 FMFlg1=           0
         NFxFlg=           0 DoJE=T BraDBF=F KetDBF=T FulRan=T
         wScrn=  0.000000 ICntrl=       500 IOpCl=  0 I1Cent=   200000004 NGrid=           0
         NMat0=    1 NMatS0=      1 NMatT0=    0 NMatD0=    1 NMtDS0=    0 NMtDT0=    0
 Symmetry not used in FoFCou.
 Harris En= -79.3768874716015    
 JPrj=0 DoOrth=F DoCkMO=F.
 Initial guess <Sx>= 0.0000 <Sy>= 0.0000 <Sz>= 0.5000 <S**2>= 0.7500 S= 0.5000
 Leave Link  401 at Wed Nov 13 13:21:31 2024, MaxMem=  2147483648 cpu:              12.0 elap:               0.5
 (Enter /home/szhao/Apps/g16/l502.exe)
 Keep R1 and R2 ints in memory in canonical form, NReq=35964362.
 FoFCou: FMM=F IPFlag=           0 FMFlag=           0 FMFlg1=           0
         NFxFlg=           0 DoJE=F BraDBF=F KetDBF=F FulRan=T
         wScrn=  0.000000 ICntrl=       600 IOpCl=  0 I1Cent=           0 NGrid=           0
         NMat0=    1 NMatS0=   3240 NMatT0=    0 NMatD0=    1 NMtDS0=    0 NMtDT0=    0
 Symmetry not used in FoFCou.
 Two-electron integral symmetry not used.
 UHF open shell SCF:
 Using DIIS extrapolation, IDIIS=  1040.
 NGot=  2147483648 LenX=  2136966234 LenY=  2136959069
 Requested convergence on RMS density matrix=1.00D-08 within 128 cycles.
 Requested convergence on MAX density matrix=1.00D-06.
 Requested convergence on             energy=1.00D-06.
 No special actions if energy rises.

 Cycle   1  Pass 1  IDiag  1:
 E= -79.3418308563911    
 DIIS: error= 2.64D-02 at cycle   1 NSaved=   1.
 NSaved= 1 IEnMin= 1 EnMin= -79.3418308563911     IErMin= 1 ErrMin= 2.64D-02
 ErrMax= 2.64D-02  0.00D+00 EMaxC= 1.00D-01 BMatC= 1.05D-01 BMatP= 1.05D-01
 IDIUse=3 WtCom= 7.36D-01 WtEn= 2.64D-01
 Coeff-Com:  0.100D+01
 Coeff-En:   0.100D+01
 Coeff:      0.100D+01
 Gap=     0.276 Goal=   None    Shift=    0.000
 Gap=     0.388 Goal=   None    Shift=    0.000
 GapD=    0.276 DampG=1.000 DampE=0.500 DampFc=0.5000 IDamp=-1.
 Damping current iteration by 5.00D-01
 RMSDP=1.61D-03 MaxDP=4.58D-02              OVMax= 5.67D-02

 Cycle   2  Pass 1  IDiag  1:
 E= -79.3512116965528     Delta-E=       -0.009380840162 Rises=F Damp=T
 DIIS: error= 1.00D-02 at cycle   2 NSaved=   2.
 NSaved= 2 IEnMin= 2 EnMin= -79.3512116965528     IErMin= 2 ErrMin= 1.00D-02
 ErrMax= 1.00D-02  0.00D+00 EMaxC= 1.00D-01 BMatC= 1.70D-02 BMatP= 1.05D-01
 IDIUse=3 WtCom= 9.00D-01 WtEn= 1.00D-01
 Coeff-Com: -0.496D+00 0.150D+01
 Coeff-En:   0.000D+00 0.100D+01
 Coeff:     -0.446D+00 0.145D+01
 Gap=     0.272 Goal=   None    Shift=    0.000
 Gap=     0.378 Goal=   None    Shift=    0.000
 RMSDP=6.26D-04 MaxDP=9.72D-03 DE=-9.38D-03 OVMax= 1.98D-02

 Cycle   3  Pass 1  IDiag  1:
 E= -79.3594268073575     Delta-E=       -0.008215110805 Rises=F Damp=F
 DIIS: error= 2.00D-03 at cycle   3 NSaved=   3.
 NSaved= 3 IEnMin= 3 EnMin= -79.3594268073575     IErMin= 3 ErrMin= 2.00D-03
 ErrMax= 2.00D-03  0.00D+00 EMaxC= 1.00D-01 BMatC= 6.26D-04 BMatP= 1.70D-02
 IDIUse=3 WtCom= 9.80D-01 WtEn= 2.00D-02
 Coeff-Com: -0.144D+00 0.283D+00 0.861D+00
 Coeff-En:   0.000D+00 0.000D+00 0.100D+01
 Coeff:     -0.141D+00 0.277D+00 0.864D+00
 Gap=     0.273 Goal=   None    Shift=    0.000
 Gap=     0.381 Goal=   None    Shift=    0.000
 RMSDP=1.10D-04 MaxDP=3.81D-03 DE=-8.22D-03 OVMax= 3.94D-03

 Cycle   4  Pass 1  IDiag  1:
 E= -79.3596009888896     Delta-E=       -0.000174181532 Rises=F Damp=F
 DIIS: error= 3.97D-04 at cycle   4 NSaved=   4.
 NSaved= 4 IEnMin= 4 EnMin= -79.3596009888896     IErMin= 4 ErrMin= 3.97D-04
 ErrMax= 3.97D-04  0.00D+00 EMaxC= 1.00D-01 BMatC= 2.54D-05 BMatP= 6.26D-04
 IDIUse=3 WtCom= 9.96D-01 WtEn= 3.97D-03
 Coeff-Com: -0.234D-02-0.501D-02 0.881D-01 0.919D+00
 Coeff-En:   0.000D+00 0.000D+00 0.000D+00 0.100D+01
 Coeff:     -0.233D-02-0.499D-02 0.878D-01 0.920D+00
 Gap=     0.273 Goal=   None    Shift=    0.000
 Gap=     0.381 Goal=   None    Shift=    0.000
 RMSDP=3.04D-05 MaxDP=6.24D-04 DE=-1.74D-04 OVMax= 1.20D-03

 Cycle   5  Pass 1  IDiag  1:
 E= -79.3596115770018     Delta-E=       -0.000010588112 Rises=F Damp=F
 DIIS: error= 1.40D-04 at cycle   5 NSaved=   5.
 NSaved= 5 IEnMin= 5 EnMin= -79.3596115770018     IErMin= 5 ErrMin= 1.40D-04
 ErrMax= 1.40D-04  0.00D+00 EMaxC= 1.00D-01 BMatC= 3.36D-06 BMatP= 2.54D-05
 IDIUse=3 WtCom= 9.99D-01 WtEn= 1.40D-03
 Coeff-Com:  0.219D-01-0.427D-01-0.136D+00-0.656D-01 0.122D+01
 Coeff-En:   0.000D+00 0.000D+00 0.000D+00 0.000D+00 0.100D+01
 Coeff:      0.219D-01-0.426D-01-0.136D+00-0.655D-01 0.122D+01
 Gap=     0.273 Goal=   None    Shift=    0.000
 Gap=     0.382 Goal=   None    Shift=    0.000
 RMSDP=1.92D-05 MaxDP=3.42D-04 DE=-1.06D-05 OVMax= 6.29D-04

 Cycle   6  Pass 1  IDiag  1:
 E= -79.3596138634308     Delta-E=       -0.000002286429 Rises=F Damp=F
 DIIS: error= 2.14D-05 at cycle   6 NSaved=   6.
 NSaved= 6 IEnMin= 6 EnMin= -79.3596138634308     IErMin= 6 ErrMin= 2.14D-05
 ErrMax= 2.14D-05  0.00D+00 EMaxC= 1.00D-01 BMatC= 9.50D-08 BMatP= 3.36D-06
 IDIUse=1 WtCom= 1.00D+00 WtEn= 0.00D+00
 Coeff-Com: -0.499D-02 0.102D-01 0.269D-01-0.167D-01-0.299D+00 0.128D+01
 Coeff:     -0.499D-02 0.102D-01 0.269D-01-0.167D-01-0.299D+00 0.128D+01
 Gap=     0.273 Goal=   None    Shift=    0.000
 Gap=     0.382 Goal=   None    Shift=    0.000
 RMSDP=3.45D-06 MaxDP=6.82D-05 DE=-2.29D-06 OVMax= 1.07D-04

 Cycle   7  Pass 1  IDiag  1:
 E= -79.3596139323192     Delta-E=       -0.000000068888 Rises=F Damp=F
 DIIS: error= 4.58D-06 at cycle   7 NSaved=   7.
 NSaved= 7 IEnMin= 7 EnMin= -79.3596139323192     IErMin= 7 ErrMin= 4.58D-06
 ErrMax= 4.58D-06  0.00D+00 EMaxC= 1.00D-01 BMatC= 2.12D-09 BMatP= 9.50D-08
 IDIUse=1 WtCom= 1.00D+00 WtEn= 0.00D+00
 Coeff-Com:  0.106D-03-0.224D-03-0.109D-03 0.705D-02 0.877D-03-0.184D+00
 Coeff-Com:  0.118D+01
 Coeff:      0.106D-03-0.224D-03-0.109D-03 0.705D-02 0.877D-03-0.184D+00
 Coeff:      0.118D+01
 Gap=     0.273 Goal=   None    Shift=    0.000
 Gap=     0.382 Goal=   None    Shift=    0.000
 RMSDP=4.94D-07 MaxDP=1.10D-05 DE=-6.89D-08 OVMax= 2.34D-05

 Cycle   8  Pass 1  IDiag  1:
 E= -79.3596139336091     Delta-E=       -0.000000001290 Rises=F Damp=F
 DIIS: error= 6.21D-07 at cycle   8 NSaved=   8.
 NSaved= 8 IEnMin= 8 EnMin= -79.3596139336091     IErMin= 8 ErrMin= 6.21D-07
 ErrMax= 6.21D-07  0.00D+00 EMaxC= 1.00D-01 BMatC= 7.25D-11 BMatP= 2.12D-09
 IDIUse=1 WtCom= 1.00D+00 WtEn= 0.00D+00
 Coeff-Com:  0.795D-04-0.163D-03-0.312D-03 0.968D-03 0.298D-02-0.280D-01
 Coeff-Com:  0.676D-01 0.957D+00
 Coeff:      0.795D-04-0.163D-03-0.312D-03 0.968D-03 0.298D-02-0.280D-01
 Coeff:      0.676D-01 0.957D+00
 Gap=     0.273 Goal=   None    Shift=    0.000
 Gap=     0.382 Goal=   None    Shift=    0.000
 RMSDP=6.80D-08 MaxDP=2.14D-06 DE=-1.29D-09 OVMax= 5.66D-06

 Cycle   9  Pass 1  IDiag  1:
 E= -79.3596139336244     Delta-E=       -0.000000000015 Rises=F Damp=F
 DIIS: error= 5.88D-07 at cycle   9 NSaved=   9.
 NSaved= 9 IEnMin= 9 EnMin= -79.3596139336244     IErMin= 9 ErrMin= 5.88D-07
 ErrMax= 5.88D-07  0.00D+00 EMaxC= 1.00D-01 BMatC= 4.62D-11 BMatP= 7.25D-11
 IDIUse=1 WtCom= 1.00D+00 WtEn= 0.00D+00
 Coeff-Com:  0.263D-04-0.535D-04-0.130D-03-0.311D-03 0.115D-02 0.846D-02
 Coeff-Com: -0.109D+00 0.496D+00 0.604D+00
 Coeff:      0.263D-04-0.535D-04-0.130D-03-0.311D-03 0.115D-02 0.846D-02
 Coeff:     -0.109D+00 0.496D+00 0.604D+00
 Gap=     0.273 Goal=   None    Shift=    0.000
 Gap=     0.382 Goal=   None    Shift=    0.000
 RMSDP=2.90D-08 MaxDP=8.99D-07 DE=-1.52D-11 OVMax= 2.87D-06

 Cycle  10  Pass 1  IDiag  1:
 E= -79.3596139336381     Delta-E=       -0.000000000014 Rises=F Damp=F
 DIIS: error= 7.19D-08 at cycle  10 NSaved=  10.
 NSaved=10 IEnMin=10 EnMin= -79.3596139336381     IErMin=10 ErrMin= 7.19D-08
 ErrMax= 7.19D-08  0.00D+00 EMaxC= 1.00D-01 BMatC= 2.54D-13 BMatP= 4.62D-11
 IDIUse=1 WtCom= 1.00D+00 WtEn= 0.00D+00
 Coeff-Com: -0.961D-05 0.193D-04 0.409D-04 0.532D-04-0.433D-03-0.662D-03
 Coeff-Com:  0.196D-01-0.134D+00-0.118D+00 0.123D+01
 Coeff:     -0.961D-05 0.193D-04 0.409D-04 0.532D-04-0.433D-03-0.662D-03
 Coeff:      0.196D-01-0.134D+00-0.118D+00 0.123D+01
 Gap=     0.273 Goal=   None    Shift=    0.000
 Gap=     0.382 Goal=   None    Shift=    0.000
 RMSDP=4.90D-09 MaxDP=1.20D-07 DE=-1.37D-11 OVMax= 3.55D-07

 SCF Done:  E(UM062X) =  -79.3596139336     A.U. after   10 cycles
            NFock= 10  Conv=0.49D-08     -V/T= 2.0053
 <Sx>= 0.0000 <Sy>= 0.0000 <Sz>= 0.5000 <S**2>= 0.7539 S= 0.5019
 <L.S>=  0.00000000000    
 KE= 7.893760962229D+01 PE=-2.504928275118D+02 EE= 5.620215536605D+01
 Annihilation of the first spin contaminant:
 S**2 before annihilation     0.7539,   after     0.7500
 Leave Link  502 at Wed Nov 13 13:21:36 2024, MaxMem=  2147483648 cpu:             138.4 elap:               5.4
 (Enter /home/szhao/Apps/g16/l601.exe)
 Copying SCF densities to generalized density rwf, IOpCl= 1 IROHF=0.

 **********************************************************************

            Population analysis using the SCF density.

 **********************************************************************

 Alpha  occ. eigenvalues --  -10.85824 -10.85818  -1.07396  -1.02333  -0.77069
 Alpha  occ. eigenvalues --   -0.77067  -0.74324  -0.74323  -0.57861
 Alpha virt. eigenvalues --   -0.30533  -0.15744  -0.10796  -0.10796  -0.09879
 Alpha virt. eigenvalues --   -0.06518  -0.06229  -0.06228  -0.04582  -0.04579
 Alpha virt. eigenvalues --   -0.02625   0.01939   0.01942   0.04936   0.07237
 Alpha virt. eigenvalues --    0.19393   0.19400   0.25122   0.26028   0.26038
 Alpha virt. eigenvalues --    0.31221   0.39963   0.39964   0.40685   0.44685
 Alpha virt. eigenvalues --    0.44685   0.51986   0.60720   0.68967   0.80394
 Alpha virt. eigenvalues --    0.80400   0.87812   0.87816   1.19580   1.19732
 Alpha virt. eigenvalues --    1.19986   1.24317   1.24319   1.29207   1.29208
 Alpha virt. eigenvalues --    1.31458   1.53975   1.58616   1.64887   1.64892
 Alpha virt. eigenvalues --    1.69706   1.69709   1.74434   1.74439   1.76283
 Alpha virt. eigenvalues --    1.76292   2.18770   2.19933   2.19937   2.29378
 Alpha virt. eigenvalues --    2.29379   2.31833   2.38909   2.38915   2.44290
 Alpha virt. eigenvalues --    2.44297   2.45714   2.57664   2.63535   2.80439
 Alpha virt. eigenvalues --    3.45945   3.45950   3.51092   3.51093  23.69032
 Alpha virt. eigenvalues --   23.69300
  Beta  occ. eigenvalues --  -10.85610 -10.85610  -1.04165  -0.99725  -0.76295
  Beta  occ. eigenvalues --   -0.76294  -0.73700  -0.73699
  Beta virt. eigenvalues --   -0.35518  -0.21982  -0.15856  -0.11130  -0.11130
  Beta virt. eigenvalues --   -0.09204  -0.06607  -0.06606  -0.06544  -0.04303
  Beta virt. eigenvalues --   -0.04301  -0.01803   0.02341   0.02343   0.05360
  Beta virt. eigenvalues --    0.07683   0.19551   0.19557   0.25661   0.25671
  Beta virt. eigenvalues --    0.25881   0.31293   0.41295   0.41295   0.43613
  Beta virt. eigenvalues --    0.45967   0.45968   0.52795   0.62255   0.69987
  Beta virt. eigenvalues --    0.83410   0.83415   0.90414   0.90418   1.20879
  Beta virt. eigenvalues --    1.21127   1.23957   1.25829   1.25832   1.30408
  Beta virt. eigenvalues --    1.30409   1.36444   1.55665   1.60699   1.66854
  Beta virt. eigenvalues --    1.66858   1.71393   1.71396   1.75900   1.75906
  Beta virt. eigenvalues --    1.78192   1.78203   2.21256   2.21260   2.22202
  Beta virt. eigenvalues --    2.30857   2.30859   2.35744   2.41590   2.41597
  Beta virt. eigenvalues --    2.46817   2.46825   2.49261   2.62930   2.66792
  Beta virt. eigenvalues --    2.82668   3.50374   3.50379   3.55574   3.55576
  Beta virt. eigenvalues --   23.70294  23.70562
          Condensed to atoms (all electrons):
               1          2          3          4          5          6
     1  C    5.110856   0.076883  -0.007376   0.375552  -0.007351  -0.007359
     2  C    0.076883   5.110879   0.375597  -0.007360   0.375564   0.375551
     3  H   -0.007376   0.375597   0.401939  -0.000944  -0.016658  -0.016659
     4  H    0.375552  -0.007360  -0.000944   0.402038   0.000889  -0.000946
     5  H   -0.007351   0.375564  -0.016658   0.000889   0.401979  -0.016659
     6  H   -0.007359   0.375551  -0.016659  -0.000946  -0.016659   0.402028
     7  H    0.375599  -0.007376   0.000889  -0.016663  -0.000943  -0.000944
     8  H    0.375564  -0.007350  -0.000943  -0.016658  -0.000945   0.000889
               7          8
     1  C    0.375599   0.375564
     2  C   -0.007376  -0.007350
     3  H    0.000889  -0.000943
     4  H   -0.016663  -0.016658
     5  H   -0.000943  -0.000945
     6  H   -0.000944   0.000889
     7  H    0.401940  -0.016658
     8  H   -0.016658   0.401974
          Atomic-Atomic Spin Densities.
               1          2          3          4          5          6
     1  C    0.501882   0.106182  -0.004304  -0.006960  -0.004312  -0.004317
     2  C    0.106182   0.501885  -0.006964  -0.004317  -0.006960  -0.006959
     3  H   -0.004304  -0.006964  -0.017142   0.000199   0.001587   0.001587
     4  H   -0.006960  -0.004317   0.000199  -0.017120   0.000078   0.000200
     5  H   -0.004312  -0.006960   0.001587   0.000078  -0.017131   0.001589
     6  H   -0.004317  -0.006959   0.001587   0.000200   0.001589  -0.017113
     7  H   -0.006964  -0.004304   0.000078   0.001587   0.000199   0.000200
     8  H   -0.006960  -0.004313   0.000199   0.001589   0.000200   0.000078
               7          8
     1  C   -0.006964  -0.006960
     2  C   -0.004304  -0.004313
     3  H    0.000078   0.000199
     4  H    0.001587   0.001589
     5  H    0.000199   0.000200
     6  H    0.000200   0.000078
     7  H   -0.017145   0.001586
     8  H    0.001586  -0.017127
 Mulliken charges and spin densities:
               1          2
     1  C   -0.292368   0.574248
     2  C   -0.292387   0.574250
     3  H    0.264156  -0.024759
     4  H    0.264093  -0.024743
     5  H    0.264125  -0.024752
     6  H    0.264100  -0.024735
     7  H    0.264155  -0.024762
     8  H    0.264127  -0.024747
 Sum of Mulliken charges =   1.00000   1.00000
 Mulliken charges and spin densities with hydrogens summed into heavy atoms:
               1          2
     1  C    0.500007   0.499995
     2  C    0.499993   0.500005
 Electronic spatial extent (au):  <R**2>=            139.7950
 Charge=              1.0000 electrons
 Dipole moment (field-independent basis, Debye):
    X=              0.0001    Y=             -0.0000    Z=             -0.0000  Tot=              0.0001
 Quadrupole moment (field-independent basis, Debye-Ang):
   XX=             -4.9015   YY=            -10.8679   ZZ=            -10.8676
   XY=             -0.0014   XZ=              0.0008   YZ=             -0.0001
 Traceless Quadrupole moment (field-independent basis, Debye-Ang):
   XX=              3.9775   YY=             -1.9889   ZZ=             -1.9886
   XY=             -0.0014   XZ=              0.0008   YZ=             -0.0001
 Octapole moment (field-independent basis, Debye-Ang**2):
  XXX=             -0.0000  YYY=              0.0009  ZZZ=              0.0001  XYY=              0.0010
  XXY=              0.0015  XXZ=              0.0024  XZZ=             -0.0010  YZZ=             -0.0009
  YYZ=              0.0001  XYZ=              0.0005
 Hexadecapole moment (field-independent basis, Debye-Ang**3):
 XXXX=           -114.6203 YYYY=            -21.0507 ZZZZ=            -21.0506 XXXY=             -0.0041
 XXXZ=              0.0021 YYYX=              0.0109 YYYZ=              0.0001 ZZZX=             -3.6536
 ZZZY=             -0.0001 XXYY=            -21.6081 XXZZ=            -21.6116 YYZZ=             -7.0169
 XXYZ=             -0.0036 YYXZ=              3.6533 ZZXY=             -0.0107
 N-N= 3.599344858983D+01 E-N=-2.504928270132D+02  KE= 7.893760962229D+01
                          Isotropic Fermi Contact Couplings
        Atom                 a.u.       MegaHertz       Gauss      10(-4) cm-1
     1  C(13)              0.08441      94.89278      33.86010      31.65282
     2  C(13)              0.08439      94.87142      33.85248      31.64570
     3  H(1)              -0.00718     -32.11456     -11.45927     -10.71227
     4  H(1)              -0.00718     -32.08673     -11.44934     -10.70298
     5  H(1)              -0.00718     -32.09184     -11.45117     -10.70469
     6  H(1)              -0.00718     -32.07389     -11.44476     -10.69870
     7  H(1)              -0.00719     -32.12203     -11.46194     -10.71476
     8  H(1)              -0.00718     -32.09147     -11.45104     -10.70456
 --------------------------------------------------------
       Center         ----  Spin Dipole Couplings  ----
                      3XX-RR        3YY-RR        3ZZ-RR
 --------------------------------------------------------
     1   Atom        0.546258     -0.273128     -0.273130
     2   Atom        0.546273     -0.273136     -0.273137
     3   Atom        0.003919      0.018042     -0.021961
     4   Atom        0.003946      0.018162     -0.022108
     5   Atom        0.003935      0.018181     -0.022116
     6   Atom        0.003941     -0.042133      0.038192
     7   Atom        0.003923      0.018059     -0.021981
     8   Atom        0.003937     -0.042130      0.038193
 --------------------------------------------------------
                        XY            XZ            YZ
 --------------------------------------------------------
     1   Atom        0.000726     -0.000026     -0.000000
     2   Atom        0.000360     -0.000593     -0.000000
     3   Atom        0.000500     -0.000306     -0.034825
     4   Atom       -0.000570     -0.000341      0.034751
     5   Atom       -0.000532     -0.000334      0.034743
     6   Atom        0.000011      0.000660      0.000093
     7   Atom        0.000517     -0.000283     -0.034814
     8   Atom        0.000026      0.000634      0.000080
 --------------------------------------------------------


 ---------------------------------------------------------------------------------
              Anisotropic Spin Dipole Couplings in Principal Axis System
 ---------------------------------------------------------------------------------

       Atom             a.u.   MegaHertz   Gauss  10(-4) cm-1        Axes

              Baa    -0.2731   -36.651   -13.078   -12.226 -0.0001  0.1710  0.9853
     1 C(13)  Bbb    -0.2731   -36.651   -13.078   -12.226 -0.0009  0.9853 -0.1710
              Bcc     0.5463    73.303    26.156    24.451  1.0000  0.0009 -0.0000
 
              Baa    -0.2731   -36.652   -13.079   -12.226  0.0008 -0.1546  0.9880
     2 C(13)  Bbb    -0.2731   -36.652   -13.078   -12.226 -0.0003  0.9880  0.1546
              Bcc     0.5463    73.305    26.157    24.452  1.0000  0.0004 -0.0007
 
              Baa    -0.0421   -22.473    -8.019    -7.496  0.0003  0.5010  0.8655
     3 H(1)   Bbb     0.0039     2.086     0.744     0.696  0.9999 -0.0150  0.0083
              Bcc     0.0382    20.387     7.275     6.800  0.0171  0.8653 -0.5009
 
              Baa    -0.0421   -22.481    -8.022    -7.499  0.0002 -0.4993  0.8664
     4 H(1)   Bbb     0.0039     2.098     0.749     0.700  0.9998  0.0169  0.0095
              Bcc     0.0382    20.383     7.273     6.799 -0.0194  0.8662  0.4992
 
              Baa    -0.0421   -22.478    -8.021    -7.498  0.0005 -0.4992  0.8665
     5 H(1)   Bbb     0.0039     2.093     0.747     0.698  0.9998  0.0161  0.0087
              Bcc     0.0382    20.385     7.274     6.800 -0.0183  0.8664  0.4991
 
              Baa    -0.0421   -22.480    -8.022    -7.499 -0.0002  1.0000 -0.0012
     6 H(1)   Bbb     0.0039     2.096     0.748     0.699  0.9998  0.0002 -0.0193
              Bcc     0.0382    20.384     7.274     6.799  0.0193  0.0012  0.9998
 
              Baa    -0.0421   -22.474    -8.019    -7.497 -0.0003  0.5007  0.8656
     7 H(1)   Bbb     0.0039     2.088     0.745     0.696  0.9999 -0.0147  0.0089
              Bcc     0.0382    20.386     7.274     6.800  0.0172  0.8655 -0.5007
 
              Baa    -0.0421   -22.479    -8.021    -7.498 -0.0006  1.0000 -0.0010
     8 H(1)   Bbb     0.0039     2.094     0.747     0.699  0.9998  0.0005 -0.0185
              Bcc     0.0382    20.384     7.274     6.800  0.0185  0.0010  0.9998
 

 ---------------------------------------------------------------------------------

 No NMR shielding tensors so no spin-rotation constants.
 Leave Link  601 at Wed Nov 13 13:21:37 2024, MaxMem=  2147483648 cpu:               8.4 elap:               0.3
 (Enter /home/szhao/Apps/g16/l701.exe)
 ... and contract with generalized density number  0.
 Compute integral first derivatives.
 Leave Link  701 at Wed Nov 13 13:21:37 2024, MaxMem=  2147483648 cpu:               5.1 elap:               0.2
 (Enter /home/szhao/Apps/g16/l702.exe)
 L702 exits ... SP integral derivatives will be done elsewhere.
 Leave Link  702 at Wed Nov 13 13:21:37 2024, MaxMem=  2147483648 cpu:               2.6 elap:               0.1
 (Enter /home/szhao/Apps/g16/l703.exe)
 Integral derivatives from FoFJK, PRISM(SPDF).
 Compute integral first derivatives, UseDBF=F ICtDFT=           0.
 Calling FoFJK, ICntrl=      2127 FMM=F ISym2X=0 I1Cent= 0 IOpClX= 1 NMat=1 NMatS=1 NMatT=0.
 FoFJK:  IHMeth= 1 ICntrl=    2127 DoSepK=F KAlg= 0 I1Cent=           0 FoldK=F
 IRaf=         0 NMat=       1 IRICut=       1 DoRegI=T DoRafI=F ISym2E= 0 IDoP0=0 IntGTp=1.
 FoFCou: FMM=F IPFlag=           0 FMFlag=      100000 FMFlg1=         800
         NFxFlg=           0 DoJE=F BraDBF=F KetDBF=F FulRan=T
         wScrn=  0.000000 ICntrl=      2127 IOpCl=  1 I1Cent=           0 NGrid=           0
         NMat0=    1 NMatS0=      1 NMatT0=    0 NMatD0=    1 NMtDS0=    0 NMtDT0=    0
 Symmetry not used in FoFCou.
 Leave Link  703 at Wed Nov 13 13:21:39 2024, MaxMem=  2147483648 cpu:              39.6 elap:               1.4
 (Enter /home/szhao/Apps/g16/l716.exe)
 Dipole        = 3.20470190D-05-3.69957691D-06-1.72346097D-05
 -------------------------------------------------------------------
 Center     Atomic                   Forces (Hartrees/Bohr)
 Number     Number              X              Y              Z
 -------------------------------------------------------------------
      1        6          -0.000000000   -0.000000000   -0.000000000
      2        6          -0.000000000   -0.000000000   -0.000000000
      3        1           0.003250191   -0.000128468    0.000069468
      4        1          -0.003275632   -0.000136048   -0.000070556
      5        1           0.003259739    0.000132607    0.000072349
      6        1           0.003267358   -0.000000189   -0.000142907
      7        1          -0.003256314    0.000135550   -0.000072313
      8        1          -0.003265329   -0.000001182    0.000151163
 -------------------------------------------------------------------
 Cartesian Forces:  Max     0.003275632 RMS     0.001632936
 Leave Link  716 at Wed Nov 13 13:21:39 2024, MaxMem=  2147483648 cpu:               2.6 elap:               0.1
 (Enter /home/szhao/Apps/g16/l103.exe)

 GradGradGradGradGradGradGradGradGradGradGradGradGradGradGradGradGradGrad
 Berny optimization.
 FormGI is forming the generalized inverse of G from B-inverse, IUseBI=4.
 Internal  Forces:  Max     0.009797274 RMS     0.003700424
 Search for a local minimum.
 Step number   1 out of a maximum of   43
 All quantities printed in internal units (Hartrees-Bohrs-Radians)
 RMS Force = .31049D-02 SwitMx=.10000D-02 MixMth= 1
 Mixed Optimization -- RFO/linear search
 Second derivative matrix not updated -- first step.
 ITU=  0
     Eigenvalues ---    0.00230   0.08058   0.08058   0.08059   0.08059
     Eigenvalues ---    0.16000   0.16000   0.16000   0.16000   0.16000
     Eigenvalues ---    0.16000   0.35565   0.35566   0.35566   0.35567
     Eigenvalues ---    0.35567   0.355671000.000001000.000001000.00000
     Eigenvalues --- 1000.000001000.000001000.000001000.000001000.00000
     Eigenvalues --- 1000.000001000.000001000.000001000.000001000.00000
     Eigenvalues --- 1000.000001000.000001000.00000
 RFO step:  Lambda=-1.60883397D-03 EMin= 2.30000000D-03
 Linear search not attempted -- first point.
 Iteration  1 RMS(Cart)=  0.03455988 RMS(Int)=  0.00131565
 Iteration  2 RMS(Cart)=  0.00067935 RMS(Int)=  0.00112743
 Iteration  3 RMS(Cart)=  0.00000041 RMS(Int)=  0.00112743
 ITry= 1 IFail=0 DXMaxC= 8.11D-02 DCOld= 1.00D+10 DXMaxT= 3.00D-01 DXLimC= 3.00D+00 Rises=F
 Variable       Old X    -DE/DX   Delta X   Delta X   Delta X     New X
                                 (Linear)    (Quad)   (Total)
    X1       -2.26466  -0.00980   0.00000   0.00000   0.00000  -2.26466
    Y1        0.00000   0.00001   0.00000   0.00000   0.00000   0.00000
    Z1        0.00000   0.00000   0.00000   0.00000   0.00000   0.00000
    X2        2.26466   0.00978   0.00000   0.00000   0.00000   2.26466
    Y2        0.00000  -0.00001   0.00000   0.00000   0.00000   0.00000
    Z2        0.00000   0.00000   0.00000   0.00000   0.00000   0.00000
    R1        2.04765   0.00030   0.00000   0.00084   0.00084   2.04848
    R2        2.04764   0.00030   0.00000   0.00085   0.00085   2.04848
    R3        2.04764   0.00030   0.00000   0.00084   0.00084   2.04848
    R4        2.04766   0.00029   0.00000   0.00082   0.00082   2.04848
    R5        2.04765   0.00030   0.00000   0.00084   0.00084   2.04849
    R6        2.04767   0.00029   0.00000   0.00081   0.00081   2.04848
    A1        1.61545   0.00653   0.00000   0.04040   0.03966   1.65510
    A2        1.61656   0.00649   0.00000   0.04015   0.03941   1.65597
    A3        1.61605   0.00651   0.00000   0.04026   0.03952   1.65557
    A4        2.09081  -0.00101   0.00000  -0.00624  -0.00878   2.08203
    A5        2.09088  -0.00102   0.00000  -0.00632  -0.00887   2.08202
    A6        2.09089  -0.00102   0.00000  -0.00630  -0.00884   2.08204
    A7        1.61660   0.00648   0.00000   0.04007   0.03934   1.65594
    A8        1.61613   0.00650   0.00000   0.04019   0.03946   1.65559
    A9        1.61556   0.00651   0.00000   0.04029   0.03956   1.65511
   A10        2.09084  -0.00102   0.00000  -0.00625  -0.00878   2.08205
   A11        2.09087  -0.00102   0.00000  -0.00630  -0.00884   2.08203
   A12        2.09084  -0.00101   0.00000  -0.00630  -0.00884   2.08200
    D1       -1.04741   0.00001   0.00000   0.00009   0.00009  -1.04732
    D2        3.14135   0.00000   0.00000   0.00003   0.00003   3.14138
    D3        1.04700   0.00000   0.00000   0.00007   0.00007   1.04707
    D4        3.14143   0.00000   0.00000   0.00004   0.00004   3.14147
    D5        1.04701  -0.00000   0.00000  -0.00002  -0.00002   1.04699
    D6       -1.04734  -0.00000   0.00000   0.00002   0.00002  -1.04732
    D7        1.04697   0.00000   0.00000   0.00003   0.00003   1.04700
    D8       -1.04746  -0.00000   0.00000  -0.00003  -0.00003  -1.04749
    D9        3.14138  -0.00000   0.00000   0.00001   0.00001   3.14139
         Item               Value     Threshold  Converged?
 Maximum Force            0.006528     0.000450     NO 
 RMS     Force            0.003105     0.000300     NO 
 Maximum Displacement     0.081099     0.001800     NO 
 RMS     Displacement     0.034486     0.001200     NO 
 Predicted change in Energy=-8.089324D-04
 Lowest energy point so far.  Saving SCF results.
 GradGradGradGradGradGradGradGradGradGradGradGradGradGradGradGradGradGrad

 Leave Link  103 at Wed Nov 13 13:21:39 2024, MaxMem=  2147483648 cpu:               3.1 elap:               0.1
 (Enter /home/szhao/Apps/g16/l202.exe)
                          Input orientation:                          
 ---------------------------------------------------------------------
 Center     Atomic      Atomic             Coordinates (Angstroms)
 Number     Number       Type             X           Y           Z
 ---------------------------------------------------------------------
      1          6           0       -1.198404    0.000000    0.000000
      2          6           0        1.198404    0.000000    0.000000
      3          1           0        1.290592   -0.934815    0.541016
      4          1           0       -1.289685   -0.935941   -0.539224
      5          1           0        1.290207    0.936019    0.539001
      6          1           0        1.289695   -0.001130   -1.080157
      7          1           0       -1.290619    0.934879   -0.540902
      8          1           0       -1.290189    0.000909    1.080116
 ---------------------------------------------------------------------
                    Distance matrix (angstroms):
                    1          2          3          4          5
     1  C    0.000000
     2  C    2.396809   0.000000
     3  H    2.713242   1.084010   0.000000
     4  H    1.084011   2.712441   2.797275   0.000000
     5  H    2.712903   1.084012   1.870836   3.364914   0.000000
     6  H    2.712449   1.084009   1.870821   2.796369   1.870808
     7  H    1.084010   2.713266   3.365851   1.870821   2.797652
     8  H    1.084009   2.712886   2.797613   1.870815   2.797442
                    6          7          8
     6  H    0.000000
     7  H    2.797308   0.000000
     8  H    3.364905   1.870829   0.000000
 Symmetry turned off by external request.
 Stoichiometry    C2H6(1+,2)
 Framework group  C1[X(C2H6)]
 Deg. of freedom    18
 Full point group                 C1      NOp   1
 Rotational constants (GHZ):          71.6369855          10.5154147          10.5153975
 Leave Link  202 at Wed Nov 13 13:21:39 2024, MaxMem=  2147483648 cpu:               1.8 elap:               0.1
 (Enter /home/szhao/Apps/g16/l301.exe)
 Standard basis: 6-311+G(d,p) (5D, 7F)
 Ernie: Thresh=  0.10000D-02 Tol=  0.10000D-05 Strict=F.
    80 basis functions,   120 primitive gaussians,    82 cartesian basis functions
     9 alpha electrons        8 beta electrons
       nuclear repulsion energy        35.8484020688 Hartrees.
 IExCor= 4336 DFT=T Ex+Corr=M062X ExCW=0 ScaHFX=  0.540000
 ScaDFX=  1.000000  1.000000  1.000000  1.000000 ScalE2=  1.000000  1.000000
 IRadAn=      7 IRanWt=     -1 IRanGd=            0 ICorTp=0 IEmpDi=  4
 NAtoms=    8 NActive=    8 NUniq=    8 SFac= 1.00D+00 NAtFMM=   60 NAOKFM=F Big=F
 Integral buffers will be    131072 words long.
 Raffenetti 2 integral format.
 Two-electron integral symmetry is turned off.
 Leave Link  301 at Wed Nov 13 13:21:39 2024, MaxMem=  2147483648 cpu:               2.9 elap:               0.1
 (Enter /home/szhao/Apps/g16/l302.exe)
 NPDir=0 NMtPBC=     1 NCelOv=     1 NCel=       1 NClECP=     1 NCelD=      1
         NCelK=      1 NCelE2=     1 NClLst=     1 CellRange=     0.0.
 One-electron integrals computed using PRISM.
 NBasis=    80 RedAO= T EigKep=  1.30D-03  NBF=    80
 NBsUse=    80 1.00D-06 EigRej= -1.00D+00 NBFU=    80
 Precomputing XC quadrature grid using
 IXCGrd= 4 IRadAn=           7 IRanWt=          -1 IRanGd=           0 AccXCQ= 0.00D+00.
 Generated NRdTot=       0 NPtTot=           0 NUsed=           0 NTot=          32
 NSgBfM=    82    82    82    82    82 MxSgAt=     8 MxSgA2=     8.
 Leave Link  302 at Wed Nov 13 13:21:40 2024, MaxMem=  2147483648 cpu:               8.0 elap:               0.3
 (Enter /home/szhao/Apps/g16/l303.exe)
 DipDrv:  MaxL=1.
 Leave Link  303 at Wed Nov 13 13:21:40 2024, MaxMem=  2147483648 cpu:               3.0 elap:               0.1
 (Enter /home/szhao/Apps/g16/l401.exe)
 Initial guess from the checkpoint file:  "opt.chk"
 B after Tr=    -0.000027   -0.000003   -0.000002
         Rot=    1.000000    0.000000    0.000001    0.000005 Ang=   0.00 deg.
 Guess basis will be translated and rotated to current coordinates.
 JPrj=2 DoOrth=T DoCkMO=T.
 Initial guess <Sx>= 0.0000 <Sy>= 0.0000 <Sz>= 0.5000 <S**2>= 0.7538 S= 0.5019
 Generating alternative initial guess.
 ExpMin= 4.38D-02 ExpMax= 4.56D+03 ExpMxC= 6.82D+02 IAcc=3 IRadAn=         5 AccDes= 0.00D+00
 Harris functional with IExCor= 1009 and IRadAn=       5 diagonalized for initial guess.
 HarFok:  IExCor= 1009 AccDes= 0.00D+00 IRadAn=         5 IDoV= 1 UseB2=F ITyADJ=14
 ICtDFT=  3500011 ScaDFX=  1.000000  1.000000  1.000000  1.000000
 FoFCou: FMM=F IPFlag=           0 FMFlag=      100000 FMFlg1=           0
         NFxFlg=           0 DoJE=T BraDBF=F KetDBF=T FulRan=T
         wScrn=  0.000000 ICntrl=       500 IOpCl=  0 I1Cent=   200000004 NGrid=           0
         NMat0=    1 NMatS0=      1 NMatT0=    0 NMatD0=    1 NMtDS0=    0 NMtDT0=    0
 Symmetry not used in FoFCou.
 Harris En= -79.3778585073455    
 Leave Link  401 at Wed Nov 13 13:21:40 2024, MaxMem=  2147483648 cpu:               9.2 elap:               0.4
 (Enter /home/szhao/Apps/g16/l502.exe)
 Keep R1 and R2 ints in memory in canonical form, NReq=35964362.
 FoFCou: FMM=F IPFlag=           0 FMFlag=           0 FMFlg1=           0
         NFxFlg=           0 DoJE=F BraDBF=F KetDBF=F FulRan=T
         wScrn=  0.000000 ICntrl=       600 IOpCl=  0 I1Cent=           0 NGrid=           0
         NMat0=    1 NMatS0=   3240 NMatT0=    0 NMatD0=    1 NMtDS0=    0 NMtDT0=    0
 Symmetry not used in FoFCou.
 Two-electron integral symmetry not used.
 UHF open shell SCF:
 Using DIIS extrapolation, IDIIS=  1040.
 NGot=  2147483648 LenX=  2136966234 LenY=  2136959069
 Requested convergence on RMS density matrix=1.00D-08 within 128 cycles.
 Requested convergence on MAX density matrix=1.00D-06.
 Requested convergence on             energy=1.00D-06.
 No special actions if energy rises.

 Cycle   1  Pass 1  IDiag  1:
 E= -79.3598269041697    
 DIIS: error= 4.80D-03 at cycle   1 NSaved=   1.
 NSaved= 1 IEnMin= 1 EnMin= -79.3598269041697     IErMin= 1 ErrMin= 4.80D-03
 ErrMax= 4.80D-03  0.00D+00 EMaxC= 1.00D-01 BMatC= 1.29D-03 BMatP= 1.29D-03
 IDIUse=3 WtCom= 9.52D-01 WtEn= 4.80D-02
 Coeff-Com:  0.100D+01
 Coeff-En:   0.100D+01
 Coeff:      0.100D+01
 Gap=     0.556 Goal=   None    Shift=    0.000
 Gap=     0.696 Goal=   None    Shift=    0.000
 GapD=    0.556 DampG=2.000 DampE=1.000 DampFc=2.0000 IDamp=-1.
 RMSDP=1.77D-04 MaxDP=2.72D-03              OVMax= 1.08D-02

 Cycle   2  Pass 1  IDiag  1:
 E= -79.3603012167453     Delta-E=       -0.000474312576 Rises=F Damp=F
 DIIS: error= 1.64D-03 at cycle   2 NSaved=   2.
 NSaved= 2 IEnMin= 2 EnMin= -79.3603012167453     IErMin= 2 ErrMin= 1.64D-03
 ErrMax= 1.64D-03  0.00D+00 EMaxC= 1.00D-01 BMatC= 1.09D-04 BMatP= 1.29D-03
 IDIUse=3 WtCom= 9.84D-01 WtEn= 1.64D-02
 Coeff-Com:  0.574D-01 0.943D+00
 Coeff-En:   0.000D+00 0.100D+01
 Coeff:      0.564D-01 0.944D+00
 Gap=     0.279 Goal=   None    Shift=    0.000
 Gap=     0.378 Goal=   None    Shift=    0.000
 RMSDP=8.25D-05 MaxDP=1.79D-03 DE=-4.74D-04 OVMax= 5.43D-03

 Cycle   3  Pass 1  IDiag  1:
 E= -79.3603439188542     Delta-E=       -0.000042702109 Rises=F Damp=F
 DIIS: error= 5.86D-04 at cycle   3 NSaved=   3.
 NSaved= 3 IEnMin= 3 EnMin= -79.3603439188542     IErMin= 3 ErrMin= 5.86D-04
 ErrMax= 5.86D-04  0.00D+00 EMaxC= 1.00D-01 BMatC= 1.16D-05 BMatP= 1.09D-04
 IDIUse=3 WtCom= 9.94D-01 WtEn= 5.86D-03
 Coeff-Com: -0.568D-01 0.808D-01 0.976D+00
 Coeff-En:   0.000D+00 0.000D+00 0.100D+01
 Coeff:     -0.564D-01 0.803D-01 0.976D+00
 Gap=     0.280 Goal=   None    Shift=    0.000
 Gap=     0.379 Goal=   None    Shift=    0.000
 RMSDP=2.67D-05 MaxDP=5.17D-04 DE=-4.27D-05 OVMax= 2.12D-03

 Cycle   4  Pass 1  IDiag  1:
 E= -79.3603519613777     Delta-E=       -0.000008042524 Rises=F Damp=F
 DIIS: error= 1.60D-04 at cycle   4 NSaved=   4.
 NSaved= 4 IEnMin= 4 EnMin= -79.3603519613777     IErMin= 4 ErrMin= 1.60D-04
 ErrMax= 1.60D-04  0.00D+00 EMaxC= 1.00D-01 BMatC= 1.43D-06 BMatP= 1.16D-05
 IDIUse=3 WtCom= 9.98D-01 WtEn= 1.60D-03
 Coeff-Com:  0.124D-01-0.107D+00-0.232D+00 0.133D+01
 Coeff-En:   0.000D+00 0.000D+00 0.000D+00 0.100D+01
 Coeff:      0.124D-01-0.107D+00-0.232D+00 0.133D+01
 Gap=     0.280 Goal=   None    Shift=    0.000
 Gap=     0.379 Goal=   None    Shift=    0.000
 RMSDP=1.51D-05 MaxDP=3.04D-04 DE=-8.04D-06 OVMax= 9.72D-04

 Cycle   5  Pass 1  IDiag  1:
 E= -79.3603532030993     Delta-E=       -0.000001241722 Rises=F Damp=F
 DIIS: error= 3.82D-05 at cycle   5 NSaved=   5.
 NSaved= 5 IEnMin= 5 EnMin= -79.3603532030993     IErMin= 5 ErrMin= 3.82D-05
 ErrMax= 3.82D-05  0.00D+00 EMaxC= 1.00D-01 BMatC= 1.82D-07 BMatP= 1.43D-06
 IDIUse=1 WtCom= 1.00D+00 WtEn= 0.00D+00
 Coeff-Com:  0.904D-02-0.433D-01-0.158D+00 0.431D+00 0.761D+00
 Coeff:      0.904D-02-0.433D-01-0.158D+00 0.431D+00 0.761D+00
 Gap=     0.280 Goal=   None    Shift=    0.000
 Gap=     0.379 Goal=   None    Shift=    0.000
 RMSDP=2.51D-06 MaxDP=5.20D-05 DE=-1.24D-06 OVMax= 1.87D-04

 Cycle   6  Pass 1  IDiag  1:
 E= -79.3603532770868     Delta-E=       -0.000000073988 Rises=F Damp=F
 DIIS: error= 7.01D-06 at cycle   6 NSaved=   6.
 NSaved= 6 IEnMin= 6 EnMin= -79.3603532770868     IErMin= 6 ErrMin= 7.01D-06
 ErrMax= 7.01D-06  0.00D+00 EMaxC= 1.00D-01 BMatC= 4.18D-09 BMatP= 1.82D-07
 IDIUse=1 WtCom= 1.00D+00 WtEn= 0.00D+00
 Coeff-Com: -0.185D-02 0.131D-01 0.349D-01-0.153D+00-0.765D-01 0.118D+01
 Coeff:     -0.185D-02 0.131D-01 0.349D-01-0.153D+00-0.765D-01 0.118D+01
 Gap=     0.280 Goal=   None    Shift=    0.000
 Gap=     0.379 Goal=   None    Shift=    0.000
 RMSDP=6.81D-07 MaxDP=1.28D-05 DE=-7.40D-08 OVMax= 4.67D-05

 Cycle   7  Pass 1  IDiag  1:
 E= -79.3603532800580     Delta-E=       -0.000000002971 Rises=F Damp=F
 DIIS: error= 4.29D-07 at cycle   7 NSaved=   7.
 NSaved= 7 IEnMin= 7 EnMin= -79.3603532800580     IErMin= 7 ErrMin= 4.29D-07
 ErrMax= 4.29D-07  0.00D+00 EMaxC= 1.00D-01 BMatC= 1.49D-11 BMatP= 4.18D-09
 IDIUse=1 WtCom= 1.00D+00 WtEn= 0.00D+00
 Coeff-Com:  0.145D-03-0.121D-02-0.242D-02 0.135D-01 0.436D-02-0.137D+00
 Coeff-Com:  0.112D+01
 Coeff:      0.145D-03-0.121D-02-0.242D-02 0.135D-01 0.436D-02-0.137D+00
 Coeff:      0.112D+01
 Gap=     0.280 Goal=   None    Shift=    0.000
 Gap=     0.379 Goal=   None    Shift=    0.000
 RMSDP=6.94D-08 MaxDP=1.47D-06 DE=-2.97D-09 OVMax= 3.98D-06

 Cycle   8  Pass 1  IDiag  1:
 E= -79.3603532800689     Delta-E=       -0.000000000011 Rises=F Damp=F
 DIIS: error= 1.44D-07 at cycle   8 NSaved=   8.
 NSaved= 8 IEnMin= 8 EnMin= -79.3603532800689     IErMin= 8 ErrMin= 1.44D-07
 ErrMax= 1.44D-07  0.00D+00 EMaxC= 1.00D-01 BMatC= 2.89D-12 BMatP= 1.49D-11
 IDIUse=1 WtCom= 1.00D+00 WtEn= 0.00D+00
 Coeff-Com:  0.785D-04-0.623D-03-0.135D-02 0.703D-02 0.258D-02-0.659D-01
 Coeff-Com:  0.407D+00 0.651D+00
 Coeff:      0.785D-04-0.623D-03-0.135D-02 0.703D-02 0.258D-02-0.659D-01
 Coeff:      0.407D+00 0.651D+00
 Gap=     0.280 Goal=   None    Shift=    0.000
 Gap=     0.379 Goal=   None    Shift=    0.000
 RMSDP=9.41D-09 MaxDP=2.48D-07 DE=-1.09D-11 OVMax= 9.40D-07

 SCF Done:  E(UM062X) =  -79.3603532801     A.U. after    8 cycles
            NFock=  8  Conv=0.94D-08     -V/T= 2.0055
 <Sx>= 0.0000 <Sy>= 0.0000 <Sz>= 0.5000 <S**2>= 0.7534 S= 0.5017
 <L.S>=  0.00000000000    
 KE= 7.892869584766D+01 PE=-2.502110971788D+02 EE= 5.607364598228D+01
 Annihilation of the first spin contaminant:
 S**2 before annihilation     0.7534,   after     0.7500
 Leave Link  502 at Wed Nov 13 13:21:45 2024, MaxMem=  2147483648 cpu:             137.2 elap:               5.2
 (Enter /home/szhao/Apps/g16/l701.exe)
 ... and contract with generalized density number  0.
 Compute integral first derivatives.
 Leave Link  701 at Wed Nov 13 13:21:46 2024, MaxMem=  2147483648 cpu:               7.3 elap:               0.3
 (Enter /home/szhao/Apps/g16/l702.exe)
 L702 exits ... SP integral derivatives will be done elsewhere.
 Leave Link  702 at Wed Nov 13 13:21:46 2024, MaxMem=  2147483648 cpu:               2.5 elap:               0.1
 (Enter /home/szhao/Apps/g16/l703.exe)
 Integral derivatives from FoFJK, PRISM(SPDF).
 Compute integral first derivatives, UseDBF=F ICtDFT=           0.
 Calling FoFJK, ICntrl=      2127 FMM=F ISym2X=0 I1Cent= 0 IOpClX= 1 NMat=1 NMatS=1 NMatT=0.
 FoFJK:  IHMeth= 1 ICntrl=    2127 DoSepK=F KAlg= 0 I1Cent=           0 FoldK=F
 IRaf=         0 NMat=       1 IRICut=       1 DoRegI=T DoRafI=F ISym2E= 0 IDoP0=0 IntGTp=1.
 FoFCou: FMM=F IPFlag=           0 FMFlag=      100000 FMFlg1=         800
         NFxFlg=           0 DoJE=F BraDBF=F KetDBF=F FulRan=T
         wScrn=  0.000000 ICntrl=      2127 IOpCl=  1 I1Cent=           0 NGrid=           0
         NMat0=    1 NMatS0=      1 NMatT0=    0 NMatD0=    1 NMtDS0=    0 NMtDT0=    0
 Symmetry not used in FoFCou.
 Leave Link  703 at Wed Nov 13 13:21:47 2024, MaxMem=  2147483648 cpu:              41.3 elap:               1.5
 (Enter /home/szhao/Apps/g16/l716.exe)
 Dipole        = 9.05643649D-07-1.34231750D-05-2.67384633D-05
 -------------------------------------------------------------------
 Center     Atomic                   Forces (Hartrees/Bohr)
 Number     Number              X              Y              Z
 -------------------------------------------------------------------
      1        6          -0.000000000   -0.000000000   -0.000000000
      2        6          -0.000000000   -0.000000000   -0.000000000
      3        1          -0.000223346   -0.000211499    0.000121583
      4        1           0.000209075   -0.000211198   -0.000119723
      5        1          -0.000216138    0.000210019    0.000121903
      6        1          -0.000210852   -0.000001308   -0.000245172
      7        1           0.000223789    0.000212618   -0.000119147
      8        1           0.000217321    0.000002041    0.000245501
 -------------------------------------------------------------------
 Cartesian Forces:  Max     0.000245501 RMS     0.000163209
 Leave Link  716 at Wed Nov 13 13:21:48 2024, MaxMem=  2147483648 cpu:               3.5 elap:               0.2
 (Enter /home/szhao/Apps/g16/l103.exe)

 GradGradGradGradGradGradGradGradGradGradGradGradGradGradGradGradGradGrad
 Berny optimization.
 Using GEDIIS/GDIIS optimizer.
 FormGI is forming the generalized inverse of G from B-inverse, IUseBI=4.
 Internal  Forces:  Max     0.000650336 RMS     0.000272488
 Search for a local minimum.
 Step number   2 out of a maximum of   43
 All quantities printed in internal units (Hartrees-Bohrs-Radians)
 RMS Force = .24376D-03 SwitMx=.10000D-02 MixMth= 2
 Mixed Optimization -- En-DIIS/RFO-DIIS
 Update second derivatives using D2CorX and points    1    2
 DE= -7.39D-04 DEPred=-8.09D-04 R= 9.14D-01
 TightC=F SS=  1.41D+00  RLast= 9.91D-02 DXNew= 5.0454D-01 2.9741D-01
 Trust test= 9.14D-01 RLast= 9.91D-02 DXMaxT set to 3.00D-01
 ITU=  1  0
 Use linear search instead of GDIIS.
     Eigenvalues ---    0.00230   0.07920   0.07920   0.07922   0.07922
     Eigenvalues ---    0.15999   0.16000   0.16000   0.16000   0.16000
     Eigenvalues ---    0.17243   0.35551   0.35565   0.35566   0.35567
     Eigenvalues ---    0.35567   0.355671000.000001000.000001000.00000
     Eigenvalues --- 1000.000001000.000001000.000001000.000001000.00000
     Eigenvalues --- 1000.000001000.000001000.000001000.000001000.00000
     Eigenvalues --- 1000.000001000.000001000.00000
 RFO step:  Lambda=-8.96280336D-07 EMin= 2.29999998D-03
 Quartic linear search produced a step of -0.06597.
 Iteration  1 RMS(Cart)=  0.00227233 RMS(Int)=  0.00006660
 Iteration  2 RMS(Cart)=  0.00000522 RMS(Int)=  0.00006650
 Iteration  3 RMS(Cart)=  0.00000000 RMS(Int)=  0.00006650
 ITry= 1 IFail=0 DXMaxC= 5.41D-03 DCOld= 1.00D+10 DXMaxT= 3.00D-01 DXLimC= 3.00D+00 Rises=F
 Variable       Old X    -DE/DX   Delta X   Delta X   Delta X     New X
                                 (Linear)    (Quad)   (Total)
    X1       -2.26466   0.00065   0.00000   0.00000   0.00000  -2.26466
    Y1        0.00000   0.00001   0.00000   0.00000   0.00000   0.00000
    Z1        0.00000   0.00000   0.00000   0.00000   0.00000   0.00000
    X2        2.26466  -0.00065   0.00000   0.00000   0.00000   2.26466
    Y2        0.00000  -0.00001   0.00000   0.00000   0.00000   0.00000
    Z2        0.00000   0.00000   0.00000   0.00000   0.00000   0.00000
    R1        2.04848   0.00022  -0.00006   0.00064   0.00059   2.04907
    R2        2.04848   0.00022  -0.00006   0.00064   0.00059   2.04907
    R3        2.04848   0.00023  -0.00006   0.00065   0.00059   2.04907
    R4        2.04848   0.00022  -0.00005   0.00064   0.00059   2.04907
    R5        2.04849   0.00022  -0.00006   0.00064   0.00059   2.04907
    R6        2.04848   0.00023  -0.00005   0.00065   0.00060   2.04908
    A1        1.65510  -0.00043  -0.00262   0.00008  -0.00249   1.65261
    A2        1.65597  -0.00046  -0.00260  -0.00012  -0.00267   1.65329
    A3        1.65557  -0.00045  -0.00261  -0.00004  -0.00260   1.65297
    A4        2.08203   0.00013   0.00058   0.00003   0.00076   2.08279
    A5        2.08202   0.00013   0.00059   0.00000   0.00074   2.08276
    A6        2.08204   0.00013   0.00058  -0.00001   0.00072   2.08276
    A7        1.65594  -0.00046  -0.00260  -0.00012  -0.00267   1.65327
    A8        1.65559  -0.00045  -0.00260  -0.00002  -0.00258   1.65301
    A9        1.65511  -0.00044  -0.00261   0.00005  -0.00252   1.65259
   A10        2.08205   0.00013   0.00058   0.00001   0.00074   2.08279
   A11        2.08203   0.00013   0.00058   0.00000   0.00073   2.08276
   A12        2.08200   0.00013   0.00058   0.00001   0.00075   2.08275
    D1       -1.04732   0.00000  -0.00001   0.00004   0.00003  -1.04729
    D2        3.14138   0.00000  -0.00000   0.00005   0.00004   3.14142
    D3        1.04707  -0.00000  -0.00000   0.00003   0.00002   1.04709
    D4        3.14147  -0.00000  -0.00000   0.00001   0.00001   3.14148
    D5        1.04699  -0.00000   0.00000   0.00002   0.00002   1.04701
    D6       -1.04732  -0.00000  -0.00000   0.00000   0.00000  -1.04732
    D7        1.04700   0.00000  -0.00000   0.00005   0.00005   1.04704
    D8       -1.04749   0.00000   0.00000   0.00006   0.00006  -1.04743
    D9        3.14139   0.00000  -0.00000   0.00004   0.00004   3.14143
         Item               Value     Threshold  Converged?
 Maximum Force            0.000461     0.000450     NO 
 RMS     Force            0.000244     0.000300     YES
 Maximum Displacement     0.005409     0.001800     NO 
 RMS     Displacement     0.002276     0.001200     NO 
 Predicted change in Energy=-4.139616D-06
 Lowest energy point so far.  Saving SCF results.
 GradGradGradGradGradGradGradGradGradGradGradGradGradGradGradGradGradGrad

 Leave Link  103 at Wed Nov 13 13:21:48 2024, MaxMem=  2147483648 cpu:               4.7 elap:               0.2
 (Enter /home/szhao/Apps/g16/l202.exe)
                          Input orientation:                          
 ---------------------------------------------------------------------
 Center     Atomic      Atomic             Coordinates (Angstroms)
 Number     Number       Type             X           Y           Z
 ---------------------------------------------------------------------
      1          6           0       -1.198404    0.000000    0.000000
      2          6           0        1.198404    0.000000    0.000000
      3          1           0        1.287734   -0.935302    0.541279
      4          1           0       -1.287019   -0.936414   -0.539474
      5          1           0        1.287447    0.936475    0.539297
      6          1           0        1.287000   -0.001124   -1.080698
      7          1           0       -1.287757    0.935360   -0.541175
      8          1           0       -1.287406    0.000944    1.080664
 ---------------------------------------------------------------------
                    Distance matrix (angstroms):
                    1          2          3          4          5
     1  C    0.000000
     2  C    2.396809   0.000000
     3  H    2.710841   1.084321   0.000000
     4  H    1.084323   2.710209   2.792379   0.000000
     5  H    2.710587   1.084323   1.871778   3.361448   0.000000
     6  H    2.710193   1.084324   1.871763   2.791642   1.871758
     7  H    1.084321   2.710861   3.362177   1.871775   2.792686
     8  H    1.084324   2.710552   2.792640   1.871761   2.792519
                    6          7          8
     6  H    0.000000
     7  H    2.792394   0.000000
     8  H    3.361407   1.871763   0.000000
 Symmetry turned off by external request.
 Stoichiometry    C2H6(1+,2)
 Framework group  C1[X(C2H6)]
 Deg. of freedom    18
 Full point group                 C1      NOp   1
 Rotational constants (GHZ):          71.5647036          10.5240911          10.5240741
 Leave Link  202 at Wed Nov 13 13:21:48 2024, MaxMem=  2147483648 cpu:               0.4 elap:               0.0
 (Enter /home/szhao/Apps/g16/l301.exe)
 Standard basis: 6-311+G(d,p) (5D, 7F)
 Ernie: Thresh=  0.10000D-02 Tol=  0.10000D-05 Strict=F.
    80 basis functions,   120 primitive gaussians,    82 cartesian basis functions
     9 alpha electrons        8 beta electrons
       nuclear repulsion energy        35.8509920013 Hartrees.
 IExCor= 4336 DFT=T Ex+Corr=M062X ExCW=0 ScaHFX=  0.540000
 ScaDFX=  1.000000  1.000000  1.000000  1.000000 ScalE2=  1.000000  1.000000
 IRadAn=      7 IRanWt=     -1 IRanGd=            0 ICorTp=0 IEmpDi=  4
 NAtoms=    8 NActive=    8 NUniq=    8 SFac= 1.00D+00 NAtFMM=   60 NAOKFM=F Big=F
 Integral buffers will be    131072 words long.
 Raffenetti 2 integral format.
 Two-electron integral symmetry is turned off.
 Leave Link  301 at Wed Nov 13 13:21:48 2024, MaxMem=  2147483648 cpu:               4.0 elap:               0.2
 (Enter /home/szhao/Apps/g16/l302.exe)
 NPDir=0 NMtPBC=     1 NCelOv=     1 NCel=       1 NClECP=     1 NCelD=      1
         NCelK=      1 NCelE2=     1 NClLst=     1 CellRange=     0.0.
 One-electron integrals computed using PRISM.
 NBasis=    80 RedAO= T EigKep=  1.30D-03  NBF=    80
 NBsUse=    80 1.00D-06 EigRej= -1.00D+00 NBFU=    80
 Precomputing XC quadrature grid using
 IXCGrd= 4 IRadAn=           7 IRanWt=          -1 IRanGd=           0 AccXCQ= 0.00D+00.
 Generated NRdTot=       0 NPtTot=           0 NUsed=           0 NTot=          32
 NSgBfM=    82    82    82    82    82 MxSgAt=     8 MxSgA2=     8.
 Leave Link  302 at Wed Nov 13 13:21:48 2024, MaxMem=  2147483648 cpu:               8.1 elap:               0.3
 (Enter /home/szhao/Apps/g16/l303.exe)
 DipDrv:  MaxL=1.
 Leave Link  303 at Wed Nov 13 13:21:48 2024, MaxMem=  2147483648 cpu:               2.4 elap:               0.1
 (Enter /home/szhao/Apps/g16/l401.exe)
 Initial guess from the checkpoint file:  "opt.chk"
 B after Tr=    -0.000000    0.000002    0.000005
         Rot=    1.000000   -0.000000    0.000002    0.000006 Ang=  -0.00 deg.
 Guess basis will be translated and rotated to current coordinates.
 JPrj=2 DoOrth=T DoCkMO=T.
 Initial guess <Sx>= 0.0000 <Sy>= 0.0000 <Sz>= 0.5000 <S**2>= 0.7534 S= 0.5017
 Leave Link  401 at Wed Nov 13 13:21:49 2024, MaxMem=  2147483648 cpu:               3.6 elap:               0.2
 (Enter /home/szhao/Apps/g16/l502.exe)
 Keep R1 and R2 ints in memory in canonical form, NReq=35964362.
 FoFCou: FMM=F IPFlag=           0 FMFlag=           0 FMFlg1=           0
         NFxFlg=           0 DoJE=F BraDBF=F KetDBF=F FulRan=T
         wScrn=  0.000000 ICntrl=       600 IOpCl=  0 I1Cent=           0 NGrid=           0
         NMat0=    1 NMatS0=   3240 NMatT0=    0 NMatD0=    1 NMtDS0=    0 NMtDT0=    0
 Symmetry not used in FoFCou.
 Two-electron integral symmetry not used.
 UHF open shell SCF:
 Using DIIS extrapolation, IDIIS=  1040.
 NGot=  2147483648 LenX=  2136966234 LenY=  2136959069
 Requested convergence on RMS density matrix=1.00D-08 within 128 cycles.
 Requested convergence on MAX density matrix=1.00D-06.
 Requested convergence on             energy=1.00D-06.
 No special actions if energy rises.

 Cycle   1  Pass 1  IDiag  1:
 E= -79.3603550810079    
 DIIS: error= 3.19D-04 at cycle   1 NSaved=   1.
 NSaved= 1 IEnMin= 1 EnMin= -79.3603550810079     IErMin= 1 ErrMin= 3.19D-04
 ErrMax= 3.19D-04  0.00D+00 EMaxC= 1.00D-01 BMatC= 5.90D-06 BMatP= 5.90D-06
 IDIUse=3 WtCom= 9.97D-01 WtEn= 3.19D-03
 Coeff-Com:  0.100D+01
 Coeff-En:   0.100D+01
 Coeff:      0.100D+01
 Gap=     0.554 Goal=   None    Shift=    0.000
 Gap=     0.688 Goal=   None    Shift=    0.000
 RMSDP=1.21D-05 MaxDP=1.74D-04              OVMax= 7.25D-04

 Cycle   2  Pass 1  IDiag  1:
 E= -79.3603571991826     Delta-E=       -0.000002118175 Rises=F Damp=F
 DIIS: error= 1.07D-04 at cycle   2 NSaved=   2.
 NSaved= 2 IEnMin= 2 EnMin= -79.3603571991826     IErMin= 2 ErrMin= 1.07D-04
 ErrMax= 1.07D-04  0.00D+00 EMaxC= 1.00D-01 BMatC= 5.13D-07 BMatP= 5.90D-06
 IDIUse=3 WtCom= 9.99D-01 WtEn= 1.07D-03
 Coeff-Com:  0.715D-01 0.929D+00
 Coeff-En:   0.000D+00 0.100D+01
 Coeff:      0.714D-01 0.929D+00
 Gap=     0.279 Goal=   None    Shift=    0.000
 Gap=     0.379 Goal=   None    Shift=    0.000
 RMSDP=5.54D-06 MaxDP=1.16D-04 DE=-2.12D-06 OVMax= 3.50D-04

 Cycle   3  Pass 1  IDiag  1:
 E= -79.3603573932011     Delta-E=       -0.000000194018 Rises=F Damp=F
 DIIS: error= 3.81D-05 at cycle   3 NSaved=   3.
 NSaved= 3 IEnMin= 3 EnMin= -79.3603573932011     IErMin= 3 ErrMin= 3.81D-05
 ErrMax= 3.81D-05  0.00D+00 EMaxC= 1.00D-01 BMatC= 5.44D-08 BMatP= 5.13D-07
 IDIUse=1 WtCom= 1.00D+00 WtEn= 0.00D+00
 Coeff-Com: -0.548D-01 0.767D-01 0.978D+00
 Coeff:     -0.548D-01 0.767D-01 0.978D+00
 Gap=     0.279 Goal=   None    Shift=    0.000
 Gap=     0.379 Goal=   None    Shift=    0.000
 RMSDP=1.87D-06 MaxDP=3.34D-05 DE=-1.94D-07 OVMax= 1.39D-04

 Cycle   4  Pass 1  IDiag  1:
 E= -79.3603574301442     Delta-E=       -0.000000036943 Rises=F Damp=F
 DIIS: error= 1.20D-05 at cycle   4 NSaved=   4.
 NSaved= 4 IEnMin= 4 EnMin= -79.3603574301442     IErMin= 4 ErrMin= 1.20D-05
 ErrMax= 1.20D-05  0.00D+00 EMaxC= 1.00D-01 BMatC= 6.47D-09 BMatP= 5.44D-08
 IDIUse=1 WtCom= 1.00D+00 WtEn= 0.00D+00
 Coeff-Com:  0.913D-02-0.983D-01-0.207D+00 0.130D+01
 Coeff:      0.913D-02-0.983D-01-0.207D+00 0.130D+01
 Gap=     0.279 Goal=   None    Shift=    0.000
 Gap=     0.379 Goal=   None    Shift=    0.000
 RMSDP=9.80D-07 MaxDP=1.84D-05 DE=-3.69D-08 OVMax= 6.92D-05

 Cycle   5  Pass 1  IDiag  1:
 E= -79.3603574359375     Delta-E=       -0.000000005793 Rises=F Damp=F
 DIIS: error= 2.38D-06 at cycle   5 NSaved=   5.
 NSaved= 5 IEnMin= 5 EnMin= -79.3603574359375     IErMin= 5 ErrMin= 2.38D-06
 ErrMax= 2.38D-06  0.00D+00 EMaxC= 1.00D-01 BMatC= 8.95D-10 BMatP= 6.47D-09
 IDIUse=1 WtCom= 1.00D+00 WtEn= 0.00D+00
 Coeff-Com:  0.844D-02-0.401D-01-0.160D+00 0.397D+00 0.795D+00
 Coeff:      0.844D-02-0.401D-01-0.160D+00 0.397D+00 0.795D+00
 Gap=     0.279 Goal=   None    Shift=    0.000
 Gap=     0.379 Goal=   None    Shift=    0.000
 RMSDP=2.01D-07 MaxDP=3.83D-06 DE=-5.79D-09 OVMax= 1.28D-05

 Cycle   6  Pass 1  IDiag  1:
 E= -79.3603574363238     Delta-E=       -0.000000000386 Rises=F Damp=F
 DIIS: error= 5.16D-07 at cycle   6 NSaved=   6.
 NSaved= 6 IEnMin= 6 EnMin= -79.3603574363238     IErMin= 6 ErrMin= 5.16D-07
 ErrMax= 5.16D-07  0.00D+00 EMaxC= 1.00D-01 BMatC= 2.07D-11 BMatP= 8.95D-10
 IDIUse=1 WtCom= 1.00D+00 WtEn= 0.00D+00
 Coeff-Com: -0.141D-02 0.113D-01 0.312D-01-0.138D+00-0.564D-01 0.115D+01
 Coeff:     -0.141D-02 0.113D-01 0.312D-01-0.138D+00-0.564D-01 0.115D+01
 Gap=     0.279 Goal=   None    Shift=    0.000
 Gap=     0.379 Goal=   None    Shift=    0.000
 RMSDP=4.48D-08 MaxDP=8.50D-07 DE=-3.86D-10 OVMax= 2.90D-06

 Cycle   7  Pass 1  IDiag  1:
 E= -79.3603574363383     Delta-E=       -0.000000000014 Rises=F Damp=F
 DIIS: error= 4.31D-08 at cycle   7 NSaved=   7.
 NSaved= 7 IEnMin= 7 EnMin= -79.3603574363383     IErMin= 7 ErrMin= 4.31D-08
 ErrMax= 4.31D-08  0.00D+00 EMaxC= 1.00D-01 BMatC= 3.10D-13 BMatP= 2.07D-11
 IDIUse=1 WtCom= 1.00D+00 WtEn= 0.00D+00
 Coeff-Com: -0.137D-03 0.791D-03 0.283D-02-0.781D-02-0.154D-01 0.369D-01
 Coeff-Com:  0.983D+00
 Coeff:     -0.137D-03 0.791D-03 0.283D-02-0.781D-02-0.154D-01 0.369D-01
 Coeff:      0.983D+00
 Gap=     0.279 Goal=   None    Shift=    0.000
 Gap=     0.379 Goal=   None    Shift=    0.000
 RMSDP=6.02D-09 MaxDP=1.16D-07 DE=-1.44D-11 OVMax= 4.06D-07

 SCF Done:  E(UM062X) =  -79.3603574363     A.U. after    7 cycles
            NFock=  7  Conv=0.60D-08     -V/T= 2.0055
 <Sx>= 0.0000 <Sy>= 0.0000 <Sz>= 0.5000 <S**2>= 0.7535 S= 0.5017
 <L.S>=  0.00000000000    
 KE= 7.892644123342D+01 PE=-2.502146172402D+02 EE= 5.607682656915D+01
 Annihilation of the first spin contaminant:
 S**2 before annihilation     0.7535,   after     0.7500
 Leave Link  502 at Wed Nov 13 13:21:53 2024, MaxMem=  2147483648 cpu:             124.9 elap:               4.8
 (Enter /home/szhao/Apps/g16/l701.exe)
 ... and contract with generalized density number  0.
 Compute integral first derivatives.
 Leave Link  701 at Wed Nov 13 13:21:54 2024, MaxMem=  2147483648 cpu:               6.9 elap:               0.3
 (Enter /home/szhao/Apps/g16/l702.exe)
 L702 exits ... SP integral derivatives will be done elsewhere.
 Leave Link  702 at Wed Nov 13 13:21:54 2024, MaxMem=  2147483648 cpu:               3.1 elap:               0.1
 (Enter /home/szhao/Apps/g16/l703.exe)
 Integral derivatives from FoFJK, PRISM(SPDF).
 Compute integral first derivatives, UseDBF=F ICtDFT=           0.
 Calling FoFJK, ICntrl=      2127 FMM=F ISym2X=0 I1Cent= 0 IOpClX= 1 NMat=1 NMatS=1 NMatT=0.
 FoFJK:  IHMeth= 1 ICntrl=    2127 DoSepK=F KAlg= 0 I1Cent=           0 FoldK=F
 IRaf=         0 NMat=       1 IRICut=       1 DoRegI=T DoRafI=F ISym2E= 0 IDoP0=0 IntGTp=1.
 FoFCou: FMM=F IPFlag=           0 FMFlag=      100000 FMFlg1=         800
         NFxFlg=           0 DoJE=F BraDBF=F KetDBF=F FulRan=T
         wScrn=  0.000000 ICntrl=      2127 IOpCl=  1 I1Cent=           0 NGrid=           0
         NMat0=    1 NMatS0=      1 NMatT0=    0 NMatD0=    1 NMtDS0=    0 NMtDT0=    0
 Symmetry not used in FoFCou.
 Leave Link  703 at Wed Nov 13 13:21:55 2024, MaxMem=  2147483648 cpu:              38.4 elap:               1.4
 (Enter /home/szhao/Apps/g16/l716.exe)
 Dipole        =-8.63769084D-07-9.85937790D-06-1.78739486D-05
 -------------------------------------------------------------------
 Center     Atomic                   Forces (Hartrees/Bohr)
 Number     Number              X              Y              Z
 -------------------------------------------------------------------
      1        6          -0.000000000   -0.000000000   -0.000000000
      2        6          -0.000000000   -0.000000000   -0.000000000
      3        1          -0.000006896    0.000009564   -0.000006269
      4        1          -0.000004516    0.000010747    0.000007258
      5        1          -0.000001359   -0.000010632   -0.000005990
      6        1           0.000002792   -0.000000282    0.000012520
      7        1           0.000007293   -0.000009338    0.000006971
      8        1           0.000002760    0.000000531   -0.000011939
 -------------------------------------------------------------------
 Cartesian Forces:  Max     0.000012520 RMS     0.000006525
 Leave Link  716 at Wed Nov 13 13:21:56 2024, MaxMem=  2147483648 cpu:               2.8 elap:               0.1
 (Enter /home/szhao/Apps/g16/l103.exe)

 GradGradGradGradGradGradGradGradGradGradGradGradGradGradGradGradGradGrad
 Berny optimization.
 Using GEDIIS/GDIIS optimizer.
 FormGI is forming the generalized inverse of G from B-inverse, IUseBI=4.
 Internal  Forces:  Max     0.000012682 RMS     0.000007019
 Search for a local minimum.
 Step number   3 out of a maximum of   43
 All quantities printed in internal units (Hartrees-Bohrs-Radians)
 RMS Force = .72327D-05 SwitMx=.10000D-02 MixMth= 2
 Mixed Optimization -- En-DIIS/RFO-DIIS
 Swapping is turned off.
 Update second derivatives using D2CorX and points    1    2    3
 DE= -4.16D-06 DEPred=-4.14D-06 R= 1.00D+00
 TightC=F SS=  1.41D+00  RLast= 6.75D-03 DXNew= 5.0454D-01 2.0264D-02
 Trust test= 1.00D+00 RLast= 6.75D-03 DXMaxT set to 3.00D-01
 ITU=  1  1  0
     Eigenvalues ---    0.00230   0.07931   0.07932   0.07933   0.07933
     Eigenvalues ---    0.15922   0.16000   0.16000   0.16000   0.16000
     Eigenvalues ---    0.17060   0.35565   0.35566   0.35567   0.35567
     Eigenvalues ---    0.35567   0.360311000.000001000.000001000.00000
     Eigenvalues --- 1000.000001000.000001000.000001000.000001000.00000
     Eigenvalues --- 1000.000001000.000001000.000001000.000001000.00000
     Eigenvalues --- 1000.000001000.000001000.00000
 En-DIIS/RFO-DIIS/Sim-DIIS IScMMF=       -3 using points:     3    2
 RFO step:  Lambda=-4.73108590D-09.
 NNeg= 0 NGDIIS= 2 SimSw=  2.50D-03 Rises=F DC= -4.16D-06 SmlDif=  1.00D-05
 NRisDI= 0 DoIntr=F SqrtH=F CThrHd= 10.0 CDAdj=  3.0
 RMS Error=  0.3279884518D-04 NUsed= 2 OKEnD=F EnDIS=F
 InvSVX:  RCond= 1.14D-05 Info=           0 Equed=N FErr=  8.94D-16 BErr=  2.67D-17
 DidBck=F Rises=F RFO-DIIS coefs:    1.00249   -0.00249
 Iteration  1 RMS(Cart)=  0.00005485 RMS(Int)=  0.00000001
 Iteration  2 RMS(Cart)=  0.00000000 RMS(Int)=  0.00000001
 ITry= 1 IFail=0 DXMaxC= 1.70D-04 DCOld= 1.00D+10 DXMaxT= 3.00D-01 DXLimC= 3.00D+00 Rises=F
 Variable       Old X    -DE/DX   Delta X   Delta X   Delta X     New X
                                 (Linear)    (Quad)   (Total)
    X1       -2.26466   0.00001  -0.00000   0.00000   0.00000  -2.26466
    Y1        0.00000   0.00001   0.00000   0.00000   0.00000   0.00000
    Z1        0.00000  -0.00000   0.00000   0.00000   0.00000   0.00000
    X2        2.26466  -0.00001   0.00000   0.00000   0.00000   2.26466
    Y2        0.00000  -0.00001   0.00000   0.00000   0.00000   0.00000
    Z2        0.00000   0.00000   0.00000   0.00000   0.00000   0.00000
    R1        2.04907  -0.00001   0.00000  -0.00004  -0.00003   2.04904
    R2        2.04907  -0.00001   0.00000  -0.00004  -0.00003   2.04904
    R3        2.04907  -0.00001   0.00000  -0.00004  -0.00003   2.04904
    R4        2.04907  -0.00001   0.00000  -0.00003  -0.00003   2.04904
    R5        2.04907  -0.00001   0.00000  -0.00004  -0.00003   2.04904
    R6        2.04908  -0.00001   0.00000  -0.00004  -0.00003   2.04904
    A1        1.65261   0.00001  -0.00001   0.00008   0.00007   1.65268
    A2        1.65329  -0.00001  -0.00001  -0.00008  -0.00008   1.65321
    A3        1.65297  -0.00000  -0.00001  -0.00002  -0.00003   1.65294
    A4        2.08279   0.00000   0.00000   0.00001   0.00001   2.08280
    A5        2.08276  -0.00000   0.00000  -0.00000   0.00000   2.08276
    A6        2.08276   0.00000   0.00000  -0.00001  -0.00000   2.08276
    A7        1.65327  -0.00001  -0.00001  -0.00007  -0.00008   1.65320
    A8        1.65301  -0.00000  -0.00001   0.00000  -0.00001   1.65300
    A9        1.65259   0.00001  -0.00001   0.00005   0.00005   1.65264
   A10        2.08279   0.00000   0.00000   0.00000   0.00001   2.08280
   A11        2.08276   0.00000   0.00000  -0.00000  -0.00000   2.08276
   A12        2.08275  -0.00000   0.00000   0.00000   0.00000   2.08276
    D1       -1.04729   0.00000   0.00000   0.00003   0.00003  -1.04726
    D2        3.14142   0.00000   0.00000   0.00003   0.00003   3.14146
    D3        1.04709  -0.00000   0.00000   0.00002   0.00002   1.04711
    D4        3.14148  -0.00000   0.00000   0.00002   0.00002   3.14150
    D5        1.04701  -0.00000   0.00000   0.00002   0.00002   1.04703
    D6       -1.04732  -0.00000   0.00000   0.00001   0.00001  -1.04731
    D7        1.04704   0.00000   0.00000   0.00004   0.00004   1.04708
    D8       -1.04743   0.00000   0.00000   0.00004   0.00004  -1.04738
    D9        3.14143   0.00000   0.00000   0.00003   0.00003   3.14146
         Item               Value     Threshold  Converged?
 Maximum Force            0.000013     0.000450     YES
 RMS     Force            0.000007     0.000300     YES
 Maximum Displacement     0.000170     0.001800     YES
 RMS     Displacement     0.000055     0.001200     YES
 Predicted change in Energy=-2.910255D-09
 Optimization completed.
    -- Stationary point found.
                           ----------------------------
                           !   Optimized Parameters   !
                           ! (Angstroms and Degrees)  !
 --------------------------                            --------------------------
 ! Name  Definition              Value          Derivative Info.                !
 --------------------------------------------------------------------------------
 ! X1    R(1,-1)                -1.1984         -DE/DX =    0.0                 !
 ! Y1    R(1,-2)                 0.0            -DE/DX =    0.0                 !
 ! Z1    R(1,-3)                 0.0            -DE/DX =    0.0                 !
 ! X2    R(2,-1)                 1.1984         -DE/DX =    0.0                 !
 ! Y2    R(2,-2)                 0.0            -DE/DX =    0.0                 !
 ! Z2    R(2,-3)                 0.0            -DE/DX =    0.0                 !
 ! R1    R(1,4)                  1.0843         -DE/DX =    0.0                 !
 ! R2    R(1,7)                  1.0843         -DE/DX =    0.0                 !
 ! R3    R(1,8)                  1.0843         -DE/DX =    0.0                 !
 ! R4    R(2,3)                  1.0843         -DE/DX =    0.0                 !
 ! R5    R(2,5)                  1.0843         -DE/DX =    0.0                 !
 ! R6    R(2,6)                  1.0843         -DE/DX =    0.0                 !
 ! A1    A(2,1,4)               94.6876         -DE/DX =    0.0                 !
 ! A2    A(2,1,7)               94.7268         -DE/DX =    0.0                 !
 ! A3    A(2,1,8)               94.7082         -DE/DX =    0.0                 !
 ! A4    A(4,1,7)              119.3348         -DE/DX =    0.0                 !
 ! A5    A(4,1,8)              119.3331         -DE/DX =    0.0                 !
 ! A6    A(7,1,8)              119.3335         -DE/DX =    0.0                 !
 ! A7    A(1,2,3)               94.7255         -DE/DX =    0.0                 !
 ! A8    A(1,2,5)               94.7103         -DE/DX =    0.0                 !
 ! A9    A(1,2,6)               94.6866         -DE/DX =    0.0                 !
 ! A10   A(3,2,5)              119.3351         -DE/DX =    0.0                 !
 ! A11   A(3,2,6)              119.3335         -DE/DX =    0.0                 !
 ! A12   A(5,2,6)              119.3328         -DE/DX =    0.0                 !
 ! D1    D(4,1,2,3)            -60.0054         -DE/DX =    0.0                 !
 ! D2    D(4,1,2,5)            179.9903         -DE/DX =    0.0                 !
 ! D3    D(4,1,2,6)             59.9939         -DE/DX =    0.0                 !
 ! D4    D(7,1,2,3)            179.9936         -DE/DX =    0.0                 !
 ! D5    D(7,1,2,5)             59.9893         -DE/DX =    0.0                 !
 ! D6    D(7,1,2,6)            -60.0071         -DE/DX =    0.0                 !
 ! D7    D(8,1,2,3)             59.9912         -DE/DX =    0.0                 !
 ! D8    D(8,1,2,5)            -60.0131         -DE/DX =    0.0                 !
 ! D9    D(8,1,2,6)            179.9905         -DE/DX =    0.0                 !
 --------------------------------------------------------------------------------
 Lowest energy point so far.  Saving SCF results.
 Largest change from initial coordinates is atom    4       0.040 Angstoms.
 GradGradGradGradGradGradGradGradGradGradGradGradGradGradGradGradGradGrad

 Leave Link  103 at Wed Nov 13 13:21:56 2024, MaxMem=  2147483648 cpu:               1.9 elap:               0.1
 (Enter /home/szhao/Apps/g16/l202.exe)
                          Input orientation:                          
 ---------------------------------------------------------------------
 Center     Atomic      Atomic             Coordinates (Angstroms)
 Number     Number       Type             X           Y           Z
 ---------------------------------------------------------------------
      1          6           0       -1.198404    0.000000    0.000000
      2          6           0        1.198404    0.000000    0.000000
      3          1           0        1.287734   -0.935302    0.541279
      4          1           0       -1.287019   -0.936414   -0.539474
      5          1           0        1.287447    0.936475    0.539297
      6          1           0        1.287000   -0.001124   -1.080698
      7          1           0       -1.287757    0.935360   -0.541175
      8          1           0       -1.287406    0.000944    1.080664
 ---------------------------------------------------------------------
                    Distance matrix (angstroms):
                    1          2          3          4          5
     1  C    0.000000
     2  C    2.396809   0.000000
     3  H    2.710841   1.084321   0.000000
     4  H    1.084323   2.710209   2.792379   0.000000
     5  H    2.710587   1.084323   1.871778   3.361448   0.000000
     6  H    2.710193   1.084324   1.871763   2.791642   1.871758
     7  H    1.084321   2.710861   3.362177   1.871775   2.792686
     8  H    1.084324   2.710552   2.792640   1.871761   2.792519
                    6          7          8
     6  H    0.000000
     7  H    2.792394   0.000000
     8  H    3.361407   1.871763   0.000000
 Symmetry turned off by external request.
 Stoichiometry    C2H6(1+,2)
 Framework group  C1[X(C2H6)]
 Deg. of freedom    18
 Full point group                 C1      NOp   1
 Rotational constants (GHZ):          71.5647036          10.5240911          10.5240741
 Leave Link  202 at Wed Nov 13 13:21:56 2024, MaxMem=  2147483648 cpu:               2.7 elap:               0.1
 (Enter /home/szhao/Apps/g16/l601.exe)
 Copying SCF densities to generalized density rwf, IOpCl= 1 IROHF=0.

 **********************************************************************

            Population analysis using the SCF density.

 **********************************************************************

 Alpha  occ. eigenvalues --  -10.85795 -10.85789  -1.07178  -1.02355  -0.76817
 Alpha  occ. eigenvalues --   -0.76816  -0.74225  -0.74224  -0.58269
 Alpha virt. eigenvalues --   -0.30342  -0.15570  -0.10729  -0.10729  -0.09971
 Alpha virt. eigenvalues --   -0.06533  -0.06245  -0.06245  -0.04325  -0.04323
 Alpha virt. eigenvalues --   -0.02655   0.01651   0.01653   0.05195   0.07334
 Alpha virt. eigenvalues --    0.19141   0.19144   0.25064   0.26638   0.26644
 Alpha virt. eigenvalues --    0.30707   0.39912   0.39912   0.40877   0.44597
 Alpha virt. eigenvalues --    0.44597   0.52557   0.60492   0.69427   0.80282
 Alpha virt. eigenvalues --    0.80285   0.87951   0.87953   1.17866   1.20107
 Alpha virt. eigenvalues --    1.20266   1.24651   1.24653   1.29651   1.29652
 Alpha virt. eigenvalues --    1.34587   1.54223   1.59436   1.62114   1.62115
 Alpha virt. eigenvalues --    1.66389   1.66392   1.77188   1.77189   1.80017
 Alpha virt. eigenvalues --    1.80023   2.18143   2.20462   2.20466   2.29238
 Alpha virt. eigenvalues --    2.29240   2.31312   2.39211   2.39216   2.42964
 Alpha virt. eigenvalues --    2.42969   2.45957   2.57853   2.64253   2.76936
 Alpha virt. eigenvalues --    3.45851   3.45855   3.50735   3.50736  23.68725
 Alpha virt. eigenvalues --   23.68995
  Beta  occ. eigenvalues --  -10.85592 -10.85592  -1.03888  -0.99794  -0.76025
  Beta  occ. eigenvalues --   -0.76025  -0.73598  -0.73597
  Beta virt. eigenvalues --   -0.35684  -0.21790  -0.15726  -0.11083  -0.11083
  Beta virt. eigenvalues --   -0.09305  -0.06579  -0.06579  -0.06564  -0.04075
  Beta virt. eigenvalues --   -0.04073  -0.01894   0.02130   0.02131   0.05610
  Beta virt. eigenvalues --    0.07746   0.19331   0.19335   0.25809   0.26270
  Beta virt. eigenvalues --    0.26276   0.30901   0.41233   0.41233   0.43966
  Beta virt. eigenvalues --    0.45886   0.45886   0.53467   0.62075   0.70456
  Beta virt. eigenvalues --    0.83223   0.83226   0.90516   0.90518   1.21223
  Beta virt. eigenvalues --    1.21379   1.22262   1.26149   1.26151   1.30876
  Beta virt. eigenvalues --    1.30877   1.40044   1.55289   1.61521   1.64103
  Beta virt. eigenvalues --    1.64104   1.68134   1.68136   1.78665   1.78666
  Beta virt. eigenvalues --    1.81882   1.81889   2.21533   2.21778   2.21783
  Beta virt. eigenvalues --    2.30640   2.30643   2.35150   2.41842   2.41848
  Beta virt. eigenvalues --    2.45476   2.45480   2.49389   2.63623   2.66942
  Beta virt. eigenvalues --    2.79236   3.50120   3.50123   3.55034   3.55036
  Beta virt. eigenvalues --   23.69977  23.70250
          Condensed to atoms (all electrons):
               1          2          3          4          5          6
     1  C    5.112034   0.078879  -0.007302   0.375169  -0.007291  -0.007296
     2  C    0.078879   5.112035   0.375194  -0.007297   0.375177   0.375167
     3  H   -0.007302   0.375194   0.400717  -0.000853  -0.016315  -0.016319
     4  H    0.375169  -0.007297  -0.000853   0.400770   0.000863  -0.000854
     5  H   -0.007291   0.375177  -0.016315   0.000863   0.400736  -0.016318
     6  H   -0.007296   0.375167  -0.016319  -0.000854  -0.016318   0.400769
     7  H    0.375194  -0.007302   0.000863  -0.016317  -0.000852  -0.000853
     8  H    0.375174  -0.007290  -0.000852  -0.016318  -0.000853   0.000863
               7          8
     1  C    0.375194   0.375174
     2  C   -0.007302  -0.007290
     3  H    0.000863  -0.000852
     4  H   -0.016317  -0.016318
     5  H   -0.000852  -0.000853
     6  H   -0.000853   0.000863
     7  H    0.400716  -0.016317
     8  H   -0.016317   0.400737
          Atomic-Atomic Spin Densities.
               1          2          3          4          5          6
     1  C    0.495324   0.108862  -0.004428  -0.006904  -0.004434  -0.004437
     2  C    0.108862   0.495324  -0.006907  -0.004437  -0.006904  -0.006903
     3  H   -0.004428  -0.006907  -0.015977   0.000195   0.001719   0.001720
     4  H   -0.006904  -0.004437   0.000195  -0.015960   0.000084   0.000195
     5  H   -0.004434  -0.006904   0.001719   0.000084  -0.015969   0.001721
     6  H   -0.004437  -0.006903   0.001720   0.000195   0.001721  -0.015955
     7  H   -0.006907  -0.004428   0.000084   0.001720   0.000194   0.000195
     8  H   -0.006904  -0.004434   0.000194   0.001721   0.000195   0.000084
               7          8
     1  C   -0.006907  -0.006904
     2  C   -0.004428  -0.004434
     3  H    0.000084   0.000194
     4  H    0.001720   0.001721
     5  H    0.000194   0.000195
     6  H    0.000195   0.000084
     7  H   -0.015978   0.001720
     8  H    0.001720  -0.015964
 Mulliken charges and spin densities:
               1          2
     1  C   -0.294561   0.570172
     2  C   -0.294562   0.570173
     3  H    0.264867  -0.023400
     4  H    0.264837  -0.023385
     5  H    0.264853  -0.023394
     6  H    0.264841  -0.023380
     7  H    0.264868  -0.023400
     8  H    0.264857  -0.023388
 Sum of Mulliken charges =   1.00000   1.00000
 Mulliken charges and spin densities with hydrogens summed into heavy atoms:
               1          2
     1  C    0.500000   0.500000
     2  C    0.500000   0.500000
 Electronic spatial extent (au):  <R**2>=            141.5847
 Charge=              1.0000 electrons
 Dipole moment (field-independent basis, Debye):
    X=             -0.0000    Y=             -0.0000    Z=             -0.0000  Tot=              0.0001
 Quadrupole moment (field-independent basis, Debye-Ang):
   XX=             -4.4406   YY=            -10.8981   ZZ=            -10.8982
   XY=             -0.0007   XZ=              0.0004   YZ=             -0.0000
 Traceless Quadrupole moment (field-independent basis, Debye-Ang):
   XX=              4.3050   YY=             -2.1524   ZZ=             -2.1526
   XY=             -0.0007   XZ=              0.0004   YZ=             -0.0000
 Octapole moment (field-independent basis, Debye-Ang**2):
  XXX=             -0.0000  YYY=              0.0006  ZZZ=              0.0000  XYY=              0.0006
  XXY=              0.0010  XXZ=              0.0016  XZZ=             -0.0006  YZZ=             -0.0006
  YYZ=              0.0000  XYZ=              0.0004
 Hexadecapole moment (field-independent basis, Debye-Ang**3):
 XXXX=           -115.1840 YYYY=            -21.1020 ZZZZ=            -21.1019 XXXY=             -0.0029
 XXXZ=              0.0018 YYYX=              0.0114 YYYZ=              0.0002 ZZZX=             -3.7955
 ZZZY=             -0.0001 XXYY=            -21.4288 XXZZ=            -21.4318 YYZZ=             -7.0342
 XXYZ=             -0.0022 YYXZ=              3.7953 ZZXY=             -0.0111
 N-N= 3.585099200127D+01 E-N=-2.502146167108D+02  KE= 7.892644123342D+01
                          Isotropic Fermi Contact Couplings
        Atom                 a.u.       MegaHertz       Gauss      10(-4) cm-1
     1  C(13)              0.07626      85.72929      30.59034      28.59621
     2  C(13)              0.07626      85.72924      30.59032      28.59620
     3  H(1)              -0.00627     -28.04566     -10.00739      -9.35503
     4  H(1)              -0.00627     -28.01516      -9.99650      -9.34485
     5  H(1)              -0.00627     -28.02697     -10.00072      -9.34879
     6  H(1)              -0.00627     -28.00985      -9.99461      -9.34308
     7  H(1)              -0.00627     -28.04633     -10.00763      -9.35525
     8  H(1)              -0.00627     -28.02088      -9.99855      -9.34676
 --------------------------------------------------------
       Center         ----  Spin Dipole Couplings  ----
                      3XX-RR        3YY-RR        3ZZ-RR
 --------------------------------------------------------
     1   Atom        0.544870     -0.272436     -0.272434
     2   Atom        0.544870     -0.272436     -0.272435
     3   Atom        0.003024      0.018389     -0.021413
     4   Atom        0.003032      0.018521     -0.021553
     5   Atom        0.003029      0.018531     -0.021560
     6   Atom        0.003031     -0.041470      0.038439
     7   Atom        0.003024      0.018402     -0.021426
     8   Atom        0.003029     -0.041467      0.038438
 --------------------------------------------------------
                        XY            XZ            YZ
 --------------------------------------------------------
     1   Atom        0.000441     -0.000035     -0.000001
     2   Atom        0.000202     -0.000407     -0.000000
     3   Atom       -0.001489      0.000850     -0.034640
     4   Atom        0.001450      0.000827      0.034566
     5   Atom        0.001473      0.000830      0.034559
     6   Atom        0.000004     -0.001666      0.000087
     7   Atom       -0.001481      0.000866     -0.034633
     8   Atom        0.000014     -0.001687      0.000078
 --------------------------------------------------------


 ---------------------------------------------------------------------------------
              Anisotropic Spin Dipole Couplings in Principal Axis System
 ---------------------------------------------------------------------------------

       Atom             a.u.   MegaHertz   Gauss  10(-4) cm-1        Axes

              Baa    -0.2724   -36.558   -13.045   -12.195 -0.0005  0.9637  0.2670
     1 C(13)  Bbb    -0.2724   -36.558   -13.045   -12.194  0.0002 -0.2670  0.9637
              Bcc     0.5449    73.116    26.090    24.389  1.0000  0.0005 -0.0000
 
              Baa    -0.2724   -36.558   -13.045   -12.195 -0.0002  0.9958  0.0912
     2 C(13)  Bbb    -0.2724   -36.558   -13.045   -12.194  0.0005 -0.0912  0.9958
              Bcc     0.5449    73.116    26.090    24.389  1.0000  0.0002 -0.0005
 
              Baa    -0.0415   -22.122    -7.894    -7.379  0.0002  0.5009  0.8655
     3 H(1)   Bbb     0.0029     1.569     0.560     0.523  0.9988  0.0416 -0.0244
              Bcc     0.0385    20.553     7.334     6.856 -0.0482  0.8645 -0.5003
 
              Baa    -0.0415   -22.126    -7.895    -7.381  0.0002 -0.4992  0.8665
     4 H(1)   Bbb     0.0030     1.576     0.562     0.526  0.9989 -0.0406 -0.0236
              Bcc     0.0385    20.551     7.333     6.855  0.0470  0.8655  0.4987
 
              Baa    -0.0415   -22.125    -7.895    -7.380  0.0004 -0.4991  0.8665
     5 H(1)   Bbb     0.0029     1.573     0.561     0.525  0.9989 -0.0411 -0.0241
              Bcc     0.0385    20.551     7.333     6.855  0.0476  0.8656  0.4986
 
              Baa    -0.0415   -22.127    -7.895    -7.381 -0.0001  1.0000 -0.0011
     6 H(1)   Bbb     0.0030     1.576     0.562     0.526  0.9989  0.0002  0.0469
              Bcc     0.0385    20.551     7.333     6.855 -0.0469  0.0011  0.9989
 
              Baa    -0.0415   -22.122    -7.894    -7.379 -0.0002  0.5008  0.8656
     7 H(1)   Bbb     0.0029     1.569     0.560     0.523  0.9988  0.0419 -0.0240
              Bcc     0.0385    20.553     7.334     6.856 -0.0483  0.8646 -0.5002
 
              Baa    -0.0415   -22.125    -7.895    -7.380 -0.0003  1.0000 -0.0010
     8 H(1)   Bbb     0.0029     1.573     0.561     0.525  0.9989  0.0004  0.0475
              Bcc     0.0385    20.552     7.333     6.855 -0.0475  0.0010  0.9989
 

 ---------------------------------------------------------------------------------

 No NMR shielding tensors so no spin-rotation constants.
 Leave Link  601 at Wed Nov 13 13:21:56 2024, MaxMem=  2147483648 cpu:               7.7 elap:               0.3
 (Enter /home/szhao/Apps/g16/l9999.exe)
 1\1\GINC-NODE01\FOpt\UM062X\6-311+G(d,p)\C2H6(1+,2)\SZHAO\13-Nov-2024\
 0\\#p opt UM062X/6-311+G** nosymm int=superfine\\Title Card Required\\
 1,2\C,-1.19840448,0.,0.\C,1.19840448,0.,0.\H,1.2877339412,-0.935301599
 8,0.5412794109\H,-1.2870187899,-0.9364138851,-0.5394742352\H,1.2874465
 19,0.9364748592,0.5392974841\H,1.2870003113,-0.0011242866,-1.080697768
 6\H,-1.2877567204,0.9353603391,-0.5411747504\H,-1.2874061772,0.0009441
 37,1.0806643431\\Version=ES64L-G16RevA.03\HF=-79.3603574\S2=0.753457\S
 2-1=0.\S2A=0.75001\RMSD=6.015e-09\RMSF=6.525e-06\Dipole=-0.0000008,-0.
 0000035,-0.0000068\Quadrupole=3.2006984,-1.6002848,-1.6004137,-0.00055
 41,0.0003099,-0.0000302\PG=C01 [X(C2H6)]\\@


 A SUCCESSFUL PURSUIT OF SCIENCE MAKES A MAN THE
 BENEFACTOR OF ALL MANKIND OF EVERY AGE.
   --  JOSEPH PRIESTLEY, "EXPERIMENTS AND
 OBSERVATIONS ON DIFFERENT KINDS OF AIR", 1774
 Job cpu time:       0 days  0 hours 11 minutes 28.1 seconds.
 Elapsed time:       0 days  0 hours  0 minutes 26.6 seconds.
 File lengths (MBytes):  RWF=     10 Int=      0 D2E=      0 Chk=      2 Scr=      1
 Normal termination of Gaussian 16 at Wed Nov 13 13:21:56 2024.
