 Entering Gaussian System, Link 0=g16
 Initial command:
 /home/szhao/Apps/g16/l1.exe "/home/szhao/tmp/Gau-175745.inp" -scrdir="/home/szhao/tmp/"
 Default is to use a total of  16 processors:
                               16 via shared-memory
                                1 via Linda
 Entering Link 1 = /home/szhao/Apps/g16/l1.exe PID=    175751.
  
 Copyright (c) 1988,1990,1992,1993,1995,1998,2003,2009,2016,
            Gaussian, Inc.  All Rights Reserved.
  
 This is part of the Gaussian(R) 16 program.  It is based on
 the Gaussian(R) 09 system (copyright 2009, Gaussian, Inc.),
 the Gaussian(R) 03 system (copyright 2003, Gaussian, Inc.),
 the Gaussian(R) 98 system (copyright 1998, Gaussian, Inc.),
 the Gaussian(R) 94 system (copyright 1995, Gaussian, Inc.),
 the Gaussian 92(TM) system (copyright 1992, Gaussian, Inc.),
 the Gaussian 90(TM) system (copyright 1990, Gaussian, Inc.),
 the Gaussian 88(TM) system (copyright 1988, Gaussian, Inc.),
 the Gaussian 86(TM) system (copyright 1986, Carnegie Mellon
 University), and the Gaussian 82(TM) system (copyright 1983,
 Carnegie Mellon University). Gaussian is a federally registered
 trademark of Gaussian, Inc.
  
 This software contains proprietary and confidential information,
 including trade secrets, belonging to Gaussian, Inc.
  
 This software is provided under written license and may be
 used, copied, transmitted, or stored only in accord with that
 written license.
  
 The following legend is applicable only to US Government
 contracts under FAR:
  
                    RESTRICTED RIGHTS LEGEND
  
 Use, reproduction and disclosure by the US Government is
 subject to restrictions as set forth in subparagraphs (a)
 and (c) of the Commercial Computer Software - Restricted
 Rights clause in FAR 52.227-19.
  
 Gaussian, Inc.
 340 Quinnipiac St., Bldg. 40, Wallingford CT 06492
  
  
 ---------------------------------------------------------------
 Warning -- This program may not be used in any manner that
 competes with the business of Gaussian, Inc. or will provide
 assistance to any competitor of Gaussian, Inc.  The licensee
 of this program is prohibited from giving any competitor of
 Gaussian, Inc. access to this program.  By using this program,
 the user acknowledges that Gaussian, Inc. is engaged in the
 business of creating and licensing software in the field of
 computational chemistry and represents and warrants to the
 licensee that it is not a competitor of Gaussian, Inc. and that
 it will not use this program in any manner prohibited above.
 ---------------------------------------------------------------
  

 Cite this work as:
 Gaussian 16, Revision A.03,
 M. J. Frisch, G. W. Trucks, H. B. Schlegel, G. E. Scuseria, 
 M. A. Robb, J. R. Cheeseman, G. Scalmani, V. Barone, 
 G. A. Petersson, H. Nakatsuji, X. Li, M. Caricato, A. V. Marenich, 
 J. Bloino, B. G. Janesko, R. Gomperts, B. Mennucci, H. P. Hratchian, 
 J. V. Ortiz, A. F. Izmaylov, J. L. Sonnenberg, D. Williams-Young, 
 F. Ding, F. Lipparini, F. Egidi, J. Goings, B. Peng, A. Petrone, 
 T. Henderson, D. Ranasinghe, V. G. Zakrzewski, J. Gao, N. Rega, 
 G. Zheng, W. Liang, M. Hada, M. Ehara, K. Toyota, R. Fukuda, 
 J. Hasegawa, M. Ishida, T. Nakajima, Y. Honda, O. Kitao, H. Nakai, 
 T. Vreven, K. Throssell, J. A. Montgomery, Jr., J. E. Peralta, 
 F. Ogliaro, M. J. Bearpark, J. J. Heyd, E. N. Brothers, K. N. Kudin, 
 V. N. Staroverov, T. A. Keith, R. Kobayashi, J. Normand, 
 K. Raghavachari, A. P. Rendell, J. C. Burant, S. S. Iyengar, 
 J. Tomasi, M. Cossi, J. M. Millam, M. Klene, C. Adamo, R. Cammi, 
 J. W. Ochterski, R. L. Martin, K. Morokuma, O. Farkas, 
 J. B. Foresman, and D. J. Fox, Gaussian, Inc., Wallingford CT, 2016.
 
 ******************************************
 Gaussian 16:  ES64L-G16RevA.03 25-Dec-2016
                21-Apr-2025 
 ******************************************
 %chk=opt.chk
 %mem=4GB
 %nprocshared=8
 Will use up to    8 processors via shared memory.
 --------------------------------------------
 #p opt UM062X/6-311+G** nosymm int=superfine
 --------------------------------------------
 1/18=20,19=15,26=5,38=1/1,3;
 2/9=110,12=2,15=1,17=6,18=5,40=1/2;
 3/5=4,6=6,7=111,11=2,25=1,30=1,71=1,74=-55,75=-7,116=2/1,2,3;
 4//1;
 5/5=2,38=5/2;
 6/7=2,8=2,9=2,10=2,28=1/1;
 7/30=1/1,2,3,16;
 1/18=20,19=15,26=5/3(2);
 2/9=110,15=1/2;
 99//99;
 2/9=110,15=1/2;
 3/5=4,6=6,7=111,11=2,25=1,30=1,71=1,74=-55,75=-7,116=2/1,2,3;
 4/5=5,16=3,69=1/1;
 5/5=2,38=5/2;
 7/30=1/1,2,3,16;
 1/18=20,19=15,26=5/3(-5);
 2/9=110,15=1/2;
 6/7=2,8=2,9=2,10=2,19=2,28=1/1;
 99/9=1/99;
 Leave Link    1 at Mon Apr 21 18:36:05 2025, MaxMem=   536870912 cpu:               0.7 elap:               0.1
 (Enter /home/szhao/Apps/g16/l101.exe)
 -------------------
 Title Card Required
 -------------------
 Symbolic Z-matrix:
 Charge =  1 Multiplicity = 2
 C                    -1   -1.42654   0.        0. 
 N                    -1    1.42654   0.        0. 
 H                    0    -2.52076   0.        0. 
 
 Add virtual bond connecting atoms N2         and C1         Dist= 5.39D+00.
 ITRead=  2  2  0
 MicOpt= -2 -2 -1
 NAtoms=      3 NQM=        1 NQMF=       2 NMMI=      0 NMMIF=      0
                NMic=       0 NMicF=      0.
                    Isotopes and Nuclear Properties:
 (Nuclear quadrupole moments (NQMom) in fm**2, nuclear magnetic moments (NMagM)
  in nuclear magnetons)

  Atom         1           2           3
 IAtWgt=          12          14           1
 AtmWgt=  12.0000000  14.0030740   1.0078250
 NucSpn=           0           2           1
 AtZEff=  -0.0000000  -0.0000000  -0.0000000
 NQMom=    0.0000000   2.0440000   0.0000000
 NMagM=    0.0000000   0.4037610   2.7928460
 AtZNuc=   6.0000000   7.0000000   1.0000000
 Leave Link  101 at Mon Apr 21 18:36:06 2025, MaxMem=   536870912 cpu:               2.5 elap:               0.3
 (Enter /home/szhao/Apps/g16/l103.exe)

 GradGradGradGradGradGradGradGradGradGradGradGradGradGradGradGradGradGrad
 Berny optimization.
 Initialization pass.
                           ----------------------------
                           !    Initial Parameters    !
                           ! (Angstroms and Degrees)  !
 --------------------------                            --------------------------
 ! Name  Definition              Value          Derivative Info.                !
 --------------------------------------------------------------------------------
 ! X1    R(1,-1)                -1.4265         Frozen                          !
 ! Y1    R(1,-2)                 0.0            Frozen                          !
 ! Z1    R(1,-3)                 0.0            Frozen                          !
 ! X2    R(2,-1)                 1.4265         Frozen                          !
 ! Y2    R(2,-2)                 0.0            Frozen                          !
 ! Z2    R(2,-3)                 0.0            Frozen                          !
 ! R1    R(1,3)                  1.0942         estimate D2E/DX2                !
 ! A1    L(2,1,3,-2,-1)        180.0            estimate D2E/DX2                !
 ! A2    L(2,1,3,-3,-2)        180.0            estimate D2E/DX2                !
 --------------------------------------------------------------------------------
 Trust Radius=3.00D-01 FncErr=1.00D-07 GrdErr=1.00D-07 EigMax=2.50D+02 EigMin=1.00D-04
 Number of steps in this run=     20 maximum allowed number of steps=    100.
 GradGradGradGradGradGradGradGradGradGradGradGradGradGradGradGradGradGrad

 Leave Link  103 at Mon Apr 21 18:36:06 2025, MaxMem=   536870912 cpu:               0.1 elap:               0.0
 (Enter /home/szhao/Apps/g16/l202.exe)
                          Input orientation:                          
 ---------------------------------------------------------------------
 Center     Atomic      Atomic             Coordinates (Angstroms)
 Number     Number       Type             X           Y           Z
 ---------------------------------------------------------------------
      1          6           0       -1.426540    0.000000    0.000000
      2          7           0        1.426540    0.000000    0.000000
      3          1           0       -2.520760    0.000000    0.000000
 ---------------------------------------------------------------------
                    Distance matrix (angstroms):
                    1          2          3
     1  C    0.000000
     2  N    2.853079   0.000000
     3  H    1.094220   3.947299   0.000000
 Symmetry turned off by external request.
 Stoichiometry    CHN(1+,2)
 Framework group  C*V[C*(HCN)]
 Deg. of freedom     2
 Full point group                 C*V     NOp   4
 Rotational constants (GHZ):           0.0000000           8.5199871           8.5199871
 Leave Link  202 at Mon Apr 21 18:36:06 2025, MaxMem=   536870912 cpu:               0.1 elap:               0.0
 (Enter /home/szhao/Apps/g16/l301.exe)
 Standard basis: 6-311+G(d,p) (5D, 7F)
 Ernie: Thresh=  0.10000D-02 Tol=  0.10000D-05 Strict=F.
    50 basis functions,    80 primitive gaussians,    52 cartesian basis functions
     7 alpha electrons        6 beta electrons
       nuclear repulsion energy        11.6300772743 Hartrees.
 IExCor= 4336 DFT=T Ex+Corr=M062X ExCW=0 ScaHFX=  0.540000
 ScaDFX=  1.000000  1.000000  1.000000  1.000000 ScalE2=  1.000000  1.000000
 IRadAn=      7 IRanWt=     -1 IRanGd=            0 ICorTp=0 IEmpDi=  4
 NAtoms=    3 NActive=    3 NUniq=    3 SFac= 1.00D+00 NAtFMM=   60 NAOKFM=F Big=F
 Integral buffers will be    131072 words long.
 Raffenetti 2 integral format.
 Two-electron integral symmetry is turned off.
 Leave Link  301 at Mon Apr 21 18:36:06 2025, MaxMem=   536870912 cpu:               0.5 elap:               0.1
 (Enter /home/szhao/Apps/g16/l302.exe)
 NPDir=0 NMtPBC=     1 NCelOv=     1 NCel=       1 NClECP=     1 NCelD=      1
         NCelK=      1 NCelE2=     1 NClLst=     1 CellRange=     0.0.
 One-electron integrals computed using PRISM.
 NBasis=    50 RedAO= T EigKep=  1.29D-02  NBF=    50
 NBsUse=    50 1.00D-06 EigRej= -1.00D+00 NBFU=    50
 Precomputing XC quadrature grid using
 IXCGrd= 4 IRadAn=           7 IRanWt=          -1 IRanGd=           0 AccXCQ= 0.00D+00.
 Generated NRdTot=       0 NPtTot=           0 NUsed=           0 NTot=          32
 NSgBfM=    52    52    52    52    52 MxSgAt=     3 MxSgA2=     3.
 Leave Link  302 at Mon Apr 21 18:36:06 2025, MaxMem=   536870912 cpu:               1.1 elap:               0.2
 (Enter /home/szhao/Apps/g16/l303.exe)
 DipDrv:  MaxL=1.
 Leave Link  303 at Mon Apr 21 18:36:06 2025, MaxMem=   536870912 cpu:               0.3 elap:               0.1
 (Enter /home/szhao/Apps/g16/l401.exe)
 ExpMin= 4.38D-02 ExpMax= 6.29D+03 ExpMxC= 9.49D+02 IAcc=3 IRadAn=         7 AccDes= 0.00D+00
 Harris functional with IExCor= 1009 and IRadAn=       7 diagonalized for initial guess.
 HarFok:  IExCor= 1009 AccDes= 0.00D+00 IRadAn=         7 IDoV= 1 UseB2=F ITyADJ=14
 ICtDFT=  3500011 ScaDFX=  1.000000  1.000000  1.000000  1.000000
 FoFCou: FMM=F IPFlag=           0 FMFlag=      100000 FMFlg1=           0
         NFxFlg=           0 DoJE=T BraDBF=F KetDBF=T FulRan=T
         wScrn=  0.000000 ICntrl=       500 IOpCl=  0 I1Cent=   200000004 NGrid=           0
         NMat0=    1 NMatS0=      1 NMatT0=    0 NMatD0=    1 NMtDS0=    0 NMtDT0=    0
 Symmetry not used in FoFCou.
 Harris En= -92.6297160876111    
 JPrj=0 DoOrth=F DoCkMO=F.
 Initial guess <Sx>= 0.0000 <Sy>= 0.0000 <Sz>= 0.5000 <S**2>= 0.7500 S= 0.5000
 Leave Link  401 at Mon Apr 21 18:36:07 2025, MaxMem=   536870912 cpu:               1.8 elap:               0.3
 (Enter /home/szhao/Apps/g16/l502.exe)
 Keep R1 and R2 ints in memory in canonical form, NReq=8667815.
 FoFCou: FMM=F IPFlag=           0 FMFlag=           0 FMFlg1=           0
         NFxFlg=           0 DoJE=F BraDBF=F KetDBF=F FulRan=T
         wScrn=  0.000000 ICntrl=       600 IOpCl=  0 I1Cent=           0 NGrid=           0
         NMat0=    1 NMatS0=   1275 NMatT0=    0 NMatD0=    1 NMtDS0=    0 NMtDT0=    0
 Symmetry not used in FoFCou.
 Two-electron integral symmetry not used.
 UHF open shell SCF:
 Using DIIS extrapolation, IDIIS=  1040.
 NGot=   536870912 LenX=   535237675 LenY=   535234530
 Requested convergence on RMS density matrix=1.00D-08 within 128 cycles.
 Requested convergence on MAX density matrix=1.00D-06.
 Requested convergence on             energy=1.00D-06.
 No special actions if energy rises.

 Cycle   1  Pass 1  IDiag  1:
 E= -92.4950629318486    
 DIIS: error= 2.40D-02 at cycle   1 NSaved=   1.
 NSaved= 1 IEnMin= 1 EnMin= -92.4950629318486     IErMin= 1 ErrMin= 2.40D-02
 ErrMax= 2.40D-02  0.00D+00 EMaxC= 1.00D-01 BMatC= 1.77D-01 BMatP= 1.77D-01
 IDIUse=3 WtCom= 7.60D-01 WtEn= 2.40D-01
 Coeff-Com:  0.100D+01
 Coeff-En:   0.100D+01
 Coeff:      0.100D+01
 Gap=     0.223 Goal=   None    Shift=    0.000
 Gap=     0.223 Goal=   None    Shift=    0.000
 GapD=    0.223 DampG=1.000 DampE=0.500 DampFc=0.5000 IDamp=-1.
 Damping current iteration by 5.00D-01
 RMSDP=5.94D-03 MaxDP=1.42D-01              OVMax= 1.65D-01

 Cycle   2  Pass 1  IDiag  1:
 E= -92.5283830391369     Delta-E=       -0.033320107288 Rises=F Damp=T
 DIIS: error= 1.23D-02 at cycle   2 NSaved=   2.
 NSaved= 2 IEnMin= 2 EnMin= -92.5283830391369     IErMin= 2 ErrMin= 1.23D-02
 ErrMax= 1.23D-02  0.00D+00 EMaxC= 1.00D-01 BMatC= 2.81D-02 BMatP= 1.77D-01
 IDIUse=3 WtCom= 8.77D-01 WtEn= 1.23D-01
 Coeff-Com: -0.456D+00 0.146D+01
 Coeff-En:   0.000D+00 0.100D+01
 Coeff:     -0.400D+00 0.140D+01
 Gap=     0.161 Goal=   None    Shift=    0.000
 Gap=     0.125 Goal=   None    Shift=    0.000
 RMSDP=2.54D-03 MaxDP=3.84D-02 DE=-3.33D-02 OVMax= 1.12D-01

 Cycle   3  Pass 1  IDiag  1:
 E= -92.5625588865959     Delta-E=       -0.034175847459 Rises=F Damp=F
 DIIS: error= 1.23D-02 at cycle   3 NSaved=   3.
 NSaved= 3 IEnMin= 3 EnMin= -92.5625588865959     IErMin= 2 ErrMin= 1.23D-02
 ErrMax= 1.23D-02  0.00D+00 EMaxC= 1.00D-01 BMatC= 8.91D-03 BMatP= 2.81D-02
 IDIUse=3 WtCom= 8.77D-01 WtEn= 1.23D-01
 Coeff-Com: -0.198D+00 0.626D+00 0.572D+00
 Coeff-En:   0.000D+00 0.000D+00 0.100D+01
 Coeff:     -0.174D+00 0.549D+00 0.625D+00
 Gap=     0.124 Goal=   None    Shift=    0.000
 Gap=     0.081 Goal=   None    Shift=    0.000
 RMSDP=2.02D-03 MaxDP=3.60D-02 DE=-3.42D-02 OVMax= 1.91D-01

 Cycle   4  Pass 1  IDiag  1:
 E= -92.5666876797240     Delta-E=       -0.004128793128 Rises=F Damp=F
 DIIS: error= 1.61D-02 at cycle   4 NSaved=   4.
 NSaved= 4 IEnMin= 4 EnMin= -92.5666876797240     IErMin= 2 ErrMin= 1.23D-02
 ErrMax= 1.61D-02  0.00D+00 EMaxC= 1.00D-01 BMatC= 1.21D-02 BMatP= 8.91D-03
 IDIUse=2 WtCom= 0.00D+00 WtEn= 1.00D+00
 Coeff-En:   0.000D+00 0.000D+00 0.225D+00 0.775D+00
 Coeff:      0.000D+00 0.000D+00 0.225D+00 0.775D+00
 Gap=     0.213 Goal=   None    Shift=    0.000
 Gap=     0.111 Goal=   None    Shift=    0.000
 RMSDP=1.65D-03 MaxDP=2.38D-02 DE=-4.13D-03 OVMax= 1.23D-01

 Cycle   5  Pass 1  IDiag  1:
 E= -92.5721468752871     Delta-E=       -0.005459195563 Rises=F Damp=F
 DIIS: error= 1.50D-02 at cycle   5 NSaved=   5.
 NSaved= 5 IEnMin= 5 EnMin= -92.5721468752871     IErMin= 2 ErrMin= 1.23D-02
 ErrMax= 1.50D-02  0.00D+00 EMaxC= 1.00D-01 BMatC= 6.14D-03 BMatP= 8.91D-03
 IDIUse=3 WtCom= 8.50D-01 WtEn= 1.50D-01
 Coeff-Com:  0.311D-01-0.967D-01 0.542D+00 0.490D+00 0.326D-01
 Coeff-En:   0.000D+00 0.000D+00 0.000D+00 0.000D+00 0.100D+01
 Coeff:      0.265D-01-0.822D-01 0.461D+00 0.417D+00 0.178D+00
 Gap=     0.170 Goal=   None    Shift=    0.000
 Gap=     0.088 Goal=   None    Shift=    0.000
 RMSDP=1.50D-03 MaxDP=2.79D-02 DE=-5.46D-03 OVMax= 1.41D-01

 Cycle   6  Pass 1  IDiag  1:
 E= -92.5755128716261     Delta-E=       -0.003365996339 Rises=F Damp=F
 DIIS: error= 1.28D-02 at cycle   6 NSaved=   6.
 NSaved= 6 IEnMin= 6 EnMin= -92.5755128716261     IErMin= 2 ErrMin= 1.23D-02
 ErrMax= 1.28D-02  0.00D+00 EMaxC= 1.00D-01 BMatC= 8.98D-03 BMatP= 6.14D-03
 IDIUse=2 WtCom= 0.00D+00 WtEn= 1.00D+00
 Coeff-En:   0.000D+00 0.000D+00 0.000D+00 0.000D+00 0.203D+00 0.797D+00
 Coeff:      0.000D+00 0.000D+00 0.000D+00 0.000D+00 0.203D+00 0.797D+00
 Gap=     0.263 Goal=   None    Shift=    0.000
 Gap=     0.107 Goal=   None    Shift=    0.000
 RMSDP=1.27D-03 MaxDP=2.59D-02 DE=-3.37D-03 OVMax= 8.66D-02

 Cycle   7  Pass 1  IDiag  1:
 E= -92.5816401357525     Delta-E=       -0.006127264126 Rises=F Damp=F
 DIIS: error= 9.50D-03 at cycle   7 NSaved=   7.
 NSaved= 7 IEnMin= 7 EnMin= -92.5816401357525     IErMin= 7 ErrMin= 9.50D-03
 ErrMax= 9.50D-03  0.00D+00 EMaxC= 1.00D-01 BMatC= 1.63D-03 BMatP= 6.14D-03
 IDIUse=3 WtCom= 9.05D-01 WtEn= 9.50D-02
 Coeff-Com: -0.168D-01 0.140D-01 0.891D+00 0.521D+00-0.249D+01-0.100D+01
 Coeff-Com:  0.308D+01
 Coeff-En:   0.000D+00 0.000D+00 0.000D+00 0.000D+00 0.000D+00 0.000D+00
 Coeff-En:   0.100D+01
 Coeff:     -0.152D-01 0.127D-01 0.807D+00 0.471D+00-0.225D+01-0.909D+00
 Coeff:      0.289D+01
 Gap=     0.259 Goal=   None    Shift=    0.000
 Gap=     0.103 Goal=   None    Shift=    0.000
 RMSDP=1.52D-03 MaxDP=2.44D-02 DE=-6.13D-03 OVMax= 1.21D-01

 Cycle   8  Pass 1  IDiag  1:
 E= -92.5868223254042     Delta-E=       -0.005182189652 Rises=F Damp=F
 DIIS: error= 7.00D-03 at cycle   8 NSaved=   8.
 NSaved= 8 IEnMin= 8 EnMin= -92.5868223254042     IErMin= 8 ErrMin= 7.00D-03
 ErrMax= 7.00D-03  0.00D+00 EMaxC= 1.00D-01 BMatC= 7.08D-04 BMatP= 1.63D-03
 IDIUse=3 WtCom= 9.30D-01 WtEn= 7.00D-02
 Coeff-Com: -0.277D-01 0.368D-01 0.556D+00 0.313D+00-0.168D+01-0.717D+00
 Coeff-Com:  0.149D+01 0.102D+01
 Coeff-En:   0.000D+00 0.000D+00 0.000D+00 0.000D+00 0.000D+00 0.000D+00
 Coeff-En:   0.000D+00 0.100D+01
 Coeff:     -0.258D-01 0.342D-01 0.517D+00 0.291D+00-0.156D+01-0.667D+00
 Coeff:      0.139D+01 0.102D+01
 Gap=     0.219 Goal=   None    Shift=    0.000
 Gap=     0.110 Goal=   None    Shift=    0.000
 RMSDP=1.36D-03 MaxDP=2.19D-02 DE=-5.18D-03 OVMax= 1.08D-01

 Cycle   9  Pass 1  IDiag  1:
 E= -92.5902211238709     Delta-E=       -0.003398798467 Rises=F Damp=F
 DIIS: error= 5.27D-03 at cycle   9 NSaved=   9.
 NSaved= 9 IEnMin= 9 EnMin= -92.5902211238709     IErMin= 9 ErrMin= 5.27D-03
 ErrMax= 5.27D-03  0.00D+00 EMaxC= 1.00D-01 BMatC= 4.37D-04 BMatP= 7.08D-04
 IDIUse=3 WtCom= 9.47D-01 WtEn= 5.27D-02
 Coeff-Com: -0.123D-01 0.172D-01 0.429D+00 0.199D+00-0.884D+00-0.293D+00
 Coeff-Com:  0.700D+00-0.220D+00 0.106D+01
 Coeff-En:   0.000D+00 0.000D+00 0.000D+00 0.000D+00 0.000D+00 0.000D+00
 Coeff-En:   0.000D+00 0.000D+00 0.100D+01
 Coeff:     -0.116D-01 0.162D-01 0.407D+00 0.189D+00-0.838D+00-0.278D+00
 Coeff:      0.663D+00-0.208D+00 0.106D+01
 Gap=     0.212 Goal=   None    Shift=    0.000
 Gap=     0.107 Goal=   None    Shift=    0.000
 RMSDP=5.56D-04 MaxDP=1.02D-02 DE=-3.40D-03 OVMax= 4.44D-02

 Cycle  10  Pass 1  IDiag  1:
 E= -92.5915062385068     Delta-E=       -0.001285114636 Rises=F Damp=F
 DIIS: error= 3.80D-03 at cycle  10 NSaved=  10.
 NSaved=10 IEnMin=10 EnMin= -92.5915062385068     IErMin=10 ErrMin= 3.80D-03
 ErrMax= 3.80D-03  0.00D+00 EMaxC= 1.00D-01 BMatC= 5.31D-04 BMatP= 4.37D-04
 IDIUse=3 WtCom= 9.47D-01 WtEn= 5.27D-02
 Coeff-Com: -0.102D-01 0.124D-01 0.433D+00 0.328D+00-0.903D+00-0.589D+00
 Coeff-Com:  0.762D+00-0.767D-01 0.125D+00 0.919D+00
 Coeff-En:   0.000D+00 0.000D+00 0.000D+00 0.000D+00 0.000D+00 0.000D+00
 Coeff-En:   0.000D+00 0.000D+00 0.000D+00 0.100D+01
 Coeff:     -0.964D-02 0.117D-01 0.410D+00 0.311D+00-0.856D+00-0.558D+00
 Coeff:      0.722D+00-0.727D-01 0.119D+00 0.923D+00
 Gap=     0.195 Goal=   None    Shift=    0.000
 Gap=     0.108 Goal=   None    Shift=    0.000
 RMSDP=7.03D-04 MaxDP=9.46D-03 DE=-1.29D-03 OVMax= 5.08D-02

 Cycle  11  Pass 1  IDiag  1:
 E= -92.5932337313234     Delta-E=       -0.001727492817 Rises=F Damp=F
 DIIS: error= 6.41D-03 at cycle  11 NSaved=  11.
 NSaved=11 IEnMin=11 EnMin= -92.5932337313234     IErMin=10 ErrMin= 3.80D-03
 ErrMax= 6.41D-03  0.00D+00 EMaxC= 1.00D-01 BMatC= 6.56D-04 BMatP= 4.37D-04
 IDIUse=3 WtCom= 9.47D-01 WtEn= 5.27D-02
 Coeff-Com: -0.580D-02 0.138D-01 0.180D+00 0.379D+00-0.303D+00-0.710D+00
 Coeff-Com:  0.500D+00-0.198D-01 0.530D+00 0.227D+01-0.183D+01
 Coeff-En:   0.000D+00 0.000D+00 0.000D+00 0.000D+00 0.000D+00 0.000D+00
 Coeff-En:   0.000D+00 0.000D+00 0.000D+00 0.000D+00 0.100D+01
 Coeff:     -0.550D-02 0.131D-01 0.171D+00 0.359D+00-0.287D+00-0.672D+00
 Coeff:      0.474D+00-0.188D-01 0.502D+00 0.215D+01-0.168D+01
 Gap=     0.236 Goal=   None    Shift=    0.000
 Gap=     0.102 Goal=   None    Shift=    0.000
 RMSDP=1.94D-03 MaxDP=2.95D-02 DE=-1.73D-03 OVMax= 1.43D-01

 Cycle  12  Pass 1  IDiag  1:
 E= -92.5884028041128     Delta-E=        0.004830927211 Rises=F Damp=F
 DIIS: error= 6.91D-03 at cycle  12 NSaved=  12.
 NSaved=12 IEnMin=11 EnMin= -92.5932337313234     IErMin=10 ErrMin= 3.80D-03
 ErrMax= 6.91D-03  0.00D+00 EMaxC= 1.00D-01 BMatC= 6.91D-04 BMatP= 4.37D-04
 IDIUse=3 WtCom= 9.47D-01 WtEn= 5.27D-02
 Rare condition: small coef for last iteration:  0.000D+00
 Coeff-Com:  0.106D-01-0.216D-01 0.569D-01 0.201D+00-0.126D+00-0.266D+00
 Coeff-Com:  0.474D-01-0.700D+00 0.620D+00 0.201D+01-0.321D+01 0.238D+01
 Coeff-En:   0.000D+00 0.000D+00 0.000D+00 0.000D+00 0.000D+00 0.000D+00
 Coeff-En:   0.000D+00 0.000D+00 0.000D+00 0.000D+00 0.000D+00 0.100D+01
 Coeff:      0.106D-01-0.216D-01 0.569D-01 0.201D+00-0.126D+00-0.266D+00
 Coeff:      0.474D-01-0.700D+00 0.620D+00 0.201D+01-0.321D+01 0.238D+01
 Gap=     0.308 Goal=   None    Shift=    0.000
 Gap=     0.116 Goal=   None    Shift=    0.000
 RMSDP=2.01D-03 MaxDP=3.44D-02 DE= 4.83D-03 OVMax= 1.64D-01

 Cycle  13  Pass 1  IDiag  1:
 E= -92.5812855249011     Delta-E=        0.007117279212 Rises=F Damp=F
 DIIS: error= 1.33D-02 at cycle  13 NSaved=  13.
 NSaved=13 IEnMin=11 EnMin= -92.5932337313234     IErMin=10 ErrMin= 3.80D-03
 ErrMax= 1.33D-02  0.00D+00 EMaxC= 1.00D-01 BMatC= 4.37D-03 BMatP= 4.37D-04
 IDIUse=2 WtCom= 0.00D+00 WtEn= 1.00D+00
 Rare condition: small coef for last iteration:  0.000D+00
 Coeff-En:   0.000D+00 0.000D+00 0.000D+00 0.000D+00 0.000D+00 0.000D+00
 Coeff-En:   0.000D+00 0.000D+00 0.000D+00 0.000D+00 0.000D+00 0.000D+00
 Coeff-En:   0.100D+01
 Coeff:      0.000D+00 0.000D+00 0.000D+00 0.000D+00 0.000D+00 0.000D+00
 Coeff:      0.000D+00 0.000D+00 0.000D+00 0.000D+00 0.000D+00 0.000D+00
 Coeff:      0.100D+01
 Gap=     0.261 Goal=   None    Shift=    0.000
 Gap=     0.094 Goal=   None    Shift=    0.000
 RMSDP=2.77D-03 MaxDP=6.24D-02 DE= 7.12D-03 OVMax= 2.78D-01

 Cycle  14  Pass 1  IDiag  1:
 E= -92.5756475548306     Delta-E=        0.005637970070 Rises=F Damp=F
 DIIS: error= 1.86D-02 at cycle  14 NSaved=  14.
 NSaved=14 IEnMin=11 EnMin= -92.5932337313234     IErMin=10 ErrMin= 3.80D-03
 ErrMax= 1.86D-02  0.00D+00 EMaxC= 1.00D-01 BMatC= 3.69D-02 BMatP= 4.37D-04
 IDIUse=2 WtCom= 0.00D+00 WtEn= 1.00D+00
 Coeff-En:   0.000D+00 0.000D+00 0.000D+00 0.000D+00 0.000D+00 0.000D+00
 Coeff-En:   0.000D+00 0.000D+00 0.000D+00 0.000D+00 0.000D+00 0.000D+00
 Coeff-En:   0.681D+00 0.319D+00
 Coeff:      0.000D+00 0.000D+00 0.000D+00 0.000D+00 0.000D+00 0.000D+00
 Coeff:      0.000D+00 0.000D+00 0.000D+00 0.000D+00 0.000D+00 0.000D+00
 Coeff:      0.681D+00 0.319D+00
 Gap=     0.332 Goal=   None    Shift=    0.000
 Gap=     0.103 Goal=   None    Shift=    0.000
 RMSDP=1.50D-03 MaxDP=2.91D-02 DE= 5.64D-03 OVMax= 1.26D-01

 Cycle  15  Pass 1  IDiag  1:
 E= -92.5873847332615     Delta-E=       -0.011737178431 Rises=F Damp=F
 DIIS: error= 2.41D-03 at cycle  15 NSaved=  15.
 NSaved=15 IEnMin=11 EnMin= -92.5932337313234     IErMin=15 ErrMin= 2.41D-03
 ErrMax= 2.41D-03  0.00D+00 EMaxC= 1.00D-01 BMatC= 8.90D-04 BMatP= 4.37D-04
 IDIUse=3 WtCom= 9.47D-01 WtEn= 5.27D-02
 Coeff-Com:  0.578D-02-0.897D-02 0.146D+00-0.222D+00-0.479D-01 0.652D+00
 Coeff-Com: -0.638D+00-0.104D+01 0.139D+01 0.200D+01-0.343D+01 0.206D+01
 Coeff-Com: -0.748D-01-0.293D+00 0.491D+00
 Coeff-En:   0.000D+00 0.000D+00 0.000D+00 0.000D+00 0.000D+00 0.000D+00
 Coeff-En:   0.000D+00 0.000D+00 0.000D+00 0.000D+00 0.000D+00 0.000D+00
 Coeff-En:   0.000D+00 0.000D+00 0.100D+01
 Coeff:      0.547D-02-0.850D-02 0.138D+00-0.210D+00-0.454D-01 0.617D+00
 Coeff:     -0.605D+00-0.983D+00 0.132D+01 0.190D+01-0.325D+01 0.195D+01
 Coeff:     -0.709D-01-0.277D+00 0.518D+00
 Gap=     0.310 Goal=   None    Shift=    0.000
 Gap=     0.117 Goal=   None    Shift=    0.000
 RMSDP=1.42D-03 MaxDP=2.94D-02 DE=-1.17D-02 OVMax= 1.36D-01

 Cycle  16  Pass 1  IDiag  1:
 E= -92.5824480824386     Delta-E=        0.004936650823 Rises=F Damp=F
 DIIS: error= 1.18D-02 at cycle  16 NSaved=  16.
 NSaved=16 IEnMin=11 EnMin= -92.5932337313234     IErMin=15 ErrMin= 2.41D-03
 ErrMax= 1.18D-02  0.00D+00 EMaxC= 1.00D-01 BMatC= 3.16D-03 BMatP= 4.37D-04
 IDIUse=2 WtCom= 0.00D+00 WtEn= 1.00D+00
 Rare condition: small coef for last iteration:  0.000D+00
 Coeff-En:   0.000D+00 0.000D+00 0.000D+00 0.000D+00 0.000D+00 0.000D+00
 Coeff-En:   0.000D+00 0.000D+00 0.000D+00 0.000D+00 0.000D+00 0.000D+00
 Coeff-En:   0.000D+00 0.262D+00 0.000D+00 0.738D+00
 Coeff:      0.000D+00 0.000D+00 0.000D+00 0.000D+00 0.000D+00 0.000D+00
 Coeff:      0.000D+00 0.000D+00 0.000D+00 0.000D+00 0.000D+00 0.000D+00
 Coeff:      0.000D+00 0.262D+00 0.000D+00 0.738D+00
 Gap=     0.269 Goal=   None    Shift=    0.000
 Gap=     0.102 Goal=   None    Shift=    0.000
 RMSDP=1.52D-03 MaxDP=3.20D-02 DE= 4.94D-03 OVMax= 1.48D-01

 Cycle  17  Pass 1  IDiag  1:
 E= -92.5873708112675     Delta-E=       -0.004922728829 Rises=F Damp=F
 DIIS: error= 2.77D-03 at cycle  17 NSaved=  17.
 NSaved=17 IEnMin=11 EnMin= -92.5932337313234     IErMin=15 ErrMin= 2.41D-03
 ErrMax= 2.77D-03  0.00D+00 EMaxC= 1.00D-01 BMatC= 1.51D-03 BMatP= 4.37D-04
 IDIUse=3 WtCom= 9.47D-01 WtEn= 5.27D-02
 Coeff-Com:  0.468D-02-0.598D-02 0.142D+00-0.120D+00 0.677D-01 0.463D+00
 Coeff-Com: -0.753D+00-0.559D+00 0.935D+00 0.139D+01-0.315D+01 0.197D+01
 Coeff-Com: -0.123D+01-0.430D+00-0.161D+01 0.133D+01 0.256D+01
 Coeff-En:   0.000D+00 0.000D+00 0.000D+00 0.000D+00 0.000D+00 0.000D+00
 Coeff-En:   0.000D+00 0.000D+00 0.000D+00 0.000D+00 0.000D+00 0.000D+00
 Coeff-En:   0.000D+00 0.000D+00 0.705D+00 0.000D+00 0.295D+00
 Coeff:      0.443D-02-0.566D-02 0.134D+00-0.114D+00 0.641D-01 0.439D+00
 Coeff:     -0.713D+00-0.529D+00 0.886D+00 0.131D+01-0.299D+01 0.186D+01
 Coeff:     -0.117D+01-0.408D+00-0.148D+01 0.126D+01 0.244D+01
 Gap=     0.340 Goal=   None    Shift=    0.000
 Gap=     0.116 Goal=   None    Shift=    0.000
 RMSDP=2.20D-03 MaxDP=4.37D-02 DE=-4.92D-03 OVMax= 2.06D-01

 Cycle  18  Pass 1  IDiag  1:
 E= -92.5794366888220     Delta-E=        0.007934122446 Rises=F Damp=F
 DIIS: error= 1.33D-02 at cycle  18 NSaved=  18.
 NSaved=18 IEnMin=11 EnMin= -92.5932337313234     IErMin=15 ErrMin= 2.41D-03
 ErrMax= 1.33D-02  0.00D+00 EMaxC= 1.00D-01 BMatC= 3.98D-03 BMatP= 4.37D-04
 IDIUse=2 WtCom= 0.00D+00 WtEn= 1.00D+00
 Rare condition: small coef for last iteration:  0.000D+00
 Coeff-En:   0.000D+00 0.000D+00 0.000D+00 0.000D+00 0.000D+00 0.000D+00
 Coeff-En:   0.000D+00 0.000D+00 0.000D+00 0.000D+00 0.000D+00 0.000D+00
 Coeff-En:   0.514D+00 0.176D+00 0.000D+00 0.000D+00 0.000D+00 0.310D+00
 Coeff:      0.000D+00 0.000D+00 0.000D+00 0.000D+00 0.000D+00 0.000D+00
 Coeff:      0.000D+00 0.000D+00 0.000D+00 0.000D+00 0.000D+00 0.000D+00
 Coeff:      0.514D+00 0.176D+00 0.000D+00 0.000D+00 0.000D+00 0.310D+00
 Gap=     0.291 Goal=   None    Shift=    0.000
 Gap=     0.094 Goal=   None    Shift=    0.000
 RMSDP=2.41D-03 MaxDP=5.24D-02 DE= 7.93D-03 OVMax= 2.41D-01

 Cycle  19  Pass 1  IDiag  1:
 E= -92.5842731880495     Delta-E=       -0.004836499227 Rises=F Damp=F
 DIIS: error= 7.87D-03 at cycle  19 NSaved=  19.
 NSaved=19 IEnMin=11 EnMin= -92.5932337313234     IErMin=15 ErrMin= 2.41D-03
 ErrMax= 7.87D-03  0.00D+00 EMaxC= 1.00D-01 BMatC= 1.05D-02 BMatP= 4.37D-04
 IDIUse=3 WtCom= 9.47D-01 WtEn= 5.27D-02
 Coeff-Com:  0.216D-02-0.471D-02 0.104D+00-0.949D-01 0.136D+00 0.349D+00
 Coeff-Com: -0.658D+00-0.521D+00 0.405D+00 0.436D+00-0.155D+01 0.157D+01
 Coeff-Com: -0.114D+01 0.605D+00-0.596D+01 0.162D+01 0.955D+01-0.597D+00
 Coeff-Com: -0.325D+01
 Coeff-En:   0.000D+00 0.000D+00 0.000D+00 0.000D+00 0.000D+00 0.000D+00
 Coeff-En:   0.000D+00 0.000D+00 0.000D+00 0.000D+00 0.000D+00 0.000D+00
 Coeff-En:   0.000D+00 0.000D+00 0.000D+00 0.323D+00 0.000D+00 0.000D+00
 Coeff-En:   0.677D+00
 Coeff:      0.205D-02-0.446D-02 0.982D-01-0.899D-01 0.129D+00 0.331D+00
 Coeff:     -0.624D+00-0.494D+00 0.383D+00 0.413D+00-0.147D+01 0.149D+01
 Coeff:     -0.108D+01 0.573D+00-0.565D+01 0.155D+01 0.905D+01-0.565D+00
 Coeff:     -0.305D+01
 Gap=     0.284 Goal=   None    Shift=    0.000
 Gap=     0.113 Goal=   None    Shift=    0.000
 RMSDP=1.26D-03 MaxDP=2.03D-02 DE=-4.84D-03 OVMax= 8.41D-02

 Cycle  20  Pass 1  IDiag  1:
 E= -92.5864673461457     Delta-E=       -0.002194158096 Rises=F Damp=F
 DIIS: error= 1.02D-02 at cycle  20 NSaved=  20.
 NSaved=20 IEnMin=11 EnMin= -92.5932337313234     IErMin=15 ErrMin= 2.41D-03
 ErrMax= 1.02D-02  0.00D+00 EMaxC= 1.00D-01 BMatC= 2.55D-03 BMatP= 4.37D-04
 IDIUse=2 WtCom= 0.00D+00 WtEn= 1.00D+00
 Coeff-En:   0.000D+00 0.000D+00 0.000D+00 0.000D+00 0.000D+00 0.000D+00
 Coeff-En:   0.000D+00 0.000D+00 0.000D+00 0.000D+00 0.000D+00 0.000D+00
 Coeff-En:   0.000D+00 0.000D+00 0.000D+00 0.000D+00 0.000D+00 0.000D+00
 Coeff-En:   0.285D+00 0.715D+00
 Coeff:      0.000D+00 0.000D+00 0.000D+00 0.000D+00 0.000D+00 0.000D+00
 Coeff:      0.000D+00 0.000D+00 0.000D+00 0.000D+00 0.000D+00 0.000D+00
 Coeff:      0.000D+00 0.000D+00 0.000D+00 0.000D+00 0.000D+00 0.000D+00
 Coeff:      0.285D+00 0.715D+00
 Gap=     0.248 Goal=   None    Shift=    0.000
 Gap=     0.109 Goal=   None    Shift=    0.000
 RMSDP=1.24D-03 MaxDP=2.78D-02 DE=-2.19D-03 OVMax= 1.25D-01

 Cycle  21  Pass 1  IDiag  1:
 E= -92.5885156119162     Delta-E=       -0.002048265771 Rises=F Damp=F
 DIIS: error= 3.76D-03 at cycle  21 NSaved=  20.
 NSaved=20 IEnMin=10 EnMin= -92.5932337313234     IErMin=14 ErrMin= 2.41D-03
 ErrMax= 3.76D-03  0.00D+00 EMaxC= 1.00D-01 BMatC= 3.59D-03 BMatP= 4.37D-04
 IDIUse=3 WtCom= 9.47D-01 WtEn= 5.27D-02
 EnCoef did   100 forward-backward iterations
 Coeff-Com:  0.573D-04 0.435D-01 0.885D-01 0.134D+00-0.104D+00-0.228D+00
 Coeff-Com: -0.173D+00 0.209D+00 0.125D+01-0.214D+01 0.686D+00-0.615D+00
 Coeff-Com: -0.376D+00-0.175D+01-0.536D-01 0.170D+01-0.750D-01 0.596D+00
 Coeff-Com:  0.152D+01 0.290D+00
 Coeff-En:   0.000D+00 0.000D+00 0.000D+00 0.000D+00 0.000D+00 0.000D+00
 Coeff-En:   0.000D+00 0.000D+00 0.000D+00 0.000D+00 0.464D+00 0.000D+00
 Coeff-En:   0.000D+00 0.000D+00 0.000D+00 0.000D+00 0.000D+00 0.000D+00
 Coeff-En:   0.120D-02 0.535D+00
 Coeff:      0.543D-04 0.412D-01 0.838D-01 0.127D+00-0.987D-01-0.216D+00
 Coeff:     -0.164D+00 0.198D+00 0.118D+01-0.203D+01 0.675D+00-0.582D+00
 Coeff:     -0.356D+00-0.165D+01-0.508D-01 0.161D+01-0.710D-01 0.565D+00
 Coeff:      0.144D+01 0.303D+00
 Gap=     0.277 Goal=   None    Shift=    0.000
 Gap=     0.110 Goal=   None    Shift=    0.000
 RMSDP=1.75D-03 MaxDP=3.73D-02 DE=-2.05D-03 OVMax= 1.71D-01

 Cycle  22  Pass 1  IDiag  1:
 E= -92.5847193255595     Delta-E=        0.003796286357 Rises=F Damp=F
 DIIS: error= 1.08D-02 at cycle  22 NSaved=  20.
 NSaved=20 IEnMin= 9 EnMin= -92.5932337313234     IErMin=13 ErrMin= 2.41D-03
 ErrMax= 1.08D-02  0.00D+00 EMaxC= 1.00D-01 BMatC= 2.73D-03 BMatP= 4.37D-04
 IDIUse=2 WtCom= 0.00D+00 WtEn= 1.00D+00
 EnCoef did   100 forward-backward iterations
 Rare condition: small coef for last iteration: -0.113D-15
 Coeff-En:   0.000D+00 0.000D+00 0.000D+00 0.000D+00 0.000D+00 0.000D+00
 Coeff-En:   0.000D+00 0.000D+00 0.000D+00 0.000D+00 0.000D+00 0.000D+00
 Coeff-En:   0.000D+00 0.000D+00 0.000D+00 0.000D+00 0.460D+00 0.000D+00
 Coeff-En:   0.000D+00 0.540D+00
 Coeff:      0.000D+00 0.000D+00 0.000D+00 0.000D+00 0.000D+00 0.000D+00
 Coeff:      0.000D+00 0.000D+00 0.000D+00 0.000D+00 0.000D+00 0.000D+00
 Coeff:      0.000D+00 0.000D+00 0.000D+00 0.000D+00 0.460D+00 0.000D+00
 Coeff:      0.000D+00 0.540D+00
 Gap=     0.242 Goal=   None    Shift=    0.000
 Gap=     0.107 Goal=   None    Shift=    0.000
 RMSDP=1.13D-03 MaxDP=2.30D-02 DE= 3.80D-03 OVMax= 1.06D-01

 Cycle  23  Pass 1  IDiag  1:
 E= -92.5884755899545     Delta-E=       -0.003756264395 Rises=F Damp=F
 DIIS: error= 2.99D-03 at cycle  23 NSaved=  20.
 NSaved=20 IEnMin= 9 EnMin= -92.5932337313234     IErMin=13 ErrMin= 2.41D-03
 ErrMax= 2.99D-03  0.00D+00 EMaxC= 1.00D-01 BMatC= 4.32D-04 BMatP= 4.37D-04
 IDIUse=3 WtCom= 9.70D-01 WtEn= 2.99D-02
 Coeff-Com:  0.508D-01 0.111D+00 0.770D-01-0.171D+00-0.185D+00-0.460D-01
 Coeff-Com: -0.278D+00 0.138D+01-0.192D+01 0.703D+00 0.120D+00-0.357D+00
 Coeff-Com: -0.335D+01-0.318D+00 0.237D+01-0.117D+00 0.757D+00 0.207D+01
 Coeff-Com: -0.113D+01 0.123D+01
 Coeff-En:   0.000D+00 0.000D+00 0.000D+00 0.000D+00 0.000D+00 0.000D+00
 Coeff-En:   0.000D+00 0.000D+00 0.000D+00 0.248D+00 0.000D+00 0.000D+00
 Coeff-En:   0.000D+00 0.000D+00 0.000D+00 0.000D+00 0.000D+00 0.000D+00
 Coeff-En:   0.000D+00 0.752D+00
 Coeff:      0.493D-01 0.107D+00 0.747D-01-0.166D+00-0.179D+00-0.446D-01
 Coeff:     -0.269D+00 0.134D+01-0.186D+01 0.690D+00 0.117D+00-0.347D+00
 Coeff:     -0.325D+01-0.308D+00 0.230D+01-0.114D+00 0.734D+00 0.201D+01
 Coeff:     -0.110D+01 0.121D+01
 Gap=     0.259 Goal=   None    Shift=    0.000
 Gap=     0.114 Goal=   None    Shift=    0.000
 RMSDP=6.63D-04 MaxDP=1.42D-02 DE=-3.76D-03 OVMax= 6.36D-02

 Cycle  24  Pass 1  IDiag  1:
 E= -92.5863894712185     Delta-E=        0.002086118736 Rises=F Damp=F
 DIIS: error= 9.65D-03 at cycle  24 NSaved=  20.
 NSaved=20 IEnMin= 8 EnMin= -92.5932337313234     IErMin=12 ErrMin= 2.41D-03
 ErrMax= 9.65D-03  0.00D+00 EMaxC= 1.00D-01 BMatC= 2.11D-03 BMatP= 4.32D-04
 IDIUse=3 WtCom= 9.70D-01 WtEn= 2.99D-02
 Rare condition: small coef for last iteration:  0.000D+00
 Coeff-Com:  0.141D+00 0.230D+00-0.247D+00-0.175D+00 0.645D-01-0.560D+00
 Coeff-Com:  0.187D+01-0.173D+01-0.236D+00 0.590D+00-0.357D+00-0.170D+01
 Coeff-Com: -0.579D+00 0.162D+00 0.905D-01 0.112D+01 0.149D+01-0.426D+01
 Coeff-Com:  0.128D+01 0.380D+01
 Coeff-En:   0.000D+00 0.000D+00 0.000D+00 0.000D+00 0.000D+00 0.000D+00
 Coeff-En:   0.000D+00 0.000D+00 0.000D+00 0.000D+00 0.000D+00 0.000D+00
 Coeff-En:   0.000D+00 0.000D+00 0.000D+00 0.283D+00 0.000D+00 0.000D+00
 Coeff-En:   0.000D+00 0.717D+00
 Coeff:      0.141D+00 0.230D+00-0.247D+00-0.175D+00 0.645D-01-0.560D+00
 Coeff:      0.187D+01-0.173D+01-0.236D+00 0.590D+00-0.357D+00-0.170D+01
 Coeff:     -0.579D+00 0.162D+00 0.905D-01 0.112D+01 0.149D+01-0.426D+01
 Coeff:      0.128D+01 0.380D+01
 Gap=     0.230 Goal=   None    Shift=    0.000
 Gap=     0.111 Goal=   None    Shift=    0.000
 RMSDP=9.38D-04 MaxDP=1.50D-02 DE= 2.09D-03 OVMax= 7.06D-02

 Cycle  25  Pass 1  IDiag  1:
 E= -92.5887781425170     Delta-E=       -0.002388671299 Rises=F Damp=F
 DIIS: error= 8.47D-03 at cycle  25 NSaved=  20.
 NSaved=20 IEnMin= 7 EnMin= -92.5932337313234     IErMin=11 ErrMin= 2.41D-03
 ErrMax= 8.47D-03  0.00D+00 EMaxC= 1.00D-01 BMatC= 1.57D-03 BMatP= 4.32D-04
 IDIUse=3 WtCom= 9.70D-01 WtEn= 2.99D-02
 Coeff-Com:  0.230D+00 0.577D-01-0.402D+00-0.181D+00 0.129D+00 0.216D+01
 Coeff-Com: -0.230D+01-0.171D-01 0.406D+00 0.273D-01-0.113D+01-0.750D+00
 Coeff-Com:  0.126D+01 0.435D+00-0.373D+00 0.447D+00-0.232D+01 0.613D+00
 Coeff-Com:  0.478D+00 0.223D+01
 Coeff-En:   0.000D+00 0.000D+00 0.000D+00 0.000D+00 0.000D+00 0.000D+00
 Coeff-En:   0.000D+00 0.000D+00 0.000D+00 0.000D+00 0.000D+00 0.000D+00
 Coeff-En:   0.000D+00 0.000D+00 0.000D+00 0.000D+00 0.000D+00 0.000D+00
 Coeff-En:   0.000D+00 0.100D+01
 Coeff:      0.223D+00 0.560D-01-0.390D+00-0.176D+00 0.125D+00 0.209D+01
 Coeff:     -0.223D+01-0.166D-01 0.394D+00 0.265D-01-0.110D+01-0.727D+00
 Coeff:      0.122D+01 0.422D+00-0.362D+00 0.434D+00-0.225D+01 0.595D+00
 Coeff:      0.464D+00 0.219D+01
 Gap=     0.210 Goal=   None    Shift=    0.000
 Gap=     0.113 Goal=   None    Shift=    0.000
 RMSDP=8.87D-04 MaxDP=1.36D-02 DE=-2.39D-03 OVMax= 6.47D-02

 Cycle  26  Pass 1  IDiag  1:
 E= -92.5907831903853     Delta-E=       -0.002005047868 Rises=F Damp=F
 DIIS: error= 8.41D-03 at cycle  26 NSaved=  20.
 NSaved=20 IEnMin= 6 EnMin= -92.5932337313234     IErMin=10 ErrMin= 2.41D-03
 ErrMax= 8.41D-03  0.00D+00 EMaxC= 1.00D-01 BMatC= 1.55D-03 BMatP= 4.32D-04
 IDIUse=3 WtCom= 9.70D-01 WtEn= 2.99D-02
 Coeff-Com: -0.127D-02-0.144D+00-0.250D+00 0.260D+00 0.299D+01-0.316D+01
 Coeff-Com:  0.491D+00 0.781D+00 0.271D+00-0.802D+00-0.243D+01 0.147D+01
 Coeff-Com:  0.135D+01-0.109D+01 0.469D+00-0.107D+01 0.258D+00-0.197D+01
 Coeff-Com:  0.285D+01 0.742D+00
 Coeff-En:   0.000D+00 0.000D+00 0.000D+00 0.000D+00 0.000D+00 0.000D+00
 Coeff-En:   0.000D+00 0.000D+00 0.000D+00 0.000D+00 0.000D+00 0.000D+00
 Coeff-En:   0.000D+00 0.000D+00 0.000D+00 0.000D+00 0.000D+00 0.000D+00
 Coeff-En:   0.000D+00 0.100D+01
 Coeff:     -0.123D-02-0.140D+00-0.242D+00 0.252D+00 0.290D+01-0.307D+01
 Coeff:      0.476D+00 0.758D+00 0.263D+00-0.778D+00-0.236D+01 0.142D+01
 Coeff:      0.131D+01-0.106D+01 0.455D+00-0.104D+01 0.250D+00-0.191D+01
 Coeff:      0.276D+01 0.750D+00
 Gap=     0.183 Goal=   None    Shift=    0.000
 Gap=     0.117 Goal=   None    Shift=    0.000
 RMSDP=1.23D-03 MaxDP=1.63D-02 DE=-2.01D-03 OVMax= 8.54D-02

 Cycle  27  Pass 1  IDiag  1:
 E= -92.5928799886837     Delta-E=       -0.002096798298 Rises=F Damp=F
 DIIS: error= 1.29D-02 at cycle  27 NSaved=  20.
 NSaved=20 IEnMin= 5 EnMin= -92.5932337313234     IErMin= 9 ErrMin= 2.41D-03
 ErrMax= 1.29D-02  0.00D+00 EMaxC= 1.00D-01 BMatC= 4.50D-03 BMatP= 4.32D-04
 IDIUse=2 WtCom= 0.00D+00 WtEn= 1.00D+00
 Coeff-En:   0.000D+00 0.000D+00 0.000D+00 0.000D+00 0.000D+00 0.000D+00
 Coeff-En:   0.000D+00 0.000D+00 0.000D+00 0.000D+00 0.000D+00 0.000D+00
 Coeff-En:   0.000D+00 0.000D+00 0.000D+00 0.000D+00 0.000D+00 0.000D+00
 Coeff-En:   0.000D+00 0.100D+01
 Coeff:      0.000D+00 0.000D+00 0.000D+00 0.000D+00 0.000D+00 0.000D+00
 Coeff:      0.000D+00 0.000D+00 0.000D+00 0.000D+00 0.000D+00 0.000D+00
 Coeff:      0.000D+00 0.000D+00 0.000D+00 0.000D+00 0.000D+00 0.000D+00
 Coeff:      0.000D+00 0.100D+01
 Gap=     0.208 Goal=   None    Shift=    0.000
 Gap=     0.151 Goal=   None    Shift=    0.000
 RMSDP=2.11D-03 MaxDP=4.14D-02 DE=-2.10D-03 OVMax= 2.02D-01

 Cycle  28  Pass 1  IDiag  1:
 E= -92.5909020577291     Delta-E=        0.001977930955 Rises=F Damp=F
 DIIS: error= 1.10D-02 at cycle  28 NSaved=  20.
 NSaved=20 IEnMin= 5 EnMin= -92.5932337313234     IErMin= 8 ErrMin= 2.41D-03
 ErrMax= 1.10D-02  0.00D+00 EMaxC= 1.00D-01 BMatC= 2.12D-02 BMatP= 4.32D-04
 IDIUse=2 WtCom= 0.00D+00 WtEn= 1.00D+00
 Coeff-En:   0.000D+00 0.000D+00 0.000D+00 0.000D+00 0.000D+00 0.000D+00
 Coeff-En:   0.000D+00 0.000D+00 0.000D+00 0.000D+00 0.000D+00 0.000D+00
 Coeff-En:   0.000D+00 0.000D+00 0.000D+00 0.000D+00 0.000D+00 0.000D+00
 Coeff-En:   0.604D+00 0.396D+00
 Coeff:      0.000D+00 0.000D+00 0.000D+00 0.000D+00 0.000D+00 0.000D+00
 Coeff:      0.000D+00 0.000D+00 0.000D+00 0.000D+00 0.000D+00 0.000D+00
 Coeff:      0.000D+00 0.000D+00 0.000D+00 0.000D+00 0.000D+00 0.000D+00
 Coeff:      0.604D+00 0.396D+00
 Gap=     0.158 Goal=   None    Shift=    0.000
 Gap=     0.118 Goal=   None    Shift=    0.000
 RMSDP=1.62D-03 MaxDP=2.60D-02 DE= 1.98D-03 OVMax= 1.23D-01

 Cycle  29  Pass 1  IDiag  1:
 E= -92.6014414859997     Delta-E=       -0.010539428271 Rises=F Damp=F
 DIIS: error= 1.10D-02 at cycle  29 NSaved=  20.
 NSaved=20 IEnMin=20 EnMin= -92.6014414859997     IErMin= 8 ErrMin= 2.41D-03
 ErrMax= 1.10D-02  0.00D+00 EMaxC= 1.00D-01 BMatC= 2.58D-03 BMatP= 4.32D-04
 IDIUse=2 WtCom= 0.00D+00 WtEn= 1.00D+00
 Coeff-En:   0.000D+00 0.000D+00 0.000D+00 0.000D+00 0.000D+00 0.000D+00
 Coeff-En:   0.000D+00 0.000D+00 0.000D+00 0.000D+00 0.000D+00 0.000D+00
 Coeff-En:   0.000D+00 0.000D+00 0.000D+00 0.000D+00 0.000D+00 0.000D+00
 Coeff-En:   0.000D+00 0.100D+01
 Coeff:      0.000D+00 0.000D+00 0.000D+00 0.000D+00 0.000D+00 0.000D+00
 Coeff:      0.000D+00 0.000D+00 0.000D+00 0.000D+00 0.000D+00 0.000D+00
 Coeff:      0.000D+00 0.000D+00 0.000D+00 0.000D+00 0.000D+00 0.000D+00
 Coeff:      0.000D+00 0.100D+01
 Gap=     0.164 Goal=   None    Shift=    0.000
 Gap=     0.150 Goal=   None    Shift=    0.000
 RMSDP=1.78D-03 MaxDP=2.82D-02 DE=-1.05D-02 OVMax= 1.56D-01

 Cycle  30  Pass 1  IDiag  1:
 E= -92.6113869657049     Delta-E=       -0.009945479705 Rises=F Damp=F
 DIIS: error= 9.43D-03 at cycle  30 NSaved=  20.
 NSaved=20 IEnMin=20 EnMin= -92.6113869657049     IErMin= 7 ErrMin= 2.41D-03
 ErrMax= 9.43D-03  0.00D+00 EMaxC= 1.00D-01 BMatC= 5.53D-03 BMatP= 4.32D-04
 IDIUse=3 WtCom= 9.70D-01 WtEn= 2.99D-02
 Coeff-Com: -0.182D+00-0.646D-01 0.493D+00 0.282D+01-0.341D+01 0.543D+00
 Coeff-Com:  0.850D+00-0.764D+00-0.135D+01 0.145D+00-0.449D+00 0.217D+01
 Coeff-Com:  0.274D+00-0.181D+01 0.345D+00 0.205D+01-0.745D+00-0.109D+00
 Coeff-Com:  0.204D+00-0.267D-01
 Coeff-En:   0.000D+00 0.000D+00 0.000D+00 0.000D+00 0.000D+00 0.000D+00
 Coeff-En:   0.000D+00 0.000D+00 0.000D+00 0.000D+00 0.000D+00 0.000D+00
 Coeff-En:   0.000D+00 0.000D+00 0.000D+00 0.000D+00 0.000D+00 0.000D+00
 Coeff-En:   0.000D+00 0.100D+01
 Coeff:     -0.176D+00-0.626D-01 0.478D+00 0.274D+01-0.331D+01 0.526D+00
 Coeff:      0.825D+00-0.741D+00-0.131D+01 0.140D+00-0.435D+00 0.211D+01
 Coeff:      0.266D+00-0.175D+01 0.335D+00 0.199D+01-0.722D+00-0.106D+00
 Coeff:      0.197D+00 0.395D-02
 Gap=     0.188 Goal=   None    Shift=    0.000
 Gap=     0.106 Goal=   None    Shift=    0.000
 RMSDP=5.87D-03 MaxDP=9.30D-02 DE=-9.95D-03 OVMax= 4.57D-01

 Cycle  31  Pass 1  IDiag  1:
 E= -92.5871325414206     Delta-E=        0.024254424284 Rises=F Damp=F
 DIIS: error= 9.22D-03 at cycle  31 NSaved=  20.
 NSaved=20 IEnMin=19 EnMin= -92.6113869657049     IErMin= 6 ErrMin= 2.41D-03
 ErrMax= 9.22D-03  0.00D+00 EMaxC= 1.00D-01 BMatC= 2.17D-03 BMatP= 4.32D-04
 IDIUse=3 WtCom= 9.70D-01 WtEn= 2.99D-02
 Rare condition: small coef for last iteration:  0.000D+00
 Coeff-Com: -0.169D+00 0.264D+00 0.185D+01-0.195D+01 0.354D+00 0.670D-01
 Coeff-Com: -0.515D+00-0.719D+00 0.186D+00 0.455D-01 0.403D+00 0.172D+00
 Coeff-Com: -0.247D+01 0.232D+01 0.105D+00-0.807D+00-0.531D-01 0.216D+00
 Coeff-Com: -0.554D-01 0.176D+01
 Coeff-En:   0.000D+00 0.000D+00 0.000D+00 0.000D+00 0.000D+00 0.000D+00
 Coeff-En:   0.000D+00 0.627D+00 0.620D-01 0.000D+00 0.000D+00 0.000D+00
 Coeff-En:   0.000D+00 0.000D+00 0.000D+00 0.000D+00 0.000D+00 0.000D+00
 Coeff-En:   0.000D+00 0.311D+00
 Coeff:     -0.169D+00 0.264D+00 0.185D+01-0.195D+01 0.354D+00 0.670D-01
 Coeff:     -0.515D+00-0.719D+00 0.186D+00 0.455D-01 0.403D+00 0.172D+00
 Coeff:     -0.247D+01 0.232D+01 0.105D+00-0.807D+00-0.531D-01 0.216D+00
 Coeff:     -0.554D-01 0.176D+01
 Gap=     0.235 Goal=   None    Shift=    0.000
 Gap=     0.118 Goal=   None    Shift=    0.000
 RMSDP=3.98D-04 MaxDP=6.11D-03 DE= 2.43D-02 OVMax= 2.57D-02

 Cycle  32  Pass 1  IDiag  1:
 E= -92.5875857892732     Delta-E=       -0.000453247853 Rises=F Damp=F
 DIIS: error= 1.04D-02 at cycle  32 NSaved=  20.
 NSaved=20 IEnMin=18 EnMin= -92.6113869657049     IErMin= 6 ErrMin= 2.41D-03
 ErrMax= 1.04D-02  0.00D+00 EMaxC= 1.00D-01 BMatC= 3.14D-03 BMatP= 4.32D-04
 IDIUse=2 WtCom= 0.00D+00 WtEn= 1.00D+00
 EnCoef did   100 forward-backward iterations
 Coeff-En:   0.000D+00 0.000D+00 0.000D+00 0.000D+00 0.000D+00 0.000D+00
 Coeff-En:   0.356D+00 0.112D-02 0.000D+00 0.000D+00 0.000D+00 0.000D+00
 Coeff-En:   0.000D+00 0.000D+00 0.000D+00 0.000D+00 0.000D+00 0.000D+00
 Coeff-En:   0.000D+00 0.643D+00
 Coeff:      0.000D+00 0.000D+00 0.000D+00 0.000D+00 0.000D+00 0.000D+00
 Coeff:      0.356D+00 0.112D-02 0.000D+00 0.000D+00 0.000D+00 0.000D+00
 Coeff:      0.000D+00 0.000D+00 0.000D+00 0.000D+00 0.000D+00 0.000D+00
 Coeff:      0.000D+00 0.643D+00
 Gap=     0.247 Goal=   None    Shift=    0.000
 Gap=     0.112 Goal=   None    Shift=    0.000
 RMSDP=1.39D-03 MaxDP=3.01D-02 DE=-4.53D-04 OVMax= 1.34D-01

 Cycle  33  Pass 1  IDiag  1:
 E= -92.5879066424425     Delta-E=       -0.000320853169 Rises=F Damp=F
 DIIS: error= 7.20D-03 at cycle  33 NSaved=  20.
 NSaved=20 IEnMin=18 EnMin= -92.6113869657049     IErMin= 6 ErrMin= 2.41D-03
 ErrMax= 7.20D-03  0.00D+00 EMaxC= 1.00D-01 BMatC= 7.82D-03 BMatP= 4.32D-04
 IDIUse=3 WtCom= 9.70D-01 WtEn= 2.99D-02
 EnCoef did   100 forward-backward iterations
 Coeff-Com:  0.105D+00-0.257D+00 0.145D+01-0.113D+01-0.208D+00 0.313D+01
 Coeff-Com: -0.278D+01-0.196D+00 0.423D-01-0.160D+01-0.925D+00-0.761D-01
 Coeff-Com:  0.208D+01-0.419D+00-0.661D+00-0.210D+00 0.139D+00-0.206D-01
 Coeff-Com:  0.154D+01 0.991D+00
 Coeff-En:   0.000D+00 0.000D+00 0.000D+00 0.000D+00 0.000D+00 0.000D+00
 Coeff-En:   0.000D+00 0.000D+00 0.000D+00 0.000D+00 0.000D+00 0.000D+00
 Coeff-En:   0.605D+00 0.000D+00 0.000D+00 0.000D+00 0.000D+00 0.000D+00
 Coeff-En:   0.474D-02 0.390D+00
 Coeff:      0.102D+00-0.250D+00 0.141D+01-0.110D+01-0.202D+00 0.304D+01
 Coeff:     -0.270D+01-0.190D+00 0.411D-01-0.155D+01-0.897D+00-0.738D-01
 Coeff:      0.204D+01-0.406D+00-0.641D+00-0.204D+00 0.135D+00-0.199D-01
 Coeff:      0.149D+01 0.973D+00
 Gap=     0.219 Goal=   None    Shift=    0.000
 Gap=     0.116 Goal=   None    Shift=    0.000
 RMSDP=1.14D-03 MaxDP=2.08D-02 DE=-3.21D-04 OVMax= 9.11D-02

 Cycle  34  Pass 1  IDiag  1:
 E= -92.5891284321688     Delta-E=       -0.001221789726 Rises=F Damp=F
 DIIS: error= 9.46D-03 at cycle  34 NSaved=  20.
 NSaved=20 IEnMin=17 EnMin= -92.6113869657049     IErMin= 6 ErrMin= 2.41D-03
 ErrMax= 9.46D-03  0.00D+00 EMaxC= 1.00D-01 BMatC= 2.42D-03 BMatP= 4.32D-04
 IDIUse=3 WtCom= 9.70D-01 WtEn= 2.99D-02
 Coeff-Com:  0.987D-01-0.126D+00 0.114D+01-0.948D+00-0.204D+00 0.354D+01
 Coeff-Com: -0.353D+01 0.182D+00-0.170D+01-0.716D+00-0.298D+00 0.188D+01
 Coeff-Com:  0.314D+00-0.905D+00-0.192D+00 0.173D+00-0.224D-01 0.202D+01
 Coeff-Com:  0.897D+00-0.603D+00
 Coeff-En:   0.000D+00 0.000D+00 0.000D+00 0.000D+00 0.000D+00 0.000D+00
 Coeff-En:   0.000D+00 0.000D+00 0.000D+00 0.000D+00 0.000D+00 0.000D+00
 Coeff-En:   0.000D+00 0.000D+00 0.000D+00 0.000D+00 0.000D+00 0.000D+00
 Coeff-En:   0.368D+00 0.632D+00
 Coeff:      0.958D-01-0.123D+00 0.110D+01-0.920D+00-0.198D+00 0.343D+01
 Coeff:     -0.342D+01 0.176D+00-0.164D+01-0.695D+00-0.289D+00 0.183D+01
 Coeff:      0.305D+00-0.878D+00-0.187D+00 0.168D+00-0.218D-01 0.196D+01
 Coeff:      0.881D+00-0.567D+00
 Gap=     0.213 Goal=   None    Shift=    0.000
 Gap=     0.118 Goal=   None    Shift=    0.000
 RMSDP=2.33D-04 MaxDP=3.14D-03 DE=-1.22D-03 OVMax= 1.52D-02

 Cycle  35  Pass 1  IDiag  1:
 E= -92.5895659834507     Delta-E=       -0.000437551282 Rises=F Damp=F
 DIIS: error= 9.75D-03 at cycle  35 NSaved=  20.
 NSaved=20 IEnMin=16 EnMin= -92.6113869657049     IErMin= 6 ErrMin= 2.41D-03
 ErrMax= 9.75D-03  0.00D+00 EMaxC= 1.00D-01 BMatC= 2.59D-03 BMatP= 4.32D-04
 IDIUse=3 WtCom= 9.70D-01 WtEn= 2.99D-02
 Coeff-Com: -0.243D-01 0.537D+00 0.217D+00-0.541D+00-0.217D+00 0.158D+01
 Coeff-Com: -0.166D+01 0.597D+00-0.372D+00-0.453D+01 0.472D+01-0.411D+00
 Coeff-Com: -0.581D+00-0.133D+00 0.113D+00-0.211D-01 0.195D+01 0.617D+00
 Coeff-Com:  0.437D+01-0.522D+01
 Coeff-En:   0.000D+00 0.000D+00 0.000D+00 0.000D+00 0.000D+00 0.000D+00
 Coeff-En:   0.000D+00 0.000D+00 0.000D+00 0.000D+00 0.000D+00 0.000D+00
 Coeff-En:   0.000D+00 0.000D+00 0.000D+00 0.000D+00 0.000D+00 0.321D+00
 Coeff-En:   0.000D+00 0.679D+00
 Coeff:     -0.236D-01 0.521D+00 0.210D+00-0.525D+00-0.210D+00 0.153D+01
 Coeff:     -0.161D+01 0.579D+00-0.361D+00-0.439D+01 0.458D+01-0.398D+00
 Coeff:     -0.563D+00-0.129D+00 0.110D+00-0.205D-01 0.189D+01 0.608D+00
 Coeff:      0.424D+01-0.505D+01
 Gap=     0.214 Goal=   None    Shift=    0.000
 Gap=     0.118 Goal=   None    Shift=    0.000
 RMSDP=2.94D-05 MaxDP=5.57D-04 DE=-4.38D-04 OVMax= 2.52D-03

 Cycle  36  Pass 1  IDiag  1:
 E= -92.5894550493777     Delta-E=        0.000110934073 Rises=F Damp=F
 DIIS: error= 9.91D-03 at cycle  36 NSaved=  20.
 NSaved=20 IEnMin=15 EnMin= -92.6113869657049     IErMin= 6 ErrMin= 2.41D-03
 ErrMax= 9.91D-03  0.00D+00 EMaxC= 1.00D-01 BMatC= 2.72D-03 BMatP= 4.32D-04
 IDIUse=3 WtCom= 9.70D-01 WtEn= 2.99D-02
 Rare condition: small coef for last iteration:  0.000D+00
 Coeff-Com:  0.515D-01 0.276D+00 0.308D+01-0.283D+01-0.716D+00 0.336D+01
 Coeff-Com: -0.323D+01-0.198D+01-0.850D+00 0.363D+01-0.664D+00-0.473D+00
 Coeff-Com: -0.235D+00 0.774D-01 0.463D-01 0.292D+00 0.533D+00 0.451D+00
 Coeff-Com:  0.211D+01-0.192D+01
 Coeff-En:   0.000D+00 0.000D+00 0.000D+00 0.000D+00 0.000D+00 0.000D+00
 Coeff-En:   0.000D+00 0.000D+00 0.000D+00 0.000D+00 0.000D+00 0.000D+00
 Coeff-En:   0.000D+00 0.000D+00 0.000D+00 0.000D+00 0.336D+00 0.000D+00
 Coeff-En:   0.000D+00 0.664D+00
 Coeff:      0.515D-01 0.276D+00 0.308D+01-0.283D+01-0.716D+00 0.336D+01
 Coeff:     -0.323D+01-0.198D+01-0.850D+00 0.363D+01-0.664D+00-0.473D+00
 Coeff:     -0.235D+00 0.774D-01 0.463D-01 0.292D+00 0.533D+00 0.451D+00
 Coeff:      0.211D+01-0.192D+01
 Gap=     0.248 Goal=   None    Shift=    0.000
 Gap=     0.117 Goal=   None    Shift=    0.000
 RMSDP=1.13D-03 MaxDP=1.57D-02 DE= 1.11D-04 OVMax= 7.60D-02

 Cycle  37  Pass 1  IDiag  1:
 E= -92.5872079459781     Delta-E=        0.002247103400 Rises=F Damp=F
 DIIS: error= 9.16D-03 at cycle  37 NSaved=  20.
 NSaved=20 IEnMin=14 EnMin= -92.6113869657049     IErMin= 6 ErrMin= 2.41D-03
 ErrMax= 9.16D-03  0.00D+00 EMaxC= 1.00D-01 BMatC= 2.10D-03 BMatP= 4.32D-04
 IDIUse=3 WtCom= 9.70D-01 WtEn= 2.99D-02
 EnCoef did   100 forward-backward iterations
 Rare condition: small coef for last iteration:  0.000D+00
 Coeff-Com:  0.513D-01 0.312D+00 0.281D+01-0.287D+01-0.504D+00 0.562D+01
 Coeff-Com: -0.489D+01-0.176D+01 0.129D+00 0.236D+01-0.806D+00-0.281D+00
 Coeff-Com:  0.484D-02 0.697D-01-0.305D-01 0.894D+00 0.223D+01-0.664D+00
 Coeff-Com: -0.116D+00-0.156D+01
 Coeff-En:   0.000D+00 0.000D+00 0.000D+00 0.000D+00 0.000D+00 0.000D+00
 Coeff-En:   0.000D+00 0.000D+00 0.647D+00 0.000D+00 0.000D+00 0.000D+00
 Coeff-En:   0.000D+00 0.000D+00 0.101D+00 0.152D+00 0.000D+00 0.000D+00
 Coeff-En:   0.000D+00 0.100D+00
 Coeff:      0.513D-01 0.312D+00 0.281D+01-0.287D+01-0.504D+00 0.562D+01
 Coeff:     -0.489D+01-0.176D+01 0.129D+00 0.236D+01-0.806D+00-0.281D+00
 Coeff:      0.484D-02 0.697D-01-0.305D-01 0.894D+00 0.223D+01-0.664D+00
 Coeff:     -0.116D+00-0.156D+01
 Gap=     0.234 Goal=   None    Shift=    0.000
 Gap=     0.116 Goal=   None    Shift=    0.000
 RMSDP=5.90D-04 MaxDP=9.38D-03 DE= 2.25D-03 OVMax= 4.38D-02

 Cycle  38  Pass 1  IDiag  1:
 E= -92.5886448067121     Delta-E=       -0.001436860734 Rises=F Damp=F
 DIIS: error= 8.52D-03 at cycle  38 NSaved=  20.
 NSaved=20 IEnMin=13 EnMin= -92.6113869657049     IErMin= 5 ErrMin= 2.41D-03
 ErrMax= 8.52D-03  0.00D+00 EMaxC= 1.00D-01 BMatC= 1.79D-03 BMatP= 4.32D-04
 IDIUse=3 WtCom= 9.70D-01 WtEn= 2.99D-02
 EnCoef did   100 forward-backward iterations
 Coeff-Com:  0.399D+00 0.108D+01-0.954D+00-0.972D+00 0.389D+01-0.418D+01
 Coeff-Com: -0.206D+00 0.143D+01 0.331D+00-0.719D+00-0.298D+00-0.273D+00
 Coeff-Com:  0.114D+00-0.342D+00 0.950D+00-0.363D+01 0.371D+01-0.662D-01
 Coeff-Com: -0.221D+01 0.294D+01
 Coeff-En:   0.000D+00 0.000D+00 0.000D+00 0.000D+00 0.000D+00 0.000D+00
 Coeff-En:   0.000D+00 0.254D-03 0.000D+00 0.000D+00 0.000D+00 0.000D+00
 Coeff-En:   0.000D+00 0.000D+00 0.321D+00 0.189D-02 0.675D+00 0.000D+00
 Coeff-En:   0.000D+00 0.161D-02
 Coeff:      0.387D+00 0.105D+01-0.926D+00-0.943D+00 0.378D+01-0.405D+01
 Coeff:     -0.200D+00 0.139D+01 0.321D+00-0.697D+00-0.289D+00-0.265D+00
 Coeff:      0.111D+00-0.332D+00 0.932D+00-0.352D+01 0.362D+01-0.642D-01
 Coeff:     -0.214D+01 0.285D+01
 Gap=     0.218 Goal=   None    Shift=    0.000
 Gap=     0.117 Goal=   None    Shift=    0.000
 RMSDP=5.15D-04 MaxDP=7.21D-03 DE=-1.44D-03 OVMax= 3.45D-02

 Cycle  39  Pass 1  IDiag  1:
 E= -92.5896863861690     Delta-E=       -0.001041579457 Rises=F Damp=F
 DIIS: error= 8.90D-03 at cycle  39 NSaved=  20.
 NSaved=20 IEnMin=13 EnMin= -92.6113869657049     IErMin= 5 ErrMin= 2.41D-03
 ErrMax= 8.90D-03  0.00D+00 EMaxC= 1.00D-01 BMatC= 2.01D-03 BMatP= 4.32D-04
 IDIUse=3 WtCom= 9.70D-01 WtEn= 2.99D-02
 Coeff-Com:  0.429D+00 0.268D+01-0.241D+01-0.126D+01 0.530D+01-0.508D+01
 Coeff-Com: -0.104D+01 0.303D+01-0.120D+01-0.557D+00-0.455D+00-0.328D+00
 Coeff-Com:  0.265D+00-0.147D+01 0.106D+01-0.794D+01 0.882D+01-0.133D+01
 Coeff-Com:  0.859D+00 0.163D+01
 Coeff-En:   0.000D+00 0.000D+00 0.000D+00 0.000D+00 0.000D+00 0.000D+00
 Coeff-En:   0.000D+00 0.000D+00 0.000D+00 0.000D+00 0.000D+00 0.000D+00
 Coeff-En:   0.000D+00 0.000D+00 0.289D+00 0.000D+00 0.000D+00 0.000D+00
 Coeff-En:   0.000D+00 0.711D+00
 Coeff:      0.416D+00 0.260D+01-0.233D+01-0.122D+01 0.514D+01-0.492D+01
 Coeff:     -0.101D+01 0.294D+01-0.117D+01-0.541D+00-0.441D+00-0.318D+00
 Coeff:      0.257D+00-0.143D+01 0.103D+01-0.770D+01 0.855D+01-0.129D+01
 Coeff:      0.834D+00 0.160D+01
 Gap=     0.251 Goal=   None    Shift=    0.000
 Gap=     0.116 Goal=   None    Shift=    0.000
 RMSDP=1.07D-03 MaxDP=1.48D-02 DE=-1.04D-03 OVMax= 6.67D-02

 Cycle  40  Pass 1  IDiag  1:
 E= -92.5878158145753     Delta-E=        0.001870571594 Rises=F Damp=F
 DIIS: error= 7.03D-03 at cycle  40 NSaved=  20.
 NSaved=20 IEnMin=12 EnMin= -92.6113869657049     IErMin= 5 ErrMin= 2.41D-03
 ErrMax= 7.03D-03  0.00D+00 EMaxC= 1.00D-01 BMatC= 9.85D-04 BMatP= 4.32D-04
 IDIUse=3 WtCom= 9.70D-01 WtEn= 2.99D-02
 Rare condition: small coef for last iteration:  0.000D+00
 Coeff-Com:  0.527D+00-0.138D-01-0.494D+00-0.241D+00-0.477D+00 0.683D+00
 Coeff-Com: -0.127D+01 0.340D+01-0.178D+01-0.572D-01-0.282D-01-0.603D-01
 Coeff-Com: -0.109D+01 0.207D+00-0.322D+01 0.232D+01 0.843D+00 0.246D+01
 Coeff-Com:  0.135D+01-0.206D+01
 Coeff-En:   0.000D+00 0.000D+00 0.000D+00 0.000D+00 0.000D+00 0.000D+00
 Coeff-En:   0.680D+00 0.000D+00 0.000D+00 0.000D+00 0.000D+00 0.000D+00
 Coeff-En:   0.875D-01 0.121D+00 0.000D+00 0.000D+00 0.000D+00 0.000D+00
 Coeff-En:   0.000D+00 0.112D+00
 Coeff:      0.527D+00-0.138D-01-0.494D+00-0.241D+00-0.477D+00 0.683D+00
 Coeff:     -0.127D+01 0.340D+01-0.178D+01-0.572D-01-0.282D-01-0.603D-01
 Coeff:     -0.109D+01 0.207D+00-0.322D+01 0.232D+01 0.843D+00 0.246D+01
 Coeff:      0.135D+01-0.206D+01
 Gap=     0.188 Goal=   None    Shift=    0.000
 Gap=     0.116 Goal=   None    Shift=    0.000
 RMSDP=2.07D-03 MaxDP=2.87D-02 DE= 1.87D-03 OVMax= 1.37D-01

 Cycle  41  Pass 1  IDiag  1:
 E= -92.5900173990143     Delta-E=       -0.002201584439 Rises=F Damp=F
 DIIS: error= 1.44D-02 at cycle  41 NSaved=  20.
 NSaved=20 IEnMin=11 EnMin= -92.6113869657049     IErMin= 5 ErrMin= 2.99D-03
 ErrMax= 1.44D-02  0.00D+00 EMaxC= 1.00D-01 BMatC= 6.54D-03 BMatP= 4.32D-04
 IDIUse=2 WtCom= 0.00D+00 WtEn= 1.00D+00
 EnCoef did   100 forward-backward iterations
 Coeff-En:   0.000D+00 0.000D+00 0.000D+00 0.000D+00 0.000D+00 0.000D+00
 Coeff-En:   0.000D+00 0.604D+00 0.395D+00 0.000D+00 0.000D+00 0.000D+00
 Coeff-En:   0.478D-03 0.000D+00 0.000D+00 0.000D+00 0.000D+00 0.000D+00
 Coeff-En:   0.000D+00 0.121D-02
 Coeff:      0.000D+00 0.000D+00 0.000D+00 0.000D+00 0.000D+00 0.000D+00
 Coeff:      0.000D+00 0.604D+00 0.395D+00 0.000D+00 0.000D+00 0.000D+00
 Coeff:      0.478D-03 0.000D+00 0.000D+00 0.000D+00 0.000D+00 0.000D+00
 Coeff:      0.000D+00 0.121D-02
 Gap=     0.156 Goal=   None    Shift=    0.000
 Gap=     0.112 Goal=   None    Shift=    0.000
 RMSDP=2.41D-03 MaxDP=3.86D-02 DE=-2.20D-03 OVMax= 1.90D-01

 Cycle  42  Pass 1  IDiag  1:
 E= -92.6014351737785     Delta-E=       -0.011417774764 Rises=F Damp=F
 DIIS: error= 1.08D-02 at cycle  42 NSaved=  20.
 NSaved=20 IEnMin=11 EnMin= -92.6113869657049     IErMin= 5 ErrMin= 2.99D-03
 ErrMax= 1.08D-02  0.00D+00 EMaxC= 1.00D-01 BMatC= 2.52D-03 BMatP= 4.32D-04
 IDIUse=2 WtCom= 0.00D+00 WtEn= 1.00D+00
 Coeff-En:   0.000D+00 0.000D+00 0.000D+00 0.000D+00 0.000D+00 0.000D+00
 Coeff-En:   0.000D+00 0.000D+00 0.000D+00 0.000D+00 0.000D+00 0.000D+00
 Coeff-En:   0.000D+00 0.000D+00 0.000D+00 0.000D+00 0.000D+00 0.000D+00
 Coeff-En:   0.000D+00 0.100D+01
 Coeff:      0.000D+00 0.000D+00 0.000D+00 0.000D+00 0.000D+00 0.000D+00
 Coeff:      0.000D+00 0.000D+00 0.000D+00 0.000D+00 0.000D+00 0.000D+00
 Coeff:      0.000D+00 0.000D+00 0.000D+00 0.000D+00 0.000D+00 0.000D+00
 Coeff:      0.000D+00 0.100D+01
 Gap=     0.164 Goal=   None    Shift=    0.000
 Gap=     0.150 Goal=   None    Shift=    0.000
 RMSDP=1.77D-03 MaxDP=2.79D-02 DE=-1.14D-02 OVMax= 1.55D-01

 Cycle  43  Pass 1  IDiag  1:
 E= -92.6114420446251     Delta-E=       -0.010006870847 Rises=F Damp=F
 DIIS: error= 9.32D-03 at cycle  43 NSaved=  20.
 NSaved=20 IEnMin=20 EnMin= -92.6114420446251     IErMin= 5 ErrMin= 2.99D-03
 ErrMax= 9.32D-03  0.00D+00 EMaxC= 1.00D-01 BMatC= 5.36D-03 BMatP= 4.32D-04
 IDIUse=3 WtCom= 9.70D-01 WtEn= 2.99D-02
 Large coefficients: NSaved= 20 BigCof=   10.50 CofMax=   10.00 Det=-3.26D-10
 Inversion failed.  Reducing to 19 matrices.
 Large coefficients: NSaved= 19 BigCof=   13.28 CofMax=   10.00 Det=-3.46D-10
 Inversion failed.  Reducing to 18 matrices.
 Large coefficients: NSaved= 18 BigCof=   14.09 CofMax=   10.00 Det=-3.50D-10
 Inversion failed.  Reducing to 17 matrices.
 Coeff-Com:  0.348D+00 0.121D+01-0.162D+01-0.291D+01 0.573D+01-0.329D+01
 Coeff-Com: -0.131D+00-0.181D+01-0.119D+01-0.765D+01 0.782D+01-0.753D+00
 Coeff-Com:  0.327D+00 0.780D+00 0.103D+01 0.187D+01 0.124D+01
 Coeff-En:   0.000D+00 0.000D+00 0.000D+00 0.000D+00 0.000D+00 0.000D+00
 Coeff-En:   0.000D+00 0.000D+00 0.000D+00 0.000D+00 0.000D+00 0.000D+00
 Coeff-En:   0.000D+00 0.000D+00 0.000D+00 0.000D+00 0.100D+01
 Coeff:      0.337D+00 0.117D+01-0.158D+01-0.282D+01 0.556D+01-0.319D+01
 Coeff:     -0.127D+00-0.176D+01-0.115D+01-0.743D+01 0.759D+01-0.730D+00
 Coeff:      0.317D+00 0.757D+00 0.999D+00 0.181D+01 0.123D+01
 Gap=     0.181 Goal=   None    Shift=    0.000
 Gap=     0.104 Goal=   None    Shift=    0.000
 RMSDP=4.69D-03 MaxDP=7.40D-02 DE=-1.00D-02 OVMax= 3.75D-01

 Cycle  44  Pass 1  IDiag  1:
 E= -92.5898035089008     Delta-E=        0.021638535724 Rises=F Damp=F
 DIIS: error= 1.01D-02 at cycle  44 NSaved=  18.
 NSaved=18 IEnMin=17 EnMin= -92.6114420446251     IErMin= 2 ErrMin= 3.80D-03
 ErrMax= 1.01D-02  0.00D+00 EMaxC= 1.00D-01 BMatC= 2.76D-03 BMatP= 4.37D-04
 IDIUse=2 WtCom= 0.00D+00 WtEn= 1.00D+00
 Rare condition: small coef for last iteration:  0.000D+00
 Coeff-En:   0.000D+00 0.000D+00 0.000D+00 0.000D+00 0.000D+00 0.000D+00
 Coeff-En:   0.000D+00 0.000D+00 0.000D+00 0.000D+00 0.000D+00 0.000D+00
 Coeff-En:   0.000D+00 0.000D+00 0.000D+00 0.000D+00 0.000D+00 0.100D+01
 Coeff:      0.000D+00 0.000D+00 0.000D+00 0.000D+00 0.000D+00 0.000D+00
 Coeff:      0.000D+00 0.000D+00 0.000D+00 0.000D+00 0.000D+00 0.000D+00
 Coeff:      0.000D+00 0.000D+00 0.000D+00 0.000D+00 0.000D+00 0.100D+01
 Gap=     0.234 Goal=   None    Shift=    0.000
 Gap=     0.119 Goal=   None    Shift=    0.000
 RMSDP=1.85D-03 MaxDP=3.91D-02 DE= 2.16D-02 OVMax= 1.81D-01

 Cycle  45  Pass 1  IDiag  1:
 E= -92.5870413899291     Delta-E=        0.002762118972 Rises=F Damp=F
 DIIS: error= 1.13D-02 at cycle  45 NSaved=  19.
 NSaved=19 IEnMin=17 EnMin= -92.6114420446251     IErMin= 2 ErrMin= 3.80D-03
 ErrMax= 1.13D-02  0.00D+00 EMaxC= 1.00D-01 BMatC= 1.73D-02 BMatP= 4.37D-04
 IDIUse=2 WtCom= 0.00D+00 WtEn= 1.00D+00
 EnCoef did   100 forward-backward iterations
 Coeff-En:   0.000D+00 0.000D+00 0.000D+00 0.000D+00 0.000D+00 0.604D+00
 Coeff-En:   0.394D+00 0.000D+00 0.000D+00 0.000D+00 0.000D+00 0.000D+00
 Coeff-En:   0.000D+00 0.000D+00 0.486D-03 0.000D+00 0.000D+00 0.762D-03
 Coeff-En:   0.366D-03
 Coeff:      0.000D+00 0.000D+00 0.000D+00 0.000D+00 0.000D+00 0.604D+00
 Coeff:      0.394D+00 0.000D+00 0.000D+00 0.000D+00 0.000D+00 0.000D+00
 Coeff:      0.000D+00 0.000D+00 0.486D-03 0.000D+00 0.000D+00 0.762D-03
 Coeff:      0.366D-03
 Gap=     0.149 Goal=   None    Shift=    0.000
 Gap=     0.118 Goal=   None    Shift=    0.000
 RMSDP=2.44D-03 MaxDP=4.02D-02 DE= 2.76D-03 OVMax= 2.09D-01

 Cycle  46  Pass 1  IDiag  1:
 E= -92.6014344280806     Delta-E=       -0.014393038151 Rises=F Damp=F
 DIIS: error= 1.08D-02 at cycle  46 NSaved=  20.
 NSaved=20 IEnMin=17 EnMin= -92.6114420446251     IErMin= 2 ErrMin= 3.80D-03
 ErrMax= 1.08D-02  0.00D+00 EMaxC= 1.00D-01 BMatC= 2.52D-03 BMatP= 4.37D-04
 IDIUse=2 WtCom= 0.00D+00 WtEn= 1.00D+00
 Coeff-En:   0.000D+00 0.000D+00 0.000D+00 0.000D+00 0.000D+00 0.000D+00
 Coeff-En:   0.000D+00 0.000D+00 0.000D+00 0.000D+00 0.000D+00 0.000D+00
 Coeff-En:   0.000D+00 0.000D+00 0.000D+00 0.000D+00 0.000D+00 0.000D+00
 Coeff-En:   0.000D+00 0.100D+01
 Coeff:      0.000D+00 0.000D+00 0.000D+00 0.000D+00 0.000D+00 0.000D+00
 Coeff:      0.000D+00 0.000D+00 0.000D+00 0.000D+00 0.000D+00 0.000D+00
 Coeff:      0.000D+00 0.000D+00 0.000D+00 0.000D+00 0.000D+00 0.000D+00
 Coeff:      0.000D+00 0.100D+01
 Gap=     0.164 Goal=   None    Shift=    0.000
 Gap=     0.150 Goal=   None    Shift=    0.000
 RMSDP=1.77D-03 MaxDP=2.79D-02 DE=-1.44D-02 OVMax= 1.55D-01

 Cycle  47  Pass 1  IDiag  1:
 E= -92.6114413885732     Delta-E=       -0.010006960493 Rises=F Damp=F
 DIIS: error= 9.32D-03 at cycle  47 NSaved=  20.
 NSaved=20 IEnMin=17 EnMin= -92.6114420446251     IErMin= 2 ErrMin= 3.80D-03
 ErrMax= 9.32D-03  0.00D+00 EMaxC= 1.00D-01 BMatC= 5.35D-03 BMatP= 4.37D-04
 IDIUse=3 WtCom= 9.70D-01 WtEn= 2.99D-02
 Large coefficients: NSaved= 20 BigCof= 3006.22 CofMax=   10.00 Det=-3.35D-14
 Inversion failed.  Reducing to 19 matrices.
 Large coefficients: NSaved= 19 BigCof= 4629.84 CofMax=   10.00 Det=-5.69D-14
 Inversion failed.  Reducing to 18 matrices.
 Large coefficients: NSaved= 18 BigCof= 5475.58 CofMax=   10.00 Det=-6.67D-14
 Inversion failed.  Reducing to 17 matrices.
 Large coefficients: NSaved= 17 BigCof= 7198.88 CofMax=   10.00 Det=-7.85D-14
 Inversion failed.  Reducing to 16 matrices.
 Large coefficients: NSaved= 16 BigCof= 7264.09 CofMax=   10.00 Det=-7.88D-14
 Inversion failed.  Reducing to 15 matrices.
 Large coefficients: NSaved= 15 BigCof= 7457.66 CofMax=   10.00 Det=-7.89D-14
 Inversion failed.  Reducing to 14 matrices.
 Large coefficients: NSaved= 14 BigCof= 5963.01 CofMax=   10.00 Det=-9.56D-14
 Inversion failed.  Reducing to 13 matrices.
 Large coefficients: NSaved= 13 BigCof= 4709.58 CofMax=   10.00 Det=-1.37D-13
 Inversion failed.  Reducing to 12 matrices.
 Large coefficients: NSaved= 12 BigCof= 4722.91 CofMax=   10.00 Det=-1.37D-13
 Inversion failed.  Reducing to 11 matrices.
 Large coefficients: NSaved= 11 BigCof= 5525.24 CofMax=   10.00 Det=-1.51D-13
 Inversion failed.  Reducing to 10 matrices.
 Large coefficients: NSaved= 10 BigCof= 6194.03 CofMax=   10.00 Det=-1.52D-13
 Inversion failed.  Reducing to  9 matrices.
 Large coefficients: NSaved=  9 BigCof= 8509.13 CofMax=   10.00 Det=-2.17D-13
 Inversion failed.  Reducing to  8 matrices.
 Large coefficients: NSaved=  8 BigCof= 4329.35 CofMax=   10.00 Det=-2.36D-13
 Inversion failed.  Reducing to  7 matrices.
 Large coefficients: NSaved=  7 BigCof=10370.61 CofMax=   10.00 Det=-2.46D-13
 Inversion failed.  Reducing to  6 matrices.
 Large coefficients: NSaved=  6 BigCof=11757.42 CofMax=   10.00 Det=-2.55D-13
 Inversion failed.  Reducing to  5 matrices.
 Large coefficients: NSaved=  5 BigCof=13095.32 CofMax=   10.00 Det=-2.56D-13
 Inversion failed.  Reducing to  4 matrices.
 Large coefficients: NSaved=  4 BigCof=14557.15 CofMax=   10.00 Det=-6.36D-13
 Inversion failed.  Reducing to  3 matrices.
 Large coefficients: NSaved=  3 BigCof=10339.62 CofMax=   10.00 Det=-1.09D-11
 Inversion failed.  Reducing to  2 matrices.
 Coeff-Com:  0.768D+00 0.232D+00
 Coeff-En:   0.000D+00 0.100D+01
 Coeff:      0.745D+00 0.255D+00
 Gap=     0.158 Goal=   None    Shift=    0.000
 Gap=     0.149 Goal=   None    Shift=    0.000
 RMSDP=7.34D-04 MaxDP=1.44D-02 DE=-1.00D-02 OVMax= 6.68D-02

 Cycle  48  Pass 1  IDiag  1:
 E= -92.6171328696219     Delta-E=       -0.005691481049 Rises=F Damp=F
 DIIS: error= 1.00D-02 at cycle  48 NSaved=   3.
 NSaved= 3 IEnMin= 3 EnMin= -92.6171328696219     IErMin= 2 ErrMin= 9.32D-03
 ErrMax= 1.00D-02  0.00D+00 EMaxC= 1.00D-01 BMatC= 3.80D-03 BMatP= 2.52D-03
 IDIUse=2 WtCom= 0.00D+00 WtEn= 1.00D+00
 Coeff-En:   0.000D+00 0.000D+00 0.100D+01
 Coeff:      0.000D+00 0.000D+00 0.100D+01
 Gap=     0.150 Goal=   None    Shift=    0.000
 Gap=     0.177 Goal=   None    Shift=    0.000
 RMSDP=2.34D-03 MaxDP=4.72D-02 DE=-5.69D-03 OVMax= 1.94D-01

 Cycle  49  Pass 1  IDiag  1:
 E= -92.6328278027099     Delta-E=       -0.015694933088 Rises=F Damp=F
 DIIS: error= 1.38D-02 at cycle  49 NSaved=   4.
 NSaved= 4 IEnMin= 4 EnMin= -92.6328278027099     IErMin= 2 ErrMin= 9.32D-03
 ErrMax= 1.38D-02  0.00D+00 EMaxC= 1.00D-01 BMatC= 9.02D-03 BMatP= 2.52D-03
 IDIUse=2 WtCom= 0.00D+00 WtEn= 1.00D+00
 Coeff-En:   0.000D+00 0.000D+00 0.000D+00 0.100D+01
 Coeff:      0.000D+00 0.000D+00 0.000D+00 0.100D+01
 Gap=     0.172 Goal=   None    Shift=    0.000
 Gap=     0.288 Goal=   None    Shift=    0.000
 RMSDP=1.59D-03 MaxDP=2.95D-02 DE=-1.57D-02 OVMax= 9.88D-02

 Cycle  50  Pass 1  IDiag  1:
 E= -92.6413782816818     Delta-E=       -0.008550478972 Rises=F Damp=F
 DIIS: error= 6.07D-03 at cycle  50 NSaved=   5.
 NSaved= 5 IEnMin= 5 EnMin= -92.6413782816818     IErMin= 5 ErrMin= 6.07D-03
 ErrMax= 6.07D-03  0.00D+00 EMaxC= 1.00D-01 BMatC= 2.67D-03 BMatP= 2.52D-03
 IDIUse=3 WtCom= 9.70D-01 WtEn= 2.99D-02
 Coeff-Com:  0.191D+01 0.202D+01-0.395D+01 0.720D+00 0.290D+00
 Coeff-En:   0.000D+00 0.000D+00 0.000D+00 0.000D+00 0.100D+01
 Coeff:      0.186D+01 0.196D+01-0.383D+01 0.699D+00 0.311D+00
 Gap=     0.116 Goal=   None    Shift=    0.000
 Gap=     0.175 Goal=   None    Shift=    0.000
 RMSDP=5.13D-03 MaxDP=8.83D-02 DE=-8.55D-03 OVMax= 3.96D-01

 Cycle  51  Pass 1  IDiag  1:
 E= -92.6008297628835     Delta-E=        0.040548518798 Rises=F Damp=F
 DIIS: error= 1.09D-02 at cycle  51 NSaved=   6.
 NSaved= 6 IEnMin= 5 EnMin= -92.6413782816818     IErMin= 5 ErrMin= 6.07D-03
 ErrMax= 1.09D-02  0.00D+00 EMaxC= 1.00D-01 BMatC= 1.11D-02 BMatP= 2.52D-03
 IDIUse=2 WtCom= 0.00D+00 WtEn= 1.00D+00
 Rare condition: small coef for last iteration:  0.000D+00
 Coeff-En:   0.583D+00 0.000D+00 0.000D+00 0.000D+00 0.000D+00 0.417D+00
 Coeff:      0.583D+00 0.000D+00 0.000D+00 0.000D+00 0.000D+00 0.417D+00
 Gap=     0.139 Goal=   None    Shift=    0.000
 Gap=     0.136 Goal=   None    Shift=    0.000
 RMSDP=2.25D-03 MaxDP=4.28D-02 DE= 4.05D-02 OVMax= 2.05D-01

 Cycle  52  Pass 1  IDiag  1:
 E= -92.6143832469517     Delta-E=       -0.013553484068 Rises=F Damp=F
 DIIS: error= 1.90D-02 at cycle  52 NSaved=   7.
 NSaved= 7 IEnMin= 5 EnMin= -92.6413782816818     IErMin= 5 ErrMin= 6.07D-03
 ErrMax= 1.90D-02  0.00D+00 EMaxC= 1.00D-01 BMatC= 1.01D-02 BMatP= 2.52D-03
 IDIUse=2 WtCom= 0.00D+00 WtEn= 1.00D+00
 Coeff-En:   0.000D+00 0.110D+00 0.000D+00 0.000D+00 0.000D+00 0.000D+00
 Coeff-En:   0.890D+00
 Coeff:      0.000D+00 0.110D+00 0.000D+00 0.000D+00 0.000D+00 0.000D+00
 Coeff:      0.890D+00
 Gap=     0.166 Goal=   None    Shift=    0.000
 Gap=     0.210 Goal=   None    Shift=    0.000
 RMSDP=2.04D-03 MaxDP=2.93D-02 DE=-1.36D-02 OVMax= 1.72D-01

 Cycle  53  Pass 1  IDiag  1:
 E= -92.6288508394127     Delta-E=       -0.014467592461 Rises=F Damp=F
 DIIS: error= 9.75D-03 at cycle  53 NSaved=   8.
 NSaved= 8 IEnMin= 5 EnMin= -92.6413782816818     IErMin= 5 ErrMin= 6.07D-03
 ErrMax= 9.75D-03  0.00D+00 EMaxC= 1.00D-01 BMatC= 5.96D-03 BMatP= 2.52D-03
 IDIUse=3 WtCom= 9.70D-01 WtEn= 2.99D-02
 Coeff-Com:  0.976D+00 0.170D+01-0.159D+01 0.406D+00 0.131D+01 0.890D-01
 Coeff-Com: -0.148D+00-0.175D+01
 Coeff-En:   0.000D+00 0.000D+00 0.000D+00 0.000D+00 0.000D+00 0.000D+00
 Coeff-En:   0.000D+00 0.100D+01
 Coeff:      0.947D+00 0.165D+01-0.154D+01 0.394D+00 0.127D+01 0.864D-01
 Coeff:     -0.144D+00-0.167D+01
 Gap=     0.146 Goal=   None    Shift=    0.000
 Gap=     0.196 Goal=   None    Shift=    0.000
 RMSDP=1.18D-03 MaxDP=2.53D-02 DE=-1.45D-02 OVMax= 9.99D-02

 Cycle  54  Pass 1  IDiag  1:
 E= -92.6173520716607     Delta-E=        0.011498767752 Rises=F Damp=F
 DIIS: error= 1.36D-02 at cycle  54 NSaved=   9.
 NSaved= 9 IEnMin= 5 EnMin= -92.6413782816818     IErMin= 5 ErrMin= 6.07D-03
 ErrMax= 1.36D-02  0.00D+00 EMaxC= 1.00D-01 BMatC= 1.38D-02 BMatP= 2.52D-03
 IDIUse=2 WtCom= 0.00D+00 WtEn= 1.00D+00
 Rare condition: small coef for last iteration:  0.000D+00
 Coeff-En:   0.000D+00 0.000D+00 0.000D+00 0.000D+00 0.000D+00 0.000D+00
 Coeff-En:   0.263D+00 0.000D+00 0.737D+00
 Coeff:      0.000D+00 0.000D+00 0.000D+00 0.000D+00 0.000D+00 0.000D+00
 Coeff:      0.263D+00 0.000D+00 0.737D+00
 Gap=     0.137 Goal=   None    Shift=    0.000
 Gap=     0.175 Goal=   None    Shift=    0.000
 RMSDP=3.31D-03 MaxDP=7.87D-02 DE= 1.15D-02 OVMax= 3.04D-01

 Cycle  55  Pass 1  IDiag  1:
 E= -92.6296928745471     Delta-E=       -0.012340802886 Rises=F Damp=F
 DIIS: error= 2.00D-02 at cycle  55 NSaved=  10.
 NSaved=10 IEnMin= 5 EnMin= -92.6413782816818     IErMin= 5 ErrMin= 6.07D-03
 ErrMax= 2.00D-02  0.00D+00 EMaxC= 1.00D-01 BMatC= 3.30D-02 BMatP= 2.52D-03
 IDIUse=2 WtCom= 0.00D+00 WtEn= 1.00D+00
 EnCoef did   100 forward-backward iterations
 Coeff-En:   0.000D+00 0.000D+00 0.000D+00 0.000D+00 0.000D+00 0.000D+00
 Coeff-En:   0.000D+00 0.458D+00 0.127D-02 0.540D+00
 Coeff:      0.000D+00 0.000D+00 0.000D+00 0.000D+00 0.000D+00 0.000D+00
 Coeff:      0.000D+00 0.458D+00 0.127D-02 0.540D+00
 Gap=     0.170 Goal=   None    Shift=    0.000
 Gap=     0.291 Goal=   None    Shift=    0.000
 RMSDP=1.79D-03 MaxDP=3.66D-02 DE=-1.23D-02 OVMax= 9.75D-02

 Cycle  56  Pass 1  IDiag  1:
 E= -92.6422087156442     Delta-E=       -0.012515841097 Rises=F Damp=F
 DIIS: error= 5.44D-03 at cycle  56 NSaved=  11.
 NSaved=11 IEnMin=11 EnMin= -92.6422087156442     IErMin=11 ErrMin= 5.44D-03
 ErrMax= 5.44D-03  0.00D+00 EMaxC= 1.00D-01 BMatC= 2.14D-03 BMatP= 2.52D-03
 IDIUse=3 WtCom= 9.70D-01 WtEn= 2.99D-02
 Coeff-Com:  0.138D+01 0.910D+01-0.973D+01 0.398D+01-0.773D-01-0.254D+01
 Coeff-Com:  0.734D+00-0.421D+01 0.200D+01-0.110D+01 0.145D+01
 Coeff-En:   0.000D+00 0.000D+00 0.000D+00 0.000D+00 0.000D+00 0.000D+00
 Coeff-En:   0.000D+00 0.000D+00 0.000D+00 0.000D+00 0.100D+01
 Coeff:      0.134D+01 0.883D+01-0.944D+01 0.386D+01-0.750D-01-0.246D+01
 Coeff:      0.712D+00-0.408D+01 0.194D+01-0.106D+01 0.143D+01
 Gap=     0.140 Goal=   None    Shift=    0.000
 Gap=     0.202 Goal=   None    Shift=    0.000
 RMSDP=2.07D-03 MaxDP=4.51D-02 DE=-1.25D-02 OVMax= 1.80D-01

 Cycle  57  Pass 1  IDiag  1:
 E= -92.6260599939736     Delta-E=        0.016148721671 Rises=F Damp=F
 DIIS: error= 1.35D-02 at cycle  57 NSaved=  12.
 NSaved=12 IEnMin=11 EnMin= -92.6422087156442     IErMin=11 ErrMin= 5.44D-03
 ErrMax= 1.35D-02  0.00D+00 EMaxC= 1.00D-01 BMatC= 1.31D-02 BMatP= 2.14D-03
 IDIUse=2 WtCom= 0.00D+00 WtEn= 1.00D+00
 Rare condition: small coef for last iteration:  0.000D+00
 Coeff-En:   0.000D+00 0.000D+00 0.000D+00 0.000D+00 0.000D+00 0.000D+00
 Coeff-En:   0.000D+00 0.000D+00 0.000D+00 0.606D+00 0.000D+00 0.394D+00
 Coeff:      0.000D+00 0.000D+00 0.000D+00 0.000D+00 0.000D+00 0.000D+00
 Coeff:      0.000D+00 0.000D+00 0.000D+00 0.606D+00 0.000D+00 0.394D+00
 Gap=     0.158 Goal=   None    Shift=    0.000
 Gap=     0.231 Goal=   None    Shift=    0.000
 RMSDP=2.24D-03 MaxDP=4.90D-02 DE= 1.61D-02 OVMax= 1.97D-01

 Cycle  58  Pass 1  IDiag  1:
 E= -92.6431184550540     Delta-E=       -0.017058461080 Rises=F Damp=F
 DIIS: error= 4.55D-03 at cycle  58 NSaved=  13.
 NSaved=13 IEnMin=13 EnMin= -92.6431184550540     IErMin=13 ErrMin= 4.55D-03
 ErrMax= 4.55D-03  0.00D+00 EMaxC= 1.00D-01 BMatC= 1.58D-03 BMatP= 2.14D-03
 IDIUse=3 WtCom= 9.70D-01 WtEn= 2.99D-02
 Coeff-Com:  0.172D+01 0.530D+01-0.656D+01 0.253D+01 0.363D+00-0.966D+00
 Coeff-Com:  0.170D+00-0.162D+01-0.748D+00-0.692D+00-0.212D+01 0.146D+01
 Coeff-Com:  0.216D+01
 Coeff-En:   0.000D+00 0.000D+00 0.000D+00 0.000D+00 0.000D+00 0.000D+00
 Coeff-En:   0.000D+00 0.000D+00 0.000D+00 0.000D+00 0.000D+00 0.000D+00
 Coeff-En:   0.100D+01
 Coeff:      0.167D+01 0.514D+01-0.636D+01 0.246D+01 0.352D+00-0.938D+00
 Coeff:      0.165D+00-0.157D+01-0.726D+00-0.671D+00-0.205D+01 0.142D+01
 Coeff:      0.212D+01
 Gap=     0.126 Goal=   None    Shift=    0.000
 Gap=     0.190 Goal=   None    Shift=    0.000
 RMSDP=3.47D-03 MaxDP=7.19D-02 DE=-1.71D-02 OVMax= 3.01D-01

 Cycle  59  Pass 1  IDiag  1:
 E= -92.6125826455480     Delta-E=        0.030535809506 Rises=F Damp=F
 DIIS: error= 1.56D-02 at cycle  59 NSaved=  14.
 NSaved=14 IEnMin=13 EnMin= -92.6431184550540     IErMin=13 ErrMin= 4.55D-03
 ErrMax= 1.56D-02  0.00D+00 EMaxC= 1.00D-01 BMatC= 2.13D-02 BMatP= 1.58D-03
 IDIUse=2 WtCom= 0.00D+00 WtEn= 1.00D+00
 Rare condition: small coef for last iteration:  0.000D+00
 Coeff-En:   0.000D+00 0.000D+00 0.000D+00 0.000D+00 0.000D+00 0.000D+00
 Coeff-En:   0.000D+00 0.449D+00 0.171D-02 0.521D+00 0.000D+00 0.000D+00
 Coeff-En:   0.000D+00 0.287D-01
 Coeff:      0.000D+00 0.000D+00 0.000D+00 0.000D+00 0.000D+00 0.000D+00
 Coeff:      0.000D+00 0.449D+00 0.171D-02 0.521D+00 0.000D+00 0.000D+00
 Coeff:      0.000D+00 0.287D-01
 Gap=     0.142 Goal=   None    Shift=    0.000
 Gap=     0.297 Goal=   None    Shift=    0.000
 RMSDP=3.33D-03 MaxDP=6.95D-02 DE= 3.05D-02 OVMax= 2.90D-01

 Cycle  60  Pass 1  IDiag  1:
 E= -92.6424340645703     Delta-E=       -0.029851419022 Rises=F Damp=F
 DIIS: error= 4.85D-03 at cycle  60 NSaved=  15.
 NSaved=15 IEnMin=13 EnMin= -92.6431184550540     IErMin=13 ErrMin= 4.55D-03
 ErrMax= 4.85D-03  0.00D+00 EMaxC= 1.00D-01 BMatC= 1.75D-03 BMatP= 1.58D-03
 IDIUse=3 WtCom= 9.70D-01 WtEn= 2.99D-02
 Coeff-Com:  0.195D+01 0.383D+01-0.464D+01 0.217D+01 0.288D+00-0.365D+00
 Coeff-Com: -0.679D+00-0.129D+01-0.633D-01-0.305D+00 0.307D+01 0.157D+01
 Coeff-Com:  0.211D+01-0.114D+01-0.550D+01
 Coeff-En:   0.000D+00 0.000D+00 0.000D+00 0.000D+00 0.000D+00 0.000D+00
 Coeff-En:   0.000D+00 0.000D+00 0.000D+00 0.000D+00 0.000D+00 0.000D+00
 Coeff-En:   0.000D+00 0.000D+00 0.100D+01
 Coeff:      0.189D+01 0.371D+01-0.450D+01 0.210D+01 0.280D+00-0.354D+00
 Coeff:     -0.659D+00-0.125D+01-0.614D-01-0.296D+00 0.298D+01 0.152D+01
 Coeff:      0.205D+01-0.111D+01-0.531D+01
 Gap=     0.118 Goal=   None    Shift=    0.000
 Gap=     0.180 Goal=   None    Shift=    0.000
 RMSDP=4.46D-03 MaxDP=8.57D-02 DE=-2.99D-02 OVMax= 3.72D-01

 Cycle  61  Pass 1  IDiag  1:
 E= -92.6031072459737     Delta-E=        0.039326818597 Rises=F Damp=F
 DIIS: error= 1.43D-02 at cycle  61 NSaved=  16.
 NSaved=16 IEnMin=13 EnMin= -92.6431184550540     IErMin=13 ErrMin= 4.55D-03
 ErrMax= 1.43D-02  0.00D+00 EMaxC= 1.00D-01 BMatC= 2.06D-02 BMatP= 1.58D-03
 IDIUse=2 WtCom= 0.00D+00 WtEn= 1.00D+00
 Rare condition: small coef for last iteration:  0.000D+00
 Coeff-En:   0.000D+00 0.565D-01 0.000D+00 0.000D+00 0.000D+00 0.000D+00
 Coeff-En:   0.912D+00 0.000D+00 0.000D+00 0.000D+00 0.000D+00 0.000D+00
 Coeff-En:   0.000D+00 0.000D+00 0.000D+00 0.316D-01
 Coeff:      0.000D+00 0.565D-01 0.000D+00 0.000D+00 0.000D+00 0.000D+00
 Coeff:      0.912D+00 0.000D+00 0.000D+00 0.000D+00 0.000D+00 0.000D+00
 Coeff:      0.000D+00 0.000D+00 0.000D+00 0.316D-01
 Gap=     0.151 Goal=   None    Shift=    0.000
 Gap=     0.225 Goal=   None    Shift=    0.000
 RMSDP=2.54D-03 MaxDP=4.86D-02 DE= 3.93D-02 OVMax= 2.16D-01

 Cycle  62  Pass 1  IDiag  1:
 E= -92.6289476829343     Delta-E=       -0.025840436961 Rises=F Damp=F
 DIIS: error= 9.72D-03 at cycle  62 NSaved=  17.
 NSaved=17 IEnMin=13 EnMin= -92.6431184550540     IErMin=13 ErrMin= 4.55D-03
 ErrMax= 9.72D-03  0.00D+00 EMaxC= 1.00D-01 BMatC= 5.91D-03 BMatP= 1.58D-03
 IDIUse=3 WtCom= 9.70D-01 WtEn= 2.99D-02
 Large coefficients: NSaved= 17 BigCof=   50.10 CofMax=   10.00 Det=-9.57D-10
 Inversion failed.  Reducing to 16 matrices.
 Large coefficients: NSaved= 16 BigCof=   32.12 CofMax=   10.00 Det=-1.12D-09
 Inversion failed.  Reducing to 15 matrices.
 Large coefficients: NSaved= 15 BigCof=  114.53 CofMax=   10.00 Det=-1.27D-09
 Inversion failed.  Reducing to 14 matrices.
 Large coefficients: NSaved= 14 BigCof=   64.21 CofMax=   10.00 Det=-1.35D-09
 Inversion failed.  Reducing to 13 matrices.
 Large coefficients: NSaved= 13 BigCof=   58.83 CofMax=   10.00 Det=-1.38D-09
 Inversion failed.  Reducing to 12 matrices.
 Large coefficients: NSaved= 12 BigCof=   54.14 CofMax=   10.00 Det=-1.45D-09
 Inversion failed.  Reducing to 11 matrices.
 Large coefficients: NSaved= 11 BigCof=   89.24 CofMax=   10.00 Det=-1.52D-09
 Inversion failed.  Reducing to 10 matrices.
 Large coefficients: NSaved= 10 BigCof=   76.05 CofMax=   10.00 Det=-1.82D-09
 Inversion failed.  Reducing to  9 matrices.
 Large coefficients: NSaved=  9 BigCof=   48.90 CofMax=   10.00 Det=-3.80D-09
 Inversion failed.  Reducing to  8 matrices.
 Coeff-Com:  0.966D+00 0.109D+01-0.188D+00 0.155D+01 0.590D+01-0.688D+01
 Coeff-Com:  0.645D+00-0.208D+01
 Coeff-En:   0.000D+00 0.000D+00 0.537D+00 0.000D+00 0.000D+00 0.000D+00
 Coeff-En:   0.000D+00 0.463D+00
 Coeff:      0.937D+00 0.106D+01-0.166D+00 0.150D+01 0.572D+01-0.667D+01
 Coeff:      0.626D+00-0.201D+01
 Gap=     0.148 Goal=   None    Shift=    0.000
 Gap=     0.234 Goal=   None    Shift=    0.000
 RMSDP=3.54D-03 MaxDP=5.93D-02 DE=-2.58D-02 OVMax= 2.79D-01

 Cycle  63  Pass 1  IDiag  1:
 E= -92.6470998739021     Delta-E=       -0.018152190968 Rises=F Damp=F
 DIIS: error= 1.88D-03 at cycle  63 NSaved=   9.
 NSaved= 9 IEnMin= 9 EnMin= -92.6470998739021     IErMin= 9 ErrMin= 1.88D-03
 ErrMax= 1.88D-03  0.00D+00 EMaxC= 1.00D-01 BMatC= 4.24D-04 BMatP= 1.58D-03
 IDIUse=3 WtCom= 9.81D-01 WtEn= 1.88D-02
 Coeff-Com: -0.865D+00-0.118D+01 0.519D+00 0.496D+01 0.752D+00-0.397D+01
 Coeff-Com:  0.118D-01-0.110D+00 0.891D+00
 Coeff-En:   0.000D+00 0.000D+00 0.000D+00 0.000D+00 0.000D+00 0.000D+00
 Coeff-En:   0.000D+00 0.000D+00 0.100D+01
 Coeff:     -0.848D+00-0.116D+01 0.509D+00 0.486D+01 0.738D+00-0.390D+01
 Coeff:      0.116D-01-0.108D+00 0.893D+00
 Gap=     0.190 Goal=   None    Shift=    0.000
 Gap=     0.247 Goal=   None    Shift=    0.000
 RMSDP=1.04D-03 MaxDP=1.46D-02 DE=-1.82D-02 OVMax= 7.28D-02

 Cycle  64  Pass 1  IDiag  1:
 E= -92.6477802113272     Delta-E=       -0.000680337425 Rises=F Damp=F
 DIIS: error= 1.14D-03 at cycle  64 NSaved=  10.
 NSaved=10 IEnMin=10 EnMin= -92.6477802113272     IErMin=10 ErrMin= 1.14D-03
 ErrMax= 1.14D-03  0.00D+00 EMaxC= 1.00D-01 BMatC= 5.52D-05 BMatP= 4.24D-04
 IDIUse=3 WtCom= 9.89D-01 WtEn= 1.14D-02
 Coeff-Com: -0.245D-01-0.104D+01 0.867D-01 0.154D+01 0.543D+00-0.113D+01
 Coeff-Com:  0.106D-01 0.187D+00-0.286D+00 0.111D+01
 Coeff-En:   0.000D+00 0.000D+00 0.000D+00 0.000D+00 0.000D+00 0.000D+00
 Coeff-En:   0.000D+00 0.000D+00 0.000D+00 0.100D+01
 Coeff:     -0.242D-01-0.103D+01 0.857D-01 0.152D+01 0.537D+00-0.112D+01
 Coeff:      0.105D-01 0.185D+00-0.283D+00 0.111D+01
 Gap=     0.181 Goal=   None    Shift=    0.000
 Gap=     0.242 Goal=   None    Shift=    0.000
 RMSDP=2.88D-04 MaxDP=4.53D-03 DE=-6.80D-04 OVMax= 1.59D-02

 Cycle  65  Pass 1  IDiag  1:
 E= -92.6478088870683     Delta-E=       -0.000028675741 Rises=F Damp=F
 DIIS: error= 4.30D-04 at cycle  65 NSaved=  11.
 NSaved=11 IEnMin=11 EnMin= -92.6478088870683     IErMin=11 ErrMin= 4.30D-04
 ErrMax= 4.30D-04  0.00D+00 EMaxC= 1.00D-01 BMatC= 1.64D-05 BMatP= 5.52D-05
 IDIUse=3 WtCom= 9.96D-01 WtEn= 4.30D-03
 Coeff-Com:  0.108D+00 0.347D+00-0.365D-01 0.839D-01 0.499D-01-0.469D+00
 Coeff-Com:  0.195D-01-0.127D+00-0.372D-01 0.131D+00 0.931D+00
 Coeff-En:   0.000D+00 0.000D+00 0.000D+00 0.000D+00 0.000D+00 0.000D+00
 Coeff-En:   0.000D+00 0.000D+00 0.000D+00 0.000D+00 0.100D+01
 Coeff:      0.107D+00 0.345D+00-0.364D-01 0.835D-01 0.497D-01-0.467D+00
 Coeff:      0.194D-01-0.127D+00-0.371D-01 0.131D+00 0.931D+00
 Gap=     0.185 Goal=   None    Shift=    0.000
 Gap=     0.244 Goal=   None    Shift=    0.000
 RMSDP=1.27D-04 MaxDP=1.83D-03 DE=-2.87D-05 OVMax= 7.62D-03

 Cycle  66  Pass 1  IDiag  1:
 E= -92.6478275630558     Delta-E=       -0.000018675987 Rises=F Damp=F
 DIIS: error= 7.32D-05 at cycle  66 NSaved=  12.
 NSaved=12 IEnMin=12 EnMin= -92.6478275630558     IErMin=12 ErrMin= 7.32D-05
 ErrMax= 7.32D-05  0.00D+00 EMaxC= 1.00D-01 BMatC= 7.55D-07 BMatP= 1.64D-05
 IDIUse=1 WtCom= 1.00D+00 WtEn= 0.00D+00
 Coeff-Com: -0.588D-01 0.132D-01 0.206D-01-0.192D+00 0.255D-01 0.168D+00
[...]
 Coeff-Com:  0.240D+00-0.569D+00-0.612D+00 0.487D+00-0.226D+00 0.788D+00
 Coeff-Com:  0.723D+00 0.169D+00
 Coeff:      0.240D+00-0.569D+00-0.612D+00 0.487D+00-0.226D+00 0.788D+00
 Coeff:      0.723D+00 0.169D+00
 Gap=     0.184 Goal=   None    Shift=    0.000
 Gap=     0.244 Goal=   None    Shift=    0.000
 RMSDP=2.56D-08 MaxDP=6.67D-07 DE= 7.32D-10 OVMax= 2.59D-06

 Cycle  54  Pass 1  IDiag  1:
 E= -92.6482369268922     Delta-E=        0.000000000013 Rises=F Damp=F
 DIIS: error= 1.09D-05 at cycle  54 NSaved=   9.
 NSaved= 9 IEnMin= 1 EnMin= -92.6482369891923     IErMin= 4 ErrMin= 6.85D-06
 ErrMax= 1.09D-05  0.00D+00 EMaxC= 1.00D-01 BMatC= 7.33D-09 BMatP= 2.84D-09
 IDIUse=1 WtCom= 1.00D+00 WtEn= 0.00D+00
 Large coefficients: NSaved=  9 BigCof=   60.10 CofMax=   10.00 Det=-1.79D-18
 Inversion failed.  Reducing to  8 matrices.
 Large coefficients: NSaved=  8 BigCof=   87.77 CofMax=   10.00 Det=-3.42D-18
 Inversion failed.  Reducing to  7 matrices.
 Large coefficients: NSaved=  7 BigCof=   52.29 CofMax=   10.00 Det=-6.37D-18
 Inversion failed.  Reducing to  6 matrices.
 Large coefficients: NSaved=  6 BigCof=  165.53 CofMax=   10.00 Det=-8.77D-18
 Inversion failed.  Reducing to  5 matrices.
 Large coefficients: NSaved=  5 BigCof=  351.17 CofMax=   10.00 Det=-7.28D-17
 Inversion failed.  Reducing to  4 matrices.
 Large coefficients: NSaved=  4 BigCof=  408.84 CofMax=   10.00 Det=-7.32D-16
 Inversion failed.  Reducing to  3 matrices.
 Large coefficients: NSaved=  3 BigCof=  402.06 CofMax=   10.00 Det=-1.35D-15
 Inversion failed.  Reducing to  2 matrices.
 Large coefficients: NSaved=  2 BigCof=  404.71 CofMax=   10.00 Det=-4.47D-14
 Coeff-Com:  0.405D+03-0.404D+03
 Coeff:      0.405D+03-0.404D+03
 Gap=     0.184 Goal=   None    Shift=    0.000
 Gap=     0.244 Goal=   None    Shift=    0.000
 RMSDP=1.04D-05 MaxDP=2.70D-04 DE= 1.35D-11 OVMax= 1.05D-03

 Cycle  55  Pass 1  IDiag  1:
 E= -92.6482369296802     Delta-E=       -0.000000002788 Rises=F Damp=F
 DIIS: error= 5.73D-08 at cycle  55 NSaved=   3.
 NSaved= 3 IEnMin= 3 EnMin= -92.6482369296802     IErMin= 3 ErrMin= 5.73D-08
 ErrMax= 5.73D-08  0.00D+00 EMaxC= 1.00D-01 BMatC= 2.77D-13 BMatP= 7.29D-09
 IDIUse=1 WtCom= 1.00D+00 WtEn= 0.00D+00
 Large coefficients: NSaved=  3 BigCof=  125.78 CofMax=   10.00 Det=-3.60D-18
 Inversion failed.  Reducing to  2 matrices.
 Coeff-Com: -0.311D-02 0.100D+01
 Coeff:     -0.311D-02 0.100D+01
 Gap=     0.184 Goal=   None    Shift=    0.000
 Gap=     0.244 Goal=   None    Shift=    0.000
 RMSDP=3.42D-08 MaxDP=8.75D-07 DE=-2.79D-09 OVMax= 3.40D-06

 Cycle  56  Pass 1  IDiag  1:
 E= -92.6482369296806     Delta-E=       -0.000000000000 Rises=F Damp=F
 DIIS: error= 2.17D-08 at cycle  56 NSaved=   3.
 NSaved= 3 IEnMin= 3 EnMin= -92.6482369296806     IErMin= 3 ErrMin= 2.17D-08
 ErrMax= 2.17D-08  0.00D+00 EMaxC= 1.00D-01 BMatC= 5.42D-14 BMatP= 2.77D-13
 IDIUse=1 WtCom= 1.00D+00 WtEn= 0.00D+00
 Coeff-Com:  0.132D-02-0.583D+00 0.158D+01
 Coeff:      0.132D-02-0.583D+00 0.158D+01
 Gap=     0.184 Goal=   None    Shift=    0.000
 Gap=     0.244 Goal=   None    Shift=    0.000
 RMSDP=8.72D-09 MaxDP=1.85D-07 DE=-3.98D-13 OVMax= 7.23D-07

 SCF Done:  E(UM062X) =  -92.6482369297     A.U. after   56 cycles
            NFock= 56  Conv=0.87D-08     -V/T= 2.0030
 <Sx>= 0.0000 <Sy>= 0.0000 <Sz>= 0.5000 <S**2>= 2.4542 S= 1.1444
 <L.S>=  0.00000000000    
 KE= 9.236879100721D+01 PE=-2.360781778911D+02 EE= 3.950919211995D+01
 Annihilation of the first spin contaminant:
 S**2 before annihilation     2.4542,   after     2.8697
 Leave Link  502 at Mon Apr 21 18:36:56 2025, MaxMem=   536870912 cpu:             111.0 elap:              14.5
 (Enter /home/szhao/Apps/g16/l701.exe)
 ... and contract with generalized density number  0.
 Compute integral first derivatives.
 Leave Link  701 at Mon Apr 21 18:36:57 2025, MaxMem=   536870912 cpu:               1.0 elap:               0.1
 (Enter /home/szhao/Apps/g16/l702.exe)
 L702 exits ... SP integral derivatives will be done elsewhere.
 Leave Link  702 at Mon Apr 21 18:36:57 2025, MaxMem=   536870912 cpu:               0.4 elap:               0.0
 (Enter /home/szhao/Apps/g16/l703.exe)
 Integral derivatives from FoFJK, PRISM(SPDF).
 Compute integral first derivatives, UseDBF=F ICtDFT=           0.
 Calling FoFJK, ICntrl=      2127 FMM=F ISym2X=0 I1Cent= 0 IOpClX= 1 NMat=1 NMatS=1 NMatT=0.
 FoFJK:  IHMeth= 1 ICntrl=    2127 DoSepK=F KAlg= 0 I1Cent=           0 FoldK=F
 IRaf=         0 NMat=       1 IRICut=       1 DoRegI=T DoRafI=F ISym2E= 0 IDoP0=0 IntGTp=1.
 FoFCou: FMM=F IPFlag=           0 FMFlag=      100000 FMFlg1=         800
         NFxFlg=           0 DoJE=F BraDBF=F KetDBF=F FulRan=T
         wScrn=  0.000000 ICntrl=      2127 IOpCl=  1 I1Cent=           0 NGrid=           0
         NMat0=    1 NMatS0=      1 NMatT0=    0 NMatD0=    1 NMtDS0=    0 NMtDT0=    0
 Symmetry not used in FoFCou.
 Leave Link  703 at Mon Apr 21 18:36:57 2025, MaxMem=   536870912 cpu:               4.3 elap:               0.5
 (Enter /home/szhao/Apps/g16/l716.exe)
 Dipole        =-1.98065906D+00-2.04076444D-10 2.45249598D-11
 -------------------------------------------------------------------
 Center     Atomic                   Forces (Hartrees/Bohr)
 Number     Number              X              Y              Z
 -------------------------------------------------------------------
      1        6          -0.000000000   -0.000000000   -0.000000000
      2        7          -0.000000000   -0.000000000   -0.000000000
      3        1          -0.000004401    0.000000000    0.000000000
 -------------------------------------------------------------------
 Cartesian Forces:  Max     0.000004401 RMS     0.000001467
 Leave Link  716 at Mon Apr 21 18:36:57 2025, MaxMem=   536870912 cpu:               0.4 elap:               0.1
 (Enter /home/szhao/Apps/g16/l103.exe)

 GradGradGradGradGradGradGradGradGradGradGradGradGradGradGradGradGradGrad
 Berny optimization.
 Using GEDIIS/GDIIS optimizer.
 FormGI is forming the generalized inverse of G from B-inverse, IUseBI=4.
 Internal  Forces:  Max     0.000004401 RMS     0.000002075
 Search for a local minimum.
 Step number   3 out of a maximum of   20
 All quantities printed in internal units (Hartrees-Bohrs-Radians)
 RMS Force = .25410D-05 SwitMx=.10000D-02 MixMth= 2
 Mixed Optimization -- En-DIIS/RFO-DIIS
 Swapping is turned off.
 Update second derivatives using D2CorX and points    1    2    3
 DE= -3.58D-06 DEPred=-3.88D-06 R= 9.22D-01
 TightC=F SS=  1.41D+00  RLast= 5.49D-03 DXNew= 5.0454D-01 1.6480D-02
 Trust test= 9.22D-01 RLast= 5.49D-03 DXMaxT set to 3.00D-01
 The second derivative matrix:
                          X1        Y1        Z1        X2        Y2
           X1           0.78324
           Y1          -0.00000   0.50000
           Z1          -0.00000   0.00000   0.50000
           X2           0.00000  -0.00000  -0.00000   0.50000
           Y2           0.00000  -0.00000  -0.00000   0.00000   0.50000
           Z2           0.00000  -0.00000  -0.00000   0.00000   0.00000
           R1          -0.28324   0.00000   0.00000  -0.00000  -0.00000
           A1           0.00000  -0.00000  -0.00000   0.00000   0.00000
           A2           0.00000  -0.00000  -0.00000   0.00000   0.00000
                          Z2        R1        A1        A2
           Z2           0.50000
           R1          -0.00000   0.28324
           A1           0.00000  -0.00000   0.00230
           A2           0.00000  -0.00000   0.00000   0.00230
 ITU=  1  1  0
     Eigenvalues ---    0.00230   0.283241000.000001000.000001000.00000
     Eigenvalues --- 1000.000001000.000001000.000001000.00000
 En-DIIS/RFO-DIIS/Sim-DIIS IScMMF=       -3 using points:     3    2
 RFO step:  Lambda=-5.85511051D-11.
 NNeg= 0 NGDIIS= 2 SimSw=  2.50D-03 Rises=F DC= -3.58D-06 SmlDif=  1.00D-05
 NRisDI= 0 DoIntr=F SqrtH=F CThrHd= 10.0 CDAdj=  3.0
 RMS Error=  0.5179569769D-05 NUsed= 2 OKEnD=F EnDIS=F
 InvSVX:  RCond= 7.54D-06 Info=           0 Equed=N FErr=  8.93D-16 BErr=  3.69D-18
 DidBck=F Rises=F RFO-DIIS coefs:    1.00283   -0.00283
 Iteration  1 RMS(Cart)=  0.00000518 RMS(Int)=  0.00000000
 Iteration  2 RMS(Cart)=  0.00000001 RMS(Int)=  0.00000000
 ITry= 1 IFail=0 DXMaxC= 1.55D-05 DCOld= 1.00D+10 DXMaxT= 3.00D-01 DXLimC= 3.00D+00 Rises=F
 Variable       Old X    -DE/DX   Delta X   Delta X   Delta X     New X
                                 (Linear)    (Quad)   (Total)
    X1       -2.69577  -0.00000   0.00000   0.00000   0.00000  -2.69577
    Y1        0.00000  -0.00000   0.00000   0.00000   0.00000   0.00000
    Z1        0.00000  -0.00000   0.00000   0.00000   0.00000   0.00000
    X2        2.69577   0.00000  -0.00000   0.00000   0.00000   2.69577
    Y2        0.00000   0.00000   0.00000   0.00000   0.00000   0.00000
    Z2        0.00000   0.00000   0.00000   0.00000   0.00000   0.00000
    R1        2.12008   0.00000   0.00002  -0.00000   0.00002   2.12009
    A1        3.14159   0.00000   0.00000   0.00000   0.00000   3.14159
    A2        3.14159   0.00000   0.00000   0.00000   0.00000   3.14159
         Item               Value     Threshold  Converged?
 Maximum Force            0.000004     0.000450     YES
 RMS     Force            0.000003     0.000300     YES
 Maximum Displacement     0.000016     0.001800     YES
 RMS     Displacement     0.000005     0.001200     YES
 Predicted change in Energy=-3.419447D-11
 Optimization completed.
    -- Stationary point found.
                           ----------------------------
                           !   Optimized Parameters   !
                           ! (Angstroms and Degrees)  !
 --------------------------                            --------------------------
 ! Name  Definition              Value          Derivative Info.                !
 --------------------------------------------------------------------------------
 ! X1    R(1,-1)                -1.4265         -DE/DX =    0.0                 !
 ! Y1    R(1,-2)                 0.0            -DE/DX =    0.0                 !
 ! Z1    R(1,-3)                 0.0            -DE/DX =    0.0                 !
 ! X2    R(2,-1)                 1.4265         -DE/DX =    0.0                 !
 ! Y2    R(2,-2)                 0.0            -DE/DX =    0.0                 !
 ! Z2    R(2,-3)                 0.0            -DE/DX =    0.0                 !
 ! R1    R(1,3)                  1.1219         -DE/DX =    0.0                 !
 ! A1    L(2,1,3,-2,-1)        180.0            -DE/DX =    0.0                 !
 ! A2    L(2,1,3,-3,-2)        180.0            -DE/DX =    0.0                 !
 --------------------------------------------------------------------------------
 Lowest energy point so far.  Saving SCF results.
 Largest change from initial coordinates is atom    3       0.028 Angstoms.
 GradGradGradGradGradGradGradGradGradGradGradGradGradGradGradGradGradGrad

 Leave Link  103 at Mon Apr 21 18:36:57 2025, MaxMem=   536870912 cpu:               0.1 elap:               0.0
 (Enter /home/szhao/Apps/g16/l202.exe)
                          Input orientation:                          
 ---------------------------------------------------------------------
 Center     Atomic      Atomic             Coordinates (Angstroms)
 Number     Number       Type             X           Y           Z
 ---------------------------------------------------------------------
      1          6           0       -1.426540    0.000000    0.000000
      2          7           0        1.426540    0.000000    0.000000
      3          1           0       -2.548437   -0.000000   -0.000000
 ---------------------------------------------------------------------
                    Distance matrix (angstroms):
                    1          2          3
     1  C    0.000000
     2  N    2.853079   0.000000
     3  H    1.121898   3.974977   0.000000
 Symmetry turned off by external request.
 Stoichiometry    CHN(1+,2)
 Framework group  C*V[C*(HCN)]
 Deg. of freedom     2
 Full point group                 C*V     NOp   4
 Rotational constants (GHZ):           0.0000000           8.4996357           8.4996357
 Leave Link  202 at Mon Apr 21 18:36:58 2025, MaxMem=   536870912 cpu:               0.6 elap:               0.1
 (Enter /home/szhao/Apps/g16/l601.exe)
 Copying SCF densities to generalized density rwf, IOpCl= 1 IROHF=0.

 **********************************************************************

            Population analysis using the SCF density.

 **********************************************************************

 Alpha  occ. eigenvalues --  -15.12880 -11.02314  -1.15948  -0.99651  -0.67842
 Alpha  occ. eigenvalues --   -0.67820  -0.64815
 Alpha virt. eigenvalues --   -0.46438  -0.37350  -0.33609  -0.15723  -0.10088
 Alpha virt. eigenvalues --   -0.09366  -0.08417  -0.04290  -0.01500  -0.01325
 Alpha virt. eigenvalues --    0.00342   0.08192   0.23262   0.30259   0.30369
 Alpha virt. eigenvalues --    0.36035   0.50187   0.58439   0.58474   0.63135
 Alpha virt. eigenvalues --    0.83187   0.90927   0.92612   1.04252   1.04327
 Alpha virt. eigenvalues --    1.27235   1.55770   1.56624   1.69548   1.69578
 Alpha virt. eigenvalues --    1.69631   1.69632   1.72932   2.27103   2.34199
 Alpha virt. eigenvalues --    2.38424   2.43038   3.08644   3.51829   3.51844
 Alpha virt. eigenvalues --    3.56852  23.17582  34.98939
  Beta  occ. eigenvalues --  -15.09075 -11.04818  -1.08915  -0.94480  -0.78597
  Beta  occ. eigenvalues --   -0.67447
  Beta virt. eigenvalues --   -0.43085  -0.29442  -0.28703  -0.28662  -0.15659
  Beta virt. eigenvalues --   -0.11431  -0.09361  -0.09248  -0.06502   0.00024
  Beta virt. eigenvalues --    0.00222   0.00322   0.05425   0.23056   0.29761
  Beta virt. eigenvalues --    0.31452   0.32611   0.46721   0.61418   0.61494
  Beta virt. eigenvalues --    0.64674   0.79033   0.79430   0.86485   0.98155
  Beta virt. eigenvalues --    0.99060   1.24773   1.52587   1.53221   1.77832
  Beta virt. eigenvalues --    1.77851   1.78911   1.78912   1.80147   2.05809
  Beta virt. eigenvalues --    2.23086   2.33898   2.35769   2.86673   3.57846
  Beta virt. eigenvalues --    3.57885   3.59621  23.15268  34.99439
          Condensed to atoms (all electrons):
               1          2          3
     1  C    5.253962   0.063060   0.311050
     2  N    0.063060   6.670777   0.000803
     3  H    0.311050   0.000803   0.325433
          Atomic-Atomic Spin Densities.
               1          2          3
     1  C   -1.668074   0.053324  -0.011431
     2  N    0.053324   2.677673  -0.000163
     3  H   -0.011431  -0.000163  -0.093058
 Mulliken charges and spin densities:
               1          2
     1  C    0.371927  -1.626182
     2  N    0.265360   2.730834
     3  H    0.362713  -0.104652
 Sum of Mulliken charges =   1.00000   1.00000
 Mulliken charges and spin densities with hydrogens summed into heavy atoms:
               1          2
     1  C    0.734640  -1.730834
     2  N    0.265360   2.730834
 Electronic spatial extent (au):  <R**2>=            126.9831
 Charge=              1.0000 electrons
 Dipole moment (field-independent basis, Debye):
    X=             -5.0343    Y=             -0.0000    Z=              0.0000  Tot=              5.0343
 Quadrupole moment (field-independent basis, Debye-Ang):
   XX=              7.5187   YY=             -9.2149   ZZ=            -10.8361
   XY=             -0.0000   XZ=              0.0000   YZ=              0.0023
 Traceless Quadrupole moment (field-independent basis, Debye-Ang):
   XX=             11.6961   YY=             -5.0375   ZZ=             -6.6586
   XY=             -0.0000   XZ=              0.0000   YZ=              0.0023
 Octapole moment (field-independent basis, Debye-Ang**2):
  XXX=            -24.3076  YYY=             -0.0000  ZZZ=              0.0000  XYY=             -0.7441
  XXY=             -0.0000  XXZ=              0.0000  XZZ=              1.5812  YZZ=             -0.0000
  YYZ=              0.0000  XYZ=             -0.0033
 Hexadecapole moment (field-independent basis, Debye-Ang**3):
 XXXX=            -53.6867 YYYY=             -7.5697 ZZZZ=            -10.2177 XXXY=              0.0000
 XXXZ=              0.0000 YYYX=             -0.0000 YYYZ=              0.0019 ZZZX=              0.0000
 ZZZY=              0.0019 XXYY=            -23.0973 XXZZ=            -26.8819 YYZZ=             -2.9645
 XXYZ=              0.0053 YYXZ=              0.0000 ZZXY=             -0.0000
 N-N= 1.155195783427D+01 E-N=-2.360781780603D+02  KE= 9.236879100721D+01
                          Isotropic Fermi Contact Couplings
        Atom                 a.u.       MegaHertz       Gauss      10(-4) cm-1
     1  C(13)             -0.91884   -1032.95256    -368.58316    -344.55589
     2  N(14)              0.22390      72.34165      25.81330      24.13058
     3  H(1)              -0.06409    -286.46468    -102.21772     -95.55433
 --------------------------------------------------------
       Center         ----  Spin Dipole Couplings  ----
                      3XX-RR        3YY-RR        3ZZ-RR
 --------------------------------------------------------
     1   Atom        0.069424      1.176965     -1.246389
     2   Atom       -0.925325      0.461199      0.464126
     3   Atom       -0.144885      0.104800      0.040085
 --------------------------------------------------------
                        XY            XZ            YZ
 --------------------------------------------------------
     1   Atom        0.000000      0.000000      0.003413
     2   Atom        0.000000     -0.000000     -0.000004
     3   Atom       -0.000000     -0.000000      0.000091
 --------------------------------------------------------


 ---------------------------------------------------------------------------------
              Anisotropic Spin Dipole Couplings in Principal Axis System
 ---------------------------------------------------------------------------------

       Atom             a.u.   MegaHertz   Gauss  10(-4) cm-1        Axes

              Baa    -1.2464  -167.254   -59.680   -55.790 -0.0000 -0.0014  1.0000
     1 C(13)  Bbb     0.0694     9.316     3.324     3.107  1.0000 -0.0000 -0.0000
              Bcc     1.1770   157.938    56.356    52.682  0.0000  1.0000  0.0014
 
              Baa    -0.9253   -35.688   -12.734   -11.904  1.0000 -0.0000  0.0000
     2 N(14)  Bbb     0.4612    17.787     6.347     5.933  0.0000  1.0000  0.0014
              Bcc     0.4641    17.900     6.387     5.971 -0.0000 -0.0014  1.0000
 
              Baa    -0.1449   -77.304   -27.584   -25.786  1.0000  0.0000  0.0000
     3 H(1)   Bbb     0.0401    21.387     7.631     7.134 -0.0000 -0.0014  1.0000
              Bcc     0.1048    55.916    19.952    18.652 -0.0000  1.0000  0.0014
 

 ---------------------------------------------------------------------------------

 No NMR shielding tensors so no spin-rotation constants.
 Leave Link  601 at Mon Apr 21 18:36:58 2025, MaxMem=   536870912 cpu:               2.1 elap:               0.3
 (Enter /home/szhao/Apps/g16/l9999.exe)
 1\1\GINC-NODE05\FOpt\UM062X\6-311+G(d,p)\C1H1N1(1+,2)\SZHAO\21-Apr-202
 5\0\\#p opt UM062X/6-311+G** nosymm int=superfine\\Title Card Required
 \\1,2\C,-1.4265395,0.,0.\N,1.4265395,0.,0.\H,-2.5484371292,-0.00000000
 02,0.\\Version=ES64L-G16RevA.03\HF=-92.6482369\S2=2.454164\S2-1=0.\S2A
 =2.869685\RMSD=8.724e-09\RMSF=1.467e-06\Dipole=-1.8292248,0.,0.\Quadru
 pole=8.6957673,-3.7452329,-4.9505344,0.,0.,0.0016976\PG=C*V [C*(H1C1N1
 )]\\@


 SOME THINGS ARE EASY, THEY ARE ONLY HARD TO DO.
            -- A. EINSTEIN TO J. O. HIRSCHFELDER
 THE ONLY TROUBLE WITH A SURE THING IS THE UNCERTAINTY.
     -- FROM A TEABAG (BELONGING TO W.H.?)
 Job cpu time:       0 days  0 hours  6 minutes 13.2 seconds.
 Elapsed time:       0 days  0 hours  0 minutes 49.5 seconds.
 File lengths (MBytes):  RWF=     17 Int=      0 D2E=      0 Chk=      2 Scr=      2
 Normal termination of Gaussian 16 at Mon Apr 21 18:36:58 2025.
