 Entering Gaussian System, Link 0=g16
 Initial command:
 /home/szhao/Apps/g16/l1.exe "/home/szhao/tmp/Gau-105849.inp" -scrdir="/home/szhao/tmp/"
 Default is to use a total of  16 processors:
                               16 via shared-memory
                                1 via Linda
 Entering Link 1 = /home/szhao/Apps/g16/l1.exe PID=    105850.
  
 Copyright (c) 1988,1990,1992,1993,1995,1998,2003,2009,2016,
            Gaussian, Inc.  All Rights Reserved.
  
 This is part of the Gaussian(R) 16 program.  It is based on
 the Gaussian(R) 09 system (copyright 2009, Gaussian, Inc.),
 the Gaussian(R) 03 system (copyright 2003, Gaussian, Inc.),
 the Gaussian(R) 98 system (copyright 1998, Gaussian, Inc.),
 the Gaussian(R) 94 system (copyright 1995, Gaussian, Inc.),
 the Gaussian 92(TM) system (copyright 1992, Gaussian, Inc.),
 the Gaussian 90(TM) system (copyright 1990, Gaussian, Inc.),
 the Gaussian 88(TM) system (copyright 1988, Gaussian, Inc.),
 the Gaussian 86(TM) system (copyright 1986, Carnegie Mellon
 University), and the Gaussian 82(TM) system (copyright 1983,
 Carnegie Mellon University). Gaussian is a federally registered
 trademark of Gaussian, Inc.
  
 This software contains proprietary and confidential information,
 including trade secrets, belonging to Gaussian, Inc.
  
 This software is provided under written license and may be
 used, copied, transmitted, or stored only in accord with that
 written license.
  
 The following legend is applicable only to US Government
 contracts under FAR:
  
                    RESTRICTED RIGHTS LEGEND
  
 Use, reproduction and disclosure by the US Government is
 subject to restrictions as set forth in subparagraphs (a)
 and (c) of the Commercial Computer Software - Restricted
 Rights clause in FAR 52.227-19.
  
 Gaussian, Inc.
 340 Quinnipiac St., Bldg. 40, Wallingford CT 06492
  
  
 ---------------------------------------------------------------
 Warning -- This program may not be used in any manner that
 competes with the business of Gaussian, Inc. or will provide
 assistance to any competitor of Gaussian, Inc.  The licensee
 of this program is prohibited from giving any competitor of
 Gaussian, Inc. access to this program.  By using this program,
 the user acknowledges that Gaussian, Inc. is engaged in the
 business of creating and licensing software in the field of
 computational chemistry and represents and warrants to the
 licensee that it is not a competitor of Gaussian, Inc. and that
 it will not use this program in any manner prohibited above.
 ---------------------------------------------------------------
  

 Cite this work as:
 Gaussian 16, Revision A.03,
 M. J. Frisch, G. W. Trucks, H. B. Schlegel, G. E. Scuseria, 
 M. A. Robb, J. R. Cheeseman, G. Scalmani, V. Barone, 
 G. A. Petersson, H. Nakatsuji, X. Li, M. Caricato, A. V. Marenich, 
 J. Bloino, B. G. Janesko, R. Gomperts, B. Mennucci, H. P. Hratchian, 
 J. V. Ortiz, A. F. Izmaylov, J. L. Sonnenberg, D. Williams-Young, 
 F. Ding, F. Lipparini, F. Egidi, J. Goings, B. Peng, A. Petrone, 
 T. Henderson, D. Ranasinghe, V. G. Zakrzewski, J. Gao, N. Rega, 
 G. Zheng, W. Liang, M. Hada, M. Ehara, K. Toyota, R. Fukuda, 
 J. Hasegawa, M. Ishida, T. Nakajima, Y. Honda, O. Kitao, H. Nakai, 
 T. Vreven, K. Throssell, J. A. Montgomery, Jr., J. E. Peralta, 
 F. Ogliaro, M. J. Bearpark, J. J. Heyd, E. N. Brothers, K. N. Kudin, 
 V. N. Staroverov, T. A. Keith, R. Kobayashi, J. Normand, 
 K. Raghavachari, A. P. Rendell, J. C. Burant, S. S. Iyengar, 
 J. Tomasi, M. Cossi, J. M. Millam, M. Klene, C. Adamo, R. Cammi, 
 J. W. Ochterski, R. L. Martin, K. Morokuma, O. Farkas, 
 J. B. Foresman, and D. J. Fox, Gaussian, Inc., Wallingford CT, 2016.
 
 ******************************************
 Gaussian 16:  ES64L-G16RevA.03 25-Dec-2016
                21-Apr-2025 
 ******************************************
 %chk=opt.chk
 %mem=4GB
 %nprocshared=8
 Will use up to    8 processors via shared memory.
 --------------------------------------------
 #p opt UM062X/6-311+G** nosymm int=superfine
 --------------------------------------------
 1/18=20,19=15,26=5,38=1/1,3;
 2/9=110,12=2,15=1,17=6,18=5,40=1/2;
 3/5=4,6=6,7=111,11=2,25=1,30=1,71=1,74=-55,75=-7,116=2/1,2,3;
 4//1;
 5/5=2,38=5/2;
 6/7=2,8=2,9=2,10=2,28=1/1;
 7/30=1/1,2,3,16;
 1/18=20,19=15,26=5/3(2);
 2/9=110,15=1/2;
 99//99;
 2/9=110,15=1/2;
 3/5=4,6=6,7=111,11=2,25=1,30=1,71=1,74=-55,75=-7,116=2/1,2,3;
 4/5=5,16=3,69=1/1;
 5/5=2,38=5/2;
 7/30=1/1,2,3,16;
 1/18=20,19=15,26=5/3(-5);
 2/9=110,15=1/2;
 6/7=2,8=2,9=2,10=2,19=2,28=1/1;
 99/9=1/99;
 Leave Link    1 at Mon Apr 21 19:43:55 2025, MaxMem=   536870912 cpu:               1.9 elap:               0.2
 (Enter /home/szhao/Apps/g16/l101.exe)
 -------------------
 Title Card Required
 -------------------
 Symbolic Z-matrix:
 Charge =  0 Multiplicity = 1
 C                    -1   -1.65214   0.        0. 
 S                    -1    1.65214   0.        0. 
 H                    0    -2.22778  -0.92504   0. 
 H                    0    -2.2289    0.92434  -0.00015 
 
 Add virtual bond connecting atoms S2         and C1         Dist= 6.24D+00.
 ITRead=  2  2  0  0
 MicOpt= -2 -2 -1 -1
 NAtoms=      4 NQM=        2 NQMF=       2 NMMI=      0 NMMIF=      0
                NMic=       0 NMicF=      0.
                    Isotopes and Nuclear Properties:
 (Nuclear quadrupole moments (NQMom) in fm**2, nuclear magnetic moments (NMagM)
  in nuclear magnetons)

  Atom         1           2           3           4
 IAtWgt=          12          32           1           1
 AtmWgt=  12.0000000  31.9720718   1.0078250   1.0078250
 NucSpn=           0           0           1           1
 AtZEff=  -0.0000000  -0.0000000  -0.0000000  -0.0000000
 NQMom=    0.0000000   0.0000000   0.0000000   0.0000000
 NMagM=    0.0000000   0.0000000   2.7928460   2.7928460
 AtZNuc=   6.0000000  16.0000000   1.0000000   1.0000000
 Leave Link  101 at Mon Apr 21 19:43:55 2025, MaxMem=   536870912 cpu:               3.0 elap:               0.4
 (Enter /home/szhao/Apps/g16/l103.exe)

 GradGradGradGradGradGradGradGradGradGradGradGradGradGradGradGradGradGrad
 Berny optimization.
 Initialization pass.
                           ----------------------------
                           !    Initial Parameters    !
                           ! (Angstroms and Degrees)  !
 --------------------------                            --------------------------
 ! Name  Definition              Value          Derivative Info.                !
 --------------------------------------------------------------------------------
 ! X1    R(1,-1)                -1.6521         Frozen                          !
 ! Y1    R(1,-2)                 0.0            Frozen                          !
 ! Z1    R(1,-3)                 0.0            Frozen                          !
 ! X2    R(2,-1)                 1.6521         Frozen                          !
 ! Y2    R(2,-2)                 0.0            Frozen                          !
 ! Z2    R(2,-3)                 0.0            Frozen                          !
 ! R1    R(1,3)                  1.0895         estimate D2E/DX2                !
 ! R2    R(1,4)                  1.0895         estimate D2E/DX2                !
 ! A1    A(2,1,3)              121.8936         estimate D2E/DX2                !
 ! A2    A(2,1,4)              121.9628         estimate D2E/DX2                !
 ! A3    A(3,1,4)              116.1436         estimate D2E/DX2                !
 ! D1    D(2,1,4,3)            179.9911         estimate D2E/DX2                !
 --------------------------------------------------------------------------------
 Trust Radius=3.00D-01 FncErr=1.00D-07 GrdErr=1.00D-07 EigMax=2.50D+02 EigMin=1.00D-04
 Number of steps in this run=     22 maximum allowed number of steps=    100.
 GradGradGradGradGradGradGradGradGradGradGradGradGradGradGradGradGradGrad

 Leave Link  103 at Mon Apr 21 19:43:56 2025, MaxMem=   536870912 cpu:               0.4 elap:               0.1
 (Enter /home/szhao/Apps/g16/l202.exe)
                          Input orientation:                          
 ---------------------------------------------------------------------
 Center     Atomic      Atomic             Coordinates (Angstroms)
 Number     Number       Type             X           Y           Z
 ---------------------------------------------------------------------
      1          6           0       -1.652140    0.000000    0.000000
      2         16           0        1.652140    0.000000    0.000000
      3          1           0       -2.227782   -0.925037    0.000000
      4          1           0       -2.228896    0.924339   -0.000152
 ---------------------------------------------------------------------
                    Distance matrix (angstroms):
                    1          2          3          4
     1  C    0.000000
     2  S    3.304279   0.000000
     3  H    1.089522   3.988669   0.000000
     4  H    1.089518   3.989592   1.849376   0.000000
 Symmetry turned off by external request.
 Stoichiometry    CH2S
 Framework group  C1[X(CH2S)]
 Deg. of freedom     6
 Full point group                 C1      NOp   1
 Rotational constants (GHZ):         293.2322156           4.4976674           4.4297232
 Leave Link  202 at Mon Apr 21 19:43:56 2025, MaxMem=   536870912 cpu:               0.1 elap:               0.0
 (Enter /home/szhao/Apps/g16/l301.exe)
 Standard basis: 6-311+G(d,p) (5D, 7F)
 Ernie: Thresh=  0.10000D-02 Tol=  0.10000D-05 Strict=F.
    64 basis functions,   102 primitive gaussians,    66 cartesian basis functions
    12 alpha electrons       12 beta electrons
       nuclear repulsion energy        25.7337721253 Hartrees.
 IExCor= 4336 DFT=T Ex+Corr=M062X ExCW=0 ScaHFX=  0.540000
 ScaDFX=  1.000000  1.000000  1.000000  1.000000 ScalE2=  1.000000  1.000000
 IRadAn=      7 IRanWt=     -1 IRanGd=            0 ICorTp=0 IEmpDi=  4
 NAtoms=    4 NActive=    4 NUniq=    4 SFac= 1.00D+00 NAtFMM=   60 NAOKFM=F Big=F
 Integral buffers will be    131072 words long.
 Raffenetti 2 integral format.
 Two-electron integral symmetry is turned off.
 Leave Link  301 at Mon Apr 21 19:43:56 2025, MaxMem=   536870912 cpu:               1.4 elap:               0.2
 (Enter /home/szhao/Apps/g16/l302.exe)
 NPDir=0 NMtPBC=     1 NCelOv=     1 NCel=       1 NClECP=     1 NCelD=      1
         NCelK=      1 NCelE2=     1 NClLst=     1 CellRange=     0.0.
 One-electron integrals computed using PRISM.
 NBasis=    64 RedAO= T EigKep=  1.32D-02  NBF=    64
 NBsUse=    64 1.00D-06 EigRej= -1.00D+00 NBFU=    64
 Precomputing XC quadrature grid using
 IXCGrd= 4 IRadAn=           7 IRanWt=          -1 IRanGd=           0 AccXCQ= 0.00D+00.
 Generated NRdTot=       0 NPtTot=           0 NUsed=           0 NTot=          32
 NSgBfM=    65    65    65    65    65 MxSgAt=     4 MxSgA2=     4.
 Leave Link  302 at Mon Apr 21 19:43:57 2025, MaxMem=   536870912 cpu:               2.3 elap:               0.3
 (Enter /home/szhao/Apps/g16/l303.exe)
 DipDrv:  MaxL=1.
 Leave Link  303 at Mon Apr 21 19:43:57 2025, MaxMem=   536870912 cpu:               0.4 elap:               0.1
 (Enter /home/szhao/Apps/g16/l401.exe)
 ExpMin= 4.05D-02 ExpMax= 9.34D+04 ExpMxC= 3.17D+03 IAcc=3 IRadAn=         7 AccDes= 0.00D+00
 Harris functional with IExCor= 1009 and IRadAn=       7 diagonalized for initial guess.
 HarFok:  IExCor= 1009 AccDes= 0.00D+00 IRadAn=         7 IDoV= 1 UseB2=F ITyADJ=14
 ICtDFT=  3500011 ScaDFX=  1.000000  1.000000  1.000000  1.000000
 FoFCou: FMM=F IPFlag=           0 FMFlag=      100000 FMFlg1=           0
         NFxFlg=           0 DoJE=T BraDBF=F KetDBF=T FulRan=T
         wScrn=  0.000000 ICntrl=       500 IOpCl=  0 I1Cent=   200000004 NGrid=           0
         NMat0=    1 NMatS0=      1 NMatT0=    0 NMatD0=    1 NMtDS0=    0 NMtDT0=    0
 Symmetry not used in FoFCou.
 Harris En= -436.979646185308    
 JPrj=0 DoOrth=F DoCkMO=F.
 Initial guess <Sx>= 0.0000 <Sy>= 0.0000 <Sz>= 0.0000 <S**2>=-0.0000 S=-0.0000
 Leave Link  401 at Mon Apr 21 19:43:58 2025, MaxMem=   536870912 cpu:               2.5 elap:               0.4
 (Enter /home/szhao/Apps/g16/l502.exe)
 Keep R1 and R2 ints in memory in canonical form, NReq=11470680.
 FoFCou: FMM=F IPFlag=           0 FMFlag=           0 FMFlg1=           0
         NFxFlg=           0 DoJE=F BraDBF=F KetDBF=F FulRan=T
         wScrn=  0.000000 ICntrl=       600 IOpCl=  0 I1Cent=           0 NGrid=           0
         NMat0=    1 NMatS0=   2080 NMatT0=    0 NMatD0=    1 NMtDS0=    0 NMtDT0=    0
 Symmetry not used in FoFCou.
 Two-electron integral symmetry not used.
 UHF open shell SCF:
 Using DIIS extrapolation, IDIIS=  1040.
 NGot=   536870912 LenX=   532532574 LenY=   532527777
 Requested convergence on RMS density matrix=1.00D-08 within 128 cycles.
 Requested convergence on MAX density matrix=1.00D-06.
 Requested convergence on             energy=1.00D-06.
 No special actions if energy rises.

 Cycle   1  Pass 1  IDiag  1:
 E= -437.088732355768    
 DIIS: error= 3.99D-02 at cycle   1 NSaved=   1.
 NSaved= 1 IEnMin= 1 EnMin= -437.088732355768     IErMin= 1 ErrMin= 3.99D-02
 ErrMax= 3.99D-02  0.00D+00 EMaxC= 1.00D-01 BMatC= 3.37D-01 BMatP= 3.37D-01
 IDIUse=3 WtCom= 6.01D-01 WtEn= 3.99D-01
 Coeff-Com:  0.100D+01
 Coeff-En:   0.100D+01
 Coeff:      0.100D+01
 Gap=     0.309 Goal=   None    Shift=    0.000
 Gap=     0.309 Goal=   None    Shift=    0.000
 GapD=    0.309 DampG=1.000 DampE=0.500 DampFc=0.5000 IDamp=-1.
 Damping current iteration by 5.00D-01
 RMSDP=9.25D-03 MaxDP=2.05D-01              OVMax= 5.65D-01

 Cycle   2  Pass 1  IDiag  1:
 E= -437.022396829128     Delta-E=        0.066335526640 Rises=F Damp=T
 DIIS: error= 2.62D-02 at cycle   2 NSaved=   2.
 NSaved= 2 IEnMin= 1 EnMin= -437.088732355768     IErMin= 2 ErrMin= 2.62D-02
 ErrMax= 2.62D-02  0.00D+00 EMaxC= 1.00D-01 BMatC= 1.70D-01 BMatP= 3.37D-01
 IDIUse=3 WtCom= 7.38D-01 WtEn= 2.62D-01
 Coeff-Com:  0.378D+00 0.622D+00
 Coeff-En:   0.678D+00 0.322D+00
 Coeff:      0.457D+00 0.543D+00
 Gap=     0.063 Goal=   None    Shift=    0.000
 Gap=     0.063 Goal=   None    Shift=    0.000
 RMSDP=4.63D-03 MaxDP=1.17D-01 DE= 6.63D-02 OVMax= 5.99D-01

 Cycle   3  Pass 1  IDiag  1:
 E= -437.140271876274     Delta-E=       -0.117875047146 Rises=F Damp=F
 DIIS: error= 2.64D-02 at cycle   3 NSaved=   3.
 NSaved= 3 IEnMin= 3 EnMin= -437.140271876274     IErMin= 2 ErrMin= 2.62D-02
 ErrMax= 2.64D-02  0.00D+00 EMaxC= 1.00D-01 BMatC= 4.48D-02 BMatP= 1.70D-01
 IDIUse=3 WtCom= 7.36D-01 WtEn= 2.64D-01
 Coeff-Com: -0.707D-01 0.314D+00 0.757D+00
 Coeff-En:   0.000D+00 0.000D+00 0.100D+01
 Coeff:     -0.521D-01 0.231D+00 0.821D+00
 Gap=     0.154 Goal=   None    Shift=    0.000
 Gap=     0.154 Goal=   None    Shift=    0.000
 RMSDP=2.85D-03 MaxDP=5.47D-02 DE=-1.18D-01 OVMax= 2.09D-01

 Cycle   4  Pass 1  IDiag  1:
 E= -437.161148620787     Delta-E=       -0.020876744513 Rises=F Damp=F
 DIIS: error= 8.94D-03 at cycle   4 NSaved=   4.
 NSaved= 4 IEnMin= 4 EnMin= -437.161148620787     IErMin= 4 ErrMin= 8.94D-03
 ErrMax= 8.94D-03  0.00D+00 EMaxC= 1.00D-01 BMatC= 1.87D-02 BMatP= 4.48D-02
 IDIUse=3 WtCom= 9.11D-01 WtEn= 8.94D-02
 Coeff-Com:  0.595D-01-0.108D+00 0.199D+00 0.850D+00
 Coeff-En:   0.000D+00 0.000D+00 0.165D+00 0.835D+00
 Coeff:      0.542D-01-0.986D-01 0.196D+00 0.849D+00
 Gap=     0.143 Goal=   None    Shift=    0.000
 Gap=     0.143 Goal=   None    Shift=    0.000
 RMSDP=1.49D-03 MaxDP=2.42D-02 DE=-2.09D-02 OVMax= 1.05D-01

 Cycle   5  Pass 1  IDiag  1:
 E= -437.173821414695     Delta-E=       -0.012672793908 Rises=F Damp=F
 DIIS: error= 3.11D-03 at cycle   5 NSaved=   5.
 NSaved= 5 IEnMin= 5 EnMin= -437.173821414695     IErMin= 5 ErrMin= 3.11D-03
 ErrMax= 3.11D-03  0.00D+00 EMaxC= 1.00D-01 BMatC= 7.18D-04 BMatP= 1.87D-02
 IDIUse=3 WtCom= 9.69D-01 WtEn= 3.11D-02
 Coeff-Com: -0.327D-01 0.402D-01-0.594D-01-0.286D+00 0.134D+01
 Coeff-En:   0.000D+00 0.000D+00 0.000D+00 0.000D+00 0.100D+01
 Coeff:     -0.317D-01 0.390D-01-0.576D-01-0.277D+00 0.133D+01
 Gap=     0.152 Goal=   None    Shift=    0.000
 Gap=     0.152 Goal=   None    Shift=    0.000
 RMSDP=1.06D-03 MaxDP=1.66D-02 DE=-1.27D-02 OVMax= 6.28D-02

 Cycle   6  Pass 1  IDiag  1:
 E= -437.176394633661     Delta-E=       -0.002573218966 Rises=F Damp=F
 DIIS: error= 1.99D-03 at cycle   6 NSaved=   6.
 NSaved= 6 IEnMin= 6 EnMin= -437.176394633661     IErMin= 6 ErrMin= 1.99D-03
 ErrMax= 1.99D-03  0.00D+00 EMaxC= 1.00D-01 BMatC= 3.08D-04 BMatP= 7.18D-04
 IDIUse=3 WtCom= 9.80D-01 WtEn= 1.99D-02
 Coeff-Com:  0.595D-02-0.169D-01-0.678D-01 0.112D+00-0.353D+00 0.132D+01
 Coeff-En:   0.000D+00 0.000D+00 0.000D+00 0.000D+00 0.000D+00 0.100D+01
 Coeff:      0.584D-02-0.165D-01-0.664D-01 0.110D+00-0.346D+00 0.131D+01
 Gap=     0.157 Goal=   None    Shift=    0.000
 Gap=     0.157 Goal=   None    Shift=    0.000
 RMSDP=4.97D-04 MaxDP=1.02D-02 DE=-2.57D-03 OVMax= 3.86D-02

 Cycle   7  Pass 1  IDiag  1:
 E= -437.176860894291     Delta-E=       -0.000466260630 Rises=F Damp=F
 DIIS: error= 3.69D-04 at cycle   7 NSaved=   7.
 NSaved= 7 IEnMin= 7 EnMin= -437.176860894291     IErMin= 7 ErrMin= 3.69D-04
 ErrMax= 3.69D-04  0.00D+00 EMaxC= 1.00D-01 BMatC= 2.25D-05 BMatP= 3.08D-04
 IDIUse=3 WtCom= 9.96D-01 WtEn= 3.69D-03
 Coeff-Com:  0.384D-02-0.659D-02-0.168D-01 0.586D-01-0.141D+00 0.279D+00
 Coeff-Com:  0.823D+00
 Coeff-En:   0.000D+00 0.000D+00 0.000D+00 0.000D+00 0.000D+00 0.000D+00
 Coeff-En:   0.100D+01
 Coeff:      0.382D-02-0.656D-02-0.167D-01 0.584D-01-0.141D+00 0.278D+00
 Coeff:      0.824D+00
 Gap=     0.156 Goal=   None    Shift=    0.000
 Gap=     0.156 Goal=   None    Shift=    0.000
 RMSDP=6.45D-05 MaxDP=1.10D-03 DE=-4.66D-04 OVMax= 4.18D-03

 Cycle   8  Pass 1  IDiag  1:
 E= -437.176877514806     Delta-E=       -0.000016620515 Rises=F Damp=F
 DIIS: error= 9.51D-05 at cycle   8 NSaved=   8.
 NSaved= 8 IEnMin= 8 EnMin= -437.176877514806     IErMin= 8 ErrMin= 9.51D-05
 ErrMax= 9.51D-05  0.00D+00 EMaxC= 1.00D-01 BMatC= 8.62D-07 BMatP= 2.25D-05
 IDIUse=1 WtCom= 1.00D+00 WtEn= 0.00D+00
 Coeff-Com: -0.132D-02 0.204D-02 0.652D-03-0.110D-01 0.334D-01-0.513D-01
 Coeff-Com:  0.912D-01 0.936D+00
 Coeff:     -0.132D-02 0.204D-02 0.652D-03-0.110D-01 0.334D-01-0.513D-01
 Coeff:      0.912D-01 0.936D+00
 Gap=     0.156 Goal=   None    Shift=    0.000
 Gap=     0.156 Goal=   None    Shift=    0.000
 RMSDP=1.57D-05 MaxDP=3.06D-04 DE=-1.66D-05 OVMax= 1.14D-03

 Cycle   9  Pass 1  IDiag  1:
 E= -437.176878509400     Delta-E=       -0.000000994594 Rises=F Damp=F
 DIIS: error= 4.67D-05 at cycle   9 NSaved=   9.
 NSaved= 9 IEnMin= 9 EnMin= -437.176878509400     IErMin= 9 ErrMin= 4.67D-05
 ErrMax= 4.67D-05  0.00D+00 EMaxC= 1.00D-01 BMatC= 8.36D-08 BMatP= 8.62D-07
 IDIUse=1 WtCom= 1.00D+00 WtEn= 0.00D+00
 Coeff-Com: -0.102D-03 0.313D-03-0.809D-03-0.131D-02-0.556D-02 0.779D-02
 Coeff-Com: -0.313D-01-0.384D-01 0.107D+01
 Coeff:     -0.102D-03 0.313D-03-0.809D-03-0.131D-02-0.556D-02 0.779D-02
 Coeff:     -0.313D-01-0.384D-01 0.107D+01
 Gap=     0.156 Goal=   None    Shift=    0.000
 Gap=     0.156 Goal=   None    Shift=    0.000
 RMSDP=1.34D-05 MaxDP=2.89D-04 DE=-9.95D-07 OVMax= 1.07D-03

 Cycle  10  Pass 1  IDiag  1:
 E= -437.176878791500     Delta-E=       -0.000000282100 Rises=F Damp=F
 DIIS: error= 9.20D-06 at cycle  10 NSaved=  10.
 NSaved=10 IEnMin=10 EnMin= -437.176878791500     IErMin=10 ErrMin= 9.20D-06
 ErrMax= 9.20D-06  0.00D+00 EMaxC= 1.00D-01 BMatC= 1.93D-08 BMatP= 8.36D-08
 IDIUse=1 WtCom= 1.00D+00 WtEn= 0.00D+00
 Coeff-Com:  0.421D-05-0.500D-04-0.192D-03 0.681D-03-0.311D-03 0.122D-02
 Coeff-Com: -0.120D-01-0.368D-01 0.676D-01 0.980D+00
 Coeff:      0.421D-05-0.500D-04-0.192D-03 0.681D-03-0.311D-03 0.122D-02
 Coeff:     -0.120D-01-0.368D-01 0.676D-01 0.980D+00
 Gap=     0.156 Goal=   None    Shift=    0.000
 Gap=     0.156 Goal=   None    Shift=    0.000
 RMSDP=2.32D-06 MaxDP=2.84D-05 DE=-2.82D-07 OVMax= 1.43D-04

 Cycle  11  Pass 1  IDiag  1:
 E= -437.176878810828     Delta-E=       -0.000000019327 Rises=F Damp=F
 DIIS: error= 2.05D-06 at cycle  11 NSaved=  11.
 NSaved=11 IEnMin=11 EnMin= -437.176878810828     IErMin=11 ErrMin= 2.05D-06
 ErrMax= 2.05D-06  0.00D+00 EMaxC= 1.00D-01 BMatC= 2.01D-10 BMatP= 1.93D-08
 IDIUse=1 WtCom= 1.00D+00 WtEn= 0.00D+00
 Coeff-Com: -0.871D-05 0.115D-04-0.388D-04-0.636D-04 0.180D-03 0.677D-03
 Coeff-Com:  0.379D-03-0.447D-02-0.410D-01-0.162D-01 0.106D+01
 Coeff:     -0.871D-05 0.115D-04-0.388D-04-0.636D-04 0.180D-03 0.677D-03
 Coeff:      0.379D-03-0.447D-02-0.410D-01-0.162D-01 0.106D+01
 Gap=     0.156 Goal=   None    Shift=    0.000
 Gap=     0.156 Goal=   None    Shift=    0.000
 RMSDP=5.40D-07 MaxDP=1.19D-05 DE=-1.93D-08 OVMax= 4.27D-05

 Cycle  12  Pass 1  IDiag  1:
 E= -437.176878811457     Delta-E=       -0.000000000629 Rises=F Damp=F
 DIIS: error= 4.39D-07 at cycle  12 NSaved=  12.
 NSaved=12 IEnMin=12 EnMin= -437.176878811457     IErMin=12 ErrMin= 4.39D-07
 ErrMax= 4.39D-07  0.00D+00 EMaxC= 1.00D-01 BMatC= 2.17D-11 BMatP= 2.01D-10
 IDIUse=1 WtCom= 1.00D+00 WtEn= 0.00D+00
 Coeff-Com: -0.112D-05 0.187D-05-0.126D-04-0.176D-04 0.604D-05 0.200D-03
 Coeff-Com:  0.389D-03-0.560D-03-0.125D-01-0.370D-01 0.239D+00 0.811D+00
 Coeff:     -0.112D-05 0.187D-05-0.126D-04-0.176D-04 0.604D-05 0.200D-03
 Coeff:      0.389D-03-0.560D-03-0.125D-01-0.370D-01 0.239D+00 0.811D+00
 Gap=     0.156 Goal=   None    Shift=    0.000
 Gap=     0.156 Goal=   None    Shift=    0.000
 RMSDP=1.11D-07 MaxDP=2.36D-06 DE=-6.29D-10 OVMax= 8.76D-06

 Cycle  13  Pass 1  IDiag  1:
 E= -437.176878811489     Delta-E=       -0.000000000032 Rises=F Damp=F
 DIIS: error= 8.96D-08 at cycle  13 NSaved=  13.
 NSaved=13 IEnMin=13 EnMin= -437.176878811489     IErMin=13 ErrMin= 8.96D-08
 ErrMax= 8.96D-08  0.00D+00 EMaxC= 1.00D-01 BMatC= 2.94D-12 BMatP= 2.17D-11
 IDIUse=1 WtCom= 1.00D+00 WtEn= 0.00D+00
 Coeff-Com:  0.237D-06-0.947D-06 0.104D-05 0.124D-04-0.144D-04-0.348D-04
 Coeff-Com: -0.508D-04 0.138D-03 0.243D-02 0.216D-02-0.799D-01 0.817D-01
 Coeff-Com:  0.994D+00
 Coeff:      0.237D-06-0.947D-06 0.104D-05 0.124D-04-0.144D-04-0.348D-04
 Coeff:     -0.508D-04 0.138D-03 0.243D-02 0.216D-02-0.799D-01 0.817D-01
 Coeff:      0.994D+00
 Gap=     0.156 Goal=   None    Shift=    0.000
 Gap=     0.156 Goal=   None    Shift=    0.000
 RMSDP=5.31D-08 MaxDP=8.69D-07 DE=-3.20D-11 OVMax= 2.90D-06

 Cycle  14  Pass 1  IDiag  1:
 E= -437.176878811496     Delta-E=       -0.000000000008 Rises=F Damp=F
 DIIS: error= 5.92D-08 at cycle  14 NSaved=  14.
 NSaved=14 IEnMin=14 EnMin= -437.176878811496     IErMin=14 ErrMin= 5.92D-08
 ErrMax= 5.92D-08  0.00D+00 EMaxC= 1.00D-01 BMatC= 1.05D-12 BMatP= 2.94D-12
 IDIUse=1 WtCom= 1.00D+00 WtEn= 0.00D+00
 Coeff-Com: -0.448D-07 0.804D-06-0.122D-05-0.130D-04 0.111D-04 0.330D-04
 Coeff-Com: -0.511D-06-0.172D-03-0.623D-03 0.321D-02 0.456D-01-0.168D+00
 Coeff-Com: -0.106D+01 0.218D+01
 Coeff:     -0.448D-07 0.804D-06-0.122D-05-0.130D-04 0.111D-04 0.330D-04
 Coeff:     -0.511D-06-0.172D-03-0.623D-03 0.321D-02 0.456D-01-0.168D+00
 Coeff:     -0.106D+01 0.218D+01
 Gap=     0.156 Goal=   None    Shift=    0.000
 Gap=     0.156 Goal=   None    Shift=    0.000
 RMSDP=8.83D-08 MaxDP=1.69D-06 DE=-7.79D-12 OVMax= 4.88D-06

 Cycle  15  Pass 1  IDiag  1:
 E= -437.176878811506     Delta-E=       -0.000000000010 Rises=F Damp=F
 DIIS: error= 4.68D-08 at cycle  15 NSaved=  15.
 NSaved=15 IEnMin=15 EnMin= -437.176878811506     IErMin=15 ErrMin= 4.68D-08
 ErrMax= 4.68D-08  0.00D+00 EMaxC= 1.00D-01 BMatC= 6.80D-13 BMatP= 1.05D-12
 IDIUse=1 WtCom= 1.00D+00 WtEn= 0.00D+00
 Coeff-Com: -0.278D-06-0.985D-07 0.418D-05 0.527D-05 0.121D-04-0.479D-04
 Coeff-Com:  0.608D-04 0.338D-03-0.315D-02-0.102D-01 0.639D-01 0.103D+00
 Coeff-Com:  0.997D-01-0.330D+01 0.405D+01
 Coeff:     -0.278D-06-0.985D-07 0.418D-05 0.527D-05 0.121D-04-0.479D-04
 Coeff:      0.608D-04 0.338D-03-0.315D-02-0.102D-01 0.639D-01 0.103D+00
 Coeff:      0.997D-01-0.330D+01 0.405D+01
 Gap=     0.156 Goal=   None    Shift=    0.000
 Gap=     0.156 Goal=   None    Shift=    0.000
 RMSDP=2.55D-07 MaxDP=4.91D-06 DE=-9.89D-12 OVMax= 1.41D-05

 Cycle  16  Pass 1  IDiag  1:
 E= -437.176878811521     Delta-E=       -0.000000000014 Rises=F Damp=F
 DIIS: error= 2.56D-08 at cycle  16 NSaved=  16.
 NSaved=16 IEnMin=16 EnMin= -437.176878811521     IErMin=16 ErrMin= 2.56D-08
 ErrMax= 2.56D-08  0.00D+00 EMaxC= 1.00D-01 BMatC= 2.06D-13 BMatP= 6.80D-13
 IDIUse=1 WtCom= 1.00D+00 WtEn= 0.00D+00
 Large coefficients: NSaved= 16 BigCof=    0.00 CofMax=   10.00 Det=-5.82D-15
 Inversion failed.  Reducing to 15 matrices.
 Coeff-Com:  0.744D-07 0.495D-07 0.173D-06-0.518D-05-0.167D-05 0.278D-04
 Coeff-Com: -0.255D-04 0.652D-03 0.125D-02-0.215D-01-0.449D-02 0.340D+00
 Coeff-Com: -0.118D+00-0.548D+00 0.135D+01
 Coeff:      0.744D-07 0.495D-07 0.173D-06-0.518D-05-0.167D-05 0.278D-04
 Coeff:     -0.255D-04 0.652D-03 0.125D-02-0.215D-01-0.449D-02 0.340D+00
 Coeff:     -0.118D+00-0.548D+00 0.135D+01
 Gap=     0.156 Goal=   None    Shift=    0.000
 Gap=     0.156 Goal=   None    Shift=    0.000
 RMSDP=6.00D-08 MaxDP=1.15D-06 DE=-1.43D-11 OVMax= 3.32D-06

 Cycle  17  Pass 1  IDiag  1:
 E= -437.176878811521     Delta-E=       -0.000000000001 Rises=F Damp=F
 DIIS: error= 3.01D-09 at cycle  17 NSaved=  16.
 NSaved=16 IEnMin=16 EnMin= -437.176878811521     IErMin=16 ErrMin= 3.01D-09
 ErrMax= 3.01D-09  0.00D+00 EMaxC= 1.00D-01 BMatC= 2.73D-15 BMatP= 2.06D-13
 IDIUse=1 WtCom= 1.00D+00 WtEn= 0.00D+00
 Large coefficients: NSaved= 16 BigCof=    0.00 CofMax=   10.00 Det=-1.96D-15
 Inversion failed.  Reducing to 15 matrices.
 Coeff-Com: -0.484D-07 0.559D-07 0.532D-06 0.712D-06-0.534D-05 0.261D-05
 Coeff-Com:  0.472D-05 0.515D-04 0.152D-02-0.436D-02-0.486D-01 0.123D+00
 Coeff-Com: -0.571D-01-0.179D+00 0.117D+01
 Coeff:     -0.484D-07 0.559D-07 0.532D-06 0.712D-06-0.534D-05 0.261D-05
 Coeff:      0.472D-05 0.515D-04 0.152D-02-0.436D-02-0.486D-01 0.123D+00
 Coeff:     -0.571D-01-0.179D+00 0.117D+01
 Gap=     0.156 Goal=   None    Shift=    0.000
 Gap=     0.156 Goal=   None    Shift=    0.000
 RMSDP=2.70D-09 MaxDP=5.13D-08 DE=-8.53D-13 OVMax= 1.60D-07

 SCF Done:  E(UM062X) =  -437.176878812     A.U. after   17 cycles
            NFock= 17  Conv=0.27D-08     -V/T= 2.0016
 <Sx>= 0.0000 <Sy>= 0.0000 <Sz>= 0.0000 <S**2>=-0.0000 S=-0.0000
 <L.S>=  0.00000000000    
 KE= 4.364803364045D+02 PE=-1.089249880032D+03 EE= 1.898588926904D+02
 Annihilation of the first spin contaminant:
 S**2 before annihilation    -0.0000,   after     0.0000
 Leave Link  502 at Mon Apr 21 19:44:05 2025, MaxMem=   536870912 cpu:              56.3 elap:               7.4
 (Enter /home/szhao/Apps/g16/l601.exe)
 Copying SCF densities to generalized density rwf, IOpCl= 1 IROHF=0.

 **********************************************************************

            Population analysis using the SCF density.

 **********************************************************************

 Alpha  occ. eigenvalues --  -89.91844 -10.66128  -8.27842  -6.20559  -6.19098
 Alpha  occ. eigenvalues --   -6.19089  -0.79691  -0.72137  -0.54593  -0.34559
 Alpha  occ. eigenvalues --   -0.29622  -0.29601
 Alpha virt. eigenvalues --   -0.13971  -0.12070   0.00942   0.04990   0.05545
 Alpha virt. eigenvalues --    0.06596   0.08379   0.08906   0.09220   0.13830
 Alpha virt. eigenvalues --    0.16674   0.17825   0.36391   0.36981   0.37349
 Alpha virt. eigenvalues --    0.43385   0.44702   0.55833   0.56220   0.61755
 Alpha virt. eigenvalues --    0.66001   0.75033   0.83050   0.83640   0.86270
 Alpha virt. eigenvalues --    0.86467   0.86472   1.04338   1.17615   1.18943
 Alpha virt. eigenvalues --    1.43135   1.50240   1.66932   1.70583   1.70735
 Alpha virt. eigenvalues --    1.71275   1.77898   1.90163   2.04933   2.36275
 Alpha virt. eigenvalues --    2.46722   2.47331   2.59236   2.70983   2.97173
 Alpha virt. eigenvalues --    3.66658   7.76990  17.46685  17.46810  17.48348
 Alpha virt. eigenvalues --   23.74586 189.01983
  Beta  occ. eigenvalues --  -89.91844 -10.66128  -8.27842  -6.20559  -6.19098
  Beta  occ. eigenvalues --   -6.19089  -0.79691  -0.72137  -0.54593  -0.34559
  Beta  occ. eigenvalues --   -0.29622  -0.29601
  Beta virt. eigenvalues --   -0.13971  -0.12070   0.00942   0.04990   0.05545
  Beta virt. eigenvalues --    0.06596   0.08379   0.08906   0.09220   0.13830
  Beta virt. eigenvalues --    0.16674   0.17825   0.36391   0.36981   0.37349
  Beta virt. eigenvalues --    0.43385   0.44702   0.55833   0.56220   0.61755
  Beta virt. eigenvalues --    0.66001   0.75033   0.83050   0.83640   0.86270
  Beta virt. eigenvalues --    0.86467   0.86472   1.04338   1.17615   1.18943
  Beta virt. eigenvalues --    1.43135   1.50240   1.66932   1.70583   1.70735
  Beta virt. eigenvalues --    1.71275   1.77898   1.90163   2.04933   2.36275
  Beta virt. eigenvalues --    2.46722   2.47331   2.59236   2.70983   2.97173
  Beta virt. eigenvalues --    3.66658   7.76990  17.46685  17.46810  17.48348
  Beta virt. eigenvalues --   23.74586 189.01983
          Condensed to atoms (all electrons):
               1          2          3          4
     1  C    5.565394   0.028866   0.335047   0.335102
     2  S    0.028866  16.054365   0.001147   0.001147
     3  H    0.335047   0.001147   0.516652  -0.027810
     4  H    0.335102   0.001147  -0.027810   0.516589
          Atomic-Atomic Spin Densities.
               1          2          3          4
     1  C    0.000000  -0.000000   0.000000  -0.000000
     2  S   -0.000000   0.000000  -0.000000   0.000000
     3  H    0.000000  -0.000000  -0.000000  -0.000000
     4  H   -0.000000   0.000000  -0.000000   0.000000
 Mulliken charges and spin densities:
               1          2
     1  C   -0.264409   0.000000
     2  S   -0.085525  -0.000000
     3  H    0.174964   0.000000
     4  H    0.174971   0.000000
 Sum of Mulliken charges =  -0.00000   0.00000
 Mulliken charges and spin densities with hydrogens summed into heavy atoms:
               1          2
     1  C    0.085525   0.000000
     2  S   -0.085525  -0.000000
 Electronic spatial extent (au):  <R**2>=            297.9646
 Charge=             -0.0000 electrons
 Dipole moment (field-independent basis, Debye):
    X=             -4.0052    Y=             -0.0011    Z=             -0.0002  Tot=              4.0052
 Quadrupole moment (field-independent basis, Debye-Ang):
   XX=            -12.4706   YY=            -21.9478   ZZ=            -22.0052
   XY=             -0.0005   XZ=             -0.0001   YZ=             -0.0000
 Traceless Quadrupole moment (field-independent basis, Debye-Ang):
   XX=              6.3373   YY=             -3.1399   ZZ=             -3.1973
   XY=             -0.0005   XZ=             -0.0001   YZ=             -0.0000
 Octapole moment (field-independent basis, Debye-Ang**2):
  XXX=            -29.5488  YYY=             -0.0013  ZZZ=              0.0001  XYY=            -16.6938
  XXY=              0.0011  XXZ=             -0.0004  XZZ=            -15.6790  YZZ=              0.0001
  YYZ=             -0.0001  XYZ=              0.0001
 Hexadecapole moment (field-independent basis, Debye-Ang**3):
 XXXX=           -310.0624 YYYY=            -39.0009 ZZZZ=            -32.0185 XXXY=             -0.0246
 XXXZ=             -0.0043 YYYX=              0.0011 YYYZ=              0.0002 ZZZX=             -0.0010
 ZZZY=              0.0004 XXYY=            -67.6358 XXZZ=            -69.9535 YYZZ=            -12.2334
 XXYZ=             -0.0002 YYXZ=             -0.0000 ZZXY=             -0.0005
 N-N= 2.573377212526D+01 E-N=-1.089249880150D+03  KE= 4.364803364045D+02
                          Isotropic Fermi Contact Couplings
        Atom                 a.u.       MegaHertz       Gauss      10(-4) cm-1
     1  C(13)              0.00000       0.00000       0.00000       0.00000
     2  S(33)              0.00000       0.00000       0.00000       0.00000
     3  H(1)              -0.00000      -0.00000      -0.00000      -0.00000
     4  H(1)              -0.00000      -0.00000      -0.00000      -0.00000
 --------------------------------------------------------
       Center         ----  Spin Dipole Couplings  ----
                      3XX-RR        3YY-RR        3ZZ-RR
 --------------------------------------------------------
     1   Atom        0.000000      0.000000      0.000000
     2   Atom        0.000000      0.000000      0.000000
     3   Atom        0.000000      0.000000      0.000000
     4   Atom        0.000000      0.000000      0.000000
 --------------------------------------------------------
                        XY            XZ            YZ
 --------------------------------------------------------
     1   Atom        0.000000      0.000000      0.000000
     2   Atom        0.000000      0.000000      0.000000
     3   Atom        0.000000      0.000000      0.000000
     4   Atom        0.000000      0.000000      0.000000
 --------------------------------------------------------


 ---------------------------------------------------------------------------------
              Anisotropic Spin Dipole Couplings in Principal Axis System
 ---------------------------------------------------------------------------------

       Atom             a.u.   MegaHertz   Gauss  10(-4) cm-1        Axes

              Baa     0.0000     0.000     0.000     0.000  1.0000  0.0000  0.0000
     1 C(13)  Bbb     0.0000     0.000     0.000     0.000 -0.0000  1.0000  0.0000
              Bcc     0.0000     0.000     0.000     0.000  0.0000  0.0000  1.0000
 
              Baa     0.0000     0.000     0.000     0.000  1.0000  0.0000  0.0000
     2 S(33)  Bbb     0.0000     0.000     0.000     0.000 -0.0000  1.0000  0.0000
              Bcc     0.0000     0.000     0.000     0.000  0.0000  0.0000  1.0000
 
              Baa     0.0000     0.000     0.000     0.000  1.0000  0.0000  0.0000
     3 H(1)   Bbb     0.0000     0.000     0.000     0.000 -0.0000  1.0000  0.0000
              Bcc     0.0000     0.000     0.000     0.000  0.0000  0.0000  1.0000
 
              Baa     0.0000     0.000     0.000     0.000  1.0000  0.0000  0.0000
     4 H(1)   Bbb     0.0000     0.000     0.000     0.000 -0.0000  1.0000  0.0000
              Bcc     0.0000     0.000     0.000     0.000  0.0000  0.0000  1.0000
 

 ---------------------------------------------------------------------------------

 No NMR shielding tensors so no spin-rotation constants.
 Leave Link  601 at Mon Apr 21 19:44:06 2025, MaxMem=   536870912 cpu:               1.7 elap:               0.3
 (Enter /home/szhao/Apps/g16/l701.exe)
 ... and contract with generalized density number  0.
 Compute integral first derivatives.
 Leave Link  701 at Mon Apr 21 19:44:06 2025, MaxMem=   536870912 cpu:               1.0 elap:               0.2
 (Enter /home/szhao/Apps/g16/l702.exe)
 L702 exits ... SP integral derivatives will be done elsewhere.
 Leave Link  702 at Mon Apr 21 19:44:07 2025, MaxMem=   536870912 cpu:               0.4 elap:               0.1
 (Enter /home/szhao/Apps/g16/l703.exe)
 Integral derivatives from FoFJK, PRISM(SPDF).
 Compute integral first derivatives, UseDBF=F ICtDFT=           0.
 Calling FoFJK, ICntrl=      2127 FMM=F ISym2X=0 I1Cent= 0 IOpClX= 1 NMat=1 NMatS=1 NMatT=0.
 FoFJK:  IHMeth= 1 ICntrl=    2127 DoSepK=F KAlg= 0 I1Cent=           0 FoldK=F
 IRaf=         0 NMat=       1 IRICut=       1 DoRegI=T DoRafI=F ISym2E= 0 IDoP0=0 IntGTp=1.
 FoFCou: FMM=F IPFlag=           0 FMFlag=      100000 FMFlg1=         800
         NFxFlg=           0 DoJE=F BraDBF=F KetDBF=F FulRan=T
         wScrn=  0.000000 ICntrl=      2127 IOpCl=  1 I1Cent=           0 NGrid=           0
         NMat0=    1 NMatS0=      1 NMatT0=    0 NMatD0=    1 NMtDS0=    0 NMtDT0=    0
 Symmetry not used in FoFCou.
 Leave Link  703 at Mon Apr 21 19:44:08 2025, MaxMem=   536870912 cpu:               6.1 elap:               0.8
 (Enter /home/szhao/Apps/g16/l716.exe)
 Dipole        =-1.57578427D+00-4.22007867D-04-8.90278212D-05
 -------------------------------------------------------------------
 Center     Atomic                   Forces (Hartrees/Bohr)
 Number     Number              X              Y              Z
 -------------------------------------------------------------------
      1        6          -0.000000000   -0.000000000   -0.000000000
      2       16          -0.000000000   -0.000000000   -0.000000000
      3        1          -0.009894050    0.001485536   -0.000000298
      4        1          -0.009888901   -0.001492957   -0.000000055
 -------------------------------------------------------------------
 Cartesian Forces:  Max     0.009894050 RMS     0.004083690
 Leave Link  716 at Mon Apr 21 19:44:08 2025, MaxMem=   536870912 cpu:               0.4 elap:               0.1
 (Enter /home/szhao/Apps/g16/l103.exe)

 GradGradGradGradGradGradGradGradGradGradGradGradGradGradGradGradGradGrad
 Berny optimization.
 FormGI is forming the generalized inverse of G from B-inverse, IUseBI=4.
 Internal  Forces:  Max     0.019782950 RMS     0.007422571
 Search for a local minimum.
 Step number   1 out of a maximum of   22
 All quantities printed in internal units (Hartrees-Bohrs-Radians)
 RMS Force = .67053D-02 SwitMx=.10000D-02 MixMth= 1
 Mixed Optimization -- RFO/linear search
 Second derivative matrix not updated -- first step.
 The second derivative matrix:
                          X1        Y1        Z1        X2        Y2
           X1           0.50000
           Y1           0.00000   0.50000
           Z1           0.00000   0.00000   0.50000
           X2           0.00000   0.00000   0.00000   0.50000
           Y2           0.00000   0.00000   0.00000   0.00000   0.50000
           Z2           0.00000   0.00000   0.00000   0.00000   0.00000
           R1           0.00000   0.00000   0.00000   0.00000   0.00000
           R2           0.00000   0.00000   0.00000   0.00000   0.00000
           A1           0.00000   0.00000   0.00000   0.00000   0.00000
           A2           0.00000   0.00000   0.00000   0.00000   0.00000
           A3           0.00000   0.00000   0.00000   0.00000   0.00000
           D1           0.00000   0.00000   0.00000   0.00000   0.00000
                          Z2        R1        R2        A1        A2
           Z2           0.50000
           R1           0.00000   0.34868
           R2           0.00000   0.00000   0.34868
           A1           0.00000   0.00000   0.00000   0.16000
           A2           0.00000   0.00000   0.00000   0.00000   0.16000
           A3           0.00000   0.00000   0.00000   0.00000   0.00000
           D1           0.00000   0.00000   0.00000   0.00000   0.00000
                          A3        D1
           A3           0.16000
           D1           0.00000   0.00241
 ITU=  0
     Eigenvalues ---    0.00241   0.16000   0.16000   0.34868   0.34868
     Eigenvalues --- 1000.000001000.000001000.000001000.000001000.00000
     Eigenvalues --- 1000.000001000.00000
 RFO step:  Lambda=-1.56477380D-03 EMin= 2.41201275D-03
 Linear search not attempted -- first point.
 Iteration  1 RMS(Cart)=  0.03311087 RMS(Int)=  0.00065669
 Iteration  2 RMS(Cart)=  0.00066552 RMS(Int)=  0.00000013
 Iteration  3 RMS(Cart)=  0.00000015 RMS(Int)=  0.00000001
 ITry= 1 IFail=0 DXMaxC= 7.38D-02 DCOld= 1.00D+10 DXMaxT= 3.00D-01 DXLimC= 3.00D+00 Rises=F
 Variable       Old X    -DE/DX   Delta X   Delta X   Delta X     New X
                                 (Linear)    (Quad)   (Total)
    X1       -3.12209  -0.01978   0.00000   0.00000   0.00000  -3.12209
    Y1        0.00000  -0.00001   0.00000   0.00000   0.00000   0.00000
    Z1        0.00000   0.00000   0.00000   0.00000   0.00000   0.00000
    X2        3.12209  -0.00000   0.00000   0.00000   0.00000   3.12209
    Y2        0.00000  -0.00000   0.00000   0.00000   0.00000   0.00000
    Z2        0.00000  -0.00000   0.00000   0.00000   0.00000   0.00000
    R1        2.05890   0.00397   0.00000   0.01132   0.01132   2.07022
    R2        2.05889   0.00397   0.00000   0.01133   0.01133   2.07022
    A1        2.12745   0.00631   0.00000   0.03904   0.03904   2.16648
    A2        2.12865   0.00630   0.00000   0.03897   0.03897   2.16762
    A3        2.02709  -0.01260   0.00000  -0.07801  -0.07801   1.94908
    D1        3.14144   0.00000   0.00000   0.00030   0.00030  -3.14144
         Item               Value     Threshold  Converged?
 Maximum Force            0.012604     0.000450     NO 
 RMS     Force            0.006705     0.000300     NO 
 Maximum Displacement     0.073751     0.001800     NO 
 RMS     Displacement     0.033198     0.001200     NO 
 Predicted change in Energy=-7.897294D-04
 Lowest energy point so far.  Saving SCF results.
 GradGradGradGradGradGradGradGradGradGradGradGradGradGradGradGradGradGrad

 Leave Link  103 at Mon Apr 21 19:44:09 2025, MaxMem=   536870912 cpu:               1.4 elap:               0.3
 (Enter /home/szhao/Apps/g16/l202.exe)
                          Input orientation:                          
 ---------------------------------------------------------------------
 Center     Atomic      Atomic             Coordinates (Angstroms)
 Number     Number       Type             X           Y           Z
 ---------------------------------------------------------------------
      1          6           0       -1.652140    0.000000    0.000000
      2         16           0        1.652140    0.000000    0.000000
      3          1           0       -2.266809   -0.906825    0.000147
      4          1           0       -2.267843    0.906124    0.000004
 ---------------------------------------------------------------------
                    Distance matrix (angstroms):
                    1          2          3          4
     1  C    0.000000
     2  S    3.304279   0.000000
     3  H    1.095514   4.022498   0.000000
     4  H    1.095514   4.023347   1.812950   0.000000
 Symmetry turned off by external request.
 Stoichiometry    CH2S
 Framework group  C1[X(CH2S)]
 Deg. of freedom     6
 Full point group                 C1      NOp   1
 Rotational constants (GHZ):         305.1340669           4.4797042           4.4148888
 Leave Link  202 at Mon Apr 21 19:44:09 2025, MaxMem=   536870912 cpu:               0.1 elap:               0.1
 (Enter /home/szhao/Apps/g16/l301.exe)
 Standard basis: 6-311+G(d,p) (5D, 7F)
 Ernie: Thresh=  0.10000D-02 Tol=  0.10000D-05 Strict=F.
    64 basis functions,   102 primitive gaussians,    66 cartesian basis functions
    12 alpha electrons       12 beta electrons
       nuclear repulsion energy        25.6719749299 Hartrees.
 IExCor= 4336 DFT=T Ex+Corr=M062X ExCW=0 ScaHFX=  0.540000
 ScaDFX=  1.000000  1.000000  1.000000  1.000000 ScalE2=  1.000000  1.000000
 IRadAn=      7 IRanWt=     -1 IRanGd=            0 ICorTp=0 IEmpDi=  4
 NAtoms=    4 NActive=    4 NUniq=    4 SFac= 1.00D+00 NAtFMM=   60 NAOKFM=F Big=F
 Integral buffers will be    131072 words long.
 Raffenetti 2 integral format.
 Two-electron integral symmetry is turned off.
 Leave Link  301 at Mon Apr 21 19:44:10 2025, MaxMem=   536870912 cpu:               0.5 elap:               0.1
 (Enter /home/szhao/Apps/g16/l302.exe)
 NPDir=0 NMtPBC=     1 NCelOv=     1 NCel=       1 NClECP=     1 NCelD=      1
         NCelK=      1 NCelE2=     1 NClLst=     1 CellRange=     0.0.
 One-electron integrals computed using PRISM.
 NBasis=    64 RedAO= T EigKep=  1.35D-02  NBF=    64
 NBsUse=    64 1.00D-06 EigRej= -1.00D+00 NBFU=    64
 Precomputing XC quadrature grid using
 IXCGrd= 4 IRadAn=           7 IRanWt=          -1 IRanGd=           0 AccXCQ= 0.00D+00.
 Generated NRdTot=       0 NPtTot=           0 NUsed=           0 NTot=          32
 NSgBfM=    65    65    65    65    65 MxSgAt=     4 MxSgA2=     4.
 Leave Link  302 at Mon Apr 21 19:44:10 2025, MaxMem=   536870912 cpu:               1.6 elap:               0.3
 (Enter /home/szhao/Apps/g16/l303.exe)
 DipDrv:  MaxL=1.
 Leave Link  303 at Mon Apr 21 19:44:10 2025, MaxMem=   536870912 cpu:               0.8 elap:               0.2
 (Enter /home/szhao/Apps/g16/l401.exe)
 Initial guess from the checkpoint file:  "opt.chk"
 B after Tr=    -0.006140    0.000001    0.000036
         Rot=    1.000000   -0.000002   -0.000006    0.000001 Ang=  -0.00 deg.
 Guess basis will be translated and rotated to current coordinates.
 JPrj=2 DoOrth=T DoCkMO=T.
 Initial guess <Sx>= 0.0000 <Sy>= 0.0000 <Sz>= 0.0000 <S**2>=-0.0000 S=-0.0000
 Generating alternative initial guess.
 ExpMin= 4.05D-02 ExpMax= 9.34D+04 ExpMxC= 3.17D+03 IAcc=3 IRadAn=         5 AccDes= 0.00D+00
 Harris functional with IExCor= 1009 and IRadAn=       5 diagonalized for initial guess.
 HarFok:  IExCor= 1009 AccDes= 0.00D+00 IRadAn=         5 IDoV= 1 UseB2=F ITyADJ=14
 ICtDFT=  3500011 ScaDFX=  1.000000  1.000000  1.000000  1.000000
 FoFCou: FMM=F IPFlag=           0 FMFlag=      100000 FMFlg1=           0
         NFxFlg=           0 DoJE=T BraDBF=F KetDBF=T FulRan=T
         wScrn=  0.000000 ICntrl=       500 IOpCl=  0 I1Cent=   200000004 NGrid=           0
         NMat0=    1 NMatS0=      1 NMatT0=    0 NMatD0=    1 NMtDS0=    0 NMtDT0=    0
 Symmetry not used in FoFCou.
 Harris En= -436.979333291106    
 Leave Link  401 at Mon Apr 21 19:44:11 2025, MaxMem=   536870912 cpu:               3.0 elap:               0.5
 (Enter /home/szhao/Apps/g16/l502.exe)
 Keep R1 and R2 ints in memory in canonical form, NReq=11470680.
 FoFCou: FMM=F IPFlag=           0 FMFlag=           0 FMFlg1=           0
         NFxFlg=           0 DoJE=F BraDBF=F KetDBF=F FulRan=T
         wScrn=  0.000000 ICntrl=       600 IOpCl=  0 I1Cent=           0 NGrid=           0
         NMat0=    1 NMatS0=   2080 NMatT0=    0 NMatD0=    1 NMtDS0=    0 NMtDT0=    0
 Symmetry not used in FoFCou.
 Two-electron integral symmetry not used.
 UHF open shell SCF:
 Using DIIS extrapolation, IDIIS=  1040.
 NGot=   536870912 LenX=   532532574 LenY=   532527777
 Requested convergence on RMS density matrix=1.00D-08 within 128 cycles.
 Requested convergence on MAX density matrix=1.00D-06.
 Requested convergence on             energy=1.00D-06.
 No special actions if energy rises.

 Cycle   1  Pass 1  IDiag  1:
 E= -437.177860686291    
 DIIS: error= 2.00D-03 at cycle   1 NSaved=   1.
 NSaved= 1 IEnMin= 1 EnMin= -437.177860686291     IErMin= 1 ErrMin= 2.00D-03
 ErrMax= 2.00D-03  0.00D+00 EMaxC= 1.00D-01 BMatC= 5.73D-04 BMatP= 5.73D-04
 IDIUse=3 WtCom= 9.80D-01 WtEn= 2.00D-02
 Coeff-Com:  0.100D+01
 Coeff-En:   0.100D+01
 Coeff:      0.100D+01
 Gap=     0.421 Goal=   None    Shift=    0.000
 Gap=     0.421 Goal=   None    Shift=    0.000
 GapD=    0.421 DampG=2.000 DampE=1.000 DampFc=2.0000 IDamp=-1.
 RMSDP=2.12D-04 MaxDP=4.29D-03              OVMax= 8.79D-03

 Cycle   2  Pass 1  IDiag  1:
 E= -437.178070104785     Delta-E=       -0.000209418494 Rises=F Damp=F
 DIIS: error= 2.38D-04 at cycle   2 NSaved=   2.
 NSaved= 2 IEnMin= 2 EnMin= -437.178070104785     IErMin= 2 ErrMin= 2.38D-04
 ErrMax= 2.38D-04  0.00D+00 EMaxC= 1.00D-01 BMatC= 1.29D-05 BMatP= 5.73D-04
 IDIUse=3 WtCom= 9.98D-01 WtEn= 2.38D-03
 Coeff-Com: -0.124D+00 0.112D+01
 Coeff-En:   0.000D+00 0.100D+01
 Coeff:     -0.124D+00 0.112D+01
 Gap=     0.156 Goal=   None    Shift=    0.000
 Gap=     0.156 Goal=   None    Shift=    0.000
 RMSDP=7.37D-05 MaxDP=1.53D-03 DE=-2.09D-04 OVMax= 2.25D-03

 Cycle   3  Pass 1  IDiag  1:
 E= -437.178079592382     Delta-E=       -0.000009487597 Rises=F Damp=F
 DIIS: error= 5.29D-05 at cycle   3 NSaved=   3.
 NSaved= 3 IEnMin= 3 EnMin= -437.178079592382     IErMin= 3 ErrMin= 5.29D-05
 ErrMax= 5.29D-05  0.00D+00 EMaxC= 1.00D-01 BMatC= 9.09D-07 BMatP= 1.29D-05
 IDIUse=1 WtCom= 1.00D+00 WtEn= 0.00D+00
 Coeff-Com: -0.225D-01 0.125D+00 0.897D+00
 Coeff:     -0.225D-01 0.125D+00 0.897D+00
 Gap=     0.156 Goal=   None    Shift=    0.000
 Gap=     0.156 Goal=   None    Shift=    0.000
 RMSDP=1.86D-05 MaxDP=3.74D-04 DE=-9.49D-06 OVMax= 6.11D-04

 Cycle   4  Pass 1  IDiag  1:
 E= -437.178080050715     Delta-E=       -0.000000458332 Rises=F Damp=F
 DIIS: error= 2.14D-05 at cycle   4 NSaved=   4.
 NSaved= 4 IEnMin= 4 EnMin= -437.178080050715     IErMin= 4 ErrMin= 2.14D-05
 ErrMax= 2.14D-05  0.00D+00 EMaxC= 1.00D-01 BMatC= 1.75D-07 BMatP= 9.09D-07
 IDIUse=1 WtCom= 1.00D+00 WtEn= 0.00D+00
 Coeff-Com:  0.607D-02-0.908D-01 0.258D+00 0.827D+00
 Coeff:      0.607D-02-0.908D-01 0.258D+00 0.827D+00
 Gap=     0.156 Goal=   None    Shift=    0.000
 Gap=     0.156 Goal=   None    Shift=    0.000
 RMSDP=6.54D-06 MaxDP=1.31D-04 DE=-4.58D-07 OVMax= 2.78D-04

 Cycle   5  Pass 1  IDiag  1:
 E= -437.178080136425     Delta-E=       -0.000000085710 Rises=F Damp=F
 DIIS: error= 7.48D-06 at cycle   5 NSaved=   5.
 NSaved= 5 IEnMin= 5 EnMin= -437.178080136425     IErMin= 5 ErrMin= 7.48D-06
 ErrMax= 7.48D-06  0.00D+00 EMaxC= 1.00D-01 BMatC= 6.61D-09 BMatP= 1.75D-07
 IDIUse=1 WtCom= 1.00D+00 WtEn= 0.00D+00
 Coeff-Com:  0.235D-02-0.250D-01 0.316D-01 0.135D+00 0.856D+00
 Coeff:      0.235D-02-0.250D-01 0.316D-01 0.135D+00 0.856D+00
 Gap=     0.156 Goal=   None    Shift=    0.000
 Gap=     0.156 Goal=   None    Shift=    0.000
 RMSDP=1.69D-06 MaxDP=2.59D-05 DE=-8.57D-08 OVMax= 9.70D-05

 Cycle   6  Pass 1  IDiag  1:
 E= -437.178080145759     Delta-E=       -0.000000009334 Rises=F Damp=F
 DIIS: error= 4.57D-06 at cycle   6 NSaved=   6.
 NSaved= 6 IEnMin= 6 EnMin= -437.178080145759     IErMin= 6 ErrMin= 4.57D-06
 ErrMax= 4.57D-06  0.00D+00 EMaxC= 1.00D-01 BMatC= 2.11D-09 BMatP= 6.61D-09
 IDIUse=1 WtCom= 1.00D+00 WtEn= 0.00D+00
 Coeff-Com: -0.361D-03 0.662D-02-0.334D-01-0.903D-01 0.238D+00 0.880D+00
 Coeff:     -0.361D-03 0.662D-02-0.334D-01-0.903D-01 0.238D+00 0.880D+00
 Gap=     0.156 Goal=   None    Shift=    0.000
 Gap=     0.156 Goal=   None    Shift=    0.000
 RMSDP=1.00D-06 MaxDP=1.94D-05 DE=-9.33D-09 OVMax= 7.34D-05

 Cycle   7  Pass 1  IDiag  1:
 E= -437.178080148589     Delta-E=       -0.000000002830 Rises=F Damp=F
 DIIS: error= 1.30D-06 at cycle   7 NSaved=   7.
 NSaved= 7 IEnMin= 7 EnMin= -437.178080148589     IErMin= 7 ErrMin= 1.30D-06
 ErrMax= 1.30D-06  0.00D+00 EMaxC= 1.00D-01 BMatC= 2.22D-10 BMatP= 2.11D-09
 IDIUse=1 WtCom= 1.00D+00 WtEn= 0.00D+00
 Coeff-Com: -0.458D-03 0.563D-02-0.134D-01-0.247D-01-0.134D+00 0.127D+00
 Coeff-Com:  0.104D+01
 Coeff:     -0.458D-03 0.563D-02-0.134D-01-0.247D-01-0.134D+00 0.127D+00
 Coeff:      0.104D+01
 Gap=     0.156 Goal=   None    Shift=    0.000
 Gap=     0.156 Goal=   None    Shift=    0.000
 RMSDP=4.82D-07 MaxDP=9.23D-06 DE=-2.83D-09 OVMax= 3.42D-05

 Cycle   8  Pass 1  IDiag  1:
 E= -437.178080149058     Delta-E=       -0.000000000469 Rises=F Damp=F
 DIIS: error= 2.62D-07 at cycle   8 NSaved=   8.
 NSaved= 8 IEnMin= 8 EnMin= -437.178080149058     IErMin= 8 ErrMin= 2.62D-07
 ErrMax= 2.62D-07  0.00D+00 EMaxC= 1.00D-01 BMatC= 9.92D-12 BMatP= 2.22D-10
 IDIUse=1 WtCom= 1.00D+00 WtEn= 0.00D+00
 Coeff-Com:  0.946D-04-0.132D-02 0.434D-02 0.692D-02 0.172D-01-0.596D-01
 Coeff-Com: -0.257D+00 0.129D+01
 Coeff:      0.946D-04-0.132D-02 0.434D-02 0.692D-02 0.172D-01-0.596D-01
 Coeff:     -0.257D+00 0.129D+01
 Gap=     0.156 Goal=   None    Shift=    0.000
 Gap=     0.156 Goal=   None    Shift=    0.000
 RMSDP=1.45D-07 MaxDP=2.34D-06 DE=-4.69D-10 OVMax= 9.73D-06

 Cycle   9  Pass 1  IDiag  1:
 E= -437.178080149102     Delta-E=       -0.000000000044 Rises=F Damp=F
 DIIS: error= 1.31D-07 at cycle   9 NSaved=   9.
 NSaved= 9 IEnMin= 9 EnMin= -437.178080149102     IErMin= 9 ErrMin= 1.31D-07
 ErrMax= 1.31D-07  0.00D+00 EMaxC= 1.00D-01 BMatC= 4.24D-12 BMatP= 9.92D-12
 IDIUse=1 WtCom= 1.00D+00 WtEn= 0.00D+00
 Coeff-Com: -0.585D-05 0.133D-03-0.816D-03-0.900D-03 0.236D-02 0.176D-01
 Coeff-Com:  0.342D-01-0.566D+00 0.151D+01
 Coeff:     -0.585D-05 0.133D-03-0.816D-03-0.900D-03 0.236D-02 0.176D-01
 Coeff:      0.342D-01-0.566D+00 0.151D+01
 Gap=     0.156 Goal=   None    Shift=    0.000
 Gap=     0.156 Goal=   None    Shift=    0.000
 RMSDP=1.11D-07 MaxDP=2.54D-06 DE=-4.36D-11 OVMax= 7.29D-06

 Cycle  10  Pass 1  IDiag  1:
 E= -437.178080149127     Delta-E=       -0.000000000025 Rises=F Damp=F
 DIIS: error= 1.07D-07 at cycle  10 NSaved=  10.
 NSaved=10 IEnMin=10 EnMin= -437.178080149127     IErMin=10 ErrMin= 1.07D-07
 ErrMax= 1.07D-07  0.00D+00 EMaxC= 1.00D-01 BMatC= 2.69D-12 BMatP= 4.24D-12
 IDIUse=1 WtCom= 1.00D+00 WtEn= 0.00D+00
 Coeff-Com: -0.546D-04 0.779D-03-0.266D-02-0.413D-02-0.997D-02 0.358D-01
 Coeff-Com:  0.151D+00-0.809D+00 0.211D+00 0.143D+01
 Coeff:     -0.546D-04 0.779D-03-0.266D-02-0.413D-02-0.997D-02 0.358D-01
 Coeff:      0.151D+00-0.809D+00 0.211D+00 0.143D+01
 Gap=     0.156 Goal=   None    Shift=    0.000
 Gap=     0.156 Goal=   None    Shift=    0.000
 RMSDP=1.45D-07 MaxDP=3.39D-06 DE=-2.52D-11 OVMax= 9.72D-06

 Cycle  11  Pass 1  IDiag  1:
 E= -437.178080149152     Delta-E=       -0.000000000025 Rises=F Damp=F
 DIIS: error= 9.05D-08 at cycle  11 NSaved=  11.
 NSaved=11 IEnMin=11 EnMin= -437.178080149152     IErMin=11 ErrMin= 9.05D-08
 ErrMax= 9.05D-08  0.00D+00 EMaxC= 1.00D-01 BMatC= 1.42D-12 BMatP= 2.69D-12
 IDIUse=1 WtCom= 1.00D+00 WtEn= 0.00D+00
 Coeff-Com:  0.283D-04-0.428D-03 0.169D-02 0.230D-02 0.443D-02-0.261D-01
 Coeff-Com: -0.883D-01 0.684D+00-0.938D+00-0.848D+00 0.221D+01
 Coeff:      0.283D-04-0.428D-03 0.169D-02 0.230D-02 0.443D-02-0.261D-01
 Coeff:     -0.883D-01 0.684D+00-0.938D+00-0.848D+00 0.221D+01
 Gap=     0.156 Goal=   None    Shift=    0.000
 Gap=     0.156 Goal=   None    Shift=    0.000
 RMSDP=1.95D-07 MaxDP=4.67D-06 DE=-2.48D-11 OVMax= 1.34D-05

 Cycle  12  Pass 1  IDiag  1:
 E= -437.178080149173     Delta-E=       -0.000000000021 Rises=F Damp=F
 DIIS: error= 6.33D-08 at cycle  12 NSaved=  12.
 NSaved=12 IEnMin=12 EnMin= -437.178080149173     IErMin=12 ErrMin= 6.33D-08
 ErrMax= 6.33D-08  0.00D+00 EMaxC= 1.00D-01 BMatC= 6.09D-13 BMatP= 1.42D-12
 IDIUse=1 WtCom= 1.00D+00 WtEn= 0.00D+00
 Coeff-Com: -0.199D-04 0.326D-03-0.151D-02-0.164D-02-0.318D-02 0.244D-01
 Coeff-Com:  0.824D-01-0.784D+00 0.161D+01 0.636D+00-0.404D+01 0.348D+01
 Coeff:     -0.199D-04 0.326D-03-0.151D-02-0.164D-02-0.318D-02 0.244D-01
 Coeff:      0.824D-01-0.784D+00 0.161D+01 0.636D+00-0.404D+01 0.348D+01
 Gap=     0.156 Goal=   None    Shift=    0.000
 Gap=     0.156 Goal=   None    Shift=    0.000
 RMSDP=2.26D-07 MaxDP=5.47D-06 DE=-2.10D-11 OVMax= 1.57D-05

 Cycle  13  Pass 1  IDiag  1:
 E= -437.178080149185     Delta-E=       -0.000000000013 Rises=F Damp=F
 DIIS: error= 1.67D-08 at cycle  13 NSaved=  13.
 NSaved=13 IEnMin=13 EnMin= -437.178080149185     IErMin=13 ErrMin= 1.67D-08
 ErrMax= 1.67D-08  0.00D+00 EMaxC= 1.00D-01 BMatC= 6.67D-14 BMatP= 6.09D-13
 IDIUse=1 WtCom= 1.00D+00 WtEn= 0.00D+00
 Coeff-Com: -0.219D-05 0.224D-04-0.107D-04-0.214D-03-0.222D-03 0.158D-02
 Coeff-Com: -0.810D-02 0.750D-01-0.292D+00 0.130D+00 0.646D+00-0.118D+01
 Coeff-Com:  0.163D+01
 Coeff:     -0.219D-05 0.224D-04-0.107D-04-0.214D-03-0.222D-03 0.158D-02
 Coeff:     -0.810D-02 0.750D-01-0.292D+00 0.130D+00 0.646D+00-0.118D+01
 Coeff:      0.163D+01
 Gap=     0.156 Goal=   None    Shift=    0.000
 Gap=     0.156 Goal=   None    Shift=    0.000
 RMSDP=6.71D-08 MaxDP=1.62D-06 DE=-1.27D-11 OVMax= 4.66D-06

 Cycle  14  Pass 1  IDiag  1:
 E= -437.178080149186     Delta-E=       -0.000000000001 Rises=F Damp=F
 DIIS: error= 2.79D-09 at cycle  14 NSaved=  14.
 NSaved=14 IEnMin=14 EnMin= -437.178080149186     IErMin=14 ErrMin= 2.79D-09
 ErrMax= 2.79D-09  0.00D+00 EMaxC= 1.00D-01 BMatC= 1.17D-15 BMatP= 6.67D-14
 IDIUse=1 WtCom= 1.00D+00 WtEn= 0.00D+00
 Coeff-Com:  0.614D-07-0.375D-05 0.324D-04 0.550D-05 0.370D-05-0.414D-03
 Coeff-Com: -0.326D-02 0.313D-01-0.983D-01 0.308D-02 0.199D+00-0.233D+00
 Coeff-Com:  0.236D+00 0.865D+00
 Coeff:      0.614D-07-0.375D-05 0.324D-04 0.550D-05 0.370D-05-0.414D-03
 Coeff:     -0.326D-02 0.313D-01-0.983D-01 0.308D-02 0.199D+00-0.233D+00
 Coeff:      0.236D+00 0.865D+00
 Gap=     0.156 Goal=   None    Shift=    0.000
 Gap=     0.156 Goal=   None    Shift=    0.000
 RMSDP=3.28D-09 MaxDP=7.51D-08 DE=-7.96D-13 OVMax= 2.17D-07

 SCF Done:  E(UM062X) =  -437.178080149     A.U. after   14 cycles
            NFock= 14  Conv=0.33D-08     -V/T= 2.0016
 <Sx>= 0.0000 <Sy>= 0.0000 <Sz>= 0.0000 <S**2>=-0.0000 S=-0.0000
 <L.S>=  0.00000000000    
 KE= 4.364771736126D+02 PE=-1.089115630050D+03 EE= 1.897884013581D+02
 Annihilation of the first spin contaminant:
 S**2 before annihilation    -0.0000,   after    -0.0000
 Leave Link  502 at Mon Apr 21 19:44:18 2025, MaxMem=   536870912 cpu:              47.9 elap:               6.4
 (Enter /home/szhao/Apps/g16/l701.exe)
 ... and contract with generalized density number  0.
 Compute integral first derivatives.
 Leave Link  701 at Mon Apr 21 19:44:19 2025, MaxMem=   536870912 cpu:               0.8 elap:               0.1
 (Enter /home/szhao/Apps/g16/l702.exe)
 L702 exits ... SP integral derivatives will be done elsewhere.
 Leave Link  702 at Mon Apr 21 19:44:19 2025, MaxMem=   536870912 cpu:               0.6 elap:               0.4
 (Enter /home/szhao/Apps/g16/l703.exe)
 Integral derivatives from FoFJK, PRISM(SPDF).
 Compute integral first derivatives, UseDBF=F ICtDFT=           0.
 Calling FoFJK, ICntrl=      2127 FMM=F ISym2X=0 I1Cent= 0 IOpClX= 1 NMat=1 NMatS=1 NMatT=0.
 FoFJK:  IHMeth= 1 ICntrl=    2127 DoSepK=F KAlg= 0 I1Cent=           0 FoldK=F
 IRaf=         0 NMat=       1 IRICut=       1 DoRegI=T DoRafI=F ISym2E= 0 IDoP0=0 IntGTp=1.
 FoFCou: FMM=F IPFlag=           0 FMFlag=      100000 FMFlg1=         800
         NFxFlg=           0 DoJE=F BraDBF=F KetDBF=F FulRan=T
         wScrn=  0.000000 ICntrl=      2127 IOpCl=  1 I1Cent=           0 NGrid=           0
         NMat0=    1 NMatS0=      1 NMatT0=    0 NMatD0=    1 NMtDS0=    0 NMtDT0=    0
 Symmetry not used in FoFCou.
 Leave Link  703 at Mon Apr 21 19:44:21 2025, MaxMem=   536870912 cpu:               6.8 elap:               0.9
 (Enter /home/szhao/Apps/g16/l716.exe)
 Dipole        =-1.54327837D+00-4.06752759D-04 8.50591856D-05
 -------------------------------------------------------------------
 Center     Atomic                   Forces (Hartrees/Bohr)
 Number     Number              X              Y              Z
 -------------------------------------------------------------------
      1        6          -0.000000000   -0.000000000   -0.000000000
      2       16          -0.000000000   -0.000000000   -0.000000000
      3        1          -0.005013250    0.001266307   -0.000000450
      4        1          -0.005007646   -0.001268954   -0.000000248
 -------------------------------------------------------------------
 Cartesian Forces:  Max     0.005013250 RMS     0.002109956
 Leave Link  716 at Mon Apr 21 19:44:21 2025, MaxMem=   536870912 cpu:               0.4 elap:               0.1
 (Enter /home/szhao/Apps/g16/l103.exe)

 GradGradGradGradGradGradGradGradGradGradGradGradGradGradGradGradGradGrad
 Berny optimization.
 Using GEDIIS/GDIIS optimizer.
 FormGI is forming the generalized inverse of G from B-inverse, IUseBI=4.
 Internal  Forces:  Max     0.010020896 RMS     0.003808643
 Search for a local minimum.
 Step number   2 out of a maximum of   22
 All quantities printed in internal units (Hartrees-Bohrs-Radians)
 RMS Force = .35036D-02 SwitMx=.10000D-02 MixMth= 1
 Mixed Optimization -- RFO/linear search
 Update second derivatives using D2CorX and points    1    2
 DE= -1.20D-03 DEPred=-7.90D-04 R= 1.52D+00
 TightC=F SS=  1.41D+00  RLast= 9.69D-02 DXNew= 5.0454D-01 2.9064D-01
 Trust test= 1.52D+00 RLast= 9.69D-02 DXMaxT set to 3.00D-01
 The second derivative matrix:
                          X1        Y1        Z1        X2        Y2
           X1           0.62873
           Y1           0.00006   0.50000
           Z1          -0.00001  -0.00000   0.50000
           X2           0.00000   0.00000  -0.00000   0.50000
           Y2           0.00000   0.00000  -0.00000   0.00000   0.50000
           Z2           0.00001   0.00000  -0.00000   0.00000   0.00000
           R1          -0.02903  -0.00001   0.00000  -0.00000  -0.00000
           R2          -0.02906  -0.00001   0.00000  -0.00000  -0.00000
           A1          -0.03890  -0.00002   0.00000  -0.00000  -0.00000
           A2          -0.03890  -0.00002   0.00000  -0.00000  -0.00000
           A3           0.07780   0.00004  -0.00001   0.00000   0.00000
           D1          -0.00003  -0.00000   0.00000  -0.00000  -0.00000
                          Z2        R1        R2        A1        A2
           Z2           0.50000
           R1          -0.00000   0.34517
           R2          -0.00000  -0.00351   0.34517
           A1          -0.00000  -0.00714  -0.00714   0.14658
           A2          -0.00000  -0.00711  -0.00711  -0.01337   0.14667
           A3           0.00001   0.01425   0.01425   0.02679   0.02670
           D1          -0.00000   0.00001   0.00001   0.00001   0.00001
                          A3        D1
           A3           0.10651
           D1          -0.00001   0.00241
 ITU=  1  0
 Use linear search instead of GDIIS.
     Eigenvalues ---    0.00241   0.07746   0.16000   0.34397   0.34868
     Eigenvalues --- 1000.000001000.000001000.000001000.000001000.00000
     Eigenvalues --- 1000.000001000.00000
 RFO step:  Lambda=-1.90268565D-06 EMin= 2.41201665D-03
 Quartic linear search produced a step of  1.00195.
 Iteration  1 RMS(Cart)=  0.03360828 RMS(Int)=  0.00067176
 Iteration  2 RMS(Cart)=  0.00067912 RMS(Int)=  0.00000050
 Iteration  3 RMS(Cart)=  0.00000014 RMS(Int)=  0.00000049
 ITry= 1 IFail=0 DXMaxC= 7.26D-02 DCOld= 1.00D+10 DXMaxT= 3.00D-01 DXLimC= 3.00D+00 Rises=F
 Variable       Old X    -DE/DX   Delta X   Delta X   Delta X     New X
                                 (Linear)    (Quad)   (Total)
    X1       -3.12209  -0.01002   0.00000   0.00000   0.00000  -3.12209
    Y1        0.00000  -0.00000   0.00000   0.00000   0.00000   0.00000
    Z1        0.00000  -0.00000   0.00000   0.00000   0.00000   0.00000
    X2        3.12209  -0.00000   0.00000   0.00000   0.00000   3.12209
    Y2        0.00000  -0.00000   0.00000   0.00000   0.00000   0.00000
    Z2        0.00000   0.00000   0.00000   0.00000   0.00000   0.00000
    R1        2.07022   0.00176   0.01135  -0.00154   0.00981   2.08003
    R2        2.07022   0.00176   0.01135  -0.00154   0.00981   2.08003
    A1        2.16648   0.00336   0.03912   0.00041   0.03953   2.20601
    A2        2.16762   0.00335   0.03905   0.00035   0.03940   2.20702
    A3        1.94908  -0.00670  -0.07816  -0.00077  -0.07893   1.87014
    D1       -3.14144  -0.00000   0.00030  -0.00277  -0.00246   3.13928
         Item               Value     Threshold  Converged?
 Maximum Force            0.006704     0.000450     NO 
 RMS     Force            0.003504     0.000300     NO 
 Maximum Displacement     0.072635     0.001800     NO 
 RMS     Displacement     0.033685     0.001200     NO 
 Predicted change in Energy=-4.559177D-04
 Lowest energy point so far.  Saving SCF results.
 GradGradGradGradGradGradGradGradGradGradGradGradGradGradGradGradGradGrad

 Leave Link  103 at Mon Apr 21 19:44:21 2025, MaxMem=   536870912 cpu:               1.1 elap:               0.2
 (Enter /home/szhao/Apps/g16/l202.exe)
                          Input orientation:                          
 ---------------------------------------------------------------------
 Center     Atomic      Atomic             Coordinates (Angstroms)
 Number     Number       Type             X           Y           Z
 ---------------------------------------------------------------------
      1          6           0       -1.652140    0.000000    0.000000
      2         16           0        1.652140    0.000000    0.000000
      3          1           0       -2.305246   -0.886004   -0.001150
      4          1           0       -2.306141    0.885343   -0.001283
 ---------------------------------------------------------------------
                    Distance matrix (angstroms):
                    1          2          3          4
     1  C    0.000000
     2  S    3.304279   0.000000
     3  H    1.100705   4.055355   0.000000
     4  H    1.100706   4.056085   1.771348   0.000000
 Symmetry turned off by external request.
 Stoichiometry    CH2S
 Framework group  C1[X(CH2S)]
 Deg. of freedom     6
 Full point group                 C1      NOp   1
 Rotational constants (GHZ):         319.6346701           4.4619403           4.4005115
 Leave Link  202 at Mon Apr 21 19:44:22 2025, MaxMem=   536870912 cpu:               0.2 elap:               0.1
 (Enter /home/szhao/Apps/g16/l301.exe)
 Standard basis: 6-311+G(d,p) (5D, 7F)
 Ernie: Thresh=  0.10000D-02 Tol=  0.10000D-05 Strict=F.
    64 basis functions,   102 primitive gaussians,    66 cartesian basis functions
    12 alpha electrons       12 beta electrons
       nuclear repulsion energy        25.6174511205 Hartrees.
 IExCor= 4336 DFT=T Ex+Corr=M062X ExCW=0 ScaHFX=  0.540000
 ScaDFX=  1.000000  1.000000  1.000000  1.000000 ScalE2=  1.000000  1.000000
 IRadAn=      7 IRanWt=     -1 IRanGd=            0 ICorTp=0 IEmpDi=  4
 NAtoms=    4 NActive=    4 NUniq=    4 SFac= 1.00D+00 NAtFMM=   60 NAOKFM=F Big=F
 Integral buffers will be    131072 words long.
 Raffenetti 2 integral format.
 Two-electron integral symmetry is turned off.
 Leave Link  301 at Mon Apr 21 19:44:22 2025, MaxMem=   536870912 cpu:               0.7 elap:               0.3
 (Enter /home/szhao/Apps/g16/l302.exe)
 NPDir=0 NMtPBC=     1 NCelOv=     1 NCel=       1 NClECP=     1 NCelD=      1
         NCelK=      1 NCelE2=     1 NClLst=     1 CellRange=     0.0.
 One-electron integrals computed using PRISM.
 NBasis=    64 RedAO= T EigKep=  1.37D-02  NBF=    64
 NBsUse=    64 1.00D-06 EigRej= -1.00D+00 NBFU=    64
 Precomputing XC quadrature grid using
 IXCGrd= 4 IRadAn=           7 IRanWt=          -1 IRanGd=           0 AccXCQ= 0.00D+00.
 Generated NRdTot=       0 NPtTot=           0 NUsed=           0 NTot=          32
 NSgBfM=    65    65    65    65    65 MxSgAt=     4 MxSgA2=     4.
 Leave Link  302 at Mon Apr 21 19:44:23 2025, MaxMem=   536870912 cpu:               2.0 elap:               0.4
 (Enter /home/szhao/Apps/g16/l303.exe)
 DipDrv:  MaxL=1.
 Leave Link  303 at Mon Apr 21 19:44:23 2025, MaxMem=   536870912 cpu:               0.5 elap:               0.1
 (Enter /home/szhao/Apps/g16/l401.exe)
 Initial guess from the checkpoint file:  "opt.chk"
 B after Tr=    -0.006042    0.000007   -0.000308
         Rot=    1.000000   -0.000002    0.000055    0.000002 Ang=  -0.01 deg.
 Guess basis will be translated and rotated to current coordinates.
 JPrj=2 DoOrth=T DoCkMO=T.
 Initial guess <Sx>= 0.0000 <Sy>= 0.0000 <Sz>= 0.0000 <S**2>=-0.0000 S=-0.0000
 Generating alternative initial guess.
 ExpMin= 4.05D-02 ExpMax= 9.34D+04 ExpMxC= 3.17D+03 IAcc=3 IRadAn=         5 AccDes= 0.00D+00
 Harris functional with IExCor= 1009 and IRadAn=       5 diagonalized for initial guess.
 HarFok:  IExCor= 1009 AccDes= 0.00D+00 IRadAn=         5 IDoV= 1 UseB2=F ITyADJ=14
 ICtDFT=  3500011 ScaDFX=  1.000000  1.000000  1.000000  1.000000
 FoFCou: FMM=F IPFlag=           0 FMFlag=      100000 FMFlg1=           0
         NFxFlg=           0 DoJE=T BraDBF=F KetDBF=T FulRan=T
         wScrn=  0.000000 ICntrl=       500 IOpCl=  0 I1Cent=   200000004 NGrid=           0
         NMat0=    1 NMatS0=      1 NMatT0=    0 NMatD0=    1 NMtDS0=    0 NMtDT0=    0
 Symmetry not used in FoFCou.
 Harris En= -436.978543000868    
 Leave Link  401 at Mon Apr 21 19:44:25 2025, MaxMem=   536870912 cpu:               3.1 elap:               0.5
 (Enter /home/szhao/Apps/g16/l502.exe)
 Keep R1 and R2 ints in memory in canonical form, NReq=11470680.
 FoFCou: FMM=F IPFlag=           0 FMFlag=           0 FMFlg1=           0
         NFxFlg=           0 DoJE=F BraDBF=F KetDBF=F FulRan=T
         wScrn=  0.000000 ICntrl=       600 IOpCl=  0 I1Cent=           0 NGrid=           0
         NMat0=    1 NMatS0=   2080 NMatT0=    0 NMatD0=    1 NMtDS0=    0 NMtDT0=    0
 Symmetry not used in FoFCou.
 Two-electron integral symmetry not used.
 UHF open shell SCF:
 Using DIIS extrapolation, IDIIS=  1040.
 NGot=   536870912 LenX=   532532574 LenY=   532527777
 Requested convergence on RMS density matrix=1.00D-08 within 128 cycles.
 Requested convergence on MAX density matrix=1.00D-06.
 Requested convergence on             energy=1.00D-06.
 No special actions if energy rises.

 Cycle   1  Pass 1  IDiag  1:
 E= -437.178290021028    
 DIIS: error= 1.97D-03 at cycle   1 NSaved=   1.
 NSaved= 1 IEnMin= 1 EnMin= -437.178290021028     IErMin= 1 ErrMin= 1.97D-03
 ErrMax= 1.97D-03  0.00D+00 EMaxC= 1.00D-01 BMatC= 5.48D-04 BMatP= 5.48D-04
 IDIUse=3 WtCom= 9.80D-01 WtEn= 1.97D-02
 Coeff-Com:  0.100D+01
 Coeff-En:   0.100D+01
 Coeff:      0.100D+01
 Gap=     0.424 Goal=   None    Shift=    0.000
 Gap=     0.424 Goal=   None    Shift=    0.000
 GapD=    0.424 DampG=2.000 DampE=1.000 DampFc=2.0000 IDamp=-1.
 RMSDP=2.12D-04 MaxDP=4.40D-03              OVMax= 8.56D-03

 Cycle   2  Pass 1  IDiag  1:
 E= -437.178492739256     Delta-E=       -0.000202718227 Rises=F Damp=F
 DIIS: error= 2.41D-04 at cycle   2 NSaved=   2.
 NSaved= 2 IEnMin= 2 EnMin= -437.178492739256     IErMin= 2 ErrMin= 2.41D-04
 ErrMax= 2.41D-04  0.00D+00 EMaxC= 1.00D-01 BMatC= 1.22D-05 BMatP= 5.48D-04
 IDIUse=3 WtCom= 9.98D-01 WtEn= 2.41D-03
 Coeff-Com: -0.123D+00 0.112D+01
 Coeff-En:   0.000D+00 0.100D+01
 Coeff:     -0.122D+00 0.112D+01
 Gap=     0.156 Goal=   None    Shift=    0.000
 Gap=     0.156 Goal=   None    Shift=    0.000
 RMSDP=7.00D-05 MaxDP=1.39D-03 DE=-2.03D-04 OVMax= 2.24D-03

 Cycle   3  Pass 1  IDiag  1:
 E= -437.178501759578     Delta-E=       -0.000009020322 Rises=F Damp=F
 DIIS: error= 6.77D-05 at cycle   3 NSaved=   3.
 NSaved= 3 IEnMin= 3 EnMin= -437.178501759578     IErMin= 3 ErrMin= 6.77D-05
 ErrMax= 6.77D-05  0.00D+00 EMaxC= 1.00D-01 BMatC= 9.17D-07 BMatP= 1.22D-05
 IDIUse=1 WtCom= 1.00D+00 WtEn= 0.00D+00
 Coeff-Com: -0.245D-01 0.142D+00 0.883D+00
 Coeff:     -0.245D-01 0.142D+00 0.883D+00
 Gap=     0.156 Goal=   None    Shift=    0.000
 Gap=     0.156 Goal=   None    Shift=    0.000
 RMSDP=1.71D-05 MaxDP=3.55D-04 DE=-9.02D-06 OVMax= 5.42D-04

 Cycle   4  Pass 1  IDiag  1:
 E= -437.178502216783     Delta-E=       -0.000000457205 Rises=F Damp=F
 DIIS: error= 1.85D-05 at cycle   4 NSaved=   4.
 NSaved= 4 IEnMin= 4 EnMin= -437.178502216783     IErMin= 4 ErrMin= 1.85D-05
 ErrMax= 1.85D-05  0.00D+00 EMaxC= 1.00D-01 BMatC= 1.37D-07 BMatP= 9.17D-07
 IDIUse=1 WtCom= 1.00D+00 WtEn= 0.00D+00
 Coeff-Com:  0.631D-02-0.886D-01 0.215D+00 0.867D+00
 Coeff:      0.631D-02-0.886D-01 0.215D+00 0.867D+00
 Gap=     0.156 Goal=   None    Shift=    0.000
 Gap=     0.156 Goal=   None    Shift=    0.000
 RMSDP=6.09D-06 MaxDP=1.06D-04 DE=-4.57D-07 OVMax= 2.55D-04

 Cycle   5  Pass 1  IDiag  1:
 E= -437.178502306564     Delta-E=       -0.000000089781 Rises=F Damp=F
 DIIS: error= 7.30D-06 at cycle   5 NSaved=   5.
 NSaved= 5 IEnMin= 5 EnMin= -437.178502306564     IErMin= 5 ErrMin= 7.30D-06
 ErrMax= 7.30D-06  0.00D+00 EMaxC= 1.00D-01 BMatC= 5.95D-09 BMatP= 1.37D-07
 IDIUse=1 WtCom= 1.00D+00 WtEn= 0.00D+00
 Coeff-Com:  0.114D-02-0.845D-02-0.196D-01-0.207D-01 0.105D+01
 Coeff:      0.114D-02-0.845D-02-0.196D-01-0.207D-01 0.105D+01
 Gap=     0.156 Goal=   None    Shift=    0.000
 Gap=     0.156 Goal=   None    Shift=    0.000
 RMSDP=2.09D-06 MaxDP=2.97D-05 DE=-8.98D-08 OVMax= 1.23D-04

 Cycle   6  Pass 1  IDiag  1:
 E= -437.178502322398     Delta-E=       -0.000000015834 Rises=F Damp=F
 DIIS: error= 3.36D-06 at cycle   6 NSaved=   6.
 NSaved= 6 IEnMin= 6 EnMin= -437.178502322398     IErMin= 6 ErrMin= 3.36D-06
 ErrMax= 3.36D-06  0.00D+00 EMaxC= 1.00D-01 BMatC= 1.99D-09 BMatP= 5.95D-09
 IDIUse=1 WtCom= 1.00D+00 WtEn= 0.00D+00
 Coeff-Com: -0.125D-02 0.158D-01-0.422D-01-0.118D+00-0.150D+00 0.130D+01
 Coeff:     -0.125D-02 0.158D-01-0.422D-01-0.118D+00-0.150D+00 0.130D+01
 Gap=     0.156 Goal=   None    Shift=    0.000
 Gap=     0.156 Goal=   None    Shift=    0.000
 RMSDP=1.61D-06 MaxDP=2.23D-05 DE=-1.58D-08 OVMax= 9.81D-05

 Cycle   7  Pass 1  IDiag  1:
 E= -437.178502328893     Delta-E=       -0.000000006494 Rises=F Damp=F
 DIIS: error= 1.64D-06 at cycle   7 NSaved=   7.
 NSaved= 7 IEnMin= 7 EnMin= -437.178502328893     IErMin= 7 ErrMin= 1.64D-06
 ErrMax= 1.64D-06  0.00D+00 EMaxC= 1.00D-01 BMatC= 7.52D-10 BMatP= 1.99D-09
 IDIUse=1 WtCom= 1.00D+00 WtEn= 0.00D+00
 Coeff-Com: -0.532D-03 0.610D-02-0.872D-02-0.215D-01-0.247D+00 0.451D+00
 Coeff-Com:  0.820D+00
 Coeff:     -0.532D-03 0.610D-02-0.872D-02-0.215D-01-0.247D+00 0.451D+00
 Coeff:      0.820D+00
 Gap=     0.156 Goal=   None    Shift=    0.000
 Gap=     0.156 Goal=   None    Shift=    0.000
 RMSDP=7.50D-07 MaxDP=1.50D-05 DE=-6.49D-09 OVMax= 4.43D-05

 Cycle   8  Pass 1  IDiag  1:
 E= -437.178502330775     Delta-E=       -0.000000001882 Rises=F Damp=F
 DIIS: error= 1.08D-06 at cycle   8 NSaved=   8.
 NSaved= 8 IEnMin= 8 EnMin= -437.178502330775     IErMin= 8 ErrMin= 1.08D-06
 ErrMax= 1.08D-06  0.00D+00 EMaxC= 1.00D-01 BMatC= 2.96D-10 BMatP= 7.52D-10
 IDIUse=1 WtCom= 1.00D+00 WtEn= 0.00D+00
 Coeff-Com:  0.500D-03-0.651D-02 0.174D-01 0.363D-01 0.128D+00-0.614D+00
 Coeff-Com: -0.214D+00 0.165D+01
 Coeff:      0.500D-03-0.651D-02 0.174D-01 0.363D-01 0.128D+00-0.614D+00
 Coeff:     -0.214D+00 0.165D+01
 Gap=     0.156 Goal=   None    Shift=    0.000
 Gap=     0.156 Goal=   None    Shift=    0.000
 RMSDP=1.23D-06 MaxDP=2.79D-05 DE=-1.88D-09 OVMax= 8.00D-05

 Cycle   9  Pass 1  IDiag  1:
 E= -437.178502332963     Delta-E=       -0.000000002188 Rises=F Damp=F
 DIIS: error= 8.95D-07 at cycle   9 NSaved=   9.
 NSaved= 9 IEnMin= 9 EnMin= -437.178502332963     IErMin= 9 ErrMin= 8.95D-07
 ErrMax= 8.95D-07  0.00D+00 EMaxC= 1.00D-01 BMatC= 1.46D-10 BMatP= 2.96D-10
 IDIUse=1 WtCom= 1.00D+00 WtEn= 0.00D+00
 Coeff-Com: -0.224D-03 0.325D-02-0.112D-01-0.193D-01-0.376D-01 0.374D+00
 Coeff-Com: -0.562D-01-0.148D+01 0.222D+01
 Coeff:     -0.224D-03 0.325D-02-0.112D-01-0.193D-01-0.376D-01 0.374D+00
 Coeff:     -0.562D-01-0.148D+01 0.222D+01
 Gap=     0.156 Goal=   None    Shift=    0.000
 Gap=     0.156 Goal=   None    Shift=    0.000
 RMSDP=1.42D-06 MaxDP=3.41D-05 DE=-2.19D-09 OVMax= 9.80D-05

 Cycle  10  Pass 1  IDiag  1:
 E= -437.178502334716     Delta-E=       -0.000000001754 Rises=F Damp=F
 DIIS: error= 7.14D-07 at cycle  10 NSaved=  10.
 NSaved=10 IEnMin=10 EnMin= -437.178502334716     IErMin=10 ErrMin= 7.14D-07
 ErrMax= 7.14D-07  0.00D+00 EMaxC= 1.00D-01 BMatC= 8.32D-11 BMatP= 1.46D-10
 IDIUse=1 WtCom= 1.00D+00 WtEn= 0.00D+00
 Coeff-Com: -0.256D-03 0.332D-02-0.877D-02-0.186D-01-0.704D-01 0.301D+00
 Coeff-Com:  0.154D+00-0.713D+00-0.202D+00 0.155D+01
 Coeff:     -0.256D-03 0.332D-02-0.877D-02-0.186D-01-0.704D-01 0.301D+00
 Coeff:      0.154D+00-0.713D+00-0.202D+00 0.155D+01
 Gap=     0.156 Goal=   None    Shift=    0.000
 Gap=     0.156 Goal=   None    Shift=    0.000
 RMSDP=1.11D-06 MaxDP=2.71D-05 DE=-1.75D-09 OVMax= 7.74D-05

 Cycle  11  Pass 1  IDiag  1:
 E= -437.178502335693     Delta-E=       -0.000000000977 Rises=F Damp=F
 DIIS: error= 5.11D-07 at cycle  11 NSaved=  11.
 NSaved=11 IEnMin=11 EnMin= -437.178502335693     IErMin=11 ErrMin= 5.11D-07
 ErrMax= 5.11D-07  0.00D+00 EMaxC= 1.00D-01 BMatC= 4.20D-11 BMatP= 8.32D-11
 IDIUse=1 WtCom= 1.00D+00 WtEn= 0.00D+00
 Coeff-Com:  0.208D-03-0.313D-02 0.116D-01 0.188D-01 0.353D-01-0.375D+00
 Coeff-Com:  0.732D-01 0.148D+01-0.239D+01-0.162D+00 0.231D+01
 Coeff:      0.208D-03-0.313D-02 0.116D-01 0.188D-01 0.353D-01-0.375D+00
 Coeff:      0.732D-01 0.148D+01-0.239D+01-0.162D+00 0.231D+01
 Gap=     0.156 Goal=   None    Shift=    0.000
 Gap=     0.156 Goal=   None    Shift=    0.000
 RMSDP=2.06D-06 MaxDP=5.05D-05 DE=-9.77D-10 OVMax= 1.44D-04

 Cycle  12  Pass 1  IDiag  1:
 E= -437.178502336596     Delta-E=       -0.000000000903 Rises=F Damp=F
 DIIS: error= 1.37D-07 at cycle  12 NSaved=  12.
 NSaved=12 IEnMin=12 EnMin= -437.178502336596     IErMin=12 ErrMin= 1.37D-07
 ErrMax= 1.37D-07  0.00D+00 EMaxC= 1.00D-01 BMatC= 2.27D-12 BMatP= 4.20D-11
 IDIUse=1 WtCom= 1.00D+00 WtEn= 0.00D+00
 Coeff-Com:  0.163D-05 0.265D-04-0.587D-03-0.220D-03 0.299D-03 0.169D-01
 Coeff-Com: -0.415D-01-0.142D+00 0.422D+00-0.192D+00-0.400D+00 0.134D+01
 Coeff:      0.163D-05 0.265D-04-0.587D-03-0.220D-03 0.299D-03 0.169D-01
 Coeff:     -0.415D-01-0.142D+00 0.422D+00-0.192D+00-0.400D+00 0.134D+01
 Gap=     0.156 Goal=   None    Shift=    0.000
 Gap=     0.156 Goal=   None    Shift=    0.000
 RMSDP=4.71D-07 MaxDP=1.15D-05 DE=-9.03D-10 OVMax= 3.30D-05

 Cycle  13  Pass 1  IDiag  1:
 E= -437.178502336633     Delta-E=       -0.000000000037 Rises=F Damp=F
 DIIS: error= 2.88D-08 at cycle  13 NSaved=  13.
 NSaved=13 IEnMin=13 EnMin= -437.178502336633     IErMin=13 ErrMin= 2.88D-08
 ErrMax= 2.88D-08  0.00D+00 EMaxC= 1.00D-01 BMatC= 1.82D-13 BMatP= 2.27D-12
 IDIUse=1 WtCom= 1.00D+00 WtEn= 0.00D+00
 Coeff-Com: -0.118D-04 0.183D-03-0.766D-03-0.111D-02-0.164D-02 0.263D-01
 Coeff-Com: -0.121D-01-0.903D-01 0.193D+00-0.175D-01-0.222D+00 0.211D+00
 Coeff-Com:  0.915D+00
 Coeff:     -0.118D-04 0.183D-03-0.766D-03-0.111D-02-0.164D-02 0.263D-01
 Coeff:     -0.121D-01-0.903D-01 0.193D+00-0.175D-01-0.222D+00 0.211D+00
 Coeff:      0.915D+00
 Gap=     0.156 Goal=   None    Shift=    0.000
 Gap=     0.156 Goal=   None    Shift=    0.000
 RMSDP=2.34D-08 MaxDP=5.11D-07 DE=-3.66D-11 OVMax= 1.50D-06

 Cycle  14  Pass 1  IDiag  1:
 E= -437.178502336633     Delta-E=       -0.000000000000 Rises=F Damp=F
 DIIS: error= 3.47D-09 at cycle  14 NSaved=  14.
 NSaved=14 IEnMin=14 EnMin= -437.178502336633     IErMin=14 ErrMin= 3.47D-09
 ErrMax= 3.47D-09  0.00D+00 EMaxC= 1.00D-01 BMatC= 4.26D-15 BMatP= 1.82D-13
 IDIUse=1 WtCom= 1.00D+00 WtEn= 0.00D+00
 Coeff-Com: -0.171D-06-0.119D-05 0.349D-04-0.266D-04 0.667D-04-0.149D-02
 Coeff-Com:  0.268D-03 0.104D-01-0.281D-01 0.171D-01 0.222D-01-0.700D-01
 Coeff-Com: -0.297D-01 0.108D+01
 Coeff:     -0.171D-06-0.119D-05 0.349D-04-0.266D-04 0.667D-04-0.149D-02
 Coeff:      0.268D-03 0.104D-01-0.281D-01 0.171D-01 0.222D-01-0.700D-01
 Coeff:     -0.297D-01 0.108D+01
 Gap=     0.156 Goal=   None    Shift=    0.000
 Gap=     0.156 Goal=   None    Shift=    0.000
 RMSDP=2.53D-09 MaxDP=4.69D-08 DE=-3.41D-13 OVMax= 1.53D-07

 SCF Done:  E(UM062X) =  -437.178502337     A.U. after   14 cycles
            NFock= 14  Conv=0.25D-08     -V/T= 2.0016
 <Sx>= 0.0000 <Sy>= 0.0000 <Sz>= 0.0000 <S**2>=-0.0000 S=-0.0000
 <L.S>=  0.00000000000    
 KE= 4.364761931274D+02 PE=-1.088995229388D+03 EE= 1.897230828034D+02
 Annihilation of the first spin contaminant:
 S**2 before annihilation    -0.0000,   after    -0.0000
 Leave Link  502 at Mon Apr 21 19:44:32 2025, MaxMem=   536870912 cpu:              50.8 elap:               6.9
 (Enter /home/szhao/Apps/g16/l701.exe)
 ... and contract with generalized density number  0.
 Compute integral first derivatives.
 Leave Link  701 at Mon Apr 21 19:44:33 2025, MaxMem=   536870912 cpu:               2.1 elap:               0.5
 (Enter /home/szhao/Apps/g16/l702.exe)
 L702 exits ... SP integral derivatives will be done elsewhere.
 Leave Link  702 at Mon Apr 21 19:44:33 2025, MaxMem=   536870912 cpu:               0.8 elap:               0.2
 (Enter /home/szhao/Apps/g16/l703.exe)
 Integral derivatives from FoFJK, PRISM(SPDF).
 Compute integral first derivatives, UseDBF=F ICtDFT=           0.
 Calling FoFJK, ICntrl=      2127 FMM=F ISym2X=0 I1Cent= 0 IOpClX= 1 NMat=1 NMatS=1 NMatT=0.
 FoFJK:  IHMeth= 1 ICntrl=    2127 DoSepK=F KAlg= 0 I1Cent=           0 FoldK=F
 IRaf=         0 NMat=       1 IRICut=       1 DoRegI=T DoRafI=F ISym2E= 0 IDoP0=0 IntGTp=1.
 FoFCou: FMM=F IPFlag=           0 FMFlag=      100000 FMFlg1=         800
         NFxFlg=           0 DoJE=F BraDBF=F KetDBF=F FulRan=T
         wScrn=  0.000000 ICntrl=      2127 IOpCl=  1 I1Cent=           0 NGrid=           0
         NMat0=    1 NMatS0=      1 NMatT0=    0 NMatD0=    1 NMtDS0=    0 NMtDT0=    0
 Symmetry not used in FoFCou.
 Leave Link  703 at Mon Apr 21 19:44:34 2025, MaxMem=   536870912 cpu:               6.3 elap:               0.8
 (Enter /home/szhao/Apps/g16/l716.exe)
 Dipole        =-1.50932749D+00-3.66637290D-04-1.32119667D-03
[...]
 IDIUse=1 WtCom= 1.00D+00 WtEn= 0.00D+00
 Coeff-Com: -0.745D-02 0.110D-01 0.849D-01 0.179D-01 0.761D+00-0.946D+00
 Coeff-Com:  0.108D-01 0.246D+00 0.493D+00 0.329D+00
 Coeff:     -0.745D-02 0.110D-01 0.849D-01 0.179D-01 0.761D+00-0.946D+00
 Coeff:      0.108D-01 0.246D+00 0.493D+00 0.329D+00
 Gap=     0.156 Goal=   None    Shift=    0.000
 Gap=     0.156 Goal=   None    Shift=    0.000
 RMSDP=6.28D-09 MaxDP=1.37D-07 DE= 1.14D-13 OVMax= 3.90D-07

 SCF Done:  E(UM062X) =  -437.178502612     A.U. after   13 cycles
            NFock= 13  Conv=0.63D-08     -V/T= 2.0016
 <Sx>= 0.0000 <Sy>= 0.0000 <Sz>= 0.0000 <S**2>= 0.0000 S= 0.0000
 <L.S>=  0.00000000000    
 KE= 4.364750918948D+02 PE=-1.088988693769D+03 EE= 1.897205569128D+02
 Annihilation of the first spin contaminant:
 S**2 before annihilation     0.0000,   after     0.0000
 Leave Link  502 at Mon Apr 21 19:45:09 2025, MaxMem=   536870912 cpu:              44.9 elap:               5.9
 (Enter /home/szhao/Apps/g16/l701.exe)
 ... and contract with generalized density number  0.
 Compute integral first derivatives.
 Leave Link  701 at Mon Apr 21 19:45:10 2025, MaxMem=   536870912 cpu:               1.2 elap:               0.3
 (Enter /home/szhao/Apps/g16/l702.exe)
 L702 exits ... SP integral derivatives will be done elsewhere.
 Leave Link  702 at Mon Apr 21 19:45:10 2025, MaxMem=   536870912 cpu:               0.7 elap:               0.3
 (Enter /home/szhao/Apps/g16/l703.exe)
 Integral derivatives from FoFJK, PRISM(SPDF).
 Compute integral first derivatives, UseDBF=F ICtDFT=           0.
 Calling FoFJK, ICntrl=      2127 FMM=F ISym2X=0 I1Cent= 0 IOpClX= 1 NMat=1 NMatS=1 NMatT=0.
 FoFJK:  IHMeth= 1 ICntrl=    2127 DoSepK=F KAlg= 0 I1Cent=           0 FoldK=F
 IRaf=         0 NMat=       1 IRICut=       1 DoRegI=T DoRafI=F ISym2E= 0 IDoP0=0 IntGTp=1.
 FoFCou: FMM=F IPFlag=           0 FMFlag=      100000 FMFlg1=         800
         NFxFlg=           0 DoJE=F BraDBF=F KetDBF=F FulRan=T
         wScrn=  0.000000 ICntrl=      2127 IOpCl=  1 I1Cent=           0 NGrid=           0
         NMat0=    1 NMatS0=      1 NMatT0=    0 NMatD0=    1 NMtDS0=    0 NMtDT0=    0
 Symmetry not used in FoFCou.
 Leave Link  703 at Mon Apr 21 19:45:11 2025, MaxMem=   536870912 cpu:               6.2 elap:               0.8
 (Enter /home/szhao/Apps/g16/l716.exe)
 Dipole        =-1.50901632D+00-3.22194827D-04-7.91387576D-07
 -------------------------------------------------------------------
 Center     Atomic                   Forces (Hartrees/Bohr)
 Number     Number              X              Y              Z
 -------------------------------------------------------------------
      1        6          -0.000000000   -0.000000000   -0.000000000
      2       16          -0.000000000   -0.000000000   -0.000000000
      3        1          -0.000001688    0.000001660   -0.000000001
      4        1           0.000001452    0.000000647    0.000000003
 -------------------------------------------------------------------
 Cartesian Forces:  Max     0.000001688 RMS     0.000000823
 Leave Link  716 at Mon Apr 21 19:45:12 2025, MaxMem=   536870912 cpu:               0.6 elap:               0.2
 (Enter /home/szhao/Apps/g16/l103.exe)

 GradGradGradGradGradGradGradGradGradGradGradGradGradGradGradGradGradGrad
 Berny optimization.
 Using GEDIIS/GDIIS optimizer.
 FormGI is forming the generalized inverse of G from B-inverse, IUseBI=4.
 Internal  Forces:  Max     0.000004329 RMS     0.000002006
 Search for a local minimum.
 Step number   6 out of a maximum of   22
 All quantities printed in internal units (Hartrees-Bohrs-Radians)
 RMS Force = .23647D-05 SwitMx=.10000D-02 MixMth= 2
 Mixed Optimization -- En-DIIS/RFO-DIIS
 Swapping is turned off.
 Update second derivatives using D2CorX and points    1    2    3    4    5
                                                      6
 DE= -1.02D-07 DEPred=-1.03D-07 R= 9.92D-01
 Trust test= 9.92D-01 RLast= 2.18D-03 DXMaxT set to 1.50D-01
 The second derivative matrix:
                          X1        Y1        Z1        X2        Y2
           X1           0.77108
           Y1           0.00016   0.50000
           Z1           0.00018   0.00002   0.51693
           X2           0.00000   0.00000  -0.00000   0.50000
           Y2          -0.00001  -0.00000  -0.00001   0.00000   0.50000
           Z2           0.00002  -0.00000  -0.00280   0.00000   0.00000
           R1          -0.17871  -0.00008  -0.00036  -0.00000   0.00000
           R2          -0.17873  -0.00008  -0.00036  -0.00000   0.00000
           A1          -0.02974  -0.00002  -0.00027   0.00000   0.00000
           A2          -0.02205  -0.00004   0.00051  -0.00000   0.00001
           A3           0.05054   0.00006  -0.00045  -0.00000  -0.00001
           D1           0.00013   0.00001   0.01402  -0.00000  -0.00001
                          Z2        R1        R2        A1        A2
           Z2           0.50046
           R1           0.00000   0.33968
           R2           0.00000  -0.00900   0.33968
           A1           0.00005  -0.00704  -0.00704   0.14823
           A2          -0.00008  -0.00727  -0.00727  -0.01146   0.14735
           A3           0.00006   0.01526   0.01526   0.02311   0.02422
           D1          -0.00232  -0.00000  -0.00000  -0.00013   0.00038
                          A3        D1
           A3           0.11254
           D1           0.00008   0.01162
 ITU=  0  0 -1  1  1  0
     Eigenvalues ---    0.01162   0.08616   0.15926   0.33342   0.34868
     Eigenvalues --- 1000.000001000.000001000.000001000.000001000.00000
     Eigenvalues --- 1000.000001000.00000
 En-DIIS/RFO-DIIS/Sim-DIIS IScMMF=       -3 using points:     6    5    4    3
 RFO step:  Lambda=-1.69969304D-10.
 NNeg= 0 NGDIIS= 4 SimSw=  2.50D-03 Rises=F DC= -1.02D-07 SmlDif=  1.00D-05
 NRisDI= 0 DoIntr=F SqrtH=F CThrHd= 10.0 CDAdj=  3.0
 RMS Error=  0.1058404088D-04 NUsed= 4 OKEnD=F EnDIS=F
 InvSVX:  RCond= 1.99D-08 Info=           0 Equed=N FErr=  2.15D-13 BErr=  1.03D-16
 DIIS inversion failure, remove point   4.
 InvSVX:  RCond= 1.45D-07 Info=           0 Equed=N FErr=  1.17D-15 BErr=  1.05D-16
 RFO-DIIS uses    3 points instead of    4
 DidBck=F Rises=F RFO-DIIS coefs:    0.99831    0.00124    0.00045    0.00000
 Iteration  1 RMS(Cart)=  0.00002173 RMS(Int)=  0.00000000
 Iteration  2 RMS(Cart)=  0.00000000 RMS(Int)=  0.00000000
 ITry= 1 IFail=0 DXMaxC= 4.69D-05 DCOld= 1.00D+10 DXMaxT= 1.50D-01 DXLimC= 3.00D+00 Rises=F
 Variable       Old X    -DE/DX   Delta X   Delta X   Delta X     New X
                                 (Linear)    (Quad)   (Total)
    X1       -3.12209  -0.00000   0.00000   0.00000   0.00000  -3.12209
    Y1        0.00000   0.00000   0.00000   0.00000   0.00000   0.00000
    Z1        0.00000   0.00000   0.00000   0.00000   0.00000   0.00000
    X2        3.12209  -0.00000   0.00000   0.00000   0.00000   3.12209
    Y2        0.00000  -0.00000   0.00000   0.00000   0.00000   0.00000
    Z2        0.00000  -0.00000   0.00000   0.00000   0.00000   0.00000
    R1        2.08090  -0.00000   0.00000  -0.00000  -0.00000   2.08090
    R2        2.08090  -0.00000   0.00000  -0.00000  -0.00000   2.08090
    A1        2.20613   0.00000   0.00000   0.00003   0.00003   2.20616
    A2        2.20702  -0.00000   0.00000  -0.00002  -0.00002   2.20700
    A3        1.87003  -0.00000  -0.00000  -0.00001  -0.00001   1.87002
    D1        3.14159   0.00000   0.00000  -0.00000   0.00000  -3.14159
         Item               Value     Threshold  Converged?
 Maximum Force            0.000004     0.000450     YES
 RMS     Force            0.000002     0.000300     YES
 Maximum Displacement     0.000047     0.001800     YES
 RMS     Displacement     0.000022     0.001200     YES
 Predicted change in Energy=-1.056590D-10
 Optimization completed.
    -- Stationary point found.
                           ----------------------------
                           !   Optimized Parameters   !
                           ! (Angstroms and Degrees)  !
 --------------------------                            --------------------------
 ! Name  Definition              Value          Derivative Info.                !
 --------------------------------------------------------------------------------
 ! X1    R(1,-1)                -1.6521         -DE/DX =    0.0                 !
 ! Y1    R(1,-2)                 0.0            -DE/DX =    0.0                 !
 ! Z1    R(1,-3)                 0.0            -DE/DX =    0.0                 !
 ! X2    R(2,-1)                 1.6521         -DE/DX =    0.0                 !
 ! Y2    R(2,-2)                 0.0            -DE/DX =    0.0                 !
 ! Z2    R(2,-3)                 0.0            -DE/DX =    0.0                 !
 ! R1    R(1,3)                  1.1012         -DE/DX =    0.0                 !
 ! R2    R(1,4)                  1.1012         -DE/DX =    0.0                 !
 ! A1    A(2,1,3)              126.4021         -DE/DX =    0.0                 !
 ! A2    A(2,1,4)              126.453          -DE/DX =    0.0                 !
 ! A3    A(3,1,4)              107.1448         -DE/DX =    0.0                 !
 ! D1    D(2,1,4,3)           -180.0001         -DE/DX =    0.0                 !
 --------------------------------------------------------------------------------
 Lowest energy point so far.  Saving SCF results.
 Largest change from initial coordinates is atom    3       0.087 Angstoms.
 GradGradGradGradGradGradGradGradGradGradGradGradGradGradGradGradGradGrad

 Leave Link  103 at Mon Apr 21 19:45:13 2025, MaxMem=   536870912 cpu:               1.6 elap:               0.3
 (Enter /home/szhao/Apps/g16/l202.exe)
                          Input orientation:                          
 ---------------------------------------------------------------------
 Center     Atomic      Atomic             Coordinates (Angstroms)
 Number     Number       Type             X           Y           Z
 ---------------------------------------------------------------------
      1          6           0       -1.652140    0.000000    0.000000
      2         16           0        1.652140    0.000000    0.000000
      3          1           0       -2.305623   -0.886295    0.000066
      4          1           0       -2.306411    0.885714   -0.000067
 ---------------------------------------------------------------------
                    Distance matrix (angstroms):
                    1          2          3          4
     1  C    0.000000
     2  S    3.304279   0.000000
     3  H    1.101163   4.055787   0.000000
     4  H    1.101163   4.056428   1.772010   0.000000
 Symmetry turned off by external request.
 Stoichiometry    CH2S
 Framework group  C1[X(CH2S)]
 Deg. of freedom     6
 Full point group                 C1      NOp   1
 Rotational constants (GHZ):         319.3962780           4.4617904           4.4003203
 Leave Link  202 at Mon Apr 21 19:45:13 2025, MaxMem=   536870912 cpu:               0.1 elap:               0.1
 (Enter /home/szhao/Apps/g16/l601.exe)
 Copying SCF densities to generalized density rwf, IOpCl= 1 IROHF=0.

 **********************************************************************

            Population analysis using the SCF density.

 **********************************************************************

 Alpha  occ. eigenvalues --  -89.92190 -10.66009  -8.28189  -6.20915  -6.19437
 Alpha  occ. eigenvalues --   -6.19428  -0.79524  -0.72435  -0.52534  -0.35427
 Alpha  occ. eigenvalues --   -0.29904  -0.29878
 Alpha virt. eigenvalues --   -0.14277  -0.11810   0.00800   0.05275   0.05419
 Alpha virt. eigenvalues --    0.06633   0.08383   0.08886   0.09312   0.14148
 Alpha virt. eigenvalues --    0.16739   0.17309   0.36439   0.37199   0.37221
 Alpha virt. eigenvalues --    0.44292   0.44632   0.56368   0.56412   0.60232
 Alpha virt. eigenvalues --    0.66743   0.75324   0.82703   0.83260   0.85989
 Alpha virt. eigenvalues --    0.86168   0.86171   1.05929   1.13032   1.16856
 Alpha virt. eigenvalues --    1.49699   1.51108   1.62308   1.70320   1.70519
 Alpha virt. eigenvalues --    1.70926   1.82323   1.85609   2.10124   2.37331
 Alpha virt. eigenvalues --    2.40590   2.46622   2.56875   2.71252   3.02857
 Alpha virt. eigenvalues --    3.61050   7.76713  17.46349  17.46456  17.47991
 Alpha virt. eigenvalues --   23.73170 189.01708
  Beta  occ. eigenvalues --  -89.92190 -10.66009  -8.28189  -6.20915  -6.19437
  Beta  occ. eigenvalues --   -6.19428  -0.79524  -0.72435  -0.52534  -0.35427
  Beta  occ. eigenvalues --   -0.29904  -0.29878
  Beta virt. eigenvalues --   -0.14277  -0.11810   0.00800   0.05275   0.05419
  Beta virt. eigenvalues --    0.06633   0.08383   0.08886   0.09312   0.14148
  Beta virt. eigenvalues --    0.16739   0.17309   0.36439   0.37199   0.37221
  Beta virt. eigenvalues --    0.44292   0.44632   0.56368   0.56412   0.60232
  Beta virt. eigenvalues --    0.66743   0.75324   0.82703   0.83260   0.85989
  Beta virt. eigenvalues --    0.86168   0.86171   1.05929   1.13032   1.16856
  Beta virt. eigenvalues --    1.49699   1.51108   1.62308   1.70320   1.70519
  Beta virt. eigenvalues --    1.70926   1.82323   1.85609   2.10124   2.37331
  Beta virt. eigenvalues --    2.40590   2.46622   2.56875   2.71252   3.02857
  Beta virt. eigenvalues --    3.61050   7.76713  17.46349  17.46456  17.47991
  Beta virt. eigenvalues --   23.73170 189.01708
          Condensed to atoms (all electrons):
               1          2          3          4
     1  C    5.580162   0.022427   0.329261   0.329301
     2  S    0.022427  16.044751   0.001563   0.001563
     3  H    0.329261   0.001563   0.537638  -0.034185
     4  H    0.329301   0.001563  -0.034185   0.537588
          Atomic-Atomic Spin Densities.
               1          2          3          4
     1  C    0.000000  -0.000000   0.000000  -0.000000
     2  S   -0.000000  -0.000000  -0.000000   0.000000
     3  H    0.000000  -0.000000  -0.000000   0.000000
     4  H   -0.000000   0.000000   0.000000   0.000000
 Mulliken charges and spin densities:
               1          2
     1  C   -0.261151   0.000000
     2  S   -0.070304  -0.000000
     3  H    0.165722  -0.000000
     4  H    0.165732   0.000000
 Sum of Mulliken charges =  -0.00000   0.00000
 Mulliken charges and spin densities with hydrogens summed into heavy atoms:
               1          2
     1  C    0.070304   0.000000
     2  S   -0.070304  -0.000000
 Electronic spatial extent (au):  <R**2>=            299.7954
 Charge=              0.0000 electrons
 Dipole moment (field-independent basis, Debye):
    X=             -3.8355    Y=             -0.0008    Z=             -0.0000  Tot=              3.8355
 Quadrupole moment (field-independent basis, Debye-Ang):
   XX=            -11.9183   YY=            -22.2782   ZZ=            -21.9789
   XY=             -0.0000   XZ=             -0.0000   YZ=              0.0000
 Traceless Quadrupole moment (field-independent basis, Debye-Ang):
   XX=              6.8068   YY=             -3.5531   ZZ=             -3.2537
   XY=             -0.0000   XZ=             -0.0000   YZ=              0.0000
 Octapole moment (field-independent basis, Debye-Ang**2):
  XXX=            -30.1694  YYY=             -0.0007  ZZZ=              0.0000  XYY=            -15.7573
  XXY=             -0.0002  XXZ=             -0.0000  XZZ=            -15.3788  YZZ=              0.0002
  YYZ=             -0.0000  XYZ=              0.0000
 Hexadecapole moment (field-independent basis, Debye-Ang**3):
 XXXX=           -304.5631 YYYY=            -39.2827 ZZZZ=            -31.8013 XXXY=             -0.0153
 XXXZ=             -0.0001 YYYX=              0.0007 YYYZ=              0.0002 ZZZX=             -0.0000
 ZZZY=              0.0004 XXYY=            -69.0051 XXZZ=            -70.3409 YYZZ=            -12.1524
 XXYZ=             -0.0001 YYXZ=             -0.0000 ZZXY=             -0.0005
 N-N= 2.561454234966D+01 E-N=-1.088988693733D+03  KE= 4.364750918948D+02
                          Isotropic Fermi Contact Couplings
        Atom                 a.u.       MegaHertz       Gauss      10(-4) cm-1
     1  C(13)             -0.00000      -0.00000      -0.00000      -0.00000
     2  S(33)              0.00000       0.00000       0.00000       0.00000
     3  H(1)              -0.00000      -0.00001      -0.00000      -0.00000
     4  H(1)               0.00000       0.00001       0.00000       0.00000
 --------------------------------------------------------
       Center         ----  Spin Dipole Couplings  ----
                      3XX-RR        3YY-RR        3ZZ-RR
 --------------------------------------------------------
     1   Atom        0.000000     -0.000000     -0.000000
     2   Atom        0.000000     -0.000000      0.000000
     3   Atom        0.000000     -0.000000     -0.000000
     4   Atom       -0.000000      0.000000      0.000000
 --------------------------------------------------------
                        XY            XZ            YZ
 --------------------------------------------------------
     1   Atom       -0.000000      0.000001      0.000000
     2   Atom        0.000029      0.000040     -0.000000
     3   Atom       -0.000000      0.000000     -0.000000
     4   Atom       -0.000000      0.000000      0.000000
 --------------------------------------------------------


 ---------------------------------------------------------------------------------
              Anisotropic Spin Dipole Couplings in Principal Axis System
 ---------------------------------------------------------------------------------

       Atom             a.u.   MegaHertz   Gauss  10(-4) cm-1        Axes

              Baa    -0.0000    -0.000    -0.000    -0.000  0.7071  0.0290 -0.7065
     1 C(13)  Bbb    -0.0000    -0.000    -0.000    -0.000 -0.0004  0.9992  0.0407
              Bcc     0.0000     0.000     0.000     0.000  0.7071 -0.0285  0.7065
 
              Baa    -0.0000    -0.002    -0.001    -0.001  0.7071 -0.4167 -0.5713
     2 S(33)  Bbb     0.0000     0.000     0.000     0.000  0.0002  0.8080 -0.5891
              Bcc     0.0000     0.002     0.001     0.001  0.7071  0.4164  0.5714
 
              Baa    -0.0000    -0.000    -0.000    -0.000 -0.5201  0.4344  0.7354
     3 H(1)   Bbb    -0.0000    -0.000    -0.000    -0.000  0.4996  0.8531 -0.1505
              Bcc     0.0000     0.000     0.000     0.000  0.6927 -0.2891  0.6607
 
              Baa    -0.0000    -0.000    -0.000    -0.000  0.6924  0.2893 -0.6610
     4 H(1)   Bbb     0.0000     0.000     0.000     0.000 -0.5007  0.8523 -0.1515
              Bcc     0.0000     0.000     0.000     0.000  0.5195  0.4358  0.7350
 

 ---------------------------------------------------------------------------------

 No NMR shielding tensors so no spin-rotation constants.
 Leave Link  601 at Mon Apr 21 19:45:14 2025, MaxMem=   536870912 cpu:               2.3 elap:               0.4
 (Enter /home/szhao/Apps/g16/l9999.exe)
 1\1\GINC-NODE05\FOpt\UM062X\6-311+G(d,p)\C1H2S1\SZHAO\21-Apr-2025\0\\#
 p opt UM062X/6-311+G** nosymm int=superfine\\Title Card Required\\0,1\
 C,-1.65213956,0.,0.\S,1.65213956,0.,0.\H,-2.3056234513,-0.886295207,0.
 000066207\H,-2.3064107826,0.8857144254,-0.0000674643\\Version=ES64L-G1
 6RevA.03\HF=-437.1785026\S2=0.\S2-1=0.\S2A=0.\RMSD=6.280e-09\RMSF=8.23
 3e-07\Dipole=-1.5090163,-0.0003222,-0.0000008\Quadrupole=5.0606978,-2.
 6416226,-2.4190752,-0.0000339,-0.0000021,0.0000168\PG=C01 [X(C1H2S1)]\
 \@


 ORIGINALITY CONSISTS NOT IN SAYING WHAT NO ONE HAS EVER SAID BEFORE, 
 BUT IN SAYING WHAT YOU THINK YOUR SELF.

                                    -- JAMES F. STEPHEN
 Job cpu time:       0 days  0 hours  6 minutes 31.4 seconds.
 Elapsed time:       0 days  0 hours  0 minutes 58.2 seconds.
 File lengths (MBytes):  RWF=     22 Int=      0 D2E=      0 Chk=      2 Scr=      2
 Normal termination of Gaussian 16 at Mon Apr 21 19:45:15 2025.
