Title Card Required                                                     
FOpt      UM062X                                                      6-311+G(d,p)        
Number of atoms                            I                6
Info1-9                                    I   N=           9
          15          15           0           0           0         110
           2          18        -502
Full Title                                 C   N=           2
Title Card Required     
Route                                      C   N=           4
#p opt UM062X/6-311+G** nosymm int=superfine    
Charge                                     I                0
Multiplicity                               I                1
Number of electrons                        I               16
Number of alpha electrons                  I                8
Number of beta electrons                   I                8
Number of basis functions                  I               68
Number of independent functions            I               68
Number of point charges in /Mol/           I                0
Number of translation vectors              I                0
Atomic numbers                             I   N=           6
           6           6           1           1           1           1
Nuclear charges                            R   N=           6
  6.00000000E+00  6.00000000E+00  1.00000000E+00  1.00000000E+00  1.00000000E+00
  1.00000000E+00
Current cartesian coordinates              R   N=          18
 -2.05147723E+00  0.00000000E+00  0.00000000E+00  2.05147723E+00  0.00000000E+00
  0.00000000E+00 -2.89394891E+00 -1.85424339E+00 -2.76051019E-09 -2.89394771E+00
  1.85423154E+00 -1.68274617E-09  2.89394885E+00  1.85424335E+00 -1.85260670E-09
  2.89394765E+00 -1.85423150E+00 -7.74814683E-10
Number of symbols in /Mol/                 I                0
Force Field                                I                0
Atom Types                                 C   N=           6
                                                            
            
Int Atom Types                             I   N=           6
           0           0           0           0           0           0
MM charges                                 R   N=           6
  0.00000000E+00  0.00000000E+00  0.00000000E+00  0.00000000E+00  0.00000000E+00
  0.00000000E+00
Integer atomic weights                     I   N=           6
          12          12           1           1           1           1
Real atomic weights                        R   N=           6
  1.20000000E+01  1.20000000E+01  1.00782504E+00  1.00782504E+00  1.00782504E+00
  1.00782504E+00
Atom fragment info                         I   N=           6
           0           0           0           0           0           0
Atom residue num                           I   N=           6
           0           0           0           0           0           0
Nuclear spins                              I   N=           6
           0           0           1           1           1           1
Nuclear ZEff                               R   N=           6
 -3.60000000E+00 -3.60000000E+00 -1.00000000E+00 -1.00000000E+00 -1.00000000E+00
 -1.00000000E+00
Nuclear ZNuc                               R   N=           6
  6.00000000E+00  6.00000000E+00  1.00000000E+00  1.00000000E+00  1.00000000E+00
  1.00000000E+00
Nuclear QMom                               R   N=           6
  0.00000000E+00  0.00000000E+00  0.00000000E+00  0.00000000E+00  0.00000000E+00
  0.00000000E+00
Nuclear GFac                               R   N=           6
  0.00000000E+00  0.00000000E+00  2.79284600E+00  2.79284600E+00  2.79284600E+00
  2.79284600E+00
MicOpt                                     I   N=           6
          -2          -2          -1          -1          -1          -1
Number of residues                         I                0
Number of secondary structures             I                0
Redundant internal dimensions              I   N=           4
          20          10           6           4
Redundant internal coordinate indices      I   N=          80
           1          -1           0           0           1          -2
           0           0           1          -3           0           0
           2          -1           0           0           2          -2
           0           0           2          -3           0           0
           1           3           0           0           1           4
           0           0           2           5           0           0
           2           6           0           0           2           1
           3           0           2           1           4           0
           3           1           4           0           1           2
           5           0           1           2           6           0
           5           2           6           0           3           1
           2           5           3           1           2           6
           4           1           2           5           4           1
           2           6
Redundant internal coordinates             R   N=          20
 -2.05147723E+00  0.00000000E+00  0.00000000E+00  2.05147723E+00  0.00000000E+00
  0.00000000E+00  2.03665831E+00  2.03664702E+00  2.03665825E+00  2.03664697E+00
  1.99726012E+00  1.99726199E+00  2.28866320E+00  1.99726010E+00  1.99726197E+00
  2.28866323E+00  3.14159265E+00 -0.00000000E+00 -0.00000000E+00  3.14159265E+00
ZRed-IntVec                                I   N=          20
          -1          -1          -1          -1          -1          -1
           0           0           0           0           0           0
           0           0           0           0           0           0
           0           0
ZRed-FPVec                                 R   N=          20
  0.00000000E+00  0.00000000E+00  0.00000000E+00  0.00000000E+00  0.00000000E+00
  0.00000000E+00  0.00000000E+00  0.00000000E+00  0.00000000E+00  0.00000000E+00
  0.00000000E+00  0.00000000E+00  0.00000000E+00  0.00000000E+00  0.00000000E+00
  0.00000000E+00  0.00000000E+00  0.00000000E+00  0.00000000E+00  0.00000000E+00
ZRed-Constraint1                           R   N=          20
 -2.05147723E+00  0.00000000E+00  0.00000000E+00  2.05147723E+00  0.00000000E+00
  0.00000000E+00  2.03694512E+00  2.03669844E+00  2.03694512E+00  2.03669844E+00
  2.00316847E+00  2.00313852E+00  2.27687832E+00  2.00316847E+00  2.00313852E+00
  2.27687832E+00  3.14159265E+00  0.00000000E+00  0.00000000E+00  3.14159265E+00
ZRed-Constraint2                           R   N=          20
 -2.05147723E+00  0.00000000E+00  0.00000000E+00  2.05147723E+00  0.00000000E+00
  0.00000000E+00  0.00000000E+00  0.00000000E+00  0.00000000E+00  0.00000000E+00
  0.00000000E+00  0.00000000E+00  0.00000000E+00  0.00000000E+00  0.00000000E+00
  0.00000000E+00  0.00000000E+00  0.00000000E+00  0.00000000E+00  0.00000000E+00
Number of contracted shells                I               28
Number of primitive shells                 I               50
Pure/Cartesian d shells                    I                0
Pure/Cartesian f shells                    I                0
Highest angular momentum                   I                2
Largest degree of contraction              I                6
Shell types                                I   N=          28
           0          -1          -1          -1          -1          -2
           0          -1          -1          -1          -1          -2
           0           0           0           1           0           0
           0           1           0           0           0           1
           0           0           0           1
Number of primitives per shell             I   N=          28
           6           3           1           1           1           1
           6           3           1           1           1           1
           3           1           1           1           3           1
           1           1           3           1           1           1
           3           1           1           1
Shell to atom map                          I   N=          28
           1           1           1           1           1           1
           2           2           2           2           2           2
           3           3           3           3           4           4
           4           4           5           5           5           5
           6           6           6           6
Primitive exponents                        R   N=          50
  4.56324000E+03  6.82024000E+02  1.54973000E+02  4.44553000E+01  1.30290000E+01
  1.82773000E+00  2.09642000E+01  4.80331000E+00  1.45933000E+00  4.83456000E-01
  1.45585000E-01  4.38000000E-02  6.26000000E-01  4.56324000E+03  6.82024000E+02
  1.54973000E+02  4.44553000E+01  1.30290000E+01  1.82773000E+00  2.09642000E+01
  4.80331000E+00  1.45933000E+00  4.83456000E-01  1.45585000E-01  4.38000000E-02
  6.26000000E-01  3.38650000E+01  5.09479000E+00  1.15879000E+00  3.25840000E-01
  1.02741000E-01  7.50000000E-01  3.38650000E+01  5.09479000E+00  1.15879000E+00
  3.25840000E-01  1.02741000E-01  7.50000000E-01  3.38650000E+01  5.09479000E+00
  1.15879000E+00  3.25840000E-01  1.02741000E-01  7.50000000E-01  3.38650000E+01
  5.09479000E+00  1.15879000E+00  3.25840000E-01  1.02741000E-01  7.50000000E-01
Contraction coefficients                   R   N=          50
  1.96665025E-03  1.52306019E-02  7.61269097E-02  2.60801033E-01  6.16462078E-01
  2.21006028E-01  1.14660081E-01  9.19999648E-01 -3.03068213E-03  1.00000000E+00
  1.00000000E+00  1.00000000E+00  1.00000000E+00  1.96665025E-03  1.52306019E-02
  7.61269097E-02  2.60801033E-01  6.16462078E-01  2.21006028E-01  1.14660081E-01
  9.19999648E-01 -3.03068213E-03  1.00000000E+00  1.00000000E+00  1.00000000E+00
  1.00000000E+00  2.54938145E-02  1.90373109E-01  8.52161486E-01  1.00000000E+00
  1.00000000E+00  1.00000000E+00  2.54938145E-02  1.90373109E-01  8.52161486E-01
  1.00000000E+00  1.00000000E+00  1.00000000E+00  2.54938145E-02  1.90373109E-01
  8.52161486E-01  1.00000000E+00  1.00000000E+00  1.00000000E+00  2.54938145E-02
  1.90373109E-01  8.52161486E-01  1.00000000E+00  1.00000000E+00  1.00000000E+00
P(S=P) Contraction coefficients            R   N=          50
  0.00000000E+00  0.00000000E+00  0.00000000E+00  0.00000000E+00  0.00000000E+00
  0.00000000E+00  4.02486927E-02  2.37593957E-01  8.15853851E-01  1.00000000E+00
  1.00000000E+00  1.00000000E+00  0.00000000E+00  0.00000000E+00  0.00000000E+00
  0.00000000E+00  0.00000000E+00  0.00000000E+00  0.00000000E+00  4.02486927E-02
  2.37593957E-01  8.15853851E-01  1.00000000E+00  1.00000000E+00  1.00000000E+00
  0.00000000E+00  0.00000000E+00  0.00000000E+00  0.00000000E+00  0.00000000E+00
  0.00000000E+00  0.00000000E+00  0.00000000E+00  0.00000000E+00  0.00000000E+00
  0.00000000E+00  0.00000000E+00  0.00000000E+00  0.00000000E+00  0.00000000E+00
  0.00000000E+00  0.00000000E+00  0.00000000E+00  0.00000000E+00  0.00000000E+00
  0.00000000E+00  0.00000000E+00  0.00000000E+00  0.00000000E+00  0.00000000E+00
Coordinates of each shell                  R   N=          84
 -2.05147723E+00  0.00000000E+00  0.00000000E+00 -2.05147723E+00  0.00000000E+00
  0.00000000E+00 -2.05147723E+00  0.00000000E+00  0.00000000E+00 -2.05147723E+00
  0.00000000E+00  0.00000000E+00 -2.05147723E+00  0.00000000E+00  0.00000000E+00
 -2.05147723E+00  0.00000000E+00  0.00000000E+00  2.05147723E+00  0.00000000E+00
  0.00000000E+00  2.05147723E+00  0.00000000E+00  0.00000000E+00  2.05147723E+00
  0.00000000E+00  0.00000000E+00  2.05147723E+00  0.00000000E+00  0.00000000E+00
  2.05147723E+00  0.00000000E+00  0.00000000E+00  2.05147723E+00  0.00000000E+00
  0.00000000E+00 -2.89394891E+00 -1.85424339E+00 -2.76051019E-09 -2.89394891E+00
 -1.85424339E+00 -2.76051019E-09 -2.89394891E+00 -1.85424339E+00 -2.76051019E-09
 -2.89394891E+00 -1.85424339E+00 -2.76051019E-09 -2.89394771E+00  1.85423154E+00
 -1.68274617E-09 -2.89394771E+00  1.85423154E+00 -1.68274617E-09 -2.89394771E+00
  1.85423154E+00 -1.68274617E-09 -2.89394771E+00  1.85423154E+00 -1.68274617E-09
  2.89394885E+00  1.85424335E+00 -1.85260670E-09  2.89394885E+00  1.85424335E+00
 -1.85260670E-09  2.89394885E+00  1.85424335E+00 -1.85260670E-09  2.89394885E+00
  1.85424335E+00 -1.85260670E-09  2.89394765E+00 -1.85423150E+00 -7.74814683E-10
  2.89394765E+00 -1.85423150E+00 -7.74814683E-10  2.89394765E+00 -1.85423150E+00
 -7.74814683E-10  2.89394765E+00 -1.85423150E+00 -7.74814683E-10
Num ILSW                                   I              100
ILSW                                       I   N=         100
           1           0           0           1           2           0
           0           0           0           0        4336          -1
           7           0           0           0           2           0
           0           0           0           0           1           0
           1           1           0           0           0           0
           0           0      100000           0          -1           0
           0           0           0           0           0           0
           0           0           0           1           0           0
           0 -2000000000           1           0           0           0
           0           0           4          52           0           0
           0           0          55           0           0           0
           0           0           0           6           0           1
           0           0           0           0           0           0
           0           0           0           0           0           0
           0           0           0           0           0           0
           0           0           0           0           0           0
           0           0           0           0
Num RLSW                                   I               52
RLSW                                       R   N=          52
  1.00000000E+00  1.00000000E+00  1.00000000E+00  1.00000000E+00  5.40000000E-01
  0.00000000E+00  0.00000000E+00  1.00000000E+00  0.00000000E+00  0.00000000E+00
  0.00000000E+00  0.00000000E+00  1.00000000E+00  0.00000000E+00  0.00000000E+00
  0.00000000E+00  0.00000000E+00  1.00000000E+00  0.00000000E+00  0.00000000E+00
  0.00000000E+00  0.00000000E+00  1.00000000E+00  0.00000000E+00  0.00000000E+00
  0.00000000E+00  0.00000000E+00  1.00000000E+00  0.00000000E+00  0.00000000E+00
  0.00000000E+00  0.00000000E+00  1.00000000E+00  0.00000000E+00  0.00000000E+00
  0.00000000E+00  0.00000000E+00  0.00000000E+00  1.00000000E+00  1.00000000E+00
  0.00000000E+00  1.00000000E+00  0.00000000E+00  0.00000000E+00  0.00000000E+00
  0.00000000E+00  0.00000000E+00  0.00000000E+00  0.00000000E+00  0.00000000E+00
  0.00000000E+00  0.00000000E+00
MxBond                                     I                3
NBond                                      I   N=           6
           3           3           1           1           1           1
IBond                                      I   N=          18
           2           3           4           1           5           6
           1           0           0           1           0           0
           2           0           0           2           0           0
RBond                                      R   N=          18
  1.00000000E-01  1.00000000E+00  1.00000000E+00  1.00000000E-01  1.00000000E+00
  1.00000000E+00  1.00000000E+00  0.00000000E+00  0.00000000E+00  1.00000000E+00
  0.00000000E+00  0.00000000E+00  1.00000000E+00  0.00000000E+00  0.00000000E+00
  1.00000000E+00  0.00000000E+00  0.00000000E+00
Virial Ratio                               R      2.011911652192243E+00
SCF Energy                                 R     -7.832863380552702E+01
Total Energy                               R     -7.832863380552702E+01
S**2                                       R     -4.618527782440651E-14
S**2 after annihilation                    R     -1.332267629550156E-13
RMS Force                                  R      2.391164952661015E-06
RMS Density                                R      9.259707061751800E-09
Job Status                                 I                1
Nuclear derivative order                   I                1
External E-field                           R   N=          35
  0.00000000E+00  0.00000000E+00  0.00000000E+00  0.00000000E+00  0.00000000E+00
  0.00000000E+00  0.00000000E+00  0.00000000E+00  0.00000000E+00  0.00000000E+00
  0.00000000E+00  0.00000000E+00  0.00000000E+00  0.00000000E+00  0.00000000E+00
  0.00000000E+00  0.00000000E+00  0.00000000E+00  0.00000000E+00  0.00000000E+00
  0.00000000E+00  0.00000000E+00  0.00000000E+00  0.00000000E+00  0.00000000E+00
  0.00000000E+00  0.00000000E+00  0.00000000E+00  0.00000000E+00  0.00000000E+00
  0.00000000E+00  0.00000000E+00  0.00000000E+00  0.00000000E+00  0.00000000E+00
IOpCl                                      I                1
IROHF                                      I                0
Alpha Orbital Energies                     R   N=          68
 -1.06179519E+01 -1.06178457E+01 -7.68353572E-01 -7.22462251E-01 -5.31227684E-01
 -5.08259318E-01 -3.58468051E-01 -2.52690146E-01 -7.92203276E-02 -3.07094432E-03
  3.36443276E-02  5.36976074E-02  7.10246601E-02  7.20909464E-02  9.25522467E-02
  9.97512677E-02  1.12940635E-01  1.50646947E-01  1.63712111E-01  1.99980745E-01
  2.13851020E-01  2.77807553E-01  3.93458171E-01  4.32104601E-01  4.43409910E-01
  5.80018755E-01  6.18860799E-01  6.45162210E-01  6.48330373E-01  6.61644424E-01
  7.02347084E-01  7.62217816E-01  7.63948766E-01  8.20621435E-01  1.07787848E+00
  1.08889592E+00  1.16810039E+00  1.18606148E+00  1.39253659E+00  1.40321087E+00
  1.42341409E+00  1.51653325E+00  1.51946277E+00  1.73350038E+00  1.73519523E+00
  1.76028144E+00  1.78015239E+00  1.85303768E+00  1.92082853E+00  2.00611784E+00
  2.01845595E+00  2.05517300E+00  2.35696078E+00  2.53436936E+00  2.56095801E+00
  2.58751481E+00  2.61989001E+00  2.62623840E+00  2.66451979E+00  2.69206838E+00
  2.76514481E+00  2.77857835E+00  2.79422535E+00  3.23489438E+00  3.70189463E+00
  3.73688233E+00  2.38185168E+01  2.38265511E+01
Beta Orbital Energies                      R   N=          68
 -1.06179519E+01 -1.06178457E+01 -7.68353572E-01 -7.22462251E-01 -5.31227684E-01
 -5.08259318E-01 -3.58468051E-01 -2.52690146E-01 -7.92203276E-02 -3.07094432E-03
  3.36443276E-02  5.36976074E-02  7.10246601E-02  7.20909464E-02  9.25522467E-02
  9.97512677E-02  1.12940635E-01  1.50646947E-01  1.63712111E-01  1.99980745E-01
  2.13851020E-01  2.77807553E-01  3.93458171E-01  4.32104601E-01  4.43409910E-01
  5.80018755E-01  6.18860799E-01  6.45162210E-01  6.48330373E-01  6.61644424E-01
  7.02347084E-01  7.62217816E-01  7.63948766E-01  8.20621435E-01  1.07787848E+00
  1.08889592E+00  1.16810039E+00  1.18606148E+00  1.39253659E+00  1.40321087E+00
  1.42341409E+00  1.51653325E+00  1.51946277E+00  1.73350038E+00  1.73519523E+00
  1.76028144E+00  1.78015239E+00  1.85303768E+00  1.92082853E+00  2.00611784E+00
  2.01845595E+00  2.05517300E+00  2.35696078E+00  2.53436936E+00  2.56095801E+00
  2.58751481E+00  2.61989001E+00  2.62623840E+00  2.66451979E+00  2.69206838E+00
  2.76514481E+00  2.77857835E+00  2.79422535E+00  3.23489438E+00  3.70189463E+00
  3.73688233E+00  2.38185168E+01  2.38265511E+01
Alpha MO coefficients                      R   N=        4624
  3.98979461E-01  3.28106586E-01  3.77598070E-04 -4.56034795E-09  4.31978703E-13
  8.05259027E-03 -1.35116919E-03  6.53025928E-08 -3.89971633E-12 -1.89688896E-03
  5.07143290E-05  8.10569616E-10  2.10799756E-13 -5.58274372E-04  3.43611721E-04
 -2.33291956E-08  7.62312142E-13 -9.15501288E-04  1.29444626E-12  8.44716666E-13
 -1.01564000E-03 -2.37059856E-08  3.98960290E-01  3.28090821E-01 -3.77576477E-04
  4.56012917E-09  9.85656068E-13  8.05219524E-03  1.35108794E-03 -6.52994009E-08
 -2.61821677E-12 -1.89674425E-03 -5.07297786E-05 -8.10870019E-10  2.87426514E-13
 -5.58297937E-04 -3.43572162E-04  2.33287350E-08  2.16708805E-13 -9.15462185E-04
 -9.18904722E-13 -8.45435447E-13 -1.01558187E-03 -2.37048060E-08  1.10705277E-04
 -2.37663699E-03  1.49948206E-03 -6.88422365E-04 -1.33438401E-03 -2.15934116E-12
  1.10691355E-04 -2.37674552E-03  1.49955795E-03 -6.88445121E-04  1.33442760E-03
 -1.43973189E-12  1.10701755E-04 -2.37652758E-03  1.49940090E-03  6.88391406E-04
  1.33431878E-03 -1.38208182E-12  1.10687833E-04 -2.37663611E-03  1.49947678E-03
  6.88414161E-04 -1.33436237E-03 -6.62679791E-13 -3.98974270E-01 -3.28104336E-01
 -4.50502020E-04  4.36565227E-09 -4.57424567E-13 -8.23088468E-03  1.69552731E-03
 -6.38389428E-08  3.96583135E-12  3.00586325E-03  3.18014560E-04  5.89086238E-09
 -5.05553170E-13 -4.71213319E-04 -8.17371505E-04  9.17427052E-09 -1.23039244E-12
  8.16940256E-04 -1.31386920E-12 -8.13612906E-13  1.21384497E-03  2.37592714E-08
  3.98993441E-01  3.28120101E-01 -4.50520211E-04  4.36585835E-09  1.00593141E-12
  8.23127210E-03  1.69559242E-03 -6.38419326E-08 -2.59072787E-12 -3.00595435E-03
  3.18012093E-04  5.89081039E-09  3.16743768E-13  4.71186363E-04 -8.17387990E-04
  9.17533040E-09  9.38746065E-13 -8.16984370E-04 -8.97317208E-13 -8.12767376E-13
 -1.21389395E-03 -2.37603640E-08 -7.18714889E-05  2.28581145E-03 -1.69486728E-03
  6.46128239E-04  1.36105538E-03  2.21685735E-12 -7.18550429E-05  2.28590676E-03
 -1.69493200E-03  6.46149947E-04 -1.36109829E-03  1.48206392E-12  7.18767312E-05
 -2.28592598E-03  1.69493949E-03  6.46161385E-04  1.36111966E-03 -1.41438650E-12
  7.18602845E-05 -2.28602130E-03  1.69500422E-03  6.46183094E-04 -1.36116258E-03
 -6.78019267E-13 -7.78365837E-02 -1.25372954E-01 -1.52643073E-02  6.82696980E-07
 -6.85519454E-11  3.37478165E-01 -1.75525296E-02  6.70465969E-07 -9.23484864E-11
  2.33876763E-01 -3.95710475E-03  2.16631044E-07 -3.82258684E-11  3.22410483E-03
 -3.46254412E-03  5.17522686E-08 -4.38766407E-12 -8.26645459E-03  1.04883611E-11
  4.86335934E-12 -2.71274072E-03 -6.57076356E-08 -7.78365974E-02 -1.25372976E-01
  1.52643153E-02 -6.82695517E-07 -4.08939395E-11  3.37478223E-01  1.75525403E-02
 -6.70464426E-07 -4.88016029E-11  2.33876799E-01  3.95710947E-03 -2.16630420E-07
 -2.42391874E-11  3.22410375E-03  3.46254475E-03 -5.17522194E-08 -1.01886530E-12
 -8.26645620E-03 -1.07394728E-11 -4.86525000E-12 -2.71274293E-03 -6.57075672E-08
  7.45318160E-02  8.60384522E-02  5.16077851E-03  4.02801691E-03  1.13402146E-02
  1.33578376E-11  7.45330494E-02  8.60396715E-02  5.16074228E-03  4.02812548E-03
 -1.13403650E-02  6.92468573E-12  7.45318331E-02  8.60384702E-02  5.16077983E-03
 -4.02801713E-03 -1.13402169E-02  9.24570743E-12  7.45330664E-02  8.60396895E-02
  5.16074360E-03 -4.02812570E-03  1.13403673E-02  2.81581561E-12 -7.55217818E-02
 -1.21983859E-01 -4.49005706E-02  9.51511719E-07 -8.33251461E-11  3.32711085E-01
 -6.58728190E-02  1.03522592E-06 -1.15039279E-10  2.28371747E-01 -3.15748415E-02
  3.81770481E-07 -4.67488225E-11 -1.94358775E-02 -1.02066771E-02  7.34145221E-09
 -6.46720160E-12 -7.06917247E-03  1.59554665E-11  6.07863080E-12 -9.40942189E-03
 -9.04098455E-08  7.55217684E-02  1.21983838E-01 -4.49005687E-02  9.51509633E-07
  4.49713039E-11 -3.32711024E-01 -6.58728162E-02  1.03522367E-06  5.67086950E-11
 -2.28371700E-01 -3.15748407E-02  3.81769611E-07  2.54412101E-11  1.94358784E-02
 -1.02066762E-02  7.34129408E-09  4.92876015E-12  7.06917138E-03  1.35163894E-11
  6.07598605E-12  9.40942213E-03  9.04096493E-08  8.42660146E-02  1.00694423E-01
  1.14712561E-02  2.81614279E-03  1.21762062E-02  1.45469597E-11  8.42676400E-02
  1.00696056E-01  1.14713742E-02  2.81625988E-03 -1.21763921E-02  7.30914892E-12
 -8.42660037E-02 -1.00694408E-01 -1.14712547E-02  2.81614166E-03  1.21762043E-02
 -1.06361542E-11 -8.42676291E-02 -1.00696041E-01 -1.14713728E-02  2.81625874E-03
 -1.21763902E-02 -3.38724320E-12  3.41278689E-07  5.72830644E-07  2.41919503E-08
  1.49617980E-01  3.87574708E-11 -1.67967271E-06  2.16585822E-07  2.06428089E-01
  5.21798954E-11 -2.11734513E-06  1.88578229E-07  1.16843041E-01  2.84174702E-11
  8.79057327E-08  1.42261763E-07  3.54498513E-03  7.63708547E-13  2.49003421E-08
 -4.53963453E-12 -3.86362005E-11  5.02953121E-08 -1.18355226E-02 -3.41278217E-07
 -5.72829850E-07  2.41922777E-08  1.49618058E-01 -3.87588880E-11  1.67967038E-06
  2.16586118E-07  2.06428192E-01 -5.21823991E-11  2.11734189E-06  1.88578346E-07
  1.16843098E-01 -2.84179212E-11 -8.79060177E-08  1.42261692E-07  3.54498916E-03
 -7.64493947E-13 -2.49003351E-08 -4.53977209E-12 -2.00890571E-11 -5.02954293E-08
  1.18355305E-02 -1.07077364E-01 -1.49340598E-01 -4.41544164E-02 -7.28319472E-03
 -1.03394211E-02 -2.48999777E-11  1.07076759E-01  1.49339275E-01  4.41540757E-02
  7.28322512E-03 -1.03392793E-02  1.80561415E-11  1.07077421E-01  1.49340677E-01
  4.41544378E-02 -7.28319859E-03 -1.03394272E-02  1.57068096E-11 -1.07076817E-01
 -1.49339354E-01 -4.41540971E-02  7.28322899E-03 -1.03392854E-02 -8.85931880E-12
  2.38356268E-07  4.06596353E-07 -6.38994740E-07  1.52820703E-01  4.81435707E-11
 -1.21177475E-06 -7.90113790E-07  2.08641087E-01  6.64880829E-11 -1.89471733E-06
 -4.70691912E-07  1.21392719E-01  3.93688053E-11 -1.67485576E-07  2.49674480E-08
  9.67558276E-03  6.66594253E-13  1.34235684E-08 -3.73953111E-12 -3.93021313E-11
 -2.08780422E-08 -1.77659060E-02  2.38355473E-07  4.06595011E-07  6.38995060E-07
 -1.52820632E-01  4.81454359E-11 -1.21177079E-06  7.90114676E-07 -2.08640984E-01
  6.64901648E-11 -1.89471195E-06  4.70692670E-07 -1.21392659E-01  3.93723355E-11
 -1.67485324E-07 -2.49671817E-08 -9.67558040E-03  6.63984792E-13  1.34235238E-08
  3.73907053E-12  1.95195110E-11 -2.08780671E-08 -1.77658992E-02 -1.11804080E-01
 -1.59953608E-01 -4.92275861E-02 -7.48371978E-03 -1.06189004E-02 -2.47734086E-11
  1.11804145E-01  1.59953203E-01  4.92274685E-02  7.48372154E-03 -1.06188486E-02
  1.89730893E-11 -1.11804029E-01 -1.59953533E-01 -4.92275609E-02  7.48371633E-03
  1.06188961E-02 -1.53942579E-11  1.11804094E-01  1.59953128E-01  4.92274433E-02
 -7.48371810E-03  1.06188443E-02  9.59486021E-12 -1.46468028E-02 -2.41772974E-02
  1.69471179E-01  3.57254813E-07  1.94445814E-10  6.45133938E-02  2.60151370E-01
  6.78908639E-07  2.86332774E-10  1.23093507E-01  2.21386751E-01  4.92839063E-07
  2.38977101E-10  9.15142280E-03  2.32510848E-02  1.18929044E-07  3.14973018E-11
  1.43611481E-03 -2.17957902E-11 -3.91930382E-12  1.13544905E-02 -1.77827384E-08
 -1.46468014E-02 -2.41772952E-02 -1.69471178E-01 -3.57254839E-07  1.22217266E-10
  6.45133877E-02 -2.60151368E-01 -6.78908299E-07  1.91186742E-10  1.23093502E-01
 -2.21386747E-01 -4.92838572E-07  1.48161178E-10  9.15141884E-03 -2.32510823E-02
 -1.18928935E-07  8.95781670E-12  1.43611450E-03  4.83047960E-12  3.93722385E-12
  1.13544909E-02 -1.77827689E-08 -5.18196987E-02 -8.24053041E-02 -4.42769404E-02
  8.46432972E-03 -7.57797449E-03  1.53486882E-12 -5.18192140E-02 -8.24042362E-02
 -4.42762090E-02  8.46440017E-03  7.57799056E-03  6.25285516E-12 -5.18196970E-02
 -8.24053003E-02 -4.42769385E-02 -8.46433029E-03  7.57797430E-03  8.60481971E-14
 -5.18192124E-02 -8.24042324E-02 -4.42762070E-02 -8.46440075E-03 -7.57799037E-03
  4.75183797E-12 -4.92069744E-11 -8.23049475E-11 -1.88408412E-10 -5.63018719E-11
  1.72236194E-01  2.45940746E-10 -3.01810027E-10 -8.55779120E-11  2.67063479E-01
  3.62805138E-10 -3.02879628E-10 -7.18572929E-11  3.02257314E-01 -1.93288215E-12
 -1.01193618E-10 -1.68081224E-11  6.63821834E-02 -1.18694884E-11  3.62805721E-03
  3.15733388E-08  1.99106798E-12  3.56875606E-12 -1.38774537E-11 -2.30035052E-11
  2.00855848E-10  5.63034321E-11  1.72236196E-01  6.93316489E-11  3.04105621E-10
  8.55809431E-11  2.67063483E-01  1.17897680E-10  3.10494696E-10  7.18485575E-11
  3.02257318E-01  3.01075084E-11  8.59735706E-11  1.67921369E-11  6.63821839E-02
 -3.87648083E-12 -3.62805734E-03 -3.15732451E-08  3.59385648E-12  3.56819419E-12
 -3.98316522E-11 -4.32937586E-11  1.71477063E-11 -2.18511700E-11 -1.03698715E-11
  1.48652297E-02 -5.46174042E-11 -8.47374563E-11 -2.90817815E-11 -2.19605263E-11
  4.20855039E-12  1.48653195E-02 -2.18527419E-12  1.49867319E-11  3.64349374E-11
  1.89703763E-11  2.31927554E-12  1.48652305E-02 -1.69714845E-11 -2.64445553E-11
 -9.86560696E-12  1.90846151E-11  3.84132234E-12  1.48653202E-02 -9.01929400E-11
 -1.50645371E-10 -2.71051254E-12 -4.55269322E-11  1.85622540E-01  4.35671556E-10
 -2.69594335E-11 -7.24953434E-11  2.83567251E-01  8.51208642E-10 -8.06590104E-11
 -9.26662095E-11  3.53256476E-01 -8.59245991E-11 -9.46600225E-11 -5.65398742E-11
  2.24618117E-01 -4.82498665E-12 -1.62325308E-02  2.89140290E-08  3.87455693E-12
 -1.12678183E-12  7.12620480E-11  1.18557599E-10  8.16675369E-11 -4.55309238E-11
 -1.85622538E-01 -3.45373817E-10  1.17124018E-10 -7.24802034E-11 -2.83567247E-01
 -6.43480740E-10  8.16821025E-11 -9.27147062E-11 -3.53256472E-01  1.51006977E-10
 -1.05061058E-11 -5.66736380E-11 -2.24618114E-01 -7.05485632E-12 -1.62325306E-02
  2.89139453E-08  5.63007401E-13  1.13012322E-12 -1.30177482E-10 -2.50142549E-10
 -1.72837514E-10 -4.39677307E-12 -2.52107262E-11  1.88628945E-02 -1.12368782E-10
 -2.23349203E-10 -1.30788642E-10 -6.06712928E-12  1.30250940E-11  1.88629991E-02
  9.92314181E-11  1.86183189E-10  1.39187063E-10  5.13603380E-12 -1.86830764E-11
 -1.88628947E-02  8.14195789E-11  1.59425871E-10  9.69138513E-11  3.45810311E-12
  6.50427452E-12 -1.88629993E-02 -4.52914564E-02 -7.56937619E-02  1.37080091E-01
 -2.28142097E-07 -1.15794523E-10  2.20499570E-01  2.00752373E-01  3.85688704E-09
 -2.02492457E-10  4.81088688E-01  2.96707440E-01 -7.98662119E-07 -3.16226771E-10
  1.31593524E+00  1.02919707E+00  2.87732778E-08  4.12139063E-11  8.38614981E-03
 -2.60455476E-12  2.73137020E-12 -1.98249816E-02 -4.45627368E-08  4.52914542E-02
  7.56937584E-02  1.37080097E-01 -2.28141183E-07  9.06606334E-11 -2.20499561E-01
  2.00752382E-01  3.85710540E-09  1.40714613E-10 -4.81088652E-01  2.96707457E-01