 Entering Gaussian System, Link 0=g16
 Initial command:
 /home/szhao/Apps/g16/l1.exe "/home/szhao/tmp/Gau-120400.inp" -scrdir="/home/szhao/tmp/"
 Default is to use a total of  16 processors:
                               16 via shared-memory
                                1 via Linda
 Entering Link 1 = /home/szhao/Apps/g16/l1.exe PID=    120401.
  
 Copyright (c) 1988,1990,1992,1993,1995,1998,2003,2009,2016,
            Gaussian, Inc.  All Rights Reserved.
  
 This is part of the Gaussian(R) 16 program.  It is based on
 the Gaussian(R) 09 system (copyright 2009, Gaussian, Inc.),
 the Gaussian(R) 03 system (copyright 2003, Gaussian, Inc.),
 the Gaussian(R) 98 system (copyright 1998, Gaussian, Inc.),
 the Gaussian(R) 94 system (copyright 1995, Gaussian, Inc.),
 the Gaussian 92(TM) system (copyright 1992, Gaussian, Inc.),
 the Gaussian 90(TM) system (copyright 1990, Gaussian, Inc.),
 the Gaussian 88(TM) system (copyright 1988, Gaussian, Inc.),
 the Gaussian 86(TM) system (copyright 1986, Carnegie Mellon
 University), and the Gaussian 82(TM) system (copyright 1983,
 Carnegie Mellon University). Gaussian is a federally registered
 trademark of Gaussian, Inc.
  
 This software contains proprietary and confidential information,
 including trade secrets, belonging to Gaussian, Inc.
  
 This software is provided under written license and may be
 used, copied, transmitted, or stored only in accord with that
 written license.
  
 The following legend is applicable only to US Government
 contracts under FAR:
  
                    RESTRICTED RIGHTS LEGEND
  
 Use, reproduction and disclosure by the US Government is
 subject to restrictions as set forth in subparagraphs (a)
 and (c) of the Commercial Computer Software - Restricted
 Rights clause in FAR 52.227-19.
  
 Gaussian, Inc.
 340 Quinnipiac St., Bldg. 40, Wallingford CT 06492
  
  
 ---------------------------------------------------------------
 Warning -- This program may not be used in any manner that
 competes with the business of Gaussian, Inc. or will provide
 assistance to any competitor of Gaussian, Inc.  The licensee
 of this program is prohibited from giving any competitor of
 Gaussian, Inc. access to this program.  By using this program,
 the user acknowledges that Gaussian, Inc. is engaged in the
 business of creating and licensing software in the field of
 computational chemistry and represents and warrants to the
 licensee that it is not a competitor of Gaussian, Inc. and that
 it will not use this program in any manner prohibited above.
 ---------------------------------------------------------------
  

 Cite this work as:
 Gaussian 16, Revision A.03,
 M. J. Frisch, G. W. Trucks, H. B. Schlegel, G. E. Scuseria, 
 M. A. Robb, J. R. Cheeseman, G. Scalmani, V. Barone, 
 G. A. Petersson, H. Nakatsuji, X. Li, M. Caricato, A. V. Marenich, 
 J. Bloino, B. G. Janesko, R. Gomperts, B. Mennucci, H. P. Hratchian, 
 J. V. Ortiz, A. F. Izmaylov, J. L. Sonnenberg, D. Williams-Young, 
 F. Ding, F. Lipparini, F. Egidi, J. Goings, B. Peng, A. Petrone, 
 T. Henderson, D. Ranasinghe, V. G. Zakrzewski, J. Gao, N. Rega, 
 G. Zheng, W. Liang, M. Hada, M. Ehara, K. Toyota, R. Fukuda, 
 J. Hasegawa, M. Ishida, T. Nakajima, Y. Honda, O. Kitao, H. Nakai, 
 T. Vreven, K. Throssell, J. A. Montgomery, Jr., J. E. Peralta, 
 F. Ogliaro, M. J. Bearpark, J. J. Heyd, E. N. Brothers, K. N. Kudin, 
 V. N. Staroverov, T. A. Keith, R. Kobayashi, J. Normand, 
 K. Raghavachari, A. P. Rendell, J. C. Burant, S. S. Iyengar, 
 J. Tomasi, M. Cossi, J. M. Millam, M. Klene, C. Adamo, R. Cammi, 
 J. W. Ochterski, R. L. Martin, K. Morokuma, O. Farkas, 
 J. B. Foresman, and D. J. Fox, Gaussian, Inc., Wallingford CT, 2016.
 
 ******************************************
 Gaussian 16:  ES64L-G16RevA.03 25-Dec-2016
                21-Apr-2025 
 ******************************************
 %chk=opt.chk
 %mem=4GB
 %nprocshared=8
 Will use up to    8 processors via shared memory.
 --------------------------------------------
 #p opt UM062X/6-311+G** nosymm int=superfine
 --------------------------------------------
 1/18=20,19=15,26=5,38=1/1,3;
 2/9=110,12=2,15=1,17=6,18=5,40=1/2;
 3/5=4,6=6,7=111,11=2,25=1,30=1,71=1,74=-55,75=-7,116=2/1,2,3;
 4//1;
 5/5=2,38=5/2;
 6/7=2,8=2,9=2,10=2,28=1/1;
 7/30=1/1,2,3,16;
 1/18=20,19=15,26=5/3(2);
 2/9=110,15=1/2;
 99//99;
 2/9=110,15=1/2;
 3/5=4,6=6,7=111,11=2,25=1,30=1,71=1,74=-55,75=-7,116=2/1,2,3;
 4/5=5,16=3,69=1/1;
 5/5=2,38=5/2;
 7/30=1/1,2,3,16;
 1/18=20,19=15,26=5/3(-5);
 2/9=110,15=1/2;
 6/7=2,8=2,9=2,10=2,19=2,28=1/1;
 99/9=1/99;
 Leave Link    1 at Mon Apr 21 20:28:28 2025, MaxMem=   536870912 cpu:               0.8 elap:               0.2
 (Enter /home/szhao/Apps/g16/l101.exe)
 -------------------
 Title Card Required
 -------------------
 Symbolic Z-matrix:
 Charge =  0 Multiplicity = 1
 Si                   -1   -2.18752   0.        0. 
 Si                   -1    2.18752   0.        0. 
 H                    0    -2.96841  -1.24877   0. 
 H                    0     2.96841   1.24877  -0.00078 
 H                    0    -2.96842   1.24878   0.00014 
 H                    0     2.96842  -1.24878   0.00093 
 
 Add virtual bond connecting atoms Si2        and Si1        Dist= 8.27D+00.
 ITRead=  2  2  0  0  0  0
 MicOpt= -2 -2 -1 -1 -1 -1
 NAtoms=      6 NQM=        4 NQMF=       2 NMMI=      0 NMMIF=      0
                NMic=       0 NMicF=      0.
                    Isotopes and Nuclear Properties:
 (Nuclear quadrupole moments (NQMom) in fm**2, nuclear magnetic moments (NMagM)
  in nuclear magnetons)

  Atom         1           2           3           4           5           6
 IAtWgt=          28          28           1           1           1           1
 AtmWgt=  27.9769284  27.9769284   1.0078250   1.0078250   1.0078250   1.0078250
 NucSpn=           0           0           1           1           1           1
 AtZEff=  -0.0000000  -0.0000000  -0.0000000  -0.0000000  -0.0000000  -0.0000000
 NQMom=    0.0000000   0.0000000   0.0000000   0.0000000   0.0000000   0.0000000
 NMagM=    0.0000000   0.0000000   2.7928460   2.7928460   2.7928460   2.7928460
 AtZNuc=  14.0000000  14.0000000   1.0000000   1.0000000   1.0000000   1.0000000
 Leave Link  101 at Mon Apr 21 20:28:28 2025, MaxMem=   536870912 cpu:               3.1 elap:               0.4
 (Enter /home/szhao/Apps/g16/l103.exe)

 GradGradGradGradGradGradGradGradGradGradGradGradGradGradGradGradGradGrad
 Berny optimization.
 Initialization pass.
                           ----------------------------
                           !    Initial Parameters    !
                           ! (Angstroms and Degrees)  !
 --------------------------                            --------------------------
 ! Name  Definition              Value          Derivative Info.                !
 --------------------------------------------------------------------------------
 ! X1    R(1,-1)                -2.1875         Frozen                          !
 ! Y1    R(1,-2)                 0.0            Frozen                          !
 ! Z1    R(1,-3)                 0.0            Frozen                          !
 ! X2    R(2,-1)                 2.1875         Frozen                          !
 ! Y2    R(2,-2)                 0.0            Frozen                          !
 ! Z2    R(2,-3)                 0.0            Frozen                          !
 ! R1    R(1,3)                  1.4728         estimate D2E/DX2                !
 ! R2    R(1,5)                  1.4728         estimate D2E/DX2                !
 ! R3    R(2,4)                  1.4728         estimate D2E/DX2                !
 ! R4    R(2,6)                  1.4728         estimate D2E/DX2                !
 ! A1    A(2,1,3)              122.019          estimate D2E/DX2                !
 ! A2    A(2,1,5)              122.0192         estimate D2E/DX2                !
 ! A3    A(3,1,5)              115.9618         estimate D2E/DX2                !
 ! A4    A(1,2,4)              122.019          estimate D2E/DX2                !
 ! A5    A(1,2,6)              122.0192         estimate D2E/DX2                !
 ! A6    A(4,2,6)              115.9617         estimate D2E/DX2                !
 ! D1    D(3,1,2,4)            179.9641         estimate D2E/DX2                !
 ! D2    D(3,1,2,6)             -0.0424         estimate D2E/DX2                !
 ! D3    D(5,1,2,4)             -0.0424         estimate D2E/DX2                !
 ! D4    D(5,1,2,6)            179.951          estimate D2E/DX2                !
 --------------------------------------------------------------------------------
 Trust Radius=3.00D-01 FncErr=1.00D-07 GrdErr=1.00D-07 EigMax=2.50D+02 EigMin=1.00D-04
 Number of steps in this run=     30 maximum allowed number of steps=    100.
 GradGradGradGradGradGradGradGradGradGradGradGradGradGradGradGradGradGrad

 Leave Link  103 at Mon Apr 21 20:28:29 2025, MaxMem=   536870912 cpu:               0.5 elap:               0.2
 (Enter /home/szhao/Apps/g16/l202.exe)
                          Input orientation:                          
 ---------------------------------------------------------------------
 Center     Atomic      Atomic             Coordinates (Angstroms)
 Number     Number       Type             X           Y           Z
 ---------------------------------------------------------------------
      1         14           0       -2.187518    0.000000    0.000000
      2         14           0        2.187518    0.000000    0.000000
      3          1           0       -2.968412   -1.248769    0.000000
      4          1           0        2.968412    1.248768   -0.000783
      5          1           0       -2.968423    1.248777    0.000142
      6          1           0        2.968423   -1.248776    0.000925
 ---------------------------------------------------------------------
                    Distance matrix (angstroms):
                    1          2          3          4          5
     1  Si   0.000000
     2  Si   4.375036   0.000000
     3  H    1.472827   5.305001   0.000000
     4  H    5.305001   1.472827   6.440775   0.000000
     5  H    1.472839   5.305014   2.497546   5.936835   0.000000
     6  H    5.305013   1.472839   5.936835   2.497545   6.440800
                    6
     6  H    0.000000
 Symmetry turned off by external request.
 Stoichiometry    H4Si2
 Framework group  C2[X(H4Si2)]
 Deg. of freedom     7
 Full point group                 C2      NOp   2
 Rotational constants (GHZ):          80.3906046           1.6664097           1.6325683
 Leave Link  202 at Mon Apr 21 20:28:29 2025, MaxMem=   536870912 cpu:               0.1 elap:               0.1
 (Enter /home/szhao/Apps/g16/l301.exe)
 Standard basis: 6-311+G(d,p) (5D, 7F)
 Ernie: Thresh=  0.10000D-02 Tol=  0.10000D-05 Strict=F.
    84 basis functions,   132 primitive gaussians,    86 cartesian basis functions
    16 alpha electrons       16 beta electrons
       nuclear repulsion energy        50.1796751345 Hartrees.
 IExCor= 4336 DFT=T Ex+Corr=M062X ExCW=0 ScaHFX=  0.540000
 ScaDFX=  1.000000  1.000000  1.000000  1.000000 ScalE2=  1.000000  1.000000
 IRadAn=      7 IRanWt=     -1 IRanGd=            0 ICorTp=0 IEmpDi=  4
 NAtoms=    6 NActive=    6 NUniq=    6 SFac= 1.00D+00 NAtFMM=   60 NAOKFM=F Big=F
 Integral buffers will be    131072 words long.
 Raffenetti 2 integral format.
 Two-electron integral symmetry is turned off.
 Leave Link  301 at Mon Apr 21 20:28:30 2025, MaxMem=   536870912 cpu:               1.4 elap:               0.7
 (Enter /home/szhao/Apps/g16/l302.exe)
 NPDir=0 NMtPBC=     1 NCelOv=     1 NCel=       1 NClECP=     1 NCelD=      1
         NCelK=      1 NCelE2=     1 NClLst=     1 CellRange=     0.0.
 One-electron integrals computed using PRISM.
 NBasis=    84 RedAO= T EigKep=  1.28D-02  NBF=    84
 NBsUse=    84 1.00D-06 EigRej= -1.00D+00 NBFU=    84
 Precomputing XC quadrature grid using
 IXCGrd= 4 IRadAn=           7 IRanWt=          -1 IRanGd=           0 AccXCQ= 0.00D+00.
 Generated NRdTot=       0 NPtTot=           0 NUsed=           0 NTot=          32
 NSgBfM=    77    77    77    77    77 MxSgAt=     6 MxSgA2=     6.
 Leave Link  302 at Mon Apr 21 20:28:31 2025, MaxMem=   536870912 cpu:               2.0 elap:               0.3
 (Enter /home/szhao/Apps/g16/l303.exe)
 DipDrv:  MaxL=1.
 Leave Link  303 at Mon Apr 21 20:28:31 2025, MaxMem=   536870912 cpu:               0.8 elap:               0.2
 (Enter /home/szhao/Apps/g16/l401.exe)
 ExpMin= 3.31D-02 ExpMax= 6.94D+04 ExpMxC= 2.33D+03 IAcc=3 IRadAn=         7 AccDes= 0.00D+00
 Harris functional with IExCor= 1009 and IRadAn=       7 diagonalized for initial guess.
 HarFok:  IExCor= 1009 AccDes= 0.00D+00 IRadAn=         7 IDoV= 1 UseB2=F ITyADJ=14
 ICtDFT=  3500011 ScaDFX=  1.000000  1.000000  1.000000  1.000000
 FoFCou: FMM=F IPFlag=           0 FMFlag=      100000 FMFlg1=           0
         NFxFlg=           0 DoJE=T BraDBF=F KetDBF=T FulRan=T
         wScrn=  0.000000 ICntrl=       500 IOpCl=  0 I1Cent=   200000004 NGrid=           0
         NMat0=    1 NMatS0=      1 NMatT0=    0 NMatD0=    1 NMtDS0=    0 NMtDT0=    0
 Symmetry not used in FoFCou.
 Harris En= -580.833629822996    
 JPrj=0 DoOrth=F DoCkMO=F.
 Initial guess <Sx>= 0.0000 <Sy>= 0.0000 <Sz>= 0.0000 <S**2>=-0.0000 S=-0.0000
 Leave Link  401 at Mon Apr 21 20:28:32 2025, MaxMem=   536870912 cpu:               4.8 elap:               0.8
 (Enter /home/szhao/Apps/g16/l502.exe)
 Keep R1 and R2 ints in memory in canonical form, NReq=20057634.
 FoFCou: FMM=F IPFlag=           0 FMFlag=           0 FMFlg1=           0
         NFxFlg=           0 DoJE=F BraDBF=F KetDBF=F FulRan=T
         wScrn=  0.000000 ICntrl=       600 IOpCl=  0 I1Cent=           0 NGrid=           0
         NMat0=    1 NMatS0=   3570 NMatT0=    0 NMatD0=    1 NMtDS0=    0 NMtDT0=    0
 Symmetry not used in FoFCou.
 Two-electron integral symmetry not used.
 UHF open shell SCF:
 Using DIIS extrapolation, IDIIS=  1040.
 NGot=   536870912 LenX=   524106186 LenY=   524098349
 Requested convergence on RMS density matrix=1.00D-08 within 128 cycles.
 Requested convergence on MAX density matrix=1.00D-06.
 Requested convergence on             energy=1.00D-06.
 No special actions if energy rises.

 Cycle   1  Pass 1  IDiag  1:
 E= -581.119361370598    
 DIIS: error= 2.92D-02 at cycle   1 NSaved=   1.
 NSaved= 1 IEnMin= 1 EnMin= -581.119361370598     IErMin= 1 ErrMin= 2.92D-02
 ErrMax= 2.92D-02  0.00D+00 EMaxC= 1.00D-01 BMatC= 1.80D-01 BMatP= 1.80D-01
 IDIUse=3 WtCom= 7.08D-01 WtEn= 2.92D-01
 Coeff-Com:  0.100D+01
 Coeff-En:   0.100D+01
 Coeff:      0.100D+01
 Gap=     0.147 Goal=   None    Shift=    0.000
 Gap=     0.147 Goal=   None    Shift=    0.000
 GapD=    0.147 DampG=1.000 DampE=0.500 DampFc=0.5000 IDamp=-1.
 Damping current iteration by 5.00D-01
 RMSDP=2.49D-03 MaxDP=4.69D-02              OVMax= 4.41D-02

 Cycle   2  Pass 1  IDiag  1:
 E= -581.130732224026     Delta-E=       -0.011370853427 Rises=F Damp=T
 DIIS: error= 1.48D-02 at cycle   2 NSaved=   2.
 NSaved= 2 IEnMin= 2 EnMin= -581.130732224026     IErMin= 2 ErrMin= 1.48D-02
 ErrMax= 1.48D-02  0.00D+00 EMaxC= 1.00D-01 BMatC= 3.86D-02 BMatP= 1.80D-01
 IDIUse=3 WtCom= 8.52D-01 WtEn= 1.48D-01
 Coeff-Com: -0.751D+00 0.175D+01
 Coeff-En:   0.000D+00 0.100D+01
 Coeff:     -0.640D+00 0.164D+01
 Gap=     0.149 Goal=   None    Shift=    0.000
 Gap=     0.149 Goal=   None    Shift=    0.000
 RMSDP=1.19D-03 MaxDP=1.91D-02 DE=-1.14D-02 OVMax= 7.60D-03

 Cycle   3  Pass 1  IDiag  1:
 E= -581.141417411002     Delta-E=       -0.010685186977 Rises=F Damp=F
 DIIS: error= 9.32D-04 at cycle   3 NSaved=   3.
 NSaved= 3 IEnMin= 3 EnMin= -581.141417411002     IErMin= 3 ErrMin= 9.32D-04
 ErrMax= 9.32D-04  0.00D+00 EMaxC= 1.00D-01 BMatC= 3.19D-04 BMatP= 3.86D-02
 IDIUse=3 WtCom= 9.91D-01 WtEn= 9.32D-03
 Coeff-Com: -0.140D+00 0.274D+00 0.866D+00
 Coeff-En:   0.000D+00 0.000D+00 0.100D+01
 Coeff:     -0.139D+00 0.271D+00 0.868D+00
 Gap=     0.150 Goal=   None    Shift=    0.000
 Gap=     0.150 Goal=   None    Shift=    0.000
 RMSDP=1.16D-04 MaxDP=3.60D-03 DE=-1.07D-02 OVMax= 1.73D-03

 Cycle   4  Pass 1  IDiag  1:
 E= -581.141441957916     Delta-E=       -0.000024546914 Rises=F Damp=F
 DIIS: error= 5.42D-05 at cycle   4 NSaved=   4.
 NSaved= 4 IEnMin= 4 EnMin= -581.141441957916     IErMin= 4 ErrMin= 5.42D-05
 ErrMax= 5.42D-05  0.00D+00 EMaxC= 1.00D-01 BMatC= 9.88D-07 BMatP= 3.19D-04
 IDIUse=1 WtCom= 1.00D+00 WtEn= 0.00D+00
 Coeff-Com: -0.494D-02 0.776D-02 0.585D-01 0.939D+00
 Coeff:     -0.494D-02 0.776D-02 0.585D-01 0.939D+00
 Gap=     0.150 Goal=   None    Shift=    0.000
 Gap=     0.150 Goal=   None    Shift=    0.000
 RMSDP=1.30D-05 MaxDP=1.88D-04 DE=-2.45D-05 OVMax= 3.47D-04

 Cycle   5  Pass 1  IDiag  1:
 E= -581.141442338442     Delta-E=       -0.000000380526 Rises=F Damp=F
 DIIS: error= 1.00D-05 at cycle   5 NSaved=   5.
 NSaved= 5 IEnMin= 5 EnMin= -581.141442338442     IErMin= 5 ErrMin= 1.00D-05
 ErrMax= 1.00D-05  0.00D+00 EMaxC= 1.00D-01 BMatC= 2.34D-08 BMatP= 9.88D-07
 IDIUse=1 WtCom= 1.00D+00 WtEn= 0.00D+00
 Coeff-Com:  0.123D-02-0.214D-02-0.165D-01-0.136D+00 0.115D+01
 Coeff:      0.123D-02-0.214D-02-0.165D-01-0.136D+00 0.115D+01
 Gap=     0.150 Goal=   None    Shift=    0.000
 Gap=     0.150 Goal=   None    Shift=    0.000
 RMSDP=6.30D-06 MaxDP=1.06D-04 DE=-3.81D-07 OVMax= 1.24D-04

 Cycle   6  Pass 1  IDiag  1:
 E= -581.141442361220     Delta-E=       -0.000000022778 Rises=F Damp=F
 DIIS: error= 1.60D-06 at cycle   6 NSaved=   6.
 NSaved= 6 IEnMin= 6 EnMin= -581.141442361220     IErMin= 6 ErrMin= 1.60D-06
 ErrMax= 1.60D-06  0.00D+00 EMaxC= 1.00D-01 BMatC= 8.60D-10 BMatP= 2.34D-08
 IDIUse=1 WtCom= 1.00D+00 WtEn= 0.00D+00
 Coeff-Com:  0.200D-03-0.365D-03-0.584D-03-0.153D-01 0.136D-01 0.100D+01
 Coeff:      0.200D-03-0.365D-03-0.584D-03-0.153D-01 0.136D-01 0.100D+01
 Gap=     0.150 Goal=   None    Shift=    0.000
 Gap=     0.150 Goal=   None    Shift=    0.000
 RMSDP=8.97D-07 MaxDP=1.40D-05 DE=-2.28D-08 OVMax= 2.02D-05

 Cycle   7  Pass 1  IDiag  1:
 E= -581.141442361857     Delta-E=       -0.000000000637 Rises=F Damp=F
 DIIS: error= 3.58D-07 at cycle   7 NSaved=   7.
 NSaved= 7 IEnMin= 7 EnMin= -581.141442361857     IErMin= 7 ErrMin= 3.58D-07
 ErrMax= 3.58D-07  0.00D+00 EMaxC= 1.00D-01 BMatC= 2.68D-11 BMatP= 8.60D-10
 IDIUse=1 WtCom= 1.00D+00 WtEn= 0.00D+00
 Coeff-Com: -0.513D-04 0.887D-04 0.646D-03 0.794D-02-0.538D-01-0.606D-01
 Coeff-Com:  0.111D+01
 Coeff:     -0.513D-04 0.887D-04 0.646D-03 0.794D-02-0.538D-01-0.606D-01
 Coeff:      0.111D+01
 Gap=     0.150 Goal=   None    Shift=    0.000
 Gap=     0.150 Goal=   None    Shift=    0.000
 RMSDP=3.15D-07 MaxDP=4.85D-06 DE=-6.37D-10 OVMax= 5.78D-06

 Cycle   8  Pass 1  IDiag  1:
 E= -581.141442361895     Delta-E=       -0.000000000038 Rises=F Damp=F
 DIIS: error= 6.39D-08 at cycle   8 NSaved=   8.
 NSaved= 8 IEnMin= 8 EnMin= -581.141442361895     IErMin= 8 ErrMin= 6.39D-08
 ErrMax= 6.39D-08  0.00D+00 EMaxC= 1.00D-01 BMatC= 7.19D-13 BMatP= 2.68D-11
 IDIUse=1 WtCom= 1.00D+00 WtEn= 0.00D+00
 Coeff-Com: -0.158D-05 0.348D-05-0.365D-04 0.253D-03 0.268D-02-0.407D-01
 Coeff-Com: -0.135D-01 0.105D+01
 Coeff:     -0.158D-05 0.348D-05-0.365D-04 0.253D-03 0.268D-02-0.407D-01
 Coeff:     -0.135D-01 0.105D+01
 Gap=     0.150 Goal=   None    Shift=    0.000
 Gap=     0.150 Goal=   None    Shift=    0.000
 RMSDP=3.64D-08 MaxDP=6.08D-07 DE=-3.84D-11 OVMax= 7.16D-07

 Cycle   9  Pass 1  IDiag  1:
 E= -581.141442361896     Delta-E=       -0.000000000001 Rises=F Damp=F
 DIIS: error= 4.15D-09 at cycle   9 NSaved=   9.
 NSaved= 9 IEnMin= 9 EnMin= -581.141442361896     IErMin= 9 ErrMin= 4.15D-09
 ErrMax= 4.15D-09  0.00D+00 EMaxC= 1.00D-01 BMatC= 3.46D-15 BMatP= 7.19D-13
 IDIUse=1 WtCom= 1.00D+00 WtEn= 0.00D+00
 Coeff-Com:  0.873D-06-0.170D-05-0.681D-06-0.672D-04 0.587D-04 0.517D-02
 Coeff-Com: -0.675D-02-0.114D+00 0.112D+01
 Coeff:      0.873D-06-0.170D-05-0.681D-06-0.672D-04 0.587D-04 0.517D-02
 Coeff:     -0.675D-02-0.114D+00 0.112D+01
 Gap=     0.150 Goal=   None    Shift=    0.000
 Gap=     0.150 Goal=   None    Shift=    0.000
 RMSDP=3.55D-09 MaxDP=1.23D-07 DE=-6.82D-13 OVMax= 6.67D-08

 SCF Done:  E(UM062X) =  -581.141442362     A.U. after    9 cycles
            NFock=  9  Conv=0.35D-08     -V/T= 2.0012
 <Sx>= 0.0000 <Sy>= 0.0000 <Sz>= 0.0000 <S**2>=-0.0000 S=-0.0000
 <L.S>=  0.00000000000    
 KE= 5.804627168182D+02 PE=-1.485057853666D+03 EE= 2.732740193515D+02
 Annihilation of the first spin contaminant:
 S**2 before annihilation    -0.0000,   after     0.0000
 Leave Link  502 at Mon Apr 21 20:28:48 2025, MaxMem=   536870912 cpu:             112.2 elap:              15.0
 (Enter /home/szhao/Apps/g16/l601.exe)
 Copying SCF densities to generalized density rwf, IOpCl= 1 IROHF=0.

 **********************************************************************

            Population analysis using the SCF density.

 **********************************************************************

 Alpha  occ. eigenvalues --  -67.00137 -67.00137  -5.55059  -5.55057  -3.86308
 Alpha  occ. eigenvalues --   -3.86308  -3.85766  -3.85766  -3.85627  -3.85627
 Alpha  occ. eigenvalues --   -0.57642  -0.57528  -0.41548  -0.41507  -0.25884
 Alpha  occ. eigenvalues --   -0.22801
 Alpha virt. eigenvalues --   -0.07806  -0.07020   0.02434   0.03191   0.03228
 Alpha virt. eigenvalues --    0.04885   0.05512   0.06194   0.06495   0.08218
 Alpha virt. eigenvalues --    0.08937   0.09485   0.10370   0.12902   0.28479
 Alpha virt. eigenvalues --    0.29930   0.30298   0.30724   0.30916   0.33429
 Alpha virt. eigenvalues --    0.37190   0.41684   0.42167   0.46676   0.47379
 Alpha virt. eigenvalues --    0.49948   0.59558   0.59558   0.63065   0.63068
 Alpha virt. eigenvalues --    0.63641   0.64300   0.81539   0.81637   0.90390
 Alpha virt. eigenvalues --    0.91052   1.22276   1.22538   1.23124   1.23908
 Alpha virt. eigenvalues --    1.24791   1.27655   1.39799   1.40699   1.48980
 Alpha virt. eigenvalues --    1.48997   1.49229   1.49229   1.61128   1.61383
 Alpha virt. eigenvalues --    1.92208   1.92404   2.09919   2.11449   2.59960
 Alpha virt. eigenvalues --    2.62141   2.63065   2.64245   5.53426   5.56742
 Alpha virt. eigenvalues --   11.46013  11.47193  11.51506  11.54525  11.60944
 Alpha virt. eigenvalues --   11.61801 141.10779 141.14424
  Beta  occ. eigenvalues --  -67.00137 -67.00137  -5.55059  -5.55057  -3.86308
  Beta  occ. eigenvalues --   -3.86308  -3.85766  -3.85766  -3.85627  -3.85627
  Beta  occ. eigenvalues --   -0.57642  -0.57528  -0.41548  -0.41507  -0.25884
  Beta  occ. eigenvalues --   -0.22801
  Beta virt. eigenvalues --   -0.07806  -0.07020   0.02434   0.03191   0.03228
  Beta virt. eigenvalues --    0.04885   0.05512   0.06194   0.06495   0.08218
  Beta virt. eigenvalues --    0.08937   0.09485   0.10370   0.12902   0.28479
  Beta virt. eigenvalues --    0.29930   0.30298   0.30724   0.30916   0.33429
  Beta virt. eigenvalues --    0.37190   0.41684   0.42167   0.46676   0.47379
  Beta virt. eigenvalues --    0.49948   0.59558   0.59558   0.63065   0.63068
  Beta virt. eigenvalues --    0.63641   0.64300   0.81539   0.81637   0.90390
  Beta virt. eigenvalues --    0.91052   1.22276   1.22538   1.23124   1.23908
  Beta virt. eigenvalues --    1.24791   1.27655   1.39799   1.40699   1.48980
  Beta virt. eigenvalues --    1.48997   1.49229   1.49229   1.61128   1.61383
  Beta virt. eigenvalues --    1.92208   1.92404   2.09919   2.11449   2.59960
  Beta virt. eigenvalues --    2.62141   2.63065   2.64245   5.53426   5.56742
  Beta virt. eigenvalues --   11.46013  11.47193  11.51506  11.54525  11.60944
  Beta virt. eigenvalues --   11.61801 141.10779 141.14424
          Condensed to atoms (all electrons):
               1          2          3          4          5          6
     1  Si  13.420242  -0.149073   0.210882   0.005917   0.210884   0.005917
     2  Si  -0.149073  13.420242   0.005917   0.210882   0.005917   0.210884
     3  H    0.210882   0.005917   0.936455  -0.000004  -0.005619  -0.000016
     4  H    0.005917   0.210882  -0.000004   0.936455  -0.000016  -0.005619
     5  H    0.210884   0.005917  -0.005619  -0.000016   0.936454  -0.000004
     6  H    0.005917   0.210884  -0.000016  -0.005619  -0.000004   0.936454
          Atomic-Atomic Spin Densities.
               1          2          3          4          5          6
     1  Si  -0.000000  -0.000000   0.000000   0.000000   0.000000   0.000000
     2  Si  -0.000000  -0.000000   0.000000   0.000000  -0.000000   0.000000
     3  H    0.000000   0.000000   0.000000   0.000000  -0.000000   0.000000
     4  H    0.000000   0.000000   0.000000  -0.000000   0.000000  -0.000000
     5  H    0.000000  -0.000000  -0.000000   0.000000   0.000000   0.000000
     6  H    0.000000   0.000000   0.000000  -0.000000   0.000000   0.000000
 Mulliken charges and spin densities:
               1          2
     1  Si   0.295231  -0.000000
     2  Si   0.295231  -0.000000
     3  H   -0.147615   0.000000
     4  H   -0.147615   0.000000
     5  H   -0.147616   0.000000
     6  H   -0.147616   0.000000
 Sum of Mulliken charges =  -0.00000  -0.00000
 Mulliken charges and spin densities with hydrogens summed into heavy atoms:
               1          2
     1  Si   0.000000  -0.000000
     2  Si  -0.000000  -0.000000
 Electronic spatial extent (au):  <R**2>=            690.7798
 Charge=             -0.0000 electrons
 Dipole moment (field-independent basis, Debye):
    X=              0.0000    Y=              0.0000    Z=              0.0002  Tot=              0.0002
 Quadrupole moment (field-independent basis, Debye-Ang):
   XX=            -29.8173   YY=            -32.0127   ZZ=            -24.4726
   XY=              0.0001   XZ=             -0.0000   YZ=              0.0024
 Traceless Quadrupole moment (field-independent basis, Debye-Ang):
   XX=             -1.0498   YY=             -3.2451   ZZ=              4.2949
   XY=              0.0001   XZ=             -0.0000   YZ=              0.0024
 Octapole moment (field-independent basis, Debye-Ang**2):
  XXX=              0.0000  YYY=              0.0000  ZZZ=              0.0001  XYY=              0.0000
  XXY=              0.0000  XXZ=             -0.0048  XZZ=             -0.0000  YZZ=              0.0000
  YYZ=             -0.0004  XYZ=              0.0080
 Hexadecapole moment (field-independent basis, Debye-Ang**3):
 XXXX=          -1152.5038 YYYY=            -94.0929 ZZZZ=            -34.6835 XXXY=              0.0017
 XXXZ=             -0.0000 YYYX=              0.0007 YYYZ=              0.0095 ZZZX=             -0.0000
 ZZZY=              0.0091 XXYY=           -209.9274 XXZZ=           -139.0643 YYZZ=            -21.2757
 XXYZ=              0.0222 YYXZ=             -0.0000 ZZXY=              0.0002
 N-N= 5.017967513445D+01 E-N=-1.485057853729D+03  KE= 5.804627168182D+02
                          Isotropic Fermi Contact Couplings
        Atom                 a.u.       MegaHertz       Gauss      10(-4) cm-1
     1  Si(29)             0.00000      -0.00000      -0.00000      -0.00000
     2  Si(29)            -0.00000       0.00000       0.00000       0.00000
     3  H(1)              -0.00000      -0.00000      -0.00000      -0.00000
     4  H(1)              -0.00000      -0.00000      -0.00000      -0.00000
     5  H(1)              -0.00000      -0.00000      -0.00000      -0.00000
     6  H(1)               0.00000       0.00000       0.00000       0.00000
 --------------------------------------------------------
       Center         ----  Spin Dipole Couplings  ----
                      3XX-RR        3YY-RR        3ZZ-RR
 --------------------------------------------------------
     1   Atom        0.000000      0.000000      0.000000
     2   Atom        0.000000      0.000000      0.000000
     3   Atom        0.000000      0.000000      0.000000
     4   Atom        0.000000      0.000000      0.000000
     5   Atom        0.000000      0.000000      0.000000
     6   Atom        0.000000      0.000000      0.000000
 --------------------------------------------------------
                        XY            XZ            YZ
 --------------------------------------------------------
     1   Atom        0.000000      0.000000      0.000000
     2   Atom        0.000000      0.000000      0.000000
     3   Atom        0.000000      0.000000      0.000000
     4   Atom        0.000000      0.000000      0.000000
     5   Atom        0.000000      0.000000      0.000000
     6   Atom        0.000000      0.000000      0.000000
 --------------------------------------------------------


 ---------------------------------------------------------------------------------
              Anisotropic Spin Dipole Couplings in Principal Axis System
 ---------------------------------------------------------------------------------

       Atom             a.u.   MegaHertz   Gauss  10(-4) cm-1        Axes

              Baa     0.0000    -0.000    -0.000    -0.000  1.0000  0.0000  0.0000
     1 Si(29) Bbb     0.0000    -0.000    -0.000    -0.000 -0.0000  1.0000  0.0000
              Bcc     0.0000    -0.000    -0.000    -0.000  0.0000  0.0000  1.0000
 
              Baa     0.0000    -0.000    -0.000    -0.000  1.0000  0.0000  0.0000
     2 Si(29) Bbb     0.0000    -0.000    -0.000    -0.000 -0.0000  1.0000  0.0000
              Bcc     0.0000    -0.000    -0.000    -0.000  0.0000  0.0000  1.0000
 
              Baa     0.0000     0.000     0.000     0.000  1.0000  0.0000  0.0000
     3 H(1)   Bbb     0.0000     0.000     0.000     0.000 -0.0000  1.0000  0.0000
              Bcc     0.0000     0.000     0.000     0.000  0.0000  0.0000  1.0000
 
              Baa     0.0000     0.000     0.000     0.000  1.0000  0.0000  0.0000
     4 H(1)   Bbb     0.0000     0.000     0.000     0.000 -0.0000  1.0000  0.0000
              Bcc     0.0000     0.000     0.000     0.000  0.0000  0.0000  1.0000
 
              Baa     0.0000     0.000     0.000     0.000  1.0000  0.0000  0.0000
     5 H(1)   Bbb     0.0000     0.000     0.000     0.000 -0.0000  1.0000  0.0000
              Bcc     0.0000     0.000     0.000     0.000  0.0000  0.0000  1.0000
 
              Baa     0.0000     0.000     0.000     0.000  1.0000  0.0000  0.0000
     6 H(1)   Bbb     0.0000     0.000     0.000     0.000 -0.0000  1.0000  0.0000
              Bcc     0.0000     0.000     0.000     0.000  0.0000  0.0000  1.0000
 

 ---------------------------------------------------------------------------------

 No NMR shielding tensors so no spin-rotation constants.
 Leave Link  601 at Mon Apr 21 20:28:48 2025, MaxMem=   536870912 cpu:               1.6 elap:               0.4
 (Enter /home/szhao/Apps/g16/l701.exe)
 ... and contract with generalized density number  0.
 Compute integral first derivatives.
 Leave Link  701 at Mon Apr 21 20:28:49 2025, MaxMem=   536870912 cpu:               1.6 elap:               0.3
 (Enter /home/szhao/Apps/g16/l702.exe)
 L702 exits ... SP integral derivatives will be done elsewhere.
 Leave Link  702 at Mon Apr 21 20:28:50 2025, MaxMem=   536870912 cpu:               0.6 elap:               0.2
 (Enter /home/szhao/Apps/g16/l703.exe)
 Integral derivatives from FoFJK, PRISM(SPDF).
 Compute integral first derivatives, UseDBF=F ICtDFT=           0.
 Calling FoFJK, ICntrl=      2127 FMM=F ISym2X=0 I1Cent= 0 IOpClX= 1 NMat=1 NMatS=1 NMatT=0.
 FoFJK:  IHMeth= 1 ICntrl=    2127 DoSepK=F KAlg= 0 I1Cent=           0 FoldK=F
 IRaf=         0 NMat=       1 IRICut=       1 DoRegI=T DoRafI=F ISym2E= 0 IDoP0=0 IntGTp=1.
 FoFCou: FMM=F IPFlag=           0 FMFlag=      100000 FMFlg1=         800
         NFxFlg=           0 DoJE=F BraDBF=F KetDBF=F FulRan=T
         wScrn=  0.000000 ICntrl=      2127 IOpCl=  1 I1Cent=           0 NGrid=           0
         NMat0=    1 NMatS0=      1 NMatT0=    0 NMatD0=    1 NMtDS0=    0 NMtDT0=    0
 Symmetry not used in FoFCou.
 Leave Link  703 at Mon Apr 21 20:28:52 2025, MaxMem=   536870912 cpu:              19.6 elap:               2.6
 (Enter /home/szhao/Apps/g16/l716.exe)
 Dipole        = 5.36835779D-07 7.56995999D-08 7.90963332D-05
 -------------------------------------------------------------------
 Center     Atomic                   Forces (Hartrees/Bohr)
 Number     Number              X              Y              Z
 -------------------------------------------------------------------
      1       14          -0.000000000   -0.000000000   -0.000000000
      2       14          -0.000000000   -0.000000000   -0.000000000
      3        1          -0.027971880    0.000052734    0.000002661
      4        1           0.027971986   -0.000052540    0.000002746
      5        1          -0.027969412   -0.000056473    0.000002696
      6        1           0.027969498    0.000056309    0.000002609
 -------------------------------------------------------------------
 Cartesian Forces:  Max     0.027971986 RMS     0.013185537
 Leave Link  716 at Mon Apr 21 20:28:53 2025, MaxMem=   536870912 cpu:               1.2 elap:               0.3
 (Enter /home/szhao/Apps/g16/l103.exe)

 GradGradGradGradGradGradGradGradGradGradGradGradGradGradGradGradGradGrad
 Berny optimization.
 FormGI is forming the generalized inverse of G from B-inverse, IUseBI=4.
 Internal  Forces:  Max     0.055941484 RMS     0.025452322
 Search for a local minimum.
 Step number   1 out of a maximum of   30
 All quantities printed in internal units (Hartrees-Bohrs-Radians)
 RMS Force = .21872D-01 SwitMx=.10000D-02 MixMth= 1
 Mixed Optimization -- RFO/linear search
 Second derivative matrix not updated -- first step.
 The second derivative matrix:
                          X1        Y1        Z1        X2        Y2
           X1           0.50000
           Y1           0.00000   0.50000
           Z1           0.00000   0.00000   0.50000
           X2           0.00000   0.00000   0.00000   0.50000
           Y2           0.00000   0.00000   0.00000   0.00000   0.50000
           Z2           0.00000   0.00000   0.00000   0.00000   0.00000
           R1           0.00000   0.00000   0.00000   0.00000   0.00000
           R2           0.00000   0.00000   0.00000   0.00000   0.00000
           R3           0.00000   0.00000   0.00000   0.00000   0.00000
           R4           0.00000   0.00000   0.00000   0.00000   0.00000
           A1           0.00000   0.00000   0.00000   0.00000   0.00000
           A2           0.00000   0.00000   0.00000   0.00000   0.00000
           A3           0.00000   0.00000   0.00000   0.00000   0.00000
           A4           0.00000   0.00000   0.00000   0.00000   0.00000
           A5           0.00000   0.00000   0.00000   0.00000   0.00000
           A6           0.00000   0.00000   0.00000   0.00000   0.00000
           D1           0.00000   0.00000   0.00000   0.00000   0.00000
           D2           0.00000   0.00000   0.00000   0.00000   0.00000
           D3           0.00000   0.00000   0.00000   0.00000   0.00000
           D4           0.00000   0.00000   0.00000   0.00000   0.00000
                          Z2        R1        R2        R3        R4
           Z2           0.50000
           R1           0.00000   0.18116
           R2           0.00000   0.00000   0.18115
           R3           0.00000   0.00000   0.00000   0.18116
           R4           0.00000   0.00000   0.00000   0.00000   0.18115
           A1           0.00000   0.00000   0.00000   0.00000   0.00000
           A2           0.00000   0.00000   0.00000   0.00000   0.00000
           A3           0.00000   0.00000   0.00000   0.00000   0.00000
           A4           0.00000   0.00000   0.00000   0.00000   0.00000
           A5           0.00000   0.00000   0.00000   0.00000   0.00000
           A6           0.00000   0.00000   0.00000   0.00000   0.00000
           D1           0.00000   0.00000   0.00000   0.00000   0.00000
           D2           0.00000   0.00000   0.00000   0.00000   0.00000
           D3           0.00000   0.00000   0.00000   0.00000   0.00000
           D4           0.00000   0.00000   0.00000   0.00000   0.00000
                          A1        A2        A3        A4        A5
           A1           0.16000
           A2           0.00000   0.16000
           A3           0.00000   0.00000   0.16000
           A4           0.00000   0.00000   0.00000   0.16000
           A5           0.00000   0.00000   0.00000   0.00000   0.16000
           A6           0.00000   0.00000   0.00000   0.00000   0.00000
           D1           0.00000   0.00000   0.00000   0.00000   0.00000
           D2           0.00000   0.00000   0.00000   0.00000   0.00000
           D3           0.00000   0.00000   0.00000   0.00000   0.00000
           D4           0.00000   0.00000   0.00000   0.00000   0.00000
                          A6        D1        D2        D3        D4
           A6           0.16000
           D1           0.00000   0.00230
           D2           0.00000   0.00000   0.00230
           D3           0.00000   0.00000   0.00000   0.00230
           D4           0.00000   0.00000   0.00000   0.00000   0.00230
 ITU=  0
     Eigenvalues ---    0.00230   0.00230   0.00230   0.16000   0.16000
     Eigenvalues ---    0.16000   0.16000   0.18115   0.18115   0.18116
     Eigenvalues ---    0.181161000.000001000.000001000.000001000.00000
     Eigenvalues --- 1000.000001000.000001000.000001000.000001000.00000
 RFO step:  Lambda=-3.40684521D-02 EMin= 2.30000000D-03
 Linear search not attempted -- first point.
 Maximum step size (   0.300) exceeded in Quadratic search.
    -- Step size scaled by   0.720
 Iteration  1 RMS(Cart)=  0.10345255 RMS(Int)=  0.00421383
 Iteration  2 RMS(Cart)=  0.00472312 RMS(Int)=  0.00000578
 Iteration  3 RMS(Cart)=  0.00000870 RMS(Int)=  0.00000000
 Iteration  4 RMS(Cart)=  0.00000000 RMS(Int)=  0.00000000
 ITry= 1 IFail=0 DXMaxC= 2.17D-01 DCOld= 1.00D+10 DXMaxT= 3.00D-01 DXLimC= 3.00D+00 Rises=F
 Variable       Old X    -DE/DX   Delta X   Delta X   Delta X     New X
                                 (Linear)    (Quad)   (Total)
    X1       -4.13381  -0.05594   0.00000   0.00000   0.00000  -4.13381
    Y1        0.00000  -0.00000   0.00000   0.00000   0.00000   0.00000
    Z1        0.00000   0.00001   0.00000   0.00000   0.00000   0.00000
    X2        4.13381   0.05594   0.00000   0.00000   0.00000   4.13381
    Y2        0.00000   0.00000   0.00000   0.00000   0.00000   0.00000
    Z2        0.00000   0.00001   0.00000   0.00000   0.00000   0.00000
    R1        2.78324   0.01479   0.00000   0.04948   0.04948   2.83272
    R2        2.78326   0.01478   0.00000   0.04947   0.04947   2.83273
    R3        2.78324   0.01479   0.00000   0.04948   0.04948   2.83272
    R4        2.78326   0.01478   0.00000   0.04947   0.04947   2.83273
    A1        2.12963   0.02203   0.00000   0.08176   0.08176   2.21139
    A2        2.12964   0.02203   0.00000   0.08176   0.08176   2.21139
    A3        2.02391  -0.04406   0.00000  -0.16351  -0.16351   1.86040
    A4        2.12963   0.02203   0.00000   0.08176   0.08176   2.21139
    A5        2.12964   0.02203   0.00000   0.08176   0.08176   2.21139
    A6        2.02391  -0.04406   0.00000  -0.16351  -0.16351   1.86040
    D1        3.14097   0.00000   0.00000   0.00005   0.00005   3.14101
    D2       -0.00074   0.00000   0.00000   0.00000   0.00000  -0.00074
    D3       -0.00074   0.00000   0.00000   0.00000   0.00000  -0.00074
    D4        3.14074  -0.00000   0.00000  -0.00005  -0.00005   3.14069
         Item               Value     Threshold  Converged?
 Maximum Force            0.044058     0.000450     NO 
 RMS     Force            0.021872     0.000300     NO 
 Maximum Displacement     0.217361     0.001800     NO 
 RMS     Displacement     0.104992     0.001200     NO 
 Predicted change in Energy=-1.723419D-02
 Lowest energy point so far.  Saving SCF results.
 GradGradGradGradGradGradGradGradGradGradGradGradGradGradGradGradGradGrad

 Leave Link  103 at Mon Apr 21 20:28:53 2025, MaxMem=   536870912 cpu:               0.8 elap:               0.2
 (Enter /home/szhao/Apps/g16/l202.exe)
                          Input orientation:                          
 ---------------------------------------------------------------------
 Center     Atomic      Atomic             Coordinates (Angstroms)
 Number     Number       Type             X           Y           Z
 ---------------------------------------------------------------------
      1         14           0       -2.187518    0.000000    0.000000
      2         14           0        2.187518    0.000000    0.000000
      3          1           0       -3.083434   -1.201820    0.000010
      4          1           0        3.083434    1.201819   -0.000708
      5          1           0       -3.083442    1.201820    0.000182
      6          1           0        3.083442   -1.201819    0.000900
 ---------------------------------------------------------------------
                    Distance matrix (angstroms):
                    1          2          3          4          5
     1  Si   0.000000
     2  Si   4.375036   0.000000
     3  H    1.499012   5.406229   0.000000
     4  H    5.406229   1.499012   6.618742   0.000000
     5  H    1.499017   5.406236   2.403640   6.166876   0.000000
     6  H    5.406236   1.499016   6.166876   2.403639   6.618756
                    6
     6  H    0.000000
 Symmetry turned off by external request.
 Stoichiometry    H4Si2
 Framework group  C1[X(H4Si2)]
 Deg. of freedom    12
 Full point group                 C1      NOp   1
 Rotational constants (GHZ):          86.7947431           1.6511321           1.6203083
 Leave Link  202 at Mon Apr 21 20:28:54 2025, MaxMem=   536870912 cpu:               0.8 elap:               0.2
 (Enter /home/szhao/Apps/g16/l301.exe)
 Standard basis: 6-311+G(d,p) (5D, 7F)
 Ernie: Thresh=  0.10000D-02 Tol=  0.10000D-05 Strict=F.
    84 basis functions,   132 primitive gaussians,    86 cartesian basis functions
    16 alpha electrons       16 beta electrons
       nuclear repulsion energy        49.7291584548 Hartrees.
 IExCor= 4336 DFT=T Ex+Corr=M062X ExCW=0 ScaHFX=  0.540000
 ScaDFX=  1.000000  1.000000  1.000000  1.000000 ScalE2=  1.000000  1.000000
 IRadAn=      7 IRanWt=     -1 IRanGd=            0 ICorTp=0 IEmpDi=  4
 NAtoms=    6 NActive=    6 NUniq=    6 SFac= 1.00D+00 NAtFMM=   60 NAOKFM=F Big=F
 Integral buffers will be    131072 words long.
 Raffenetti 2 integral format.
 Two-electron integral symmetry is turned off.
 Leave Link  301 at Mon Apr 21 20:28:54 2025, MaxMem=   536870912 cpu:               0.8 elap:               0.2
 (Enter /home/szhao/Apps/g16/l302.exe)
 NPDir=0 NMtPBC=     1 NCelOv=     1 NCel=       1 NClECP=     1 NCelD=      1
         NCelK=      1 NCelE2=     1 NClLst=     1 CellRange=     0.0.
 One-electron integrals computed using PRISM.
 NBasis=    84 RedAO= T EigKep=  1.26D-02  NBF=    84
 NBsUse=    84 1.00D-06 EigRej= -1.00D+00 NBFU=    84
 Precomputing XC quadrature grid using
 IXCGrd= 4 IRadAn=           7 IRanWt=          -1 IRanGd=           0 AccXCQ= 0.00D+00.
 Generated NRdTot=       0 NPtTot=           0 NUsed=           0 NTot=          32
 NSgBfM=    76    76    76    76    76 MxSgAt=     6 MxSgA2=     6.
 Leave Link  302 at Mon Apr 21 20:28:54 2025, MaxMem=   536870912 cpu:               2.8 elap:               0.5
 (Enter /home/szhao/Apps/g16/l303.exe)
 DipDrv:  MaxL=1.
 Leave Link  303 at Mon Apr 21 20:28:55 2025, MaxMem=   536870912 cpu:               0.9 elap:               0.1
 (Enter /home/szhao/Apps/g16/l401.exe)
 Initial guess from the checkpoint file:  "opt.chk"
 B after Tr=     0.000000    0.000000    0.000006
         Rot=    1.000000   -0.000007   -0.000000   -0.000000 Ang=  -0.00 deg.
 Guess basis will be translated and rotated to current coordinates.
 JPrj=2 DoOrth=T DoCkMO=T.
 Initial guess <Sx>= 0.0000 <Sy>= 0.0000 <Sz>= 0.0000 <S**2>=-0.0000 S=-0.0000
 Generating alternative initial guess.
 ExpMin= 3.31D-02 ExpMax= 6.94D+04 ExpMxC= 2.33D+03 IAcc=3 IRadAn=         5 AccDes= 0.00D+00
 Harris functional with IExCor= 1009 and IRadAn=       5 diagonalized for initial guess.
 HarFok:  IExCor= 1009 AccDes= 0.00D+00 IRadAn=         5 IDoV= 1 UseB2=F ITyADJ=14
 ICtDFT=  3500011 ScaDFX=  1.000000  1.000000  1.000000  1.000000
 FoFCou: FMM=F IPFlag=           0 FMFlag=      100000 FMFlg1=           0
         NFxFlg=           0 DoJE=T BraDBF=F KetDBF=T FulRan=T
         wScrn=  0.000000 ICntrl=       500 IOpCl=  0 I1Cent=   200000004 NGrid=           0
         NMat0=    1 NMatS0=      1 NMatT0=    0 NMatD0=    1 NMtDS0=    0 NMtDT0=    0
 Symmetry not used in FoFCou.
 Harris En= -580.851184776505    
 Leave Link  401 at Mon Apr 21 20:28:55 2025, MaxMem=   536870912 cpu:               3.5 elap:               0.5
 (Enter /home/szhao/Apps/g16/l502.exe)
 Keep R1 and R2 ints in memory in canonical form, NReq=20057634.
 FoFCou: FMM=F IPFlag=           0 FMFlag=           0 FMFlg1=           0
         NFxFlg=           0 DoJE=F BraDBF=F KetDBF=F FulRan=T
         wScrn=  0.000000 ICntrl=       600 IOpCl=  0 I1Cent=           0 NGrid=           0
         NMat0=    1 NMatS0=   3570 NMatT0=    0 NMatD0=    1 NMtDS0=    0 NMtDT0=    0
 Symmetry not used in FoFCou.
 Two-electron integral symmetry not used.
 UHF open shell SCF:
 Using DIIS extrapolation, IDIIS=  1040.
 NGot=   536870912 LenX=   524106186 LenY=   524098349
 Requested convergence on RMS density matrix=1.00D-08 within 128 cycles.
 Requested convergence on MAX density matrix=1.00D-06.
 Requested convergence on             energy=1.00D-06.
 No special actions if energy rises.

 Cycle   1  Pass 1  IDiag  1:
 E= -581.159846748486    
 DIIS: error= 3.92D-03 at cycle   1 NSaved=   1.
 NSaved= 1 IEnMin= 1 EnMin= -581.159846748486     IErMin= 1 ErrMin= 3.92D-03
 ErrMax= 3.92D-03  0.00D+00 EMaxC= 1.00D-01 BMatC= 3.50D-03 BMatP= 3.50D-03
 IDIUse=3 WtCom= 9.61D-01 WtEn= 3.92D-02
 Coeff-Com:  0.100D+01
 Coeff-En:   0.100D+01
 Coeff:      0.100D+01
 Gap=     0.473 Goal=   None    Shift=    0.000
 Gap=     0.473 Goal=   None    Shift=    0.000
 GapD=    0.473 DampG=2.000 DampE=1.000 DampFc=2.0000 IDamp=-1.
 RMSDP=5.31D-04 MaxDP=5.55D-03              OVMax= 1.54D-02

 Cycle   2  Pass 1  IDiag  1:
 E= -581.161259030794     Delta-E=       -0.001412282308 Rises=F Damp=F
 DIIS: error= 4.72D-04 at cycle   2 NSaved=   2.
 NSaved= 2 IEnMin= 2 EnMin= -581.161259030794     IErMin= 2 ErrMin= 4.72D-04
 ErrMax= 4.72D-04  0.00D+00 EMaxC= 1.00D-01 BMatC= 8.62D-05 BMatP= 3.50D-03
 IDIUse=3 WtCom= 9.95D-01 WtEn= 4.72D-03
 Coeff-Com: -0.533D-01 0.105D+01
 Coeff-En:   0.000D+00 0.100D+01
 Coeff:     -0.530D-01 0.105D+01
 Gap=     0.164 Goal=   None    Shift=    0.000
 Gap=     0.164 Goal=   None    Shift=    0.000
 RMSDP=1.67D-04 MaxDP=4.37D-03 DE=-1.41D-03 OVMax= 3.79D-03

 Cycle   3  Pass 1  IDiag  1:
 E= -581.161311902287     Delta-E=       -0.000052871493 Rises=F Damp=F
 DIIS: error= 1.66D-04 at cycle   3 NSaved=   3.
 NSaved= 3 IEnMin= 3 EnMin= -581.161311902287     IErMin= 3 ErrMin= 1.66D-04
 ErrMax= 1.66D-04  0.00D+00 EMaxC= 1.00D-01 BMatC= 1.13D-05 BMatP= 8.62D-05
 IDIUse=3 WtCom= 9.98D-01 WtEn= 1.66D-03
 Coeff-Com: -0.305D-01 0.225D+00 0.805D+00
 Coeff-En:   0.000D+00 0.000D+00 0.100D+01
 Coeff:     -0.304D-01 0.225D+00 0.806D+00
 Gap=     0.164 Goal=   None    Shift=    0.000
 Gap=     0.164 Goal=   None    Shift=    0.000
 RMSDP=3.76D-05 MaxDP=5.30D-04 DE=-5.29D-05 OVMax= 9.75D-04

 Cycle   4  Pass 1  IDiag  1:
 E= -581.161315157905     Delta-E=       -0.000003255619 Rises=F Damp=F
 DIIS: error= 3.61D-05 at cycle   4 NSaved=   4.
 NSaved= 4 IEnMin= 4 EnMin= -581.161315157905     IErMin= 4 ErrMin= 3.61D-05
 ErrMax= 3.61D-05  0.00D+00 EMaxC= 1.00D-01 BMatC= 4.36D-07 BMatP= 1.13D-05
 IDIUse=1 WtCom= 1.00D+00 WtEn= 0.00D+00
 Coeff-Com:  0.204D-02-0.617D-01 0.415D-01 0.102D+01
 Coeff:      0.204D-02-0.617D-01 0.415D-01 0.102D+01
 Gap=     0.164 Goal=   None    Shift=    0.000
 Gap=     0.164 Goal=   None    Shift=    0.000
 RMSDP=1.90D-05 MaxDP=5.21D-04 DE=-3.26D-06 OVMax= 3.43D-04

 Cycle   5  Pass 1  IDiag  1:
 E= -581.161315396858     Delta-E=       -0.000000238953 Rises=F Damp=F
 DIIS: error= 6.66D-06 at cycle   5 NSaved=   5.
 NSaved= 5 IEnMin= 5 EnMin= -581.161315396858     IErMin= 5 ErrMin= 6.66D-06
 ErrMax= 6.66D-06  0.00D+00 EMaxC= 1.00D-01 BMatC= 6.89D-09 BMatP= 4.36D-07
 IDIUse=1 WtCom= 1.00D+00 WtEn= 0.00D+00
 Coeff-Com:  0.931D-03-0.110D-01-0.490D-02 0.610D-01 0.954D+00
 Coeff:      0.931D-03-0.110D-01-0.490D-02 0.610D-01 0.954D+00
 Gap=     0.164 Goal=   None    Shift=    0.000
 Gap=     0.164 Goal=   None    Shift=    0.000
 RMSDP=3.53D-06 MaxDP=1.04D-04 DE=-2.39D-07 OVMax= 5.13D-05

 Cycle   6  Pass 1  IDiag  1:
 E= -581.161315402238     Delta-E=       -0.000000005380 Rises=F Damp=F
 DIIS: error= 1.09D-06 at cycle   6 NSaved=   6.
 NSaved= 6 IEnMin= 6 EnMin= -581.161315402238     IErMin= 6 ErrMin= 1.09D-06
 ErrMax= 1.09D-06  0.00D+00 EMaxC= 1.00D-01 BMatC= 2.81D-10 BMatP= 6.89D-09
 IDIUse=1 WtCom= 1.00D+00 WtEn= 0.00D+00
 Coeff-Com: -0.131D-03 0.296D-02-0.260D-02-0.371D-01-0.898D-03 0.104D+01
 Coeff:     -0.131D-03 0.296D-02-0.260D-02-0.371D-01-0.898D-03 0.104D+01
 Gap=     0.164 Goal=   None    Shift=    0.000
 Gap=     0.164 Goal=   None    Shift=    0.000
 RMSDP=8.01D-07 MaxDP=2.06D-05 DE=-5.38D-09 OVMax= 1.10D-05

 Cycle   7  Pass 1  IDiag  1:
 E= -581.161315402459     Delta-E=       -0.000000000221 Rises=F Damp=F
 DIIS: error= 1.52D-07 at cycle   7 NSaved=   7.
 NSaved= 7 IEnMin= 7 EnMin= -581.161315402459     IErMin= 7 ErrMin= 1.52D-07
 ErrMax= 1.52D-07  0.00D+00 EMaxC= 1.00D-01 BMatC= 4.82D-12 BMatP= 2.81D-10
 IDIUse=1 WtCom= 1.00D+00 WtEn= 0.00D+00
 Coeff-Com: -0.201D-05-0.114D-03 0.247D-03 0.224D-02-0.111D-01-0.173D+00
 Coeff-Com:  0.118D+01
 Coeff:     -0.201D-05-0.114D-03 0.247D-03 0.224D-02-0.111D-01-0.173D+00
 Coeff:      0.118D+01
 Gap=     0.164 Goal=   None    Shift=    0.000
 Gap=     0.164 Goal=   None    Shift=    0.000
 RMSDP=1.48D-07 MaxDP=4.09D-06 DE=-2.21D-10 OVMax= 2.16D-06

 Cycle   8  Pass 1  IDiag  1:
 E= -581.161315402465     Delta-E=       -0.000000000007 Rises=F Damp=F
 DIIS: error= 1.22D-08 at cycle   8 NSaved=   8.
 NSaved= 8 IEnMin= 8 EnMin= -581.161315402465     IErMin= 8 ErrMin= 1.22D-08
 ErrMax= 1.22D-08  0.00D+00 EMaxC= 1.00D-01 BMatC= 4.68D-14 BMatP= 4.82D-12
 IDIUse=1 WtCom= 1.00D+00 WtEn= 0.00D+00
 Coeff-Com:  0.187D-05-0.236D-04-0.119D-04 0.323D-03 0.124D-02 0.171D-02
 Coeff-Com: -0.781D-01 0.107D+01
 Coeff:      0.187D-05-0.236D-04-0.119D-04 0.323D-03 0.124D-02 0.171D-02
 Coeff:     -0.781D-01 0.107D+01
 Gap=     0.164 Goal=   None    Shift=    0.000
 Gap=     0.164 Goal=   None    Shift=    0.000
 RMSDP=4.35D-09 MaxDP=9.84D-08 DE=-6.59D-12 OVMax= 1.34D-07

 SCF Done:  E(UM062X) =  -581.161315402     A.U. after    8 cycles
            NFock=  8  Conv=0.43D-08     -V/T= 2.0013
 <Sx>= 0.0000 <Sy>= 0.0000 <Sz>= 0.0000 <S**2>=-0.0000 S=-0.0000
 <L.S>=  0.00000000000    
 KE= 5.803808681883D+02 PE=-1.484046519431D+03 EE= 2.727751773853D+02
 Annihilation of the first spin contaminant:
 S**2 before annihilation    -0.0000,   after    -0.0000
 Leave Link  502 at Mon Apr 21 20:29:05 2025, MaxMem=   536870912 cpu:              72.5 elap:               9.4
 (Enter /home/szhao/Apps/g16/l701.exe)
 ... and contract with generalized density number  0.
 Compute integral first derivatives.
 Leave Link  701 at Mon Apr 21 20:29:06 2025, MaxMem=   536870912 cpu:               2.3 elap:               0.4
 (Enter /home/szhao/Apps/g16/l702.exe)
 L702 exits ... SP integral derivatives will be done elsewhere.
 Leave Link  702 at Mon Apr 21 20:29:06 2025, MaxMem=   536870912 cpu:               0.5 elap:               0.1
 (Enter /home/szhao/Apps/g16/l703.exe)
 Integral derivatives from FoFJK, PRISM(SPDF).
 Compute integral first derivatives, UseDBF=F ICtDFT=           0.
 Calling FoFJK, ICntrl=      2127 FMM=F ISym2X=0 I1Cent= 0 IOpClX= 1 NMat=1 NMatS=1 NMatT=0.
 FoFJK:  IHMeth= 1 ICntrl=    2127 DoSepK=F KAlg= 0 I1Cent=           0 FoldK=F
 IRaf=         0 NMat=       1 IRICut=       1 DoRegI=T DoRafI=F ISym2E= 0 IDoP0=0 IntGTp=1.
 FoFCou: FMM=F IPFlag=           0 FMFlag=      100000 FMFlg1=         800
         NFxFlg=           0 DoJE=F BraDBF=F KetDBF=F FulRan=T
         wScrn=  0.000000 ICntrl=      2127 IOpCl=  1 I1Cent=           0 NGrid=           0
         NMat0=    1 NMatS0=      1 NMatT0=    0 NMatD0=    1 NMtDS0=    0 NMtDT0=    0
 Symmetry not used in FoFCou.
 Leave Link  703 at Mon Apr 21 20:29:08 2025, MaxMem=   536870912 cpu:              15.5 elap:               2.1
 (Enter /home/szhao/Apps/g16/l716.exe)
 Dipole        = 1.60425542D-07 3.71800746D-08 5.92754366D-05
 -------------------------------------------------------------------
 Center     Atomic                   Forces (Hartrees/Bohr)
 Number     Number              X              Y              Z
 -------------------------------------------------------------------
      1       14          -0.000000000   -0.000000000   -0.000000000
      2       14          -0.000000000   -0.000000000   -0.000000000
      3        1          -0.015549432    0.004398489    0.000002057
      4        1           0.015549472   -0.004398414    0.000004774
      5        1          -0.015548467   -0.004399767    0.000001469
      6        1           0.015548499    0.004399703   -0.000001249
 -------------------------------------------------------------------
 Cartesian Forces:  Max     0.015549472 RMS     0.007617559
 Leave Link  716 at Mon Apr 21 20:29:09 2025, MaxMem=   536870912 cpu:               1.0 elap:               0.3
 (Enter /home/szhao/Apps/g16/l103.exe)

 GradGradGradGradGradGradGradGradGradGradGradGradGradGradGradGradGradGrad
 Berny optimization.
 Using GEDIIS/GDIIS optimizer.
 FormGI is forming the generalized inverse of G from B-inverse, IUseBI=4.
 Internal  Forces:  Max     0.031097971 RMS     0.015008661
 Search for a local minimum.
 Step number   2 out of a maximum of   30
 All quantities printed in internal units (Hartrees-Bohrs-Radians)
 RMS Force = .13552D-01 SwitMx=.10000D-02 MixMth= 1
 Mixed Optimization -- RFO/linear search
 Update second derivatives using D2CorX and points    1    2
 DE= -1.99D-02 DEPred=-1.72D-02 R= 1.15D+00
 TightC=F SS=  1.41D+00  RLast= 3.00D-01 DXNew= 5.0454D-01 9.0000D-01
 Trust test= 1.15D+00 RLast= 3.00D-01 DXMaxT set to 5.05D-01
 The second derivative matrix:
                          X1        Y1        Z1        X2        Y2
           X1           0.56557
           Y1           0.00001   0.50000
           Z1          -0.00000  -0.00000   0.50000
           X2          -0.06557  -0.00001   0.00000   0.56557
           Y2          -0.00001  -0.00000   0.00000   0.00001   0.50000
           Z2          -0.00000  -0.00000   0.00000   0.00000   0.00000
           R1          -0.02380  -0.00000   0.00000   0.02380   0.00000
           R2          -0.02380  -0.00000   0.00000   0.02380   0.00000
           R3          -0.02380  -0.00000   0.00000   0.02381   0.00000
           R4          -0.02380  -0.00000   0.00000   0.02380   0.00000
           A1          -0.02052  -0.00000   0.00000   0.02052   0.00000
           A2          -0.02052  -0.00000   0.00000   0.02052   0.00000
           A3           0.04104   0.00000  -0.00000  -0.04104  -0.00000
           A4          -0.02052  -0.00000   0.00000   0.02052   0.00000
           A5          -0.02052  -0.00000   0.00000   0.02052   0.00000
           A6           0.04104   0.00000  -0.00000  -0.04104  -0.00000
           D1          -0.00000  -0.00000   0.00000   0.00000   0.00000
           D2           0.00000   0.00000  -0.00000  -0.00000  -0.00000
           D3           0.00000   0.00000  -0.00000  -0.00000  -0.00000
           D4           0.00000   0.00000  -0.00000  -0.00000  -0.00000
                          Z2        R1        R2        R3        R4
           Z2           0.50000
           R1           0.00000   0.18430
           R2           0.00000   0.00314   0.18429
           R3           0.00000   0.00314   0.00314   0.18430
           R4           0.00000   0.00314   0.00314   0.00314   0.18429
           A1           0.00000  -0.00058  -0.00058  -0.00058  -0.00058
           A2           0.00000  -0.00058  -0.00058  -0.00058  -0.00058
           A3          -0.00000   0.00115   0.00115   0.00115   0.00115
           A4           0.00000  -0.00058  -0.00058  -0.00058  -0.00058
           A5           0.00000  -0.00058  -0.00058  -0.00058  -0.00058
           A6          -0.00000   0.00115   0.00115   0.00115   0.00115
           D1           0.00000   0.00000   0.00000   0.00000   0.00000
           D2          -0.00000  -0.00000  -0.00000  -0.00000  -0.00000
           D3          -0.00000  -0.00000  -0.00000  -0.00000  -0.00000
           D4          -0.00000  -0.00000  -0.00000  -0.00000  -0.00000
                          A1        A2        A3        A4        A5
           A1           0.15471
           A2          -0.00529   0.15471
           A3           0.01058   0.01058   0.13883
           A4          -0.00529  -0.00529   0.01058   0.15471
           A5          -0.00529  -0.00529   0.01058  -0.00529   0.15471
           A6           0.01058   0.01058  -0.02117   0.01058   0.01058
           D1           0.00000   0.00000  -0.00000   0.00000   0.00000
           D2          -0.00000  -0.00000   0.00000  -0.00000  -0.00000
           D3          -0.00000  -0.00000   0.00000  -0.00000  -0.00000
           D4          -0.00000  -0.00000   0.00000  -0.00000  -0.00000
                          A6        D1        D2        D3        D4
           A6           0.13883
           D1          -0.00000   0.00230
           D2           0.00000  -0.00000   0.00230
           D3           0.00000  -0.00000   0.00000   0.00230
           D4           0.00000  -0.00000   0.00000   0.00000   0.00230
 ITU=  1  0
 Use linear search instead of GDIIS.
     Eigenvalues ---    0.00230   0.00230   0.00230   0.09633   0.16000
     Eigenvalues ---    0.16000   0.16000   0.18115   0.18115   0.18116
     Eigenvalues ---    0.193881000.000001000.000001000.000001000.00000
     Eigenvalues --- 1000.000001000.000001000.000001000.000001000.00000
 RFO step:  Lambda=-1.73018084D-03 EMin= 2.30000000D-03
 Quartic linear search produced a step of  1.50514.
 Iteration  1 RMS(Cart)=  0.14281545 RMS(Int)=  0.02355932
 Iteration  2 RMS(Cart)=  0.03783081 RMS(Int)=  0.00055013
 Iteration  3 RMS(Cart)=  0.00057551 RMS(Int)=  0.00000006
 Iteration  4 RMS(Cart)=  0.00000009 RMS(Int)=  0.00000000
 ITry= 1 IFail=0 DXMaxC= 3.21D-01 DCOld= 1.00D+10 DXMaxT= 5.05D-01 DXLimC= 3.00D+00 Rises=F
 Variable       Old X    -DE/DX   Delta X   Delta X   Delta X     New X
                                 (Linear)    (Quad)   (Total)
    X1       -4.13381  -0.03110   0.00000   0.00000   0.00000  -4.13381
    Y1        0.00000  -0.00000   0.00000   0.00000   0.00000   0.00000
    Z1        0.00000   0.00000   0.00000   0.00000   0.00000   0.00000
    X2        4.13381   0.03110   0.00000   0.00000   0.00000   4.13381
    Y2        0.00000   0.00000   0.00000   0.00000   0.00000   0.00000
    Z2        0.00000   0.00000   0.00000   0.00000   0.00000   0.00000
    R1        2.83272   0.00577   0.07448  -0.04207   0.03240   2.86513
    R2        2.83273   0.00577   0.07446  -0.04206   0.03240   2.86513
    R3        2.83272   0.00577   0.07448  -0.04207   0.03241   2.86513
    R4        2.83273   0.00577   0.07446  -0.04206   0.03240   2.86513
    A1        2.21139   0.01425   0.12305   0.01612   0.13918   2.35057
    A2        2.21139   0.01425   0.12306   0.01612   0.13918   2.35057
    A3        1.86040  -0.02851  -0.24611  -0.03225  -0.27836   1.58204
    A4        2.21139   0.01425   0.12305   0.01612   0.13918   2.35057
    A5        2.21139   0.01425   0.12306   0.01612   0.13918   2.35057
    A6        1.86040  -0.02851  -0.24611  -0.03225  -0.27836   1.58204
    D1        3.14101   0.00000   0.00007   0.00011   0.00018   3.14119
    D2       -0.00074   0.00000   0.00000   0.00001   0.00001  -0.00073
    D3       -0.00074   0.00000   0.00000   0.00001   0.00001  -0.00073
    D4        3.14069  -0.00000  -0.00007  -0.00009  -0.00015   3.14054
         Item               Value     Threshold  Converged?
 Maximum Force            0.028508     0.000450     NO 
 RMS     Force            0.013552     0.000300     NO 
 Maximum Displacement     0.321483     0.001800     NO 
 RMS     Displacement     0.177770     0.001200     NO 
 Predicted change in Energy=-1.305584D-02
 Lowest energy point so far.  Saving SCF results.
 GradGradGradGradGradGradGradGradGradGradGradGradGradGradGradGradGradGrad

 Leave Link  103 at Mon Apr 21 20:29:09 2025, MaxMem=   536870912 cpu:               2.2 elap:               0.5
 (Enter /home/szhao/Apps/g16/l202.exe)
                          Input orientation:                          
 ---------------------------------------------------------------------
 Center     Atomic      Atomic             Coordinates (Angstroms)
 Number     Number       Type             X           Y           Z
 ---------------------------------------------------------------------
      1         14           0       -2.187518    0.000000    0.000000
      2         14           0        2.187518    0.000000    0.000000
      3          1           0       -3.253556   -1.078102    0.000076
      4          1           0        3.253556    1.078102   -0.000505
      5          1           0       -3.253561    1.078098    0.000278
      6          1           0        3.253561   -1.078098    0.000859
 ---------------------------------------------------------------------
                    Distance matrix (angstroms):
                    1          2          3          4          5
     1  Si   0.000000
     2  Si   4.375036   0.000000
     3  H    1.516160   5.546854   0.000000
     4  H    5.546854   1.516160   6.855051   0.000000
     5  H    1.516161   5.546858   2.156200   6.507117   0.000000
     6  H    5.546858   1.516161   6.507117   2.156200   6.855058
                    6
     6  H    0.000000
 Symmetry turned off by external request.
 Stoichiometry    H4Si2
 Framework group  C1[X(H4Si2)]
 Deg. of freedom    12
 Full point group                 C1      NOp   1
 Rotational constants (GHZ):         107.8583957           1.6280163           1.6038084
 Leave Link  202 at Mon Apr 21 20:29:10 2025, MaxMem=   536870912 cpu:               0.2 elap:               0.1
 (Enter /home/szhao/Apps/g16/l301.exe)
 Standard basis: 6-311+G(d,p) (5D, 7F)
 Ernie: Thresh=  0.10000D-02 Tol=  0.10000D-05 Strict=F.
    84 basis functions,   132 primitive gaussians,    86 cartesian basis functions
    16 alpha electrons       16 beta electrons
       nuclear repulsion energy        49.4026706510 Hartrees.
 IExCor= 4336 DFT=T Ex+Corr=M062X ExCW=0 ScaHFX=  0.540000
 ScaDFX=  1.000000  1.000000  1.000000  1.000000 ScalE2=  1.000000  1.000000
 IRadAn=      7 IRanWt=     -1 IRanGd=            0 ICorTp=0 IEmpDi=  4
 NAtoms=    6 NActive=    6 NUniq=    6 SFac= 1.00D+00 NAtFMM=   60 NAOKFM=F Big=F
 Integral buffers will be    131072 words long.
 Raffenetti 2 integral format.
 Two-electron integral symmetry is turned off.
 Leave Link  301 at Mon Apr 21 20:29:10 2025, MaxMem=   536870912 cpu:               1.0 elap:               0.2
 (Enter /home/szhao/Apps/g16/l302.exe)
 NPDir=0 NMtPBC=     1 NCelOv=     1 NCel=       1 NClECP=     1 NCelD=      1
         NCelK=      1 NCelE2=     1 NClLst=     1 CellRange=     0.0.
 One-electron integrals computed using PRISM.
 NBasis=    84 RedAO= T EigKep=  1.15D-02  NBF=    84
 NBsUse=    84 1.00D-06 EigRej= -1.00D+00 NBFU=    84
 Precomputing XC quadrature grid using
 IXCGrd= 4 IRadAn=           7 IRanWt=          -1 IRanGd=           0 AccXCQ= 0.00D+00.
 Generated NRdTot=       0 NPtTot=           0 NUsed=           0 NTot=          32
 NSgBfM=    76    76    76    76    76 MxSgAt=     6 MxSgA2=     6.
 Leave Link  302 at Mon Apr 21 20:29:10 2025, MaxMem=   536870912 cpu:               1.8 elap:               0.4
 (Enter /home/szhao/Apps/g16/l303.exe)
 DipDrv:  MaxL=1.
 Leave Link  303 at Mon Apr 21 20:29:11 2025, MaxMem=   536870912 cpu:               0.7 elap:               0.2
 (Enter /home/szhao/Apps/g16/l401.exe)
 Initial guess from the checkpoint file:  "opt.chk"
 B after Tr=    -0.000000    0.000000    0.000019
         Rot=    1.000000   -0.000015   -0.000000   -0.000000 Ang=  -0.00 deg.
 Guess basis will be translated and rotated to current coordinates.
 JPrj=2 DoOrth=T DoCkMO=T.
 Initial guess <Sx>= 0.0000 <Sy>= 0.0000 <Sz>= 0.0000 <S**2>=-0.0000 S=-0.0000
 Generating alternative initial guess.
 ExpMin= 3.31D-02 ExpMax= 6.94D+04 ExpMxC= 2.33D+03 IAcc=3 IRadAn=         5 AccDes= 0.00D+00
 Harris functional with IExCor= 1009 and IRadAn=       5 diagonalized for initial guess.
 HarFok:  IExCor= 1009 AccDes= 0.00D+00 IRadAn=         5 IDoV= 1 UseB2=F ITyADJ=14
 ICtDFT=  3500011 ScaDFX=  1.000000  1.000000  1.000000  1.000000
 FoFCou: FMM=F IPFlag=           0 FMFlag=      100000 FMFlg1=           0
         NFxFlg=           0 DoJE=T BraDBF=F KetDBF=T FulRan=T
         wScrn=  0.000000 ICntrl=       500 IOpCl=  0 I1Cent=   200000004 NGrid=           0
         NMat0=    1 NMatS0=      1 NMatT0=    0 NMatD0=    1 NMtDS0=    0 NMtDT0=    0
 Symmetry not used in FoFCou.
 Harris En= -580.866133946209    
 Leave Link  401 at Mon Apr 21 20:29:12 2025, MaxMem=   536870912 cpu:               4.0 elap:               0.6
 (Enter /home/szhao/Apps/g16/l502.exe)
 Keep R1 and R2 ints in memory in canonical form, NReq=20057634.
 FoFCou: FMM=F IPFlag=           0 FMFlag=           0 FMFlg1=           0
         NFxFlg=           0 DoJE=F BraDBF=F KetDBF=F FulRan=T
         wScrn=  0.000000 ICntrl=       600 IOpCl=  0 I1Cent=           0 NGrid=           0
         NMat0=    1 NMatS0=   3570 NMatT0=    0 NMatD0=    1 NMtDS0=    0 NMtDT0=    0
 Symmetry not used in FoFCou.
 Two-electron integral symmetry not used.
 UHF open shell SCF:
 Using DIIS extrapolation, IDIIS=  1040.
 NGot=   536870912 LenX=   524106186 LenY=   524098349
 Requested convergence on RMS density matrix=1.00D-08 within 128 cycles.
 Requested convergence on MAX density matrix=1.00D-06.
 Requested convergence on             energy=1.00D-06.
 No special actions if energy rises.

 Cycle   1  Pass 1  IDiag  1:
 E= -581.169920693136    
 DIIS: error= 5.78D-03 at cycle   1 NSaved=   1.
 NSaved= 1 IEnMin= 1 EnMin= -581.169920693136     IErMin= 1 ErrMin= 5.78D-03
 ErrMax= 5.78D-03  0.00D+00 EMaxC= 1.00D-01 BMatC= 8.37D-03 BMatP= 8.37D-03
 IDIUse=3 WtCom= 9.42D-01 WtEn= 5.78D-02
 Coeff-Com:  0.100D+01
 Coeff-En:   0.100D+01
 Coeff:      0.100D+01
 Gap=     0.489 Goal=   None    Shift=    0.000
 Gap=     0.489 Goal=   None    Shift=    0.000
 GapD=    0.489 DampG=2.000 DampE=1.000 DampFc=2.0000 IDamp=-1.
 RMSDP=7.35D-04 MaxDP=7.80D-03              OVMax= 2.22D-02

 Cycle   2  Pass 1  IDiag  1:
 E= -581.173463442482     Delta-E=       -0.003542749347 Rises=F Damp=F
 DIIS: error= 7.19D-04 at cycle   2 NSaved=   2.
 NSaved= 2 IEnMin= 2 EnMin= -581.173463442482     IErMin= 2 ErrMin= 7.19D-04
 ErrMax= 7.19D-04  0.00D+00 EMaxC= 1.00D-01 BMatC= 1.97D-04 BMatP= 8.37D-03
 IDIUse=3 WtCom= 9.93D-01 WtEn= 7.19D-03
 Coeff-Com: -0.595D-01 0.106D+01
 Coeff-En:   0.000D+00 0.100D+01
 Coeff:     -0.591D-01 0.106D+01
 Gap=     0.185 Goal=   None    Shift=    0.000
 Gap=     0.185 Goal=   None    Shift=    0.000
 RMSDP=2.17D-04 MaxDP=5.05D-03 DE=-3.54D-03 OVMax= 5.33D-03

 Cycle   3  Pass 1  IDiag  1:
 E= -581.173586191483     Delta-E=       -0.000122749000 Rises=F Damp=F
 DIIS: error= 2.47D-04 at cycle   3 NSaved=   3.
 NSaved= 3 IEnMin= 3 EnMin= -581.173586191483     IErMin= 3 ErrMin= 2.47D-04
 ErrMax= 2.47D-04  0.00D+00 EMaxC= 1.00D-01 BMatC= 2.39D-05 BMatP= 1.97D-04
 IDIUse=3 WtCom= 9.98D-01 WtEn= 2.47D-03
 Coeff-Com: -0.289D-01 0.217D+00 0.812D+00
 Coeff-En:   0.000D+00 0.000D+00 0.100D+01
 Coeff:     -0.288D-01 0.216D+00 0.813D+00
 Gap=     0.185 Goal=   None    Shift=    0.000
 Gap=     0.185 Goal=   None    Shift=    0.000
 RMSDP=4.95D-05 MaxDP=8.95D-04 DE=-1.23D-04 OVMax= 1.32D-03

 Cycle   4  Pass 1  IDiag  1:
 E= -581.173593967061     Delta-E=       -0.000007775579 Rises=F Damp=F
 DIIS: error= 6.31D-05 at cycle   4 NSaved=   4.
 NSaved= 4 IEnMin= 4 EnMin= -581.173593967061     IErMin= 4 ErrMin= 6.31D-05
 ErrMax= 6.31D-05  0.00D+00 EMaxC= 1.00D-01 BMatC= 1.29D-06 BMatP= 2.39D-05
 IDIUse=1 WtCom= 1.00D+00 WtEn= 0.00D+00
 Coeff-Com:  0.158D-02-0.582D-01 0.953D-01 0.961D+00
 Coeff:      0.158D-02-0.582D-01 0.953D-01 0.961D+00
 Gap=     0.185 Goal=   None    Shift=    0.000
 Gap=     0.185 Goal=   None    Shift=    0.000
 RMSDP=1.48D-05 MaxDP=3.49D-04 DE=-7.78D-06 OVMax= 3.68D-04

 Cycle   5  Pass 1  IDiag  1:
 E= -581.173594388669     Delta-E=       -0.000000421608 Rises=F Damp=F
 DIIS: error= 1.02D-05 at cycle   5 NSaved=   5.
 NSaved= 5 IEnMin= 5 EnMin= -581.173594388669     IErMin= 5 ErrMin= 1.02D-05
 ErrMax= 1.02D-05  0.00D+00 EMaxC= 1.00D-01 BMatC= 1.96D-08 BMatP= 1.29D-06
 IDIUse=1 WtCom= 1.00D+00 WtEn= 0.00D+00
 Coeff-Com:  0.942D-03-0.142D-01 0.841D-02 0.102D+00 0.903D+00
 Coeff:      0.942D-03-0.142D-01 0.841D-02 0.102D+00 0.903D+00
 Gap=     0.185 Goal=   None    Shift=    0.000
 Gap=     0.185 Goal=   None    Shift=    0.000
 RMSDP=2.71D-06 MaxDP=7.72D-05 DE=-4.22D-07 OVMax= 5.16D-05

 Cycle   6  Pass 1  IDiag  1:
 E= -581.173594398089     Delta-E=       -0.000000009419 Rises=F Damp=F
 DIIS: error= 7.67D-07 at cycle   6 NSaved=   6.
 NSaved= 6 IEnMin= 6 EnMin= -581.173594398089     IErMin= 6 ErrMin= 7.67D-07
 ErrMax= 7.67D-07  0.00D+00 EMaxC= 1.00D-01 BMatC= 1.63D-10 BMatP= 1.96D-08
 IDIUse=1 WtCom= 1.00D+00 WtEn= 0.00D+00
 Coeff-Com: -0.211D-04 0.102D-02-0.204D-02-0.158D-01 0.232D-01 0.994D+00
 Coeff:     -0.211D-04 0.102D-02-0.204D-02-0.158D-01 0.232D-01 0.994D+00
 Gap=     0.185 Goal=   None    Shift=    0.000
 Gap=     0.185 Goal=   None    Shift=    0.000
 RMSDP=3.40D-07 MaxDP=7.56D-06 DE=-9.42D-09 OVMax= 7.31D-06

 Cycle   7  Pass 1  IDiag  1:
 E= -581.173594398206     Delta-E=       -0.000000000117 Rises=F Damp=F
 DIIS: error= 9.20D-08 at cycle   7 NSaved=   7.
 NSaved= 7 IEnMin= 7 EnMin= -581.173594398206     IErMin= 7 ErrMin= 9.20D-08
 ErrMax= 9.20D-08  0.00D+00 EMaxC= 1.00D-01 BMatC= 2.20D-12 BMatP= 1.63D-10
 IDIUse=1 WtCom= 1.00D+00 WtEn= 0.00D+00
 Coeff-Com: -0.608D-05 0.568D-04-0.125D-04 0.739D-04-0.110D-01-0.980D-01
 Coeff-Com:  0.111D+01
 Coeff:     -0.608D-05 0.568D-04-0.125D-04 0.739D-04-0.110D-01-0.980D-01
 Coeff:      0.111D+01
 Gap=     0.185 Goal=   None    Shift=    0.000
 Gap=     0.185 Goal=   None    Shift=    0.000
 RMSDP=7.66D-08 MaxDP=2.14D-06 DE=-1.17D-10 OVMax= 1.40D-06

 Cycle   8  Pass 1  IDiag  1:
 E= -581.173594398208     Delta-E=       -0.000000000003 Rises=F Damp=F
 DIIS: error= 1.08D-08 at cycle   8 NSaved=   8.
 NSaved= 8 IEnMin= 8 EnMin= -581.173594398208     IErMin= 8 ErrMin= 1.08D-08
 ErrMax= 1.08D-08  0.00D+00 EMaxC= 1.00D-01 BMatC= 5.87D-14 BMatP= 2.20D-12
 IDIUse=1 WtCom= 1.00D+00 WtEn= 0.00D+00
 Coeff-Com:  0.436D-06-0.199D-04 0.405D-04 0.260D-03 0.330D-03-0.167D-01
 Coeff-Com:  0.106D-01 0.101D+01
 Coeff:      0.436D-06-0.199D-04 0.405D-04 0.260D-03 0.330D-03-0.167D-01
 Coeff:      0.106D-01 0.101D+01
 Gap=     0.185 Goal=   None    Shift=    0.000
 Gap=     0.185 Goal=   None    Shift=    0.000
 RMSDP=7.54D-09 MaxDP=2.30D-07 DE=-2.73D-12 OVMax= 1.69D-07

 SCF Done:  E(UM062X) =  -581.173594398     A.U. after    8 cycles
            NFock=  8  Conv=0.75D-08     -V/T= 2.0014
 <Sx>= 0.0000 <Sy>= 0.0000 <Sz>= 0.0000 <S**2>=-0.0000 S=-0.0000
 <L.S>=  0.00000000000    
 KE= 5.803354890188D+02 PE=-1.483297322536D+03 EE= 2.723855684676D+02
 Annihilation of the first spin contaminant:
 S**2 before annihilation    -0.0000,   after     0.0000
 Leave Link  502 at Mon Apr 21 20:29:25 2025, MaxMem=   536870912 cpu:              97.3 elap:              13.0
 (Enter /home/szhao/Apps/g16/l701.exe)
 ... and contract with generalized density number  0.
 Compute integral first derivatives.
 Leave Link  701 at Mon Apr 21 20:29:25 2025, MaxMem=   536870912 cpu:               1.5 elap:               0.3
 (Enter /home/szhao/Apps/g16/l702.exe)
 L702 exits ... SP integral derivatives will be done elsewhere.
 Leave Link  702 at Mon Apr 21 20:29:26 2025, MaxMem=   536870912 cpu:               0.7 elap:               0.2
 (Enter /home/szhao/Apps/g16/l703.exe)
 Integral derivatives from FoFJK, PRISM(SPDF).
 Compute integral first derivatives, UseDBF=F ICtDFT=           0.
 Calling FoFJK, ICntrl=      2127 FMM=F ISym2X=0 I1Cent= 0 IOpClX= 1 NMat=1 NMatS=1 NMatT=0.
 FoFJK:  IHMeth= 1 ICntrl=    2127 DoSepK=F KAlg= 0 I1Cent=           0 FoldK=F
 IRaf=         0 NMat=       1 IRICut=       1 DoRegI=T DoRafI=F ISym2E= 0 IDoP0=0 IntGTp=1.
 FoFCou: FMM=F IPFlag=           0 FMFlag=      100000 FMFlg1=         800
         NFxFlg=           0 DoJE=F BraDBF=F KetDBF=F FulRan=T
         wScrn=  0.000000 ICntrl=      2127 IOpCl=  1 I1Cent=           0 NGrid=           0
         NMat0=    1 NMatS0=      1 NMatT0=    0 NMatD0=    1 NMtDS0=    0 NMtDT0=    0
 Symmetry not used in FoFCou.
 Leave Link  703 at Mon Apr 21 20:29:28 2025, MaxMem=   536870912 cpu:              19.6 elap:               2.5
 (Enter /home/szhao/Apps/g16/l716.exe)
 Dipole        = 2.04910329D-08 1.02519788D-08 2.10874170D-05
 -------------------------------------------------------------------
 Center     Atomic                   Forces (Hartrees/Bohr)
 Number     Number              X              Y              Z
 -------------------------------------------------------------------
      1       14          -0.000000000   -0.000000000   -0.000000000
      2       14          -0.000000000   -0.000000000   -0.000000000
      3        1          -0.000534435   -0.001040851    0.000000023
      4        1           0.000534441    0.001040861   -0.000000561
      5        1          -0.000534217    0.001040613    0.000000307
      6        1           0.000534222   -0.001040622    0.000000891
 -------------------------------------------------------------------
 Cartesian Forces:  Max     0.001040861 RMS     0.000551491
 Leave Link  716 at Mon Apr 21 20:29:29 2025, MaxMem=   536870912 cpu:               0.8 elap:               0.2
 (Enter /home/szhao/Apps/g16/l103.exe)

 GradGradGradGradGradGradGradGradGradGradGradGradGradGradGradGradGradGrad
 Berny optimization.
 Using GEDIIS/GDIIS optimizer.
 FormGI is forming the generalized inverse of G from B-inverse, IUseBI=4.
 Internal  Forces:  Max     0.001115904 RMS     0.000656440
 Search for a local minimum.
 Step number   3 out of a maximum of   30
 All quantities printed in internal units (Hartrees-Bohrs-Radians)
 RMS Force = .67264D-03 SwitMx=.10000D-02 MixMth= 2
 Mixed Optimization -- En-DIIS/RFO-DIIS
 Update second derivatives using D2CorX and points    2    3
 DE= -1.23D-02 DEPred=-1.31D-02 R= 9.40D-01
 TightC=F SS=  1.41D+00  RLast= 4.86D-01 DXNew= 8.4853D-01 1.4594D+00
 Trust test= 9.40D-01 RLast= 4.86D-01 DXMaxT set to 8.49D-01
 The second derivative matrix:
                          X1        Y1        Z1        X2        Y2
           X1           0.54099
           Y1           0.00000   0.50000
           Z1          -0.00000  -0.00000   0.50000
           X2          -0.04099  -0.00000   0.00000   0.54099
           Y2          -0.00000  -0.00000   0.00000   0.00000   0.50000
           Z2          -0.00000  -0.00000   0.00000   0.00000   0.00000
           R1          -0.02077  -0.00000   0.00000   0.02077   0.00000
           R2          -0.02076  -0.00000   0.00000   0.02076   0.00000
           R3          -0.02077  -0.00000   0.00000   0.02077   0.00000
           R4          -0.02076  -0.00000   0.00000   0.02076   0.00000
           A1          -0.01637  -0.00000   0.00000   0.01637   0.00000
           A2          -0.01637  -0.00000   0.00000   0.01637   0.00000
           A3           0.03274   0.00000  -0.00000  -0.03274  -0.00000
           A4          -0.01637  -0.00000   0.00000   0.01637   0.00000
           A5          -0.01637  -0.00000   0.00000   0.01637   0.00000
           A6           0.03274   0.00000  -0.00000  -0.03274  -0.00000
           D1          -0.00000  -0.00000   0.00000   0.00000   0.00000
           D2          -0.00000   0.00000   0.00000   0.00000  -0.00000
           D3          -0.00000   0.00000   0.00000   0.00000  -0.00000
           D4           0.00000   0.00000  -0.00000  -0.00000  -0.00000
                          Z2        R1        R2        R3        R4
           Z2           0.50000
           R1           0.00000   0.18394
           R2           0.00000   0.00278   0.18393
           R3           0.00000   0.00278   0.00278   0.18394
           R4           0.00000   0.00278   0.00278   0.00278   0.18393
           A1           0.00000  -0.00095  -0.00095  -0.00095  -0.00095
           A2           0.00000  -0.00095  -0.00095  -0.00095  -0.00095
           A3          -0.00000   0.00189   0.00189   0.00189   0.00189
           A4           0.00000  -0.00095  -0.00095  -0.00095  -0.00095
           A5           0.00000  -0.00095  -0.00095  -0.00095  -0.00095
           A6          -0.00000   0.00189   0.00189   0.00189   0.00189
           D1           0.00000   0.00000   0.00000   0.00000   0.00000
           D2           0.00000  -0.00000  -0.00000  -0.00000  -0.00000
           D3           0.00000  -0.00000  -0.00000  -0.00000  -0.00000
           D4          -0.00000  -0.00000  -0.00000  -0.00000  -0.00000
                          A1        A2        A3        A4        A5
           A1           0.15548
           A2          -0.00452   0.15548
           A3           0.00905   0.00905   0.14190
           A4          -0.00452  -0.00452   0.00905   0.15548
           A5          -0.00452  -0.00452   0.00905  -0.00452   0.15548
           A6           0.00905   0.00905  -0.01810   0.00905   0.00905
           D1           0.00000   0.00000  -0.00000   0.00000   0.00000
           D2           0.00000   0.00000  -0.00000   0.00000   0.00000
           D3           0.00000   0.00000  -0.00000   0.00000   0.00000
           D4          -0.00000  -0.00000   0.00000  -0.00000  -0.00000
                          A6        D1        D2        D3        D4
           A6           0.14190
           D1          -0.00000   0.00230
           D2          -0.00000   0.00000   0.00230
           D3          -0.00000   0.00000   0.00000   0.00230
           D4           0.00000  -0.00000  -0.00000  -0.00000   0.00230
 ITU=  1  1  0
 Use linear search instead of GDIIS.
     Eigenvalues ---    0.00230   0.00230   0.00230   0.10522   0.16000
     Eigenvalues ---    0.16000   0.16000   0.18115   0.18115   0.18116
     Eigenvalues ---    0.192761000.000001000.000001000.000001000.00000
     Eigenvalues --- 1000.000001000.000001000.000001000.000001000.00000
 RFO step:  Lambda=-3.01199414D-05 EMin= 2.30000000D-03
 Quartic linear search produced a step of -0.01588.
 Iteration  1 RMS(Cart)=  0.00445495 RMS(Int)=  0.00000675
 Iteration  2 RMS(Cart)=  0.00000952 RMS(Int)=  0.00000000
 Iteration  3 RMS(Cart)=  0.00000000 RMS(Int)=  0.00000000
 ITry= 1 IFail=0 DXMaxC= 9.79D-03 DCOld= 1.00D+10 DXMaxT= 8.49D-01 DXLimC= 3.00D+00 Rises=F
 Variable       Old X    -DE/DX   Delta X   Delta X   Delta X     New X
                                 (Linear)    (Quad)   (Total)
    X1       -4.13381  -0.00107   0.00000   0.00000   0.00000  -4.13381
    Y1        0.00000  -0.00000   0.00000   0.00000   0.00000   0.00000
    Z1        0.00000   0.00000   0.00000   0.00000   0.00000   0.00000
    X2        4.13381   0.00107   0.00000   0.00000   0.00000   4.13381
    Y2        0.00000   0.00000   0.00000   0.00000   0.00000   0.00000
    Z2        0.00000   0.00000   0.00000   0.00000   0.00000   0.00000
    R1        2.86513   0.00112  -0.00051   0.00616   0.00565   2.87077
    R2        2.86513   0.00112  -0.00051   0.00616   0.00565   2.87078
[...]
           R3           0.00001  -0.00394  -0.00394   0.17722
           R4           0.00001  -0.00394  -0.00393  -0.00394   0.17722
           A1           0.00000  -0.00083  -0.00083  -0.00083  -0.00083
           A2           0.00000  -0.00083  -0.00083  -0.00083  -0.00083
           A3          -0.00000   0.00165   0.00165   0.00165   0.00165
           A4           0.00000  -0.00083  -0.00083  -0.00083  -0.00083
           A5           0.00000  -0.00083  -0.00083  -0.00083  -0.00083
           A6          -0.00000   0.00165   0.00165   0.00165   0.00165
           D1          -0.00000  -0.00000  -0.00000  -0.00000  -0.00000
           D2          -0.00000   0.00000   0.00000   0.00000   0.00000
           D3          -0.00000   0.00000   0.00000   0.00000   0.00000
           D4           0.00000   0.00001   0.00001   0.00001   0.00001
                          A1        A2        A3        A4        A5
           A1           0.15602
           A2          -0.00398   0.15602
           A3           0.00795   0.00795   0.14410
           A4          -0.00398  -0.00398   0.00795   0.15602
           A5          -0.00398  -0.00398   0.00795  -0.00398   0.15602
           A6           0.00795   0.00795  -0.01590   0.00795   0.00795
           D1           0.00000   0.00000  -0.00000   0.00000   0.00000
           D2          -0.00000  -0.00000   0.00000  -0.00000  -0.00000
           D3          -0.00000  -0.00000   0.00000  -0.00000  -0.00000
           D4          -0.00000  -0.00000   0.00001  -0.00000  -0.00000
                          A6        D1        D2        D3        D4
           A6           0.14410
           D1          -0.00000   0.00230
           D2           0.00000   0.00000   0.00230
           D3           0.00000   0.00000  -0.00000   0.00230
           D4           0.00001  -0.00000  -0.00000  -0.00000   0.00230
 ITU=  1  1  1  0
     Eigenvalues ---    0.00230   0.00230   0.00230   0.11168   0.16000
     Eigenvalues ---    0.16000   0.16000   0.16601   0.18115   0.18115
     Eigenvalues ---    0.181161000.000001000.000001000.000001000.00000
     Eigenvalues --- 1000.000001000.000001000.000001000.000001000.00000
 En-DIIS/RFO-DIIS/Sim-DIIS IScMMF=       -3 using points:     4    3
 RFO step:  Lambda=-5.74281548D-07.
 NNeg= 0 NGDIIS= 2 SimSw=  2.50D-01 Rises=F DC= -2.00D-05 SmlDif=  1.00D-05
 NRisDI= 0 DoIntr=F SqrtH=F CThrHd= 10.0 CDAdj=  3.0
 RMS Error=  0.4205748902D-03 NUsed= 2 OKEnD=T EnDIS=F
 InvSVX:  RCond= 5.65D-05 Info=           0 Equed=N FErr=  1.07D-15 BErr=  1.62D-17
 DidBck=F Rises=F RFO-DIIS coefs:    1.08289   -0.08289
 Iteration  1 RMS(Cart)=  0.00042711 RMS(Int)=  0.00000002
 Iteration  2 RMS(Cart)=  0.00000003 RMS(Int)=  0.00000000
 ITry= 1 IFail=0 DXMaxC= 7.89D-04 DCOld= 1.00D+10 DXMaxT= 8.49D-01 DXLimC= 3.00D+00 Rises=F
 Variable       Old X    -DE/DX   Delta X   Delta X   Delta X     New X
                                 (Linear)    (Quad)   (Total)
    X1       -4.13381  -0.00022  -0.00000   0.00000   0.00000  -4.13381
    Y1        0.00000  -0.00000   0.00000   0.00000   0.00000   0.00000
    Z1        0.00000   0.00000   0.00000   0.00000   0.00000   0.00000
    X2        4.13381   0.00022   0.00000   0.00000   0.00000   4.13381
    Y2        0.00000   0.00000   0.00000   0.00000   0.00000   0.00000
    Z2        0.00000   0.00000   0.00000   0.00000   0.00000   0.00000
    R1        2.87077   0.00015   0.00047   0.00046   0.00093   2.87171
    R2        2.87078   0.00015   0.00047   0.00046   0.00093   2.87171
    R3        2.87077   0.00015   0.00047   0.00046   0.00093   2.87171
    R4        2.87078   0.00015   0.00047   0.00046   0.00093   2.87171
    A1        2.34770   0.00000  -0.00024   0.00030   0.00007   2.34777
    A2        2.34771   0.00000  -0.00024   0.00030   0.00007   2.34777
    A3        1.58778  -0.00001   0.00048  -0.00061  -0.00013   1.58764
    A4        2.34770   0.00000  -0.00024   0.00030   0.00007   2.34777
    A5        2.34771   0.00000  -0.00024   0.00030   0.00007   2.34777
    A6        1.58778  -0.00001   0.00048  -0.00061  -0.00013   1.58764
    D1        3.14123   0.00000   0.00000   0.00006   0.00006   3.14128
    D2       -0.00075  -0.00000  -0.00000  -0.00003  -0.00003  -0.00078
    D3       -0.00075  -0.00000  -0.00000  -0.00003  -0.00003  -0.00078
    D4        3.14046  -0.00000  -0.00001  -0.00011  -0.00012   3.14034
         Item               Value     Threshold  Converged?
 Maximum Force            0.000153     0.000450     YES
 RMS     Force            0.000082     0.000300     YES
 Maximum Displacement     0.000789     0.001800     YES
 RMS     Displacement     0.000427     0.001200     YES
 Predicted change in Energy=-2.870925D-07
 Optimization completed.
    -- Stationary point found.
                           ----------------------------
                           !   Optimized Parameters   !
                           ! (Angstroms and Degrees)  !
 --------------------------                            --------------------------
 ! Name  Definition              Value          Derivative Info.                !
 --------------------------------------------------------------------------------
 ! X1    R(1,-1)                -2.1875         -DE/DX =   -0.0002              !
 ! Y1    R(1,-2)                 0.0            -DE/DX =    0.0                 !
 ! Z1    R(1,-3)                 0.0            -DE/DX =    0.0                 !
 ! X2    R(2,-1)                 2.1875         -DE/DX =    0.0002              !
 ! Y2    R(2,-2)                 0.0            -DE/DX =    0.0                 !
 ! Z2    R(2,-3)                 0.0            -DE/DX =    0.0                 !
 ! R1    R(1,3)                  1.5191         -DE/DX =    0.0002              !
 ! R2    R(1,5)                  1.5191         -DE/DX =    0.0002              !
 ! R3    R(2,4)                  1.5191         -DE/DX =    0.0002              !
 ! R4    R(2,6)                  1.5191         -DE/DX =    0.0002              !
 ! A1    A(2,1,3)              134.5134         -DE/DX =    0.0                 !
 ! A2    A(2,1,5)              134.5137         -DE/DX =    0.0                 !
 ! A3    A(3,1,5)               90.9729         -DE/DX =    0.0                 !
 ! A4    A(1,2,4)              134.5134         -DE/DX =    0.0                 !
 ! A5    A(1,2,6)              134.5137         -DE/DX =    0.0                 !
 ! A6    A(4,2,6)               90.9729         -DE/DX =    0.0                 !
 ! D1    D(3,1,2,4)            179.979          -DE/DX =    0.0                 !
 ! D2    D(3,1,2,6)             -0.0429         -DE/DX =    0.0                 !
 ! D3    D(5,1,2,4)             -0.0429         -DE/DX =    0.0                 !
 ! D4    D(5,1,2,6)            179.9351         -DE/DX =    0.0                 !
 --------------------------------------------------------------------------------
 Lowest energy point so far.  Saving SCF results.
 Largest change from initial coordinates is atom    5       0.329 Angstoms.
 GradGradGradGradGradGradGradGradGradGradGradGradGradGradGradGradGradGrad

 Leave Link  103 at Mon Apr 21 20:29:46 2025, MaxMem=   536870912 cpu:               2.8 elap:               0.6
 (Enter /home/szhao/Apps/g16/l202.exe)
                          Input orientation:                          
 ---------------------------------------------------------------------
 Center     Atomic      Atomic             Coordinates (Angstroms)
 Number     Number       Type             X           Y           Z
 ---------------------------------------------------------------------
      1         14           0       -2.187518    0.000000    0.000000
      2         14           0        2.187518    0.000000    0.000000
      3          1           0       -3.252558   -1.083283    0.000094
      4          1           0        3.252558    1.083283   -0.000491
      5          1           0       -3.252562    1.083279    0.000321
      6          1           0        3.252562   -1.083279    0.000905
 ---------------------------------------------------------------------
                    Distance matrix (angstroms):
                    1          2          3          4          5
     1  Si   0.000000
     2  Si   4.375036   0.000000
     3  H    1.519149   5.546884   0.000000
     4  H    5.546884   1.519149   6.856423   0.000000
     5  H    1.519149   5.546888   2.166562   6.505120   0.000000
     6  H    5.546888   1.519149   6.505120   2.166562   6.856429
                    6
     6  H    0.000000
 Symmetry turned off by external request.
 Stoichiometry    H4Si2
 Framework group  C1[X(H4Si2)]
 Deg. of freedom    12
 Full point group                 C1      NOp   1
 Rotational constants (GHZ):         106.8291180           1.6281537           1.6037119
 Leave Link  202 at Mon Apr 21 20:29:46 2025, MaxMem=   536870912 cpu:               0.2 elap:               0.2
 (Enter /home/szhao/Apps/g16/l601.exe)
 Copying SCF densities to generalized density rwf, IOpCl= 1 IROHF=0.

 **********************************************************************

            Population analysis using the SCF density.

 **********************************************************************

 Alpha  occ. eigenvalues --  -67.01186 -67.01186  -5.55912  -5.55912  -3.87155
 Alpha  occ. eigenvalues --   -3.87155  -3.86615  -3.86614  -3.86476  -3.86476
 Alpha  occ. eigenvalues --   -0.57205  -0.57078  -0.37742  -0.37694  -0.29451
 Alpha  occ. eigenvalues --   -0.26745
 Alpha virt. eigenvalues --   -0.08271  -0.07390   0.02091   0.02328   0.03093
 Alpha virt. eigenvalues --    0.04573   0.05772   0.06109   0.06386   0.06909
 Alpha virt. eigenvalues --    0.08609   0.09229   0.11466   0.14124   0.29022
 Alpha virt. eigenvalues --    0.29680   0.30442   0.30517   0.31598   0.33234
 Alpha virt. eigenvalues --    0.37224   0.39847   0.42629   0.44884   0.49974
 Alpha virt. eigenvalues --    0.50852   0.60395   0.60395   0.61117   0.61398
 Alpha virt. eigenvalues --    0.61448   0.62728   0.77750   0.78234   0.88471
 Alpha virt. eigenvalues --    0.89212   1.20619   1.20922   1.22076   1.23199
 Alpha virt. eigenvalues --    1.23368   1.25732   1.44115   1.44115   1.44956
 Alpha virt. eigenvalues --    1.45363   1.52798   1.52891   1.59101   1.59135
 Alpha virt. eigenvalues --    1.93638   1.93846   2.00756   2.02173   2.56304
 Alpha virt. eigenvalues --    2.60210   2.65228   2.65493   5.56489   5.57839
 Alpha virt. eigenvalues --   11.45216  11.46407  11.52644  11.52932  11.53901
 Alpha virt. eigenvalues --   11.55412 141.12853 141.14566
  Beta  occ. eigenvalues --  -67.01186 -67.01186  -5.55912  -5.55912  -3.87155
  Beta  occ. eigenvalues --   -3.87155  -3.86615  -3.86614  -3.86476  -3.86476
  Beta  occ. eigenvalues --   -0.57205  -0.57078  -0.37742  -0.37694  -0.29451
  Beta  occ. eigenvalues --   -0.26745
  Beta virt. eigenvalues --   -0.08271  -0.07390   0.02091   0.02328   0.03093
  Beta virt. eigenvalues --    0.04573   0.05772   0.06109   0.06386   0.06909
  Beta virt. eigenvalues --    0.08609   0.09229   0.11466   0.14124   0.29022
  Beta virt. eigenvalues --    0.29680   0.30442   0.30517   0.31598   0.33234
  Beta virt. eigenvalues --    0.37224   0.39847   0.42629   0.44884   0.49974
  Beta virt. eigenvalues --    0.50852   0.60395   0.60395   0.61117   0.61398
  Beta virt. eigenvalues --    0.61448   0.62728   0.77750   0.78234   0.88471
  Beta virt. eigenvalues --    0.89212   1.20619   1.20922   1.22076   1.23199
  Beta virt. eigenvalues --    1.23368   1.25732   1.44115   1.44115   1.44956
  Beta virt. eigenvalues --    1.45363   1.52798   1.52891   1.59101   1.59135
  Beta virt. eigenvalues --    1.93638   1.93846   2.00756   2.02173   2.56304
  Beta virt. eigenvalues --    2.60210   2.65228   2.65493   5.56489   5.57839
  Beta virt. eigenvalues --   11.45216  11.46407  11.52644  11.52932  11.53901
  Beta virt. eigenvalues --   11.55412 141.12853 141.14566
          Condensed to atoms (all electrons):
               1          2          3          4          5          6
     1  Si  13.285260  -0.088058   0.237771   0.003041   0.237771   0.003041
     2  Si  -0.088058  13.285260   0.003041   0.237771   0.003041   0.237771
     3  H    0.237771   0.003041   0.941733  -0.000001  -0.021954  -0.000001
     4  H    0.003041   0.237771  -0.000001   0.941733  -0.000001  -0.021954
     5  H    0.237771   0.003041  -0.021954  -0.000001   0.941733  -0.000001
     6  H    0.003041   0.237771  -0.000001  -0.021954  -0.000001   0.941733
          Atomic-Atomic Spin Densities.
               1          2          3          4          5          6
     1  Si  -0.000000   0.000000   0.000000  -0.000000  -0.000000  -0.000000
     2  Si   0.000000  -0.000000  -0.000000   0.000000  -0.000000   0.000000
     3  H    0.000000  -0.000000  -0.000000  -0.000000  -0.000000  -0.000000
     4  H   -0.000000   0.000000  -0.000000  -0.000000   0.000000  -0.000000
     5  H   -0.000000  -0.000000  -0.000000   0.000000   0.000000   0.000000
     6  H   -0.000000   0.000000  -0.000000  -0.000000   0.000000  -0.000000
 Mulliken charges and spin densities:
               1          2
     1  Si   0.321176  -0.000000
     2  Si   0.321176  -0.000000
     3  H   -0.160588  -0.000000
     4  H   -0.160588   0.000000
     5  H   -0.160588   0.000000
     6  H   -0.160588   0.000000
 Sum of Mulliken charges =  -0.00000  -0.00000
 Mulliken charges and spin densities with hydrogens summed into heavy atoms:
               1          2
     1  Si   0.000000  -0.000000
     2  Si  -0.000000  -0.000000
 Electronic spatial extent (au):  <R**2>=            715.6435
 Charge=             -0.0000 electrons
 Dipole moment (field-independent basis, Debye):
    X=              0.0000    Y=              0.0000    Z=              0.0001  Tot=              0.0001
 Quadrupole moment (field-independent basis, Debye-Ang):
   XX=            -36.0298   YY=            -32.7701   ZZ=            -24.3989
   XY=             -0.0000   XZ=              0.0000   YZ=              0.0023
 Traceless Quadrupole moment (field-independent basis, Debye-Ang):
   XX=             -4.9635   YY=             -1.7038   ZZ=              6.6674
   XY=             -0.0000   XZ=              0.0000   YZ=              0.0023
 Octapole moment (field-independent basis, Debye-Ang**2):
  XXX=              0.0000  YYY=             -0.0000  ZZZ=             -0.0013  XYY=              0.0000
  XXY=             -0.0000  XXZ=             -0.0118  XZZ=             -0.0000  YZZ=              0.0000
  YYZ=             -0.0014  XYZ=              0.0087
 Hexadecapole moment (field-independent basis, Debye-Ang**3):
 XXXX=          -1269.9326 YYYY=            -88.7866 ZZZZ=            -33.4753 XXXY=             -0.0001
 XXXZ=              0.0000 YYYX=             -0.0001 YYYZ=              0.0078 ZZZX=              0.0000
 ZZZY=              0.0072 XXYY=           -223.1415 XXZZ=           -149.6932 YYZZ=            -19.9947
 XXYZ=              0.0198 YYXZ=              0.0000 ZZXY=             -0.0000
 N-N= 4.936186520431D+01 E-N=-1.483200548333D+03  KE= 5.803249514677D+02
                          Isotropic Fermi Contact Couplings
        Atom                 a.u.       MegaHertz       Gauss      10(-4) cm-1
     1  Si(29)             0.00000      -0.00000      -0.00000      -0.00000
     2  Si(29)             0.00000      -0.00000      -0.00000      -0.00000
     3  H(1)              -0.00000      -0.00000      -0.00000      -0.00000
     4  H(1)               0.00000       0.00000       0.00000       0.00000
     5  H(1)               0.00000       0.00000       0.00000       0.00000
     6  H(1)              -0.00000      -0.00000      -0.00000      -0.00000
 --------------------------------------------------------
       Center         ----  Spin Dipole Couplings  ----
                      3XX-RR        3YY-RR        3ZZ-RR
 --------------------------------------------------------
     1   Atom        0.000000      0.000000      0.000000
     2   Atom        0.000000      0.000000      0.000000
     3   Atom        0.000000      0.000000      0.000000
     4   Atom        0.000000      0.000000      0.000000
     5   Atom        0.000000      0.000000      0.000000
     6   Atom        0.000000      0.000000      0.000000
 --------------------------------------------------------
                        XY            XZ            YZ
 --------------------------------------------------------
     1   Atom        0.000000      0.000000      0.000000
     2   Atom        0.000000      0.000000      0.000000
     3   Atom        0.000000      0.000000      0.000000
     4   Atom        0.000000      0.000000      0.000000
     5   Atom        0.000000      0.000000      0.000000
     6   Atom        0.000000      0.000000      0.000000
 --------------------------------------------------------


 ---------------------------------------------------------------------------------
              Anisotropic Spin Dipole Couplings in Principal Axis System
 ---------------------------------------------------------------------------------

       Atom             a.u.   MegaHertz   Gauss  10(-4) cm-1        Axes

              Baa     0.0000    -0.000    -0.000    -0.000  1.0000  0.0000  0.0000
     1 Si(29) Bbb     0.0000    -0.000    -0.000    -0.000 -0.0000  1.0000  0.0000
              Bcc     0.0000    -0.000    -0.000    -0.000  0.0000  0.0000  1.0000
 
              Baa     0.0000    -0.000    -0.000    -0.000  1.0000  0.0000  0.0000
     2 Si(29) Bbb     0.0000    -0.000    -0.000    -0.000 -0.0000  1.0000  0.0000
              Bcc     0.0000    -0.000    -0.000    -0.000  0.0000  0.0000  1.0000
 
              Baa     0.0000     0.000     0.000     0.000  1.0000  0.0000  0.0000
     3 H(1)   Bbb     0.0000     0.000     0.000     0.000 -0.0000  1.0000  0.0000
              Bcc     0.0000     0.000     0.000     0.000  0.0000  0.0000  1.0000
 
              Baa     0.0000     0.000     0.000     0.000  1.0000  0.0000  0.0000
     4 H(1)   Bbb     0.0000     0.000     0.000     0.000 -0.0000  1.0000  0.0000
              Bcc     0.0000     0.000     0.000     0.000  0.0000  0.0000  1.0000
 
              Baa     0.0000     0.000     0.000     0.000  1.0000  0.0000  0.0000
     5 H(1)   Bbb     0.0000     0.000     0.000     0.000 -0.0000  1.0000  0.0000
              Bcc     0.0000     0.000     0.000     0.000  0.0000  0.0000  1.0000
 
              Baa     0.0000     0.000     0.000     0.000  1.0000  0.0000  0.0000
     6 H(1)   Bbb     0.0000     0.000     0.000     0.000 -0.0000  1.0000  0.0000
              Bcc     0.0000     0.000     0.000     0.000  0.0000  0.0000  1.0000
 

 ---------------------------------------------------------------------------------

 No NMR shielding tensors so no spin-rotation constants.
 Leave Link  601 at Mon Apr 21 20:29:46 2025, MaxMem=   536870912 cpu:               2.1 elap:               0.4
 (Enter /home/szhao/Apps/g16/l9999.exe)
 1\1\GINC-NODE03\FOpt\UM062X\6-311+G(d,p)\H4Si2\SZHAO\21-Apr-2025\0\\#p
  opt UM062X/6-311+G** nosymm int=superfine\\Title Card Required\\0,1\S
 i,-2.187518,0.,0.\Si,2.187518,0.,0.\H,-3.2525575068,-1.0832834524,0.00
 00935157\H,3.2525575162,1.0832833218,-0.0004912639\H,-3.2525624738,1.0
 832789324,0.0003207548\H,3.2525624587,-1.0832786073,0.0009054972\\Vers
 ion=ES64L-G16RevA.03\HF=-581.1736144\S2=0.\S2-1=0.\S2A=0.\RMSD=5.343e-
 09\RMSF=7.229e-05\Dipole=0.,0.,0.0000244\Quadrupole=-3.690266,-1.26676
 43,4.9570303,-0.0000016,0.,0.0016805\PG=C01 [X(H4Si2)]\\@


 A successful marriage requires falling in love
 many times, always with the same person.
                           -- Mignon McLaughlin
 Job cpu time:       0 days  0 hours  8 minutes  8.3 seconds.
 Elapsed time:       0 days  0 hours  1 minutes  9.3 seconds.
 File lengths (MBytes):  RWF=     22 Int=      0 D2E=      0 Chk=      2 Scr=      2
 Normal termination of Gaussian 16 at Mon Apr 21 20:29:47 2025.
