 Entering Gaussian System, Link 0=g16
 Initial command:
 /home/szhao/Apps/g16/l1.exe "/home/szhao/tmp/Gau-76642.inp" -scrdir="/home/szhao/tmp/"
 Default is to use a total of  16 processors:
                               16 via shared-memory
                                1 via Linda
 Entering Link 1 = /home/szhao/Apps/g16/l1.exe PID=     76643.
  
 Copyright (c) 1988,1990,1992,1993,1995,1998,2003,2009,2016,
            Gaussian, Inc.  All Rights Reserved.
  
 This is part of the Gaussian(R) 16 program.  It is based on
 the Gaussian(R) 09 system (copyright 2009, Gaussian, Inc.),
 the Gaussian(R) 03 system (copyright 2003, Gaussian, Inc.),
 the Gaussian(R) 98 system (copyright 1998, Gaussian, Inc.),
 the Gaussian(R) 94 system (copyright 1995, Gaussian, Inc.),
 the Gaussian 92(TM) system (copyright 1992, Gaussian, Inc.),
 the Gaussian 90(TM) system (copyright 1990, Gaussian, Inc.),
 the Gaussian 88(TM) system (copyright 1988, Gaussian, Inc.),
 the Gaussian 86(TM) system (copyright 1986, Carnegie Mellon
 University), and the Gaussian 82(TM) system (copyright 1983,
 Carnegie Mellon University). Gaussian is a federally registered
 trademark of Gaussian, Inc.
  
 This software contains proprietary and confidential information,
 including trade secrets, belonging to Gaussian, Inc.
  
 This software is provided under written license and may be
 used, copied, transmitted, or stored only in accord with that
 written license.
  
 The following legend is applicable only to US Government
 contracts under FAR:
  
                    RESTRICTED RIGHTS LEGEND
  
 Use, reproduction and disclosure by the US Government is
 subject to restrictions as set forth in subparagraphs (a)
 and (c) of the Commercial Computer Software - Restricted
 Rights clause in FAR 52.227-19.
  
 Gaussian, Inc.
 340 Quinnipiac St., Bldg. 40, Wallingford CT 06492
  
  
 ---------------------------------------------------------------
 Warning -- This program may not be used in any manner that
 competes with the business of Gaussian, Inc. or will provide
 assistance to any competitor of Gaussian, Inc.  The licensee
 of this program is prohibited from giving any competitor of
 Gaussian, Inc. access to this program.  By using this program,
 the user acknowledges that Gaussian, Inc. is engaged in the
 business of creating and licensing software in the field of
 computational chemistry and represents and warrants to the
 licensee that it is not a competitor of Gaussian, Inc. and that
 it will not use this program in any manner prohibited above.
 ---------------------------------------------------------------
  

 Cite this work as:
 Gaussian 16, Revision A.03,
 M. J. Frisch, G. W. Trucks, H. B. Schlegel, G. E. Scuseria, 
 M. A. Robb, J. R. Cheeseman, G. Scalmani, V. Barone, 
 G. A. Petersson, H. Nakatsuji, X. Li, M. Caricato, A. V. Marenich, 
 J. Bloino, B. G. Janesko, R. Gomperts, B. Mennucci, H. P. Hratchian, 
 J. V. Ortiz, A. F. Izmaylov, J. L. Sonnenberg, D. Williams-Young, 
 F. Ding, F. Lipparini, F. Egidi, J. Goings, B. Peng, A. Petrone, 
 T. Henderson, D. Ranasinghe, V. G. Zakrzewski, J. Gao, N. Rega, 
 G. Zheng, W. Liang, M. Hada, M. Ehara, K. Toyota, R. Fukuda, 
 J. Hasegawa, M. Ishida, T. Nakajima, Y. Honda, O. Kitao, H. Nakai, 
 T. Vreven, K. Throssell, J. A. Montgomery, Jr., J. E. Peralta, 
 F. Ogliaro, M. J. Bearpark, J. J. Heyd, E. N. Brothers, K. N. Kudin, 
 V. N. Staroverov, T. A. Keith, R. Kobayashi, J. Normand, 
 K. Raghavachari, A. P. Rendell, J. C. Burant, S. S. Iyengar, 
 J. Tomasi, M. Cossi, J. M. Millam, M. Klene, C. Adamo, R. Cammi, 
 J. W. Ochterski, R. L. Martin, K. Morokuma, O. Farkas, 
 J. B. Foresman, and D. J. Fox, Gaussian, Inc., Wallingford CT, 2016.
 
 ******************************************
 Gaussian 16:  ES64L-G16RevA.03 25-Dec-2016
                 3-Dec-2024 
 ******************************************
 %chk=opt.chk
 %mem=16GB
 %nprocshared=24
 Will use up to   24 processors via shared memory.
 --------------------------------------------
 #p opt UM062X/6-311+G** nosymm int=superfine
 --------------------------------------------
 1/18=20,19=15,26=5,38=1/1,3;
 2/9=110,12=2,15=1,17=6,18=5,40=1/2;
 3/5=4,6=6,7=111,11=2,25=1,30=1,71=1,74=-55,75=-7,116=2/1,2,3;
 4//1;
 5/5=2,38=5/2;
 6/7=2,8=2,9=2,10=2,28=1/1;
 7/30=1/1,2,3,16;
 1/18=20,19=15,26=5/3(2);
 2/9=110,15=1/2;
 99//99;
 2/9=110,15=1/2;
 3/5=4,6=6,7=111,11=2,25=1,30=1,71=1,74=-55,75=-7,116=2/1,2,3;
 4/5=5,16=3,69=1/1;
 5/5=2,38=5/2;
 7/30=1/1,2,3,16;
 1/18=20,19=15,26=5/3(-5);
 2/9=110,15=1/2;
 6/7=2,8=2,9=2,10=2,19=2,28=1/1;
 99/9=1/99;
 Leave Link    1 at Tue Dec  3 11:23:41 2024, MaxMem=  2147483648 cpu:               0.9 elap:               0.0
 (Enter /home/szhao/Apps/g16/l101.exe)
 -------------------
 Title Card Required
 -------------------
 Symbolic Z-matrix:
 Charge =  1 Multiplicity = 2
 C                    -1   -1.18216   0.        0. 
 C                    -1    1.18216   0.        0. 
 H                    0    -2.28315   0.        0. 
 H                    0     2.28313   0.        0. 
 
 Add virtual bond connecting atoms C2         and C1         Dist= 4.47D+00.
 ITRead=  2  2  0  0
 MicOpt= -2 -2 -1 -1
 NAtoms=      4 NQM=        2 NQMF=       2 NMMI=      0 NMMIF=      0
                NMic=       0 NMicF=      0.
                    Isotopes and Nuclear Properties:
 (Nuclear quadrupole moments (NQMom) in fm**2, nuclear magnetic moments (NMagM)
  in nuclear magnetons)

  Atom         1           2           3           4
 IAtWgt=          12          12           1           1
 AtmWgt=  12.0000000  12.0000000   1.0078250   1.0078250
 NucSpn=           0           0           1           1
 AtZEff=  -0.0000000  -0.0000000  -0.0000000  -0.0000000
 NQMom=    0.0000000   0.0000000   0.0000000   0.0000000
 NMagM=    0.0000000   0.0000000   2.7928460   2.7928460
 AtZNuc=   6.0000000   6.0000000   1.0000000   1.0000000
 Leave Link  101 at Tue Dec  3 11:23:42 2024, MaxMem=  2147483648 cpu:              17.9 elap:               0.8
 (Enter /home/szhao/Apps/g16/l103.exe)

 GradGradGradGradGradGradGradGradGradGradGradGradGradGradGradGradGradGrad
 Berny optimization.
 Initialization pass.
                           ----------------------------
                           !    Initial Parameters    !
                           ! (Angstroms and Degrees)  !
 --------------------------                            --------------------------
 ! Name  Definition              Value          Derivative Info.                !
 --------------------------------------------------------------------------------
 ! X1    R(1,-1)                -1.1822         Frozen                          !
 ! Y1    R(1,-2)                 0.0            Frozen                          !
 ! Z1    R(1,-3)                 0.0            Frozen                          !
 ! X2    R(2,-1)                 1.1822         Frozen                          !
 ! Y2    R(2,-2)                 0.0            Frozen                          !
 ! Z2    R(2,-3)                 0.0            Frozen                          !
 ! R1    R(1,3)                  1.101          estimate D2E/DX2                !
 ! R2    R(2,4)                  1.101          estimate D2E/DX2                !
 ! A1    L(2,1,3,-2,-1)        180.0            estimate D2E/DX2                !
 ! A2    L(1,2,4,-2,-1)        180.0            estimate D2E/DX2                !
 ! A3    L(2,1,3,-3,-2)        180.0            estimate D2E/DX2                !
 ! A4    L(1,2,4,-3,-2)        180.0            estimate D2E/DX2                !
 --------------------------------------------------------------------------------
 Trust Radius=3.00D-01 FncErr=1.00D-07 GrdErr=1.00D-07 EigMax=2.50D+02 EigMin=1.00D-04
 Number of steps in this run=     22 maximum allowed number of steps=    100.
 GradGradGradGradGradGradGradGradGradGradGradGradGradGradGradGradGradGrad

 Leave Link  103 at Tue Dec  3 11:23:42 2024, MaxMem=  2147483648 cpu:               0.7 elap:               0.0
 (Enter /home/szhao/Apps/g16/l202.exe)
                          Input orientation:                          
 ---------------------------------------------------------------------
 Center     Atomic      Atomic             Coordinates (Angstroms)
 Number     Number       Type             X           Y           Z
 ---------------------------------------------------------------------
      1          6           0       -1.182160    0.000000    0.000000
      2          6           0        1.182160    0.000000    0.000000
      3          1           0       -2.283153    0.000000    0.000000
      4          1           0        2.283131    0.000000    0.000000
 ---------------------------------------------------------------------
                    Distance matrix (angstroms):
                    1          2          3          4
     1  C    0.000000
     2  C    2.364320   0.000000
     3  H    1.100993   3.465313   0.000000
     4  H    3.465291   1.100971   4.566284   0.000000
 Symmetry turned off by external request.
 Stoichiometry    C2H2(1+,2)
 Framework group  C*V[C*(HCCH)]
 Deg. of freedom     3
 Full point group                 C*V     NOp   4
 Rotational constants (GHZ):           0.0000000          11.4736023          11.4736023
 Leave Link  202 at Tue Dec  3 11:23:42 2024, MaxMem=  2147483648 cpu:               0.3 elap:               0.0
 (Enter /home/szhao/Apps/g16/l301.exe)
 Standard basis: 6-311+G(d,p) (5D, 7F)
 Ernie: Thresh=  0.10000D-02 Tol=  0.10000D-05 Strict=F.
    56 basis functions,    88 primitive gaussians,    58 cartesian basis functions
     7 alpha electrons        6 beta electrons
       nuclear repulsion energy        15.7735154120 Hartrees.
 IExCor= 4336 DFT=T Ex+Corr=M062X ExCW=0 ScaHFX=  0.540000
 ScaDFX=  1.000000  1.000000  1.000000  1.000000 ScalE2=  1.000000  1.000000
 IRadAn=      7 IRanWt=     -1 IRanGd=            0 ICorTp=0 IEmpDi=  4
 NAtoms=    4 NActive=    4 NUniq=    4 SFac= 1.00D+00 NAtFMM=   60 NAOKFM=F Big=F
 Integral buffers will be    131072 words long.
 Raffenetti 2 integral format.
 Two-electron integral symmetry is turned off.
 Leave Link  301 at Tue Dec  3 11:23:42 2024, MaxMem=  2147483648 cpu:               0.9 elap:               0.1
 (Enter /home/szhao/Apps/g16/l302.exe)
 NPDir=0 NMtPBC=     1 NCelOv=     1 NCel=       1 NClECP=     1 NCelD=      1
         NCelK=      1 NCelE2=     1 NClLst=     1 CellRange=     0.0.
 One-electron integrals computed using PRISM.
 NBasis=    56 RedAO= T EigKep=  3.84D-03  NBF=    56
 NBsUse=    56 1.00D-06 EigRej= -1.00D+00 NBFU=    56
 Precomputing XC quadrature grid using
 IXCGrd= 4 IRadAn=           7 IRanWt=          -1 IRanGd=           0 AccXCQ= 0.00D+00.
 Generated NRdTot=       0 NPtTot=           0 NUsed=           0 NTot=          32
 NSgBfM=    58    58    58    58    58 MxSgAt=     4 MxSgA2=     4.
 Leave Link  302 at Tue Dec  3 11:23:42 2024, MaxMem=  2147483648 cpu:               3.5 elap:               0.1
 (Enter /home/szhao/Apps/g16/l303.exe)
 DipDrv:  MaxL=1.
 Leave Link  303 at Tue Dec  3 11:23:42 2024, MaxMem=  2147483648 cpu:               0.8 elap:               0.0
 (Enter /home/szhao/Apps/g16/l401.exe)
 ExpMin= 4.38D-02 ExpMax= 4.56D+03 ExpMxC= 6.82D+02 IAcc=3 IRadAn=         7 AccDes= 0.00D+00
 Harris functional with IExCor= 1009 and IRadAn=       7 diagonalized for initial guess.
 HarFok:  IExCor= 1009 AccDes= 0.00D+00 IRadAn=         7 IDoV= 1 UseB2=F ITyADJ=14
 ICtDFT=  3500011 ScaDFX=  1.000000  1.000000  1.000000  1.000000
 FoFCou: FMM=F IPFlag=           0 FMFlag=      100000 FMFlg1=           0
         NFxFlg=           0 DoJE=T BraDBF=F KetDBF=T FulRan=T
         wScrn=  0.000000 ICntrl=       500 IOpCl=  0 I1Cent=   200000004 NGrid=           0
         NMat0=    1 NMatS0=      1 NMatT0=    0 NMatD0=    1 NMtDS0=    0 NMtDT0=    0
 Symmetry not used in FoFCou.
 Harris En= -76.5932715883914    
 JPrj=0 DoOrth=F DoCkMO=F.
 Initial guess <Sx>= 0.0000 <Sy>= 0.0000 <Sz>= 0.5000 <S**2>= 0.7500 S= 0.5000
 Leave Link  401 at Tue Dec  3 11:23:42 2024, MaxMem=  2147483648 cpu:               4.9 elap:               0.2
 (Enter /home/szhao/Apps/g16/l502.exe)
 Keep R1 and R2 ints in memory in canonical form, NReq=23774294.
 FoFCou: FMM=F IPFlag=           0 FMFlag=           0 FMFlg1=           0
         NFxFlg=           0 DoJE=F BraDBF=F KetDBF=F FulRan=T
         wScrn=  0.000000 ICntrl=       600 IOpCl=  0 I1Cent=           0 NGrid=           0
         NMat0=    1 NMatS0=   1596 NMatT0=    0 NMatD0=    1 NMtDS0=    0 NMtDT0=    0
 Symmetry not used in FoFCou.
 Two-electron integral symmetry not used.
 UHF open shell SCF:
 Using DIIS extrapolation, IDIIS=  1040.
 NGot=  2147483648 LenX=  2144926146 LenY=  2144922341
 Requested convergence on RMS density matrix=1.00D-08 within 128 cycles.
 Requested convergence on MAX density matrix=1.00D-06.
 Requested convergence on             energy=1.00D-06.
 No special actions if energy rises.

 Cycle   1  Pass 1  IDiag  1:
 E= -76.5459918322672    
 DIIS: error= 1.97D-02 at cycle   1 NSaved=   1.
 NSaved= 1 IEnMin= 1 EnMin= -76.5459918322672     IErMin= 1 ErrMin= 1.97D-02
 ErrMax= 1.97D-02  0.00D+00 EMaxC= 1.00D-01 BMatC= 8.06D-02 BMatP= 8.06D-02
 IDIUse=3 WtCom= 8.03D-01 WtEn= 1.97D-01
 Coeff-Com:  0.100D+01
 Coeff-En:   0.100D+01
 Coeff:      0.100D+01
 Gap=     0.161 Goal=   None    Shift=    0.000
 Gap=     0.218 Goal=   None    Shift=    0.000
 GapD=    0.161 DampG=1.000 DampE=0.500 DampFc=0.5000 IDamp=-1.
 Damping current iteration by 5.00D-01
 RMSDP=6.40D-03 MaxDP=8.93D-02              OVMax= 8.24D-02

 Cycle   2  Pass 1  IDiag  1:
 E= -76.5568788381712     Delta-E=       -0.010887005904 Rises=F Damp=T
 DIIS: error= 8.97D-03 at cycle   2 NSaved=   2.
 NSaved= 2 IEnMin= 2 EnMin= -76.5568788381712     IErMin= 2 ErrMin= 8.97D-03
 ErrMax= 8.97D-03  0.00D+00 EMaxC= 1.00D-01 BMatC= 1.50D-02 BMatP= 8.06D-02
 IDIUse=3 WtCom= 9.10D-01 WtEn= 8.97D-02
 Coeff-Com: -0.582D+00 0.158D+01
 Coeff-En:   0.000D+00 0.100D+01
 Coeff:     -0.529D+00 0.153D+01
 Gap=     0.146 Goal=   None    Shift=    0.000
 Gap=     0.206 Goal=   None    Shift=    0.000
 RMSDP=2.57D-03 MaxDP=2.80D-02 DE=-1.09D-02 OVMax= 1.89D-02

 Cycle   3  Pass 1  IDiag  1:
 E= -76.5665632431270     Delta-E=       -0.009684404956 Rises=F Damp=F
 DIIS: error= 1.24D-03 at cycle   3 NSaved=   3.
 NSaved= 3 IEnMin= 3 EnMin= -76.5665632431270     IErMin= 3 ErrMin= 1.24D-03
 ErrMax= 1.24D-03  0.00D+00 EMaxC= 1.00D-01 BMatC= 2.11D-04 BMatP= 1.50D-02
 IDIUse=3 WtCom= 9.88D-01 WtEn= 1.24D-02
 Coeff-Com: -0.828D-01 0.141D+00 0.942D+00
 Coeff-En:   0.000D+00 0.000D+00 0.100D+01
 Coeff:     -0.818D-01 0.139D+00 0.943D+00
 Gap=     0.146 Goal=   None    Shift=    0.000
 Gap=     0.208 Goal=   None    Shift=    0.000
 RMSDP=2.79D-04 MaxDP=3.60D-03 DE=-9.68D-03 OVMax= 5.41D-03

 Cycle   4  Pass 1  IDiag  1:
 E= -76.5666375994659     Delta-E=       -0.000074356339 Rises=F Damp=F
 DIIS: error= 3.24D-04 at cycle   4 NSaved=   4.
 NSaved= 4 IEnMin= 4 EnMin= -76.5666375994659     IErMin= 4 ErrMin= 3.24D-04
 ErrMax= 3.24D-04  0.00D+00 EMaxC= 1.00D-01 BMatC= 1.37D-05 BMatP= 2.11D-04
 IDIUse=3 WtCom= 9.97D-01 WtEn= 3.24D-03
 Coeff-Com:  0.295D-01-0.664D-01-0.155D+00 0.119D+01
 Coeff-En:   0.000D+00 0.000D+00 0.000D+00 0.100D+01
 Coeff:      0.294D-01-0.662D-01-0.155D+00 0.119D+01
 Gap=     0.146 Goal=   None    Shift=    0.000
 Gap=     0.208 Goal=   None    Shift=    0.000
 RMSDP=5.09D-05 MaxDP=1.36D-03 DE=-7.44D-05 OVMax= 1.30D-03

 Cycle   5  Pass 1  IDiag  1:
 E= -76.5666425841787     Delta-E=       -0.000004984713 Rises=F Damp=F
 DIIS: error= 7.48D-05 at cycle   5 NSaved=   5.
 NSaved= 5 IEnMin= 5 EnMin= -76.5666425841787     IErMin= 5 ErrMin= 7.48D-05
 ErrMax= 7.48D-05  0.00D+00 EMaxC= 1.00D-01 BMatC= 4.48D-07 BMatP= 1.37D-05
 IDIUse=1 WtCom= 1.00D+00 WtEn= 0.00D+00
 Coeff-Com:  0.214D-02-0.254D-02-0.389D-01-0.716D-01 0.111D+01
 Coeff:      0.214D-02-0.254D-02-0.389D-01-0.716D-01 0.111D+01
 Gap=     0.146 Goal=   None    Shift=    0.000
 Gap=     0.209 Goal=   None    Shift=    0.000
 RMSDP=1.30D-05 MaxDP=3.20D-04 DE=-4.98D-06 OVMax= 4.14D-04

 Cycle   6  Pass 1  IDiag  1:
 E= -76.5666428310534     Delta-E=       -0.000000246875 Rises=F Damp=F
 DIIS: error= 1.13D-05 at cycle   6 NSaved=   6.
 NSaved= 6 IEnMin= 6 EnMin= -76.5666428310534     IErMin= 6 ErrMin= 1.13D-05
 ErrMax= 1.13D-05  0.00D+00 EMaxC= 1.00D-01 BMatC= 1.63D-08 BMatP= 4.48D-07
 IDIUse=1 WtCom= 1.00D+00 WtEn= 0.00D+00
 Coeff-Com: -0.763D-03 0.139D-02 0.940D-02-0.183D-01-0.175D+00 0.118D+01
 Coeff:     -0.763D-03 0.139D-02 0.940D-02-0.183D-01-0.175D+00 0.118D+01
 Gap=     0.146 Goal=   None    Shift=    0.000
 Gap=     0.209 Goal=   None    Shift=    0.000
 RMSDP=3.60D-06 MaxDP=6.12D-05 DE=-2.47D-07 OVMax= 8.73D-05

 Cycle   7  Pass 1  IDiag  1:
 E= -76.5666428404607     Delta-E=       -0.000000009407 Rises=F Damp=F
 DIIS: error= 7.21D-06 at cycle   7 NSaved=   7.
 NSaved= 7 IEnMin= 7 EnMin= -76.5666428404607     IErMin= 7 ErrMin= 7.21D-06
 ErrMax= 7.21D-06  0.00D+00 EMaxC= 1.00D-01 BMatC= 6.01D-09 BMatP= 1.63D-08
 IDIUse=1 WtCom= 1.00D+00 WtEn= 0.00D+00
 Coeff-Com: -0.421D-03 0.710D-03 0.556D-02-0.503D-02-0.127D+00 0.538D+00
 Coeff-Com:  0.588D+00
 Coeff:     -0.421D-03 0.710D-03 0.556D-02-0.503D-02-0.127D+00 0.538D+00
 Coeff:      0.588D+00
 Gap=     0.146 Goal=   None    Shift=    0.000
 Gap=     0.209 Goal=   None    Shift=    0.000
 RMSDP=9.26D-07 MaxDP=1.57D-05 DE=-9.41D-09 OVMax= 6.64D-05

 Cycle   8  Pass 1  IDiag  1:
 E= -76.5666428426929     Delta-E=       -0.000000002232 Rises=F Damp=F
 DIIS: error= 2.14D-06 at cycle   8 NSaved=   8.
 NSaved= 8 IEnMin= 8 EnMin= -76.5666428426929     IErMin= 8 ErrMin= 2.14D-06
 ErrMax= 2.14D-06  0.00D+00 EMaxC= 1.00D-01 BMatC= 7.00D-10 BMatP= 6.01D-09
 IDIUse=1 WtCom= 1.00D+00 WtEn= 0.00D+00
 Coeff-Com:  0.173D-03-0.322D-03-0.237D-02 0.488D-02 0.345D-01-0.265D+00
 Coeff-Com:  0.957D-01 0.113D+01
 Coeff:      0.173D-03-0.322D-03-0.237D-02 0.488D-02 0.345D-01-0.265D+00
 Coeff:      0.957D-01 0.113D+01
 Gap=     0.146 Goal=   None    Shift=    0.000
 Gap=     0.209 Goal=   None    Shift=    0.000
 RMSDP=5.48D-07 MaxDP=9.17D-06 DE=-2.23D-09 OVMax= 1.50D-05

 Cycle   9  Pass 1  IDiag  1:
 E= -76.5666428431389     Delta-E=       -0.000000000446 Rises=F Damp=F
 DIIS: error= 5.38D-07 at cycle   9 NSaved=   9.
 NSaved= 9 IEnMin= 9 EnMin= -76.5666428431389     IErMin= 9 ErrMin= 5.38D-07
 ErrMax= 5.38D-07  0.00D+00 EMaxC= 1.00D-01 BMatC= 3.38D-11 BMatP= 7.00D-10
 IDIUse=1 WtCom= 1.00D+00 WtEn= 0.00D+00
 Coeff-Com: -0.241D-04 0.520D-04 0.296D-03-0.133D-02 0.262D-02 0.248D-01
 Coeff-Com: -0.818D-01-0.299D+00 0.135D+01
 Coeff:     -0.241D-04 0.520D-04 0.296D-03-0.133D-02 0.262D-02 0.248D-01
 Coeff:     -0.818D-01-0.299D+00 0.135D+01
 Gap=     0.146 Goal=   None    Shift=    0.000
 Gap=     0.209 Goal=   None    Shift=    0.000
 RMSDP=1.40D-07 MaxDP=1.58D-06 DE=-4.46D-10 OVMax= 5.72D-06

 Cycle  10  Pass 1  IDiag  1:
 E= -76.5666428431715     Delta-E=       -0.000000000033 Rises=F Damp=F
 DIIS: error= 2.40D-07 at cycle  10 NSaved=  10.
 NSaved=10 IEnMin=10 EnMin= -76.5666428431715     IErMin=10 ErrMin= 2.40D-07
 ErrMax= 2.40D-07  0.00D+00 EMaxC= 1.00D-01 BMatC= 1.58D-12 BMatP= 3.38D-11
 IDIUse=1 WtCom= 1.00D+00 WtEn= 0.00D+00
 Coeff-Com: -0.316D-05 0.497D-05 0.198D-04-0.316D-05-0.160D-02 0.569D-02
 Coeff-Com:  0.146D-01 0.212D-01-0.299D+00 0.126D+01
 Coeff:     -0.316D-05 0.497D-05 0.198D-04-0.316D-05-0.160D-02 0.569D-02
 Coeff:      0.146D-01 0.212D-01-0.299D+00 0.126D+01
 Gap=     0.146 Goal=   None    Shift=    0.000
 Gap=     0.209 Goal=   None    Shift=    0.000
 RMSDP=4.33D-08 MaxDP=4.79D-07 DE=-3.26D-11 OVMax= 5.04D-06

 Cycle  11  Pass 1  IDiag  1:
 E= -76.5666428431785     Delta-E=       -0.000000000007 Rises=F Damp=F
 DIIS: error= 2.40D-07 at cycle  11 NSaved=  11.
 NSaved=11 IEnMin=11 EnMin= -76.5666428431785     IErMin=11 ErrMin= 2.40D-07
 ErrMax= 2.40D-07  0.00D+00 EMaxC= 1.00D-01 BMatC= 8.87D-13 BMatP= 1.58D-12
 IDIUse=1 WtCom= 1.00D+00 WtEn= 0.00D+00
 Coeff-Com:  0.744D-06-0.139D-05-0.523D-05 0.137D-04 0.136D-03-0.867D-03
 Coeff-Com: -0.778D-03 0.670D-03 0.212D-01-0.180D+00 0.116D+01
 Coeff:      0.744D-06-0.139D-05-0.523D-05 0.137D-04 0.136D-03-0.867D-03
 Coeff:     -0.778D-03 0.670D-03 0.212D-01-0.180D+00 0.116D+01
 Gap=     0.146 Goal=   None    Shift=    0.000
 Gap=     0.209 Goal=   None    Shift=    0.000
 RMSDP=3.64D-08 MaxDP=4.29D-07 DE=-6.99D-12 OVMax= 4.54D-06

 Cycle  12  Pass 1  IDiag  1:
 E= -76.5666428431843     Delta-E=       -0.000000000006 Rises=F Damp=F
 DIIS: error= 2.40D-07 at cycle  12 NSaved=  12.
 NSaved=12 IEnMin=12 EnMin= -76.5666428431843     IErMin=12 ErrMin= 2.40D-07
 ErrMax= 2.40D-07  0.00D+00 EMaxC= 1.00D-01 BMatC= 8.82D-13 BMatP= 8.87D-13
 IDIUse=1 WtCom= 1.00D+00 WtEn= 0.00D+00
 Coeff-Com: -0.389D-07 0.833D-07 0.972D-07 0.522D-06 0.675D-06 0.201D-05
 Coeff-Com:  0.463D-05-0.686D-04-0.135D-03 0.992D-02-0.141D+00 0.113D+01
 Coeff:     -0.389D-07 0.833D-07 0.972D-07 0.522D-06 0.675D-06 0.201D-05
 Coeff:      0.463D-05-0.686D-04-0.135D-03 0.992D-02-0.141D+00 0.113D+01
 Gap=     0.146 Goal=   None    Shift=    0.000
 Gap=     0.209 Goal=   None    Shift=    0.000
 RMSDP=3.52D-08 MaxDP=4.14D-07 DE=-5.77D-12 OVMax= 4.39D-06

 Cycle  13  Pass 1  IDiag  1:
 E= -76.5666428431899     Delta-E=       -0.000000000006 Rises=F Damp=F
 DIIS: error= 2.40D-07 at cycle  13 NSaved=  13.
 NSaved=13 IEnMin=13 EnMin= -76.5666428431899     IErMin=13 ErrMin= 2.40D-07
 ErrMax= 2.40D-07  0.00D+00 EMaxC= 1.00D-01 BMatC= 8.82D-13 BMatP= 8.82D-13
 IDIUse=1 WtCom= 1.00D+00 WtEn= 0.00D+00
 Coeff-Com:  0.252D-07-0.597D-07 0.723D-07-0.112D-05-0.496D-05 0.287D-04
 Coeff-Com:  0.174D-04-0.188D-04-0.270D-03-0.576D-02 0.114D+00-0.126D+01
 Coeff-Com:  0.215D+01
 Coeff:      0.252D-07-0.597D-07 0.723D-07-0.112D-05-0.496D-05 0.287D-04
 Coeff:      0.174D-04-0.188D-04-0.270D-03-0.576D-02 0.114D+00-0.126D+01
 Coeff:      0.215D+01
 Gap=     0.146 Goal=   None    Shift=    0.000
 Gap=     0.209 Goal=   None    Shift=    0.000
 RMSDP=6.75D-08 MaxDP=7.96D-07 DE=-5.66D-12 OVMax= 8.43D-06

 Cycle  14  Pass 1  IDiag  1:
 E= -76.5666428432007     Delta-E=       -0.000000000011 Rises=F Damp=F
 DIIS: error= 2.40D-07 at cycle  14 NSaved=  14.
 NSaved=14 IEnMin=14 EnMin= -76.5666428432007     IErMin=14 ErrMin= 2.40D-07
 ErrMax= 2.40D-07  0.00D+00 EMaxC= 1.00D-01 BMatC= 8.82D-13 BMatP= 8.82D-13
 IDIUse=1 WtCom= 1.00D+00 WtEn= 0.00D+00
 Large coefficients: NSaved= 14 BigCof=   57.30 CofMax=   10.00 Det=-3.17D-19
 Inversion failed.  Reducing to 13 matrices.
 Large coefficients: NSaved= 13 BigCof=   56.05 CofMax=   10.00 Det=-3.27D-19
 Inversion failed.  Reducing to 12 matrices.
 Large coefficients: NSaved= 12 BigCof=   48.26 CofMax=   10.00 Det=-3.87D-19
 Inversion failed.  Reducing to 11 matrices.
 Large coefficients: NSaved= 11 BigCof=   34.00 CofMax=   10.00 Det=-5.71D-19
 Inversion failed.  Reducing to 10 matrices.
 Large coefficients: NSaved= 10 BigCof=   20.84 CofMax=   10.00 Det=-1.04D-18
 Inversion failed.  Reducing to  9 matrices.
 Large coefficients: NSaved=  9 BigCof=   16.63 CofMax=   10.00 Det=-1.43D-18
 Inversion failed.  Reducing to  8 matrices.
 Large coefficients: NSaved=  8 BigCof=   16.63 CofMax=   10.00 Det=-1.44D-18
 Inversion failed.  Reducing to  7 matrices.
 Large coefficients: NSaved=  7 BigCof=   16.63 CofMax=   10.00 Det=-1.44D-18
 Inversion failed.  Reducing to  6 matrices.
 Large coefficients: NSaved=  6 BigCof=   13.55 CofMax=   10.00 Det=-1.73D-18
 Inversion failed.  Reducing to  5 matrices.
 Large coefficients: NSaved=  5 BigCof=   13.55 CofMax=   10.00 Det=-1.73D-18
 Inversion failed.  Reducing to  4 matrices.
 Large coefficients: NSaved=  4 BigCof=   13.35 CofMax=   10.00 Det=-1.73D-18
 Inversion failed.  Reducing to  3 matrices.
 Large coefficients: NSaved=  3 BigCof=   12.15 CofMax=   10.00 Det=-1.82D-18
 Inversion failed.  Reducing to  2 matrices.
 Large coefficients: NSaved=  2 BigCof=   10.10 CofMax=   10.00 Det=-3.02D-18
 Coeff-Com: -0.910D+01 0.101D+02
 Coeff:     -0.910D+01 0.101D+02
 Gap=     0.146 Goal=   None    Shift=    0.000
 Gap=     0.209 Goal=   None    Shift=    0.000
 RMSDP=6.46D-07 MaxDP=7.61D-06 DE=-1.07D-11 OVMax= 8.06D-05

 Cycle  15  Pass 1  IDiag  1:
 E= -76.5666428433037     Delta-E=       -0.000000000103 Rises=F Damp=F
 DIIS: error= 2.40D-07 at cycle  15 NSaved=   3.
 NSaved= 3 IEnMin= 3 EnMin= -76.5666428433037     IErMin= 3 ErrMin= 2.40D-07
 ErrMax= 2.40D-07  0.00D+00 EMaxC= 1.00D-01 BMatC= 8.81D-13 BMatP= 8.82D-13
 IDIUse=1 WtCom= 1.00D+00 WtEn= 0.00D+00
 Coeff-Com: -0.165D+00-0.801D+01 0.918D+01
 Coeff:     -0.165D+00-0.801D+01 0.918D+01
 Gap=     0.146 Goal=   None    Shift=    0.000
 Gap=     0.209 Goal=   None    Shift=    0.000
 RMSDP=5.32D-06 MaxDP=6.27D-05 DE=-1.03D-10 OVMax= 6.64D-04

 Cycle  16  Pass 1  IDiag  1:
 E= -76.5666428441512     Delta-E=       -0.000000000848 Rises=F Damp=F
 DIIS: error= 2.39D-07 at cycle  16 NSaved=   4.
 NSaved= 4 IEnMin= 4 EnMin= -76.5666428441512     IErMin= 4 ErrMin= 2.39D-07
 ErrMax= 2.39D-07  0.00D+00 EMaxC= 1.00D-01 BMatC= 8.81D-13 BMatP= 8.81D-13
 IDIUse=1 WtCom= 1.00D+00 WtEn= 0.00D+00
 Large coefficients: NSaved=  4 BigCof=   62.06 CofMax=   10.00 Det=-1.06D-18
 Inversion failed.  Reducing to  3 matrices.
 Large coefficients: NSaved=  3 BigCof=   13.22 CofMax=   10.00 Det=-2.45D-17
 Inversion failed.  Reducing to  2 matrices.
 Coeff-Com:  0.464D+00 0.536D+00
 Coeff:      0.464D+00 0.536D+00
 Gap=     0.146 Goal=   None    Shift=    0.000
 Gap=     0.209 Goal=   None    Shift=    0.000
 RMSDP=2.44D-06 MaxDP=2.88D-05 DE=-8.48D-10 OVMax= 3.05D-04

 Cycle  17  Pass 1  IDiag  1:
 E= -76.5666428437629     Delta-E=        0.000000000388 Rises=F Damp=F
 DIIS: error= 2.39D-07 at cycle  17 NSaved=   3.
 NSaved= 3 IEnMin= 2 EnMin= -76.5666428441512     IErMin= 2 ErrMin= 2.39D-07
 ErrMax= 2.39D-07  0.00D+00 EMaxC= 1.00D-01 BMatC= 8.79D-13 BMatP= 8.81D-13
 IDIUse=1 WtCom= 1.00D+00 WtEn= 0.00D+00
 Large coefficients: NSaved=  3 BigCof=   26.45 CofMax=   10.00 Det=-5.50D-17
 Inversion failed.  Reducing to  2 matrices.
 Coeff-Com:  0.429D+00 0.571D+00
 Coeff:      0.429D+00 0.571D+00
 Gap=     0.146 Goal=   None    Shift=    0.000
 Gap=     0.209 Goal=   None    Shift=    0.000
 RMSDP=1.08D-06 MaxDP=1.27D-05 DE= 3.88D-10 OVMax= 1.34D-04

 Cycle  18  Pass 1  IDiag  1:
 E= -76.5666428439343     Delta-E=       -0.000000000171 Rises=F Damp=F
 DIIS: error= 2.39D-07 at cycle  18 NSaved=   3.
 NSaved= 3 IEnMin= 1 EnMin= -76.5666428441512     IErMin= 1 ErrMin= 2.39D-07
 ErrMax= 2.39D-07  0.00D+00 EMaxC= 1.00D-01 BMatC= 8.78D-13 BMatP= 8.79D-13
 IDIUse=1 WtCom= 1.00D+00 WtEn= 0.00D+00
 Coeff-Com: -0.994D+00-0.301D+01 0.501D+01
 Coeff:     -0.994D+00-0.301D+01 0.501D+01
 Gap=     0.146 Goal=   None    Shift=    0.000
 Gap=     0.209 Goal=   None    Shift=    0.000
 RMSDP=1.92D-06 MaxDP=2.26D-05 DE=-1.71D-10 OVMax= 2.39D-04

 Cycle  19  Pass 1  IDiag  1:
 E= -76.5666428442393     Delta-E=       -0.000000000305 Rises=F Damp=F
 DIIS: error= 2.39D-07 at cycle  19 NSaved=   4.
 NSaved= 4 IEnMin= 4 EnMin= -76.5666428442393     IErMin= 4 ErrMin= 2.39D-07
 ErrMax= 2.39D-07  0.00D+00 EMaxC= 1.00D-01 BMatC= 8.77D-13 BMatP= 8.78D-13
 IDIUse=1 WtCom= 1.00D+00 WtEn= 0.00D+00
 Large coefficients: NSaved=  4 BigCof=   14.54 CofMax=   10.00 Det=-4.43D-17
 Inversion failed.  Reducing to  3 matrices.
 Coeff-Com:  0.132D+01-0.447D+01 0.415D+01
 Coeff:      0.132D+01-0.447D+01 0.415D+01
 Gap=     0.146 Goal=   None    Shift=    0.000
 Gap=     0.209 Goal=   None    Shift=    0.000
 RMSDP=7.87D-06 MaxDP=9.28D-05 DE=-3.05D-10 OVMax= 9.82D-04

 Cycle  20  Pass 1  IDiag  1:
 E= -76.5666428454883     Delta-E=       -0.000000001249 Rises=F Damp=F
 DIIS: error= 2.38D-07 at cycle  20 NSaved=   4.
 NSaved= 4 IEnMin= 4 EnMin= -76.5666428454883     IErMin= 4 ErrMin= 2.38D-07
 ErrMax= 2.38D-07  0.00D+00 EMaxC= 1.00D-01 BMatC= 8.76D-13 BMatP= 8.77D-13
 IDIUse=1 WtCom= 1.00D+00 WtEn= 0.00D+00
 Large coefficients: NSaved=  4 BigCof=   13.84 CofMax=   10.00 Det=-7.25D-18
 Inversion failed.  Reducing to  3 matrices.
 Coeff-Com: -0.260D+00 0.538D+00 0.721D+00
 Coeff:     -0.260D+00 0.538D+00 0.721D+00
 Gap=     0.146 Goal=   None    Shift=    0.000
 Gap=     0.209 Goal=   None    Shift=    0.000
 RMSDP=2.02D-06 MaxDP=2.38D-05 DE=-1.25D-09 OVMax= 2.52D-04

 Cycle  21  Pass 1  IDiag  1:
 E= -76.5666428451686     Delta-E=        0.000000000320 Rises=F Damp=F
 DIIS: error= 2.38D-07 at cycle  21 NSaved=   4.
 NSaved= 4 IEnMin= 3 EnMin= -76.5666428454883     IErMin= 3 ErrMin= 2.38D-07
 ErrMax= 2.38D-07  0.00D+00 EMaxC= 1.00D-01 BMatC= 8.71D-13 BMatP= 8.76D-13
 IDIUse=1 WtCom= 1.00D+00 WtEn= 0.00D+00
 Large coefficients: NSaved=  4 BigCof=   15.84 CofMax=   10.00 Det=-4.79D-16
 Inversion failed.  Reducing to  3 matrices.
 Coeff-Com: -0.105D+01 0.293D+00 0.176D+01
 Coeff:     -0.105D+01 0.293D+00 0.176D+01
 Gap=     0.146 Goal=   None    Shift=    0.000
 Gap=     0.209 Goal=   None    Shift=    0.000
 RMSDP=6.78D-06 MaxDP=8.00D-05 DE= 3.20D-10 OVMax= 8.46D-04

 Cycle  22  Pass 1  IDiag  1:
 E= -76.5666428462416     Delta-E=       -0.000000001073 Rises=F Damp=F
 DIIS: error= 2.38D-07 at cycle  22 NSaved=   4.
 NSaved= 4 IEnMin= 4 EnMin= -76.5666428462416     IErMin= 4 ErrMin= 2.38D-07
 ErrMax= 2.38D-07  0.00D+00 EMaxC= 1.00D-01 BMatC= 8.78D-13 BMatP= 8.71D-13
 IDIUse=1 WtCom= 1.00D+00 WtEn= 0.00D+00
 Large coefficients: NSaved=  4 BigCof=   63.51 CofMax=   10.00 Det=-5.48D-17
 Inversion failed.  Reducing to  3 matrices.
 Coeff-Com: -0.232D+00 0.831D+00 0.401D+00
 Coeff:     -0.232D+00 0.831D+00 0.401D+00
 Gap=     0.146 Goal=   None    Shift=    0.000
 Gap=     0.209 Goal=   None    Shift=    0.000
 RMSDP=4.49D-06 MaxDP=5.31D-05 DE=-1.07D-09 OVMax= 5.61D-04

 Cycle  23  Pass 1  IDiag  1:
 E= -76.5666428455304     Delta-E=        0.000000000711 Rises=F Damp=F
 DIIS: error= 2.38D-07 at cycle  23 NSaved=   4.
 NSaved= 4 IEnMin= 3 EnMin= -76.5666428462416     IErMin= 3 ErrMin= 2.38D-07
 ErrMax= 2.38D-07  0.00D+00 EMaxC= 1.00D-01 BMatC= 8.70D-13 BMatP= 8.71D-13
 IDIUse=1 WtCom= 1.00D+00 WtEn= 0.00D+00
 Large coefficients: NSaved=  4 BigCof=   10.61 CofMax=   10.00 Det=-1.09D-16
 Inversion failed.  Reducing to  3 matrices.
 Coeff-Com: -0.416D+00 0.484D+00 0.932D+00
 Coeff:     -0.416D+00 0.484D+00 0.932D+00
 Gap=     0.146 Goal=   None    Shift=    0.000
 Gap=     0.209 Goal=   None    Shift=    0.000
 RMSDP=2.31D-06 MaxDP=2.73D-05 DE= 7.11D-10 OVMax= 2.89D-04

 Cycle  24  Pass 1  IDiag  1:
 E= -76.5666428458969     Delta-E=       -0.000000000367 Rises=F Damp=F
 DIIS: error= 2.38D-07 at cycle  24 NSaved=   4.
 NSaved= 4 IEnMin= 2 EnMin= -76.5666428462416     IErMin= 2 ErrMin= 2.38D-07
 ErrMax= 2.38D-07  0.00D+00 EMaxC= 1.00D-01 BMatC= 8.68D-13 BMatP= 8.70D-13
 IDIUse=1 WtCom= 1.00D+00 WtEn= 0.00D+00
 Large coefficients: NSaved=  4 BigCof=  186.82 CofMax=   10.00 Det=-6.11D-18
 Inversion failed.  Reducing to  3 matrices.
 Large coefficients: NSaved=  3 BigCof=   50.97 CofMax=   10.00 Det=-1.92D-17
 Inversion failed.  Reducing to  2 matrices.
 Large coefficients: NSaved=  2 BigCof=   39.83 CofMax=   10.00 Det=-2.63D-17
 Coeff-Com: -0.388D+02 0.398D+02
 Coeff:     -0.388D+02 0.398D+02
 Gap=     0.146 Goal=   None    Shift=    0.000
 Gap=     0.209 Goal=   None    Shift=    0.000
 RMSDP=8.99D-05 MaxDP=1.06D-03 DE=-3.67D-10 OVMax= 1.12D-02

 Cycle  25  Pass 1  IDiag  1:
 E= -76.5666428597541     Delta-E=       -0.000000013857 Rises=F Damp=F
 DIIS: error= 1.27D-06 at cycle  25 NSaved=   3.
 NSaved= 3 IEnMin= 3 EnMin= -76.5666428597541     IErMin= 2 ErrMin= 2.38D-07
 ErrMax= 1.27D-06  0.00D+00 EMaxC= 1.00D-01 BMatC= 6.38D-11 BMatP= 8.68D-13
 IDIUse=1 WtCom= 1.00D+00 WtEn= 0.00D+00
 Large coefficients: NSaved=  3 BigCof=  198.61 CofMax=   10.00 Det=-4.80D-18
 Inversion failed.  Reducing to  2 matrices.
 Coeff-Com:  0.998D+00 0.202D-02
 Coeff:      0.998D+00 0.202D-02
 Gap=     0.146 Goal=   None    Shift=    0.000
 Gap=     0.209 Goal=   None    Shift=    0.000
 RMSDP=8.97D-05 MaxDP=1.06D-03 DE=-1.39D-08 OVMax= 1.12D-02

 Cycle  26  Pass 1  IDiag  1:
 E= -76.5666428459304     Delta-E=        0.000000013824 Rises=F Damp=F
 DIIS: error= 2.38D-07 at cycle  26 NSaved=   3.
 NSaved= 3 IEnMin= 2 EnMin= -76.5666428597541     IErMin= 3 ErrMin= 2.38D-07
 ErrMax= 2.38D-07  0.00D+00 EMaxC= 1.00D-01 BMatC= 8.68D-13 BMatP= 8.68D-13
 IDIUse=1 WtCom= 1.00D+00 WtEn= 0.00D+00
 Coeff-Com:  0.502D+00 0.256D-02 0.496D+00
 Coeff:      0.502D+00 0.256D-02 0.496D+00
 Gap=     0.146 Goal=   None    Shift=    0.000
 Gap=     0.209 Goal=   None    Shift=    0.000
 RMSDP=1.54D-07 MaxDP=1.81D-06 DE= 1.38D-08 OVMax= 1.92D-05

 Cycle  27  Pass 1  IDiag  1:
 E= -76.5666428459546     Delta-E=       -0.000000000024 Rises=F Damp=F
 DIIS: error= 2.38D-07 at cycle  27 NSaved=   4.
 NSaved= 4 IEnMin= 2 EnMin= -76.5666428597541     IErMin= 4 ErrMin= 2.38D-07
 ErrMax= 2.38D-07  0.00D+00 EMaxC= 1.00D-01 BMatC= 8.67D-13 BMatP= 8.68D-13
 IDIUse=1 WtCom= 1.00D+00 WtEn= 0.00D+00
 Large coefficients: NSaved=  4 BigCof=  287.29 CofMax=   10.00 Det=-2.10D-18
 Inversion failed.  Reducing to  3 matrices.
 Coeff-Com:  0.362D-02 0.731D-02 0.989D+00
 Coeff:      0.362D-02 0.731D-02 0.989D+00
 Gap=     0.146 Goal=   None    Shift=    0.000
 Gap=     0.209 Goal=   None    Shift=    0.000
 RMSDP=3.53D-07 MaxDP=4.17D-06 DE=-2.42D-11 OVMax= 4.41D-05

 Cycle  28  Pass 1  IDiag  1:
 E= -76.5666428460105     Delta-E=       -0.000000000056 Rises=F Damp=F
 DIIS: error= 2.38D-07 at cycle  28 NSaved=   4.
 NSaved= 4 IEnMin= 1 EnMin= -76.5666428597541     IErMin= 4 ErrMin= 2.38D-07
 ErrMax= 2.38D-07  0.00D+00 EMaxC= 1.00D-01 BMatC= 8.67D-13 BMatP= 8.67D-13
 IDIUse=1 WtCom= 1.00D+00 WtEn= 0.00D+00
 Large coefficients: NSaved=  4 BigCof= 1462.12 CofMax=   10.00 Det=-2.99D-19
 Inversion failed.  Reducing to  3 matrices.
 Coeff-Com:  0.801D-02-0.345D+01 0.445D+01
 Coeff:      0.801D-02-0.345D+01 0.445D+01
 Gap=     0.146 Goal=   None    Shift=    0.000
 Gap=     0.209 Goal=   None    Shift=    0.000
 RMSDP=1.97D-06 MaxDP=2.32D-05 DE=-5.59D-11 OVMax= 2.45D-04

 Cycle  29  Pass 1  IDiag  1:
 E= -76.5666428463212     Delta-E=       -0.000000000311 Rises=F Damp=F
 DIIS: error= 2.38D-07 at cycle  29 NSaved=   4.
 NSaved= 4 IEnMin= 1 EnMin= -76.5666428597541     IErMin= 4 ErrMin= 2.38D-07
 ErrMax= 2.38D-07  0.00D+00 EMaxC= 1.00D-01 BMatC= 8.69D-13 BMatP= 8.67D-13
 IDIUse=1 WtCom= 1.00D+00 WtEn= 0.00D+00
 Large coefficients: NSaved=  4 BigCof= 1087.29 CofMax=   10.00 Det=-4.15D-19
 Inversion failed.  Reducing to  3 matrices.
 Coeff-Com:  0.721D-02 0.282D+00 0.711D+00
 Coeff:      0.721D-02 0.282D+00 0.711D+00
 Gap=     0.146 Goal=   None    Shift=    0.000
 Gap=     0.209 Goal=   None    Shift=    0.000
 RMSDP=1.04D-07 MaxDP=1.23D-06 DE=-3.11D-10 OVMax= 1.30D-05

 Cycle  30  Pass 1  IDiag  1:
 E= -76.5666428463378     Delta-E=       -0.000000000017 Rises=F Damp=F
 DIIS: error= 2.38D-07 at cycle  30 NSaved=   4.
 NSaved= 4 IEnMin= 1 EnMin= -76.5666428597541     IErMin= 4 ErrMin= 2.38D-07
 ErrMax= 2.38D-07  0.00D+00 EMaxC= 1.00D-01 BMatC= 8.68D-13 BMatP= 8.67D-13
 IDIUse=1 WtCom= 1.00D+00 WtEn= 0.00D+00
 Large coefficients: NSaved=  4 BigCof=  534.22 CofMax=   10.00 Det=-2.21D-18
 Inversion failed.  Reducing to  3 matrices.
 Coeff-Com:  0.798D-02 0.451D+00 0.541D+00
 Coeff:      0.798D-02 0.451D+00 0.541D+00
 Gap=     0.146 Goal=   None    Shift=    0.000
 Gap=     0.209 Goal=   None    Shift=    0.000
 RMSDP=6.78D-07 MaxDP=8.01D-06 DE=-1.65D-11 OVMax= 8.47D-05

 Cycle  31  Pass 1  IDiag  1:
 E= -76.5666428464450     Delta-E=       -0.000000000107 Rises=F Damp=F
 DIIS: error= 2.37D-07 at cycle  31 NSaved=   4.
 NSaved= 4 IEnMin= 1 EnMin= -76.5666428597541     IErMin= 4 ErrMin= 2.37D-07
 ErrMax= 2.37D-07  0.00D+00 EMaxC= 1.00D-01 BMatC= 8.67D-13 BMatP= 8.68D-13
 IDIUse=1 WtCom= 1.00D+00 WtEn= 0.00D+00
 Large coefficients: NSaved=  4 BigCof= 2378.31 CofMax=   10.00 Det=-4.99D-19
 Inversion failed.  Reducing to  3 matrices.
 Coeff-Com:  0.842D-02-0.283D+00 0.127D+01
 Coeff:      0.842D-02-0.283D+00 0.127D+01
 Gap=     0.146 Goal=   None    Shift=    0.000
 Gap=     0.209 Goal=   None    Shift=    0.000
 RMSDP=9.50D-07 MaxDP=1.12D-05 DE=-1.07D-10 OVMax= 1.19D-04

 Cycle  32  Pass 1  IDiag  1:
 E= -76.5666428465950     Delta-E=       -0.000000000150 Rises=F Damp=F
 DIIS: error= 2.37D-07 at cycle  32 NSaved=   4.
 NSaved= 4 IEnMin= 1 EnMin= -76.5666428597541     IErMin= 4 ErrMin= 2.37D-07
 ErrMax= 2.37D-07  0.00D+00 EMaxC= 1.00D-01 BMatC= 8.66D-13 BMatP= 8.67D-13
 IDIUse=1 WtCom= 1.00D+00 WtEn= 0.00D+00
 Large coefficients: NSaved=  4 BigCof= 1516.59 CofMax=   10.00 Det=-9.42D-19
 Inversion failed.  Reducing to  3 matrices.
 Coeff-Com:  0.884D-02-0.175D+01 0.274D+01
 Coeff:      0.884D-02-0.175D+01 0.274D+01
 Gap=     0.146 Goal=   None    Shift=    0.000
 Gap=     0.209 Goal=   None    Shift=    0.000
 RMSDP=2.44D-06 MaxDP=2.89D-05 DE=-1.50D-10 OVMax= 3.05D-04

 Cycle  33  Pass 1  IDiag  1:
 E= -76.5666428469806     Delta-E=       -0.000000000386 Rises=F Damp=F
 DIIS: error= 2.37D-07 at cycle  33 NSaved=   4.
 NSaved= 4 IEnMin= 1 EnMin= -76.5666428597541     IErMin= 4 ErrMin= 2.37D-07
 ErrMax= 2.37D-07  0.00D+00 EMaxC= 1.00D-01 BMatC= 8.66D-13 BMatP= 8.66D-13
 IDIUse=1 WtCom= 1.00D+00 WtEn= 0.00D+00
 Large coefficients: NSaved=  4 BigCof= 1287.47 CofMax=   10.00 Det=-5.17D-19
 Inversion failed.  Reducing to  3 matrices.
 Coeff-Com:  0.815D-02 0.437D+00 0.555D+00
 Coeff:      0.815D-02 0.437D+00 0.555D+00
 Gap=     0.146 Goal=   None    Shift=    0.000
 Gap=     0.209 Goal=   None    Shift=    0.000
 RMSDP=3.60D-07 MaxDP=4.25D-06 DE=-3.86D-10 OVMax= 4.49D-05

 Cycle  34  Pass 1  IDiag  1:
 E= -76.5666428469238     Delta-E=        0.000000000057 Rises=F Damp=F
 DIIS: error= 2.37D-07 at cycle  34 NSaved=   4.
 NSaved= 4 IEnMin= 1 EnMin= -76.5666428597541     IErMin= 3 ErrMin= 2.37D-07
 ErrMax= 2.37D-07  0.00D+00 EMaxC= 1.00D-01 BMatC= 8.65D-13 BMatP= 8.66D-13
 IDIUse=1 WtCom= 1.00D+00 WtEn= 0.00D+00
 Large coefficients: NSaved=  4 BigCof=  945.58 CofMax=   10.00 Det=-9.49D-19
 Inversion failed.  Reducing to  3 matrices.
 Coeff-Com:  0.799D-02 0.378D+00 0.614D+00
 Coeff:      0.799D-02 0.378D+00 0.614D+00
 Gap=     0.146 Goal=   None    Shift=    0.000
 Gap=     0.209 Goal=   None    Shift=    0.000
 RMSDP=8.33D-07 MaxDP=9.83D-06 DE= 5.68D-11 OVMax= 1.04D-04

 Cycle  35  Pass 1  IDiag  1:
 E= -76.5666428470551     Delta-E=       -0.000000000131 Rises=F Damp=F
 DIIS: error= 2.37D-07 at cycle  35 NSaved=   4.
 NSaved= 4 IEnMin= 1 EnMin= -76.5666428597541     IErMin= 4 ErrMin= 2.37D-07
 ErrMax= 2.37D-07  0.00D+00 EMaxC= 1.00D-01 BMatC= 8.63D-13 BMatP= 8.65D-13
 IDIUse=1 WtCom= 1.00D+00 WtEn= 0.00D+00
 Large coefficients: NSaved=  4 BigCof= 2840.94 CofMax=   10.00 Det=-2.09D-19
 Inversion failed.  Reducing to  3 matrices.
 Coeff-Com:  0.722D-02-0.912D+00 0.190D+01
 Coeff:      0.722D-02-0.912D+00 0.190D+01
 Gap=     0.146 Goal=   None    Shift=    0.000
 Gap=     0.209 Goal=   None    Shift=    0.000
 RMSDP=1.39D-06 MaxDP=1.64D-05 DE=-1.31D-10 OVMax= 1.73D-04

 Cycle  36  Pass 1  IDiag  1:
 E= -76.5666428472735     Delta-E=       -0.000000000218 Rises=F Damp=F
 DIIS: error= 2.37D-07 at cycle  36 NSaved=   4.
 NSaved= 4 IEnMin= 1 EnMin= -76.5666428597541     IErMin= 4 ErrMin= 2.37D-07
 ErrMax= 2.37D-07  0.00D+00 EMaxC= 1.00D-01 BMatC= 8.61D-13 BMatP= 8.63D-13
 IDIUse=1 WtCom= 1.00D+00 WtEn= 0.00D+00
 Large coefficients: NSaved=  4 BigCof=  981.38 CofMax=   10.00 Det=-1.12D-18
 Inversion failed.  Reducing to  3 matrices.
 Coeff-Com:  0.602D-02-0.609D+00 0.160D+01
 Coeff:      0.602D-02-0.609D+00 0.160D+01
 Gap=     0.146 Goal=   None    Shift=    0.000
 Gap=     0.209 Goal=   None    Shift=    0.000
 RMSDP=1.36D-06 MaxDP=1.61D-05 DE=-2.18D-10 OVMax= 1.70D-04

 Cycle  37  Pass 1  IDiag  1:
 E= -76.5666428474881     Delta-E=       -0.000000000215 Rises=F Damp=F
 DIIS: error= 2.37D-07 at cycle  37 NSaved=   4.
 NSaved= 4 IEnMin= 1 EnMin= -76.5666428597541     IErMin= 4 ErrMin= 2.37D-07
 ErrMax= 2.37D-07  0.00D+00 EMaxC= 1.00D-01 BMatC= 8.61D-13 BMatP= 8.61D-13
 IDIUse=1 WtCom= 1.00D+00 WtEn= 0.00D+00
 Large coefficients: NSaved=  4 BigCof= 1136.52 CofMax=   10.00 Det=-5.95D-19
 Inversion failed.  Reducing to  3 matrices.
 Coeff-Com:  0.603D-02 0.504D+00 0.490D+00
 Coeff:      0.603D-02 0.504D+00 0.490D+00
 Gap=     0.146 Goal=   None    Shift=    0.000
 Gap=     0.209 Goal=   None    Shift=    0.000
 RMSDP=1.75D-07 MaxDP=2.07D-06 DE=-2.15D-10 OVMax= 2.19D-05

 Cycle  38  Pass 1  IDiag  1:
 E= -76.5666428474605     Delta-E=        0.000000000028 Rises=F Damp=F
 DIIS: error= 2.37D-07 at cycle  38 NSaved=   4.
 NSaved= 4 IEnMin= 1 EnMin= -76.5666428597541     IErMin= 3 ErrMin= 2.37D-07
 ErrMax= 2.37D-07  0.00D+00 EMaxC= 1.00D-01 BMatC= 8.60D-13 BMatP= 8.61D-13
 IDIUse=1 WtCom= 1.00D+00 WtEn= 0.00D+00
 Large coefficients: NSaved=  4 BigCof= 2076.06 CofMax=   10.00 Det=-2.50D-19
 Inversion failed.  Reducing to  3 matrices.
 Coeff-Com:  0.565D-02 0.238D+00 0.757D+00
 Coeff:      0.565D-02 0.238D+00 0.757D+00
 Gap=     0.146 Goal=   None    Shift=    0.000
 Gap=     0.209 Goal=   None    Shift=    0.000
 RMSDP=5.24D-07 MaxDP=6.19D-06 DE= 2.75D-11 OVMax= 6.54D-05

 Cycle  39  Pass 1  IDiag  1:
 E= -76.5666428475429     Delta-E=       -0.000000000082 Rises=F Damp=F
 DIIS: error= 2.37D-07 at cycle  39 NSaved=   4.
 NSaved= 4 IEnMin= 1 EnMin= -76.5666428597541     IErMin= 4 ErrMin= 2.37D-07
 ErrMax= 2.37D-07  0.00D+00 EMaxC= 1.00D-01 BMatC= 8.59D-13 BMatP= 8.60D-13
 IDIUse=1 WtCom= 1.00D+00 WtEn= 0.00D+00
 Large coefficients: NSaved=  4 BigCof= 4124.17 CofMax=   10.00 Det=-6.97D-20
 Inversion failed.  Reducing to  3 matrices.
 Coeff-Com:  0.435D-02-0.236D+01 0.335D+01
 Coeff:      0.435D-02-0.236D+01 0.335D+01
 Gap=     0.146 Goal=   None    Shift=    0.000
 Gap=     0.209 Goal=   None    Shift=    0.000
 RMSDP=1.61D-06 MaxDP=1.90D-05 DE=-8.24D-11 OVMax= 2.01D-04

 Cycle  40  Pass 1  IDiag  1:
 E= -76.5666428477964     Delta-E=       -0.000000000253 Rises=F Damp=F
 DIIS: error= 2.36D-07 at cycle  40 NSaved=   4.
 NSaved= 4 IEnMin= 1 EnMin= -76.5666428597541     IErMin= 4 ErrMin= 2.36D-07
 ErrMax= 2.36D-07  0.00D+00 EMaxC= 1.00D-01 BMatC= 8.57D-13 BMatP= 8.59D-13
 IDIUse=1 WtCom= 1.00D+00 WtEn= 0.00D+00
 Large coefficients: NSaved=  4 BigCof= 1783.36 CofMax=   10.00 Det=-2.37D-19
 Inversion failed.  Reducing to  3 matrices.
 Coeff-Com:  0.402D-02 0.737D-01 0.922D+00
 Coeff:      0.402D-02 0.737D-01 0.922D+00
 Gap=     0.146 Goal=   None    Shift=    0.000
 Gap=     0.209 Goal=   None    Shift=    0.000
 RMSDP=2.25D-07 MaxDP=2.65D-06 DE=-2.53D-10 OVMax= 2.81D-05

 Cycle  41  Pass 1  IDiag  1:
 E= -76.5666428478317     Delta-E=       -0.000000000035 Rises=F Damp=F
 DIIS: error= 2.36D-07 at cycle  41 NSaved=   4.
 NSaved= 4 IEnMin= 1 EnMin= -76.5666428597541     IErMin= 4 ErrMin= 2.36D-07
 ErrMax= 2.36D-07  0.00D+00 EMaxC= 1.00D-01 BMatC= 8.58D-13 BMatP= 8.57D-13
 IDIUse=1 WtCom= 1.00D+00 WtEn= 0.00D+00
 Large coefficients: NSaved=  4 BigCof= 1177.42 CofMax=   10.00 Det=-5.47D-19
 Inversion failed.  Reducing to  3 matrices.
 Coeff-Com:  0.392D-02 0.504D+00 0.492D+00
 Coeff:      0.392D-02 0.504D+00 0.492D+00
 Gap=     0.146 Goal=   None    Shift=    0.000
 Gap=     0.209 Goal=   None    Shift=    0.000
 RMSDP=2.21D-07 MaxDP=2.62D-06 DE=-3.54D-11 OVMax= 2.77D-05

 Cycle  42  Pass 1  IDiag  1:
 E= -76.5666428478665     Delta-E=       -0.000000000035 Rises=F Damp=F
 DIIS: error= 2.36D-07 at cycle  42 NSaved=   4.
 NSaved= 4 IEnMin= 1 EnMin= -76.5666428597541     IErMin= 4 ErrMin= 2.36D-07
 ErrMax= 2.36D-07  0.00D+00 EMaxC= 1.00D-01 BMatC= 8.56D-13 BMatP= 8.57D-13
 IDIUse=1 WtCom= 1.00D+00 WtEn= 0.00D+00
 Large coefficients: NSaved=  4 BigCof= 5630.78 CofMax=   10.00 Det=-7.90D-20
 Inversion failed.  Reducing to  3 matrices.
 Coeff-Com:  0.382D-02-0.247D-01 0.102D+01
 Coeff:      0.382D-02-0.247D-01 0.102D+01
 Gap=     0.146 Goal=   None    Shift=    0.000
 Gap=     0.209 Goal=   None    Shift=    0.000
 RMSDP=3.31D-07 MaxDP=3.91D-06 DE=-3.48D-11 OVMax= 4.14D-05

 Cycle  43  Pass 1  IDiag  1:
 E= -76.5666428479186     Delta-E=       -0.000000000052 Rises=F Damp=F
 DIIS: error= 2.36D-07 at cycle  43 NSaved=   4.
 NSaved= 4 IEnMin= 1 EnMin= -76.5666428597541     IErMin= 4 ErrMin= 2.36D-07
 ErrMax= 2.36D-07  0.00D+00 EMaxC= 1.00D-01 BMatC= 8.56D-13 BMatP= 8.56D-13
 IDIUse=1 WtCom= 1.00D+00 WtEn= 0.00D+00
 Large coefficients: NSaved=  4 BigCof= 5424.13 CofMax=   10.00 Det=-4.18D-20
 Inversion failed.  Reducing to  3 matrices.
 Coeff-Com:  0.335D-02-0.370D+01 0.470D+01
 Coeff:      0.335D-02-0.370D+01 0.470D+01
 Gap=     0.146 Goal=   None    Shift=    0.000
 Gap=     0.209 Goal=   None    Shift=    0.000
 RMSDP=1.51D-06 MaxDP=1.79D-05 DE=-5.21D-11 OVMax= 1.89D-04

 Cycle  44  Pass 1  IDiag  1:
 E= -76.5666428481566     Delta-E=       -0.000000000238 Rises=F Damp=F
 DIIS: error= 2.36D-07 at cycle  44 NSaved=   4.
 NSaved= 4 IEnMin= 1 EnMin= -76.5666428597541     IErMin= 4 ErrMin= 2.36D-07
 ErrMax= 2.36D-07  0.00D+00 EMaxC= 1.00D-01 BMatC= 8.55D-13 BMatP= 8.56D-13
 IDIUse=1 WtCom= 1.00D+00 WtEn= 0.00D+00
 Large coefficients: NSaved=  4 BigCof= 3460.21 CofMax=   10.00 Det=-6.97D-20
 Inversion failed.  Reducing to  3 matrices.
 Coeff-Com:  0.329D-02 0.356D+00 0.641D+00
 Coeff:      0.329D-02 0.356D+00 0.641D+00
 Gap=     0.146 Goal=   None    Shift=    0.000
 Gap=     0.209 Goal=   None    Shift=    0.000
 RMSDP=2.60D-07 MaxDP=3.08D-06 DE=-2.38D-10 OVMax= 3.25D-05

 Cycle  45  Pass 1  IDiag  1:
 E= -76.5666428481156     Delta-E=        0.000000000041 Rises=F Damp=F
 DIIS: error= 2.36D-07 at cycle  45 NSaved=   4.
 NSaved= 4 IEnMin= 1 EnMin= -76.5666428597541     IErMin= 3 ErrMin= 2.36D-07
 ErrMax= 2.36D-07  0.00D+00 EMaxC= 1.00D-01 BMatC= 8.55D-13 BMatP= 8.55D-13
 IDIUse=1 WtCom= 1.00D+00 WtEn= 0.00D+00
 Large coefficients: NSaved=  4 BigCof= 1493.08 CofMax=   10.00 Det=-3.74D-19
 Inversion failed.  Reducing to  3 matrices.
 Coeff-Com:  0.318D-02 0.462D+00 0.535D+00
 Coeff:      0.318D-02 0.462D+00 0.535D+00
 Gap=     0.146 Goal=   None    Shift=    0.000
 Gap=     0.209 Goal=   None    Shift=    0.000
 RMSDP=3.92D-07 MaxDP=4.63D-06 DE= 4.10D-11 OVMax= 4.89D-05

 Cycle  46  Pass 1  IDiag  1:
 E= -76.5666428481772     Delta-E=       -0.000000000062 Rises=F Damp=F
 DIIS: error= 2.36D-07 at cycle  46 NSaved=   4.
 NSaved= 4 IEnMin= 1 EnMin= -76.5666428597541     IErMin= 4 ErrMin= 2.36D-07
 ErrMax= 2.36D-07  0.00D+00 EMaxC= 1.00D-01 BMatC= 8.54D-13 BMatP= 8.55D-13
 IDIUse=1 WtCom= 1.00D+00 WtEn= 0.00D+00
 Large coefficients: NSaved=  4 BigCof= 6690.89 CofMax=   10.00 Det=-4.92D-20
 Inversion failed.  Reducing to  3 matrices.
 Coeff-Com:  0.307D-02-0.507D+00 0.150D+01
 Coeff:      0.307D-02-0.507D+00 0.150D+01
 Gap=     0.146 Goal=   None    Shift=    0.000
 Gap=     0.209 Goal=   None    Shift=    0.000
 RMSDP=4.60D-07 MaxDP=5.44D-06 DE=-6.16D-11 OVMax= 5.75D-05

 Cycle  47  Pass 1  IDiag  1:
 E= -76.5666428482494     Delta-E=       -0.000000000072 Rises=F Damp=F
 DIIS: error= 2.36D-07 at cycle  47 NSaved=   4.
 NSaved= 4 IEnMin= 1 EnMin= -76.5666428597541     IErMin= 4 ErrMin= 2.36D-07
 ErrMax= 2.36D-07  0.00D+00 EMaxC= 1.00D-01 BMatC= 8.54D-13 BMatP= 8.54D-13
 IDIUse=1 WtCom= 1.00D+00 WtEn= 0.00D+00
 Large coefficients: NSaved=  4 BigCof= 3289.66 CofMax=   10.00 Det=-1.97D-19
 Inversion failed.  Reducing to  3 matrices.
 Coeff-Com:  0.278D-02-0.204D+01 0.304D+01
 Coeff:      0.278D-02-0.204D+01 0.304D+01
 Gap=     0.146 Goal=   None    Shift=    0.000
 Gap=     0.209 Goal=   None    Shift=    0.000
 RMSDP=1.18D-06 MaxDP=1.39D-05 DE=-7.23D-11 OVMax= 1.47D-04

 Cycle  48  Pass 1  IDiag  1:
 E= -76.5666428484342     Delta-E=       -0.000000000185 Rises=F Damp=F
 DIIS: error= 2.36D-07 at cycle  48 NSaved=   4.
 NSaved= 4 IEnMin= 1 EnMin= -76.5666428597541     IErMin= 4 ErrMin= 2.36D-07
 ErrMax= 2.36D-07  0.00D+00 EMaxC= 1.00D-01 BMatC= 8.54D-13 BMatP= 8.54D-13
 IDIUse=1 WtCom= 1.00D+00 WtEn= 0.00D+00
 Large coefficients: NSaved=  4 BigCof= 2951.05 CofMax=   10.00 Det=-9.65D-20
 Inversion failed.  Reducing to  3 matrices.
 Coeff-Com:  0.281D-02 0.475D+00 0.522D+00
 Coeff:      0.281D-02 0.475D+00 0.522D+00
 Gap=     0.146 Goal=   None    Shift=    0.000
 Gap=     0.209 Goal=   None    Shift=    0.000
 RMSDP=3.22D-07 MaxDP=3.80D-06 DE=-1.85D-10 OVMax= 4.02D-05

 Cycle  49  Pass 1  IDiag  1:
 E= -76.5666428483837     Delta-E=        0.000000000051 Rises=F Damp=F
 DIIS: error= 2.36D-07 at cycle  49 NSaved=   4.
 NSaved= 4 IEnMin= 1 EnMin= -76.5666428597541     IErMin= 3 ErrMin= 2.36D-07
 ErrMax= 2.36D-07  0.00D+00 EMaxC= 1.00D-01 BMatC= 8.53D-13 BMatP= 8.54D-13
 IDIUse=1 WtCom= 1.00D+00 WtEn= 0.00D+00
 Large coefficients: NSaved=  4 BigCof= 2220.67 CofMax=   10.00 Det=-1.71D-19
 Inversion failed.  Reducing to  3 matrices.
 Coeff-Com:  0.276D-02 0.376D+00 0.621D+00
 Coeff:      0.276D-02 0.376D+00 0.621D+00
 Gap=     0.146 Goal=   None    Shift=    0.000
 Gap=     0.209 Goal=   None    Shift=    0.000
 RMSDP=3.56D-07 MaxDP=4.20D-06 DE= 5.06D-11 OVMax= 4.44D-05

 Cycle  50  Pass 1  IDiag  1:
 E= -76.5666428484396     Delta-E=       -0.000000000056 Rises=F Damp=F
 DIIS: error= 2.36D-07 at cycle  50 NSaved=   4.
 NSaved= 4 IEnMin= 1 EnMin= -76.5666428597541     IErMin= 4 ErrMin= 2.36D-07
 ErrMax= 2.36D-07  0.00D+00 EMaxC= 1.00D-01 BMatC= 8.53D-13 BMatP= 8.53D-13
 IDIUse=1 WtCom= 1.00D+00 WtEn= 0.00D+00
 Large coefficients: NSaved=  4 BigCof= 6983.39 CofMax=   10.00 Det=-3.02D-20
 Inversion failed.  Reducing to  3 matrices.
 Coeff-Com:  0.262D-02-0.149D+01 0.249D+01
 Coeff:      0.262D-02-0.149D+01 0.249D+01
 Gap=     0.146 Goal=   None    Shift=    0.000
 Gap=     0.209 Goal=   None    Shift=    0.000
 RMSDP=7.52D-07 MaxDP=8.89D-06 DE=-5.60D-11 OVMax= 9.40D-05

 Cycle  51  Pass 1  IDiag  1:
 E= -76.5666428485577     Delta-E=       -0.000000000118 Rises=F Damp=F
 DIIS: error= 2.36D-07 at cycle  51 NSaved=   4.
 NSaved= 4 IEnMin= 1 EnMin= -76.5666428597541     IErMin= 4 ErrMin= 2.36D-07
 ErrMax= 2.36D-07  0.00D+00 EMaxC= 1.00D-01 BMatC= 8.52D-13 BMatP= 8.53D-13
 IDIUse=1 WtCom= 1.00D+00 WtEn= 0.00D+00
 Large coefficients: NSaved=  4 BigCof= 1978.56 CofMax=   10.00 Det=-2.15D-19
 Inversion failed.  Reducing to  3 matrices.
 Coeff-Com:  0.246D-02-0.560D+00 0.156D+01
 Coeff:      0.246D-02-0.560D+00 0.156D+01
 Gap=     0.146 Goal=   None    Shift=    0.000
 Gap=     0.209 Goal=   None    Shift=    0.000
 RMSDP=6.31D-07 MaxDP=7.46D-06 DE=-1.18D-10 OVMax= 7.88D-05

 Cycle  52  Pass 1  IDiag  1:
 E= -76.5666428486568     Delta-E=       -0.000000000099 Rises=F Damp=F
 DIIS: error= 2.36D-07 at cycle  52 NSaved=   4.
 NSaved= 4 IEnMin= 1 EnMin= -76.5666428597541     IErMin= 4 ErrMin= 2.36D-07
 ErrMax= 2.36D-07  0.00D+00 EMaxC= 1.00D-01 BMatC= 8.52D-13 BMatP= 8.52D-13
 IDIUse=1 WtCom= 1.00D+00 WtEn= 0.00D+00
 Large coefficients: NSaved=  4 BigCof= 2116.24 CofMax=   10.00 Det=-1.88D-19
 Inversion failed.  Reducing to  3 matrices.
 Coeff-Com:  0.249D-02 0.516D+00 0.481D+00
 Coeff:      0.249D-02 0.516D+00 0.481D+00
 Gap=     0.146 Goal=   None    Shift=    0.000
 Gap=     0.209 Goal=   None    Shift=    0.000
 RMSDP=1.15D-07 MaxDP=1.36D-06 DE=-9.91D-11 OVMax= 1.44D-05

 Cycle  53  Pass 1  IDiag  1:
 E= -76.5666428486387     Delta-E=        0.000000000018 Rises=F Damp=F
 DIIS: error= 2.36D-07 at cycle  53 NSaved=   4.
 NSaved= 4 IEnMin= 1 EnMin= -76.5666428597541     IErMin= 3 ErrMin= 2.36D-07
 ErrMax= 2.36D-07  0.00D+00 EMaxC= 1.00D-01 BMatC= 8.52D-13 BMatP= 8.52D-13
 IDIUse=1 WtCom= 1.00D+00 WtEn= 0.00D+00
 Large coefficients: NSaved=  4 BigCof= 4902.48 CofMax=   10.00 Det=-5.50D-20
 Inversion failed.  Reducing to  3 matrices.
 Coeff-Com:  0.250D-02 0.228D+00 0.769D+00
 Coeff:      0.250D-02 0.228D+00 0.769D+00
 Gap=     0.146 Goal=   None    Shift=    0.000
 Gap=     0.209 Goal=   None    Shift=    0.000
 RMSDP=2.37D-07 MaxDP=2.81D-06 DE= 1.81D-11 OVMax= 2.96D-05

 Cycle  54  Pass 1  IDiag  1:
 E= -76.5666428486759     Delta-E=       -0.000000000037 Rises=F Damp=F
 DIIS: error= 2.36D-07 at cycle  54 NSaved=   4.
 NSaved= 4 IEnMin= 1 EnMin= -76.5666428597541     IErMin= 4 ErrMin= 2.36D-07
 ErrMax= 2.36D-07  0.00D+00 EMaxC= 1.00D-01 BMatC= 8.51D-13 BMatP= 8.52D-13
 IDIUse=1 WtCom= 1.00D+00 WtEn= 0.00D+00
 Large coefficients: NSaved=  4 BigCof= 8646.29 CofMax=   10.00 Det=-1.57D-20
 Inversion failed.  Reducing to  3 matrices.
 Coeff-Com:  0.242D-02-0.345D+01 0.445D+01
 Coeff:      0.242D-02-0.345D+01 0.445D+01
 Gap=     0.146 Goal=   None    Shift=    0.000
 Gap=     0.209 Goal=   None    Shift=    0.000
 RMSDP=1.02D-06 MaxDP=1.21D-05 DE=-3.71D-11 OVMax= 1.28D-04

 Cycle  55  Pass 1  IDiag  1:
 E= -76.5666428488364     Delta-E=       -0.000000000161 Rises=F Damp=F
 DIIS: error= 2.36D-07 at cycle  55 NSaved=   4.
 NSaved= 4 IEnMin= 1 EnMin= -76.5666428597541     IErMin= 4 ErrMin= 2.36D-07
 ErrMax= 2.36D-07  0.00D+00 EMaxC= 1.00D-01 BMatC= 8.51D-13 BMatP= 8.51D-13
 IDIUse=1 WtCom= 1.00D+00 WtEn= 0.00D+00
 Large coefficients: NSaved=  4 BigCof= 3758.51 CofMax=   10.00 Det=-5.97D-20
 Inversion failed.  Reducing to  3 matrices.
 Coeff-Com:  0.231D-02 0.862D-01 0.911D+00
 Coeff:      0.231D-02 0.862D-01 0.911D+00
 Gap=     0.146 Goal=   None    Shift=    0.000
 Gap=     0.209 Goal=   None    Shift=    0.000
 RMSDP=1.07D-07 MaxDP=1.26D-06 DE=-1.61D-10 OVMax= 1.33D-05

 Cycle  56  Pass 1  IDiag  1:
 E= -76.5666428488531     Delta-E=       -0.000000000017 Rises=F Damp=F
 DIIS: error= 2.36D-07 at cycle  56 NSaved=   4.
 NSaved= 4 IEnMin= 1 EnMin= -76.5666428597541     IErMin= 4 ErrMin= 2.36D-07
 ErrMax= 2.36D-07  0.00D+00 EMaxC= 1.00D-01 BMatC= 8.51D-13 BMatP= 8.51D-13
 IDIUse=1 WtCom= 1.00D+00 WtEn= 0.00D+00
 Large coefficients: NSaved=  4 BigCof= 1806.68 CofMax=   10.00 Det=-2.57D-19
 Inversion failed.  Reducing to  3 matrices.
 Coeff-Com:  0.231D-02 0.510D+00 0.487D+00
 Coeff:      0.231D-02 0.510D+00 0.487D+00
 Gap=     0.146 Goal=   None    Shift=    0.000
 Gap=     0.209 Goal=   None    Shift=    0.000
 RMSDP=1.40D-07 MaxDP=1.65D-06 DE=-1.67D-11 OVMax= 1.75D-05

 Cycle  57  Pass 1  IDiag  1:
 E= -76.5666428488751     Delta-E=       -0.000000000022 Rises=F Damp=F
 DIIS: error= 2.36D-07 at cycle  57 NSaved=   4.
 NSaved= 4 IEnMin= 1 EnMin= -76.5666428597541     IErMin= 4 ErrMin= 2.36D-07
 ErrMax= 2.36D-07  0.00D+00 EMaxC= 1.00D-01 BMatC= 8.50D-13 BMatP= 8.51D-13
 IDIUse=1 WtCom= 1.00D+00 WtEn= 0.00D+00
 Large coefficients: NSaved=  4 BigCof= 9064.32 CofMax=   10.00 Det=-3.13D-20
 Inversion failed.  Reducing to  3 matrices.
 Coeff-Com:  0.231D-02-0.309D-01 0.103D+01
 Coeff:      0.231D-02-0.309D-01 0.103D+01
 Gap=     0.146 Goal=   None    Shift=    0.000
 Gap=     0.209 Goal=   None    Shift=    0.000
 RMSDP=1.98D-07 MaxDP=2.35D-06 DE=-2.20D-11 OVMax= 2.48D-05

 Cycle  58  Pass 1  IDiag  1:
 E= -76.5666428489063     Delta-E=       -0.000000000031 Rises=F Damp=F
 DIIS: error= 2.36D-07 at cycle  58 NSaved=   4.
 NSaved= 4 IEnMin= 1 EnMin= -76.5666428597541     IErMin= 4 ErrMin= 2.36D-07
 ErrMax= 2.36D-07  0.00D+00 EMaxC= 1.00D-01 BMatC= 8.50D-13 BMatP= 8.50D-13
 IDIUse=1 WtCom= 1.00D+00 WtEn= 0.00D+00
 Large coefficients: NSaved=  4 BigCof= 8459.95 CofMax=   10.00 Det=-1.59D-20
 Inversion failed.  Reducing to  3 matrices.
 Coeff-Com:  0.226D-02-0.466D+01 0.566D+01
 Coeff:      0.226D-02-0.466D+01 0.566D+01
 Gap=     0.146 Goal=   None    Shift=    0.000
 Gap=     0.209 Goal=   None    Shift=    0.000
 RMSDP=1.12D-06 MaxDP=1.32D-05 DE=-3.12D-11 OVMax= 1.39D-04

 Cycle  59  Pass 1  IDiag  1:
 E= -76.5666428490811     Delta-E=       -0.000000000175 Rises=F Damp=F
 DIIS: error= 2.35D-07 at cycle  59 NSaved=   4.
 NSaved= 4 IEnMin= 1 EnMin= -76.5666428597541     IErMin= 4 ErrMin= 2.35D-07
 ErrMax= 2.35D-07  0.00D+00 EMaxC= 1.00D-01 BMatC= 8.50D-13 BMatP= 8.50D-13
 IDIUse=1 WtCom= 1.00D+00 WtEn= 0.00D+00
 Large coefficients: NSaved=  4 BigCof= 5297.62 CofMax=   10.00 Det=-2.91D-20
 Inversion failed.  Reducing to  3 matrices.
 Coeff-Com:  0.217D-02 0.361D+00 0.637D+00
 Coeff:      0.217D-02 0.361D+00 0.637D+00
 Gap=     0.146 Goal=   None    Shift=    0.000
 Gap=     0.209 Goal=   None    Shift=    0.000
 RMSDP=2.21D-07 MaxDP=2.61D-06 DE=-1.75D-10 OVMax= 2.76D-05

 Cycle  60  Pass 1  IDiag  1:
 E= -76.5666428490465     Delta-E=        0.000000000035 Rises=F Damp=F
 DIIS: error= 2.35D-07 at cycle  60 NSaved=   4.
 NSaved= 4 IEnMin= 1 EnMin= -76.5666428597541     IErMin= 3 ErrMin= 2.35D-07
 ErrMax= 2.35D-07  0.00D+00 EMaxC= 1.00D-01 BMatC= 8.50D-13 BMatP= 8.50D-13
 IDIUse=1 WtCom= 1.00D+00 WtEn= 0.00D+00
 Large coefficients: NSaved=  4 BigCof= 1885.47 CofMax=   10.00 Det=-2.27D-19
 Inversion failed.  Reducing to  3 matrices.
 Coeff-Com:  0.215D-02 0.467D+00 0.530D+00
 Coeff:      0.215D-02 0.467D+00 0.530D+00
 Gap=     0.146 Goal=   None    Shift=    0.000
 Gap=     0.209 Goal=   None    Shift=    0.000
 RMSDP=2.84D-07 MaxDP=3.36D-06 DE= 3.46D-11 OVMax= 3.55D-05

 Cycle  61  Pass 1  IDiag  1:
 E= -76.5666428490909     Delta-E=       -0.000000000044 Rises=F Damp=F
 DIIS: error= 2.35D-07 at cycle  61 NSaved=   4.
 NSaved= 4 IEnMin= 1 EnMin= -76.5666428597541     IErMin= 4 ErrMin= 2.35D-07
 ErrMax= 2.35D-07  0.00D+00 EMaxC= 1.00D-01 BMatC= 8.49D-13 BMatP= 8.50D-13
 IDIUse=1 WtCom= 1.00D+00 WtEn= 0.00D+00
 Large coefficients: NSaved=  4 BigCof= 8149.70 CofMax=   10.00 Det=-2.81D-20
 Inversion failed.  Reducing to  3 matrices.
 Coeff-Com:  0.212D-02-0.513D+00 0.151D+01
 Coeff:      0.212D-02-0.513D+00 0.151D+01
 Gap=     0.146 Goal=   None    Shift=    0.000
 Gap=     0.209 Goal=   None    Shift=    0.000
 RMSDP=3.23D-07 MaxDP=3.82D-06 DE=-4.44D-11 OVMax= 4.04D-05

 Cycle  62  Pass 1  IDiag  1:
 E= -76.5666428491416     Delta-E=       -0.000000000051 Rises=F Damp=F
 DIIS: error= 2.35D-07 at cycle  62 NSaved=   4.
 NSaved= 4 IEnMin= 1 EnMin= -76.5666428597541     IErMin= 4 ErrMin= 2.35D-07
 ErrMax= 2.35D-07  0.00D+00 EMaxC= 1.00D-01 BMatC= 8.49D-13 BMatP= 8.49D-13
 IDIUse=1 WtCom= 1.00D+00 WtEn= 0.00D+00
 Large coefficients: NSaved=  4 BigCof= 3977.58 CofMax=   10.00 Det=-1.08D-19
 Inversion failed.  Reducing to  3 matrices.
 Coeff-Com:  0.201D-02-0.236D+01 0.336D+01
 Coeff:      0.201D-02-0.236D+01 0.336D+01
 Gap=     0.146 Goal=   None    Shift=    0.000
 Gap=     0.209 Goal=   None    Shift=    0.000
 RMSDP=9.33D-07 MaxDP=1.10D-05 DE=-5.07D-11 OVMax= 1.16D-04

 Cycle  63  Pass 1  IDiag  1:
 E= -76.5666428492875     Delta-E=       -0.000000000146 Rises=F Damp=F
 DIIS: error= 2.35D-07 at cycle  63 NSaved=   4.
 NSaved= 4 IEnMin= 1 EnMin= -76.5666428597541     IErMin= 4 ErrMin= 2.35D-07
 ErrMax= 2.35D-07  0.00D+00 EMaxC= 1.00D-01 BMatC= 8.49D-13 BMatP= 8.49D-13
 IDIUse=1 WtCom= 1.00D+00 WtEn= 0.00D+00
 Large coefficients: NSaved=  4 BigCof= 3359.58 CofMax=   10.00 Det=-6.22D-20
 Inversion failed.  Reducing to  3 matrices.
 Coeff-Com:  0.201D-02 0.479D+00 0.518D+00
 Coeff:      0.201D-02 0.479D+00 0.518D+00
 Gap=     0.146 Goal=   None    Shift=    0.000
 Gap=     0.209 Goal=   None    Shift=    0.000
 RMSDP=2.80D-07 MaxDP=3.31D-06 DE=-1.46D-10 OVMax= 3.50D-05

 Cycle  64  Pass 1  IDiag  1:
 E= -76.5666428492437     Delta-E=        0.000000000044 Rises=F Damp=F
 DIIS: error= 2.35D-07 at cycle  64 NSaved=   4.
 NSaved= 4 IEnMin= 1 EnMin= -76.5666428597541     IErMin= 3 ErrMin= 2.35D-07
 ErrMax= 2.35D-07  0.00D+00 EMaxC= 1.00D-01 BMatC= 8.48D-13 BMatP= 8.49D-13
 IDIUse=1 WtCom= 1.00D+00 WtEn= 0.00D+00
 Large coefficients: NSaved=  4 BigCof= 2072.56 CofMax=   10.00 Det=-1.46D-19
 Inversion failed.  Reducing to  3 matrices.
 Coeff-Com:  0.199D-02 0.383D+00 0.615D+00
 Coeff:      0.199D-02 0.383D+00 0.615D+00
 Gap=     0.146 Goal=   None    Shift=    0.000
 Gap=     0.209 Goal=   None    Shift=    0.000
 RMSDP=2.74D-07 MaxDP=3.24D-06 DE= 4.38D-11 OVMax= 3.42D-05

 Cycle  65  Pass 1  IDiag  1:
 E= -76.5666428492867     Delta-E=       -0.000000000043 Rises=F Damp=F
 DIIS: error= 2.35D-07 at cycle  65 NSaved=   4.
 NSaved= 4 IEnMin= 1 EnMin= -76.5666428597541     IErMin= 2 ErrMin= 2.35D-07
 ErrMax= 2.35D-07  0.00D+00 EMaxC= 1.00D-01 BMatC= 8.48D-13 BMatP= 8.48D-13
 IDIUse=1 WtCom= 1.00D+00 WtEn= 0.00D+00
 Large coefficients: NSaved=  4 BigCof= 5013.16 CofMax=   10.00 Det=-3.17D-20
 Inversion failed.  Reducing to  3 matrices.
 Coeff-Com:  0.194D-02-0.151D+01 0.251D+01
 Coeff:      0.194D-02-0.151D+01 0.251D+01
 Gap=     0.146 Goal=   None    Shift=    0.000
 Gap=     0.209 Goal=   None    Shift=    0.000
 RMSDP=5.76D-07 MaxDP=6.81D-06 DE=-4.29D-11 OVMax= 7.20D-05

 Cycle  66  Pass 1  IDiag  1:
 E= -76.5666428493768     Delta-E=       -0.000000000090 Rises=F Damp=F
 DIIS: error= 2.35D-07 at cycle  66 NSaved=   4.
 NSaved= 4 IEnMin= 1 EnMin= -76.5666428597541     IErMin= 4 ErrMin= 2.35D-07
 ErrMax= 2.35D-07  0.00D+00 EMaxC= 1.00D-01 BMatC= 8.48D-13 BMatP= 8.48D-13
 IDIUse=1 WtCom= 1.00D+00 WtEn= 0.00D+00
 Large coefficients: NSaved=  4 BigCof= 1327.79 CofMax=   10.00 Det=-2.59D-19
 Inversion failed.  Reducing to  3 matrices.
 Coeff-Com:  0.185D-02-0.656D+00 0.165D+01
 Coeff:      0.185D-02-0.656D+00 0.165D+01
 Gap=     0.146 Goal=   None    Shift=    0.000
 Gap=     0.209 Goal=   None    Shift=    0.000
 RMSDP=5.34D-07 MaxDP=6.31D-06 DE=-9.01D-11 OVMax= 6.66D-05

 Cycle  67  Pass 1  IDiag  1:
 E= -76.5666428494603     Delta-E=       -0.000000000084 Rises=F Damp=F
 DIIS: error= 2.35D-07 at cycle  67 NSaved=   4.
 NSaved= 4 IEnMin= 1 EnMin= -76.5666428597541     IErMin= 4 ErrMin= 2.35D-07
 ErrMax= 2.35D-07  0.00D+00 EMaxC= 1.00D-01 BMatC= 8.48D-13 BMatP= 8.48D-13
 IDIUse=1 WtCom= 1.00D+00 WtEn= 0.00D+00
 Large coefficients: NSaved=  4 BigCof= 1232.71 CofMax=   10.00 Det=-2.55D-19
 Inversion failed.  Reducing to  3 matrices.
 Coeff-Com:  0.187D-02 0.522D+00 0.476D+00
 Coeff:      0.187D-02 0.522D+00 0.476D+00
 Gap=     0.146 Goal=   None    Shift=    0.000
 Gap=     0.209 Goal=   None    Shift=    0.000
 RMSDP=1.23D-07 MaxDP=1.45D-06 DE=-8.35D-11 OVMax= 1.53D-05

 Cycle  68  Pass 1  IDiag  1:
 E= -76.5666428494411     Delta-E=        0.000000000019 Rises=F Damp=F
 DIIS: error= 2.35D-07 at cycle  68 NSaved=   4.
 NSaved= 4 IEnMin= 1 EnMin= -76.5666428597541     IErMin= 3 ErrMin= 2.35D-07
 ErrMax= 2.35D-07  0.00D+00 EMaxC= 1.00D-01 BMatC= 8.47D-13 BMatP= 8.48D-13
 IDIUse=1 WtCom= 1.00D+00 WtEn= 0.00D+00
 Large coefficients: NSaved=  4 BigCof= 1405.97 CofMax=   10.00 Det=-1.50D-19
 Inversion failed.  Reducing to  3 matrices.
 Coeff-Com:  0.188D-02 0.239D+00 0.759D+00
 Coeff:      0.188D-02 0.239D+00 0.759D+00
 Gap=     0.146 Goal=   None    Shift=    0.000
 Gap=     0.209 Goal=   None    Shift=    0.000
 RMSDP=1.86D-07 MaxDP=2.20D-06 DE= 1.92D-11 OVMax= 2.32D-05

 Cycle  69  Pass 1  IDiag  1:
 E= -76.5666428494701     Delta-E=       -0.000000000029 Rises=F Damp=F
 DIIS: error= 2.35D-07 at cycle  69 NSaved=   4.
 NSaved= 4 IEnMin= 1 EnMin= -76.5666428597541     IErMin= 4 ErrMin= 2.35D-07
 ErrMax= 2.35D-07  0.00D+00 EMaxC= 1.00D-01 BMatC= 8.47D-13 BMatP= 8.47D-13
 IDIUse=1 WtCom= 1.00D+00 WtEn= 0.00D+00
 Large coefficients: NSaved=  4 BigCof= 1570.20 CofMax=   10.00 Det=-6.57D-20
 Inversion failed.  Reducing to  3 matrices.
 Coeff-Com:  0.185D-02-0.360D+01 0.460D+01
 Coeff:      0.185D-02-0.360D+01 0.460D+01
 Gap=     0.146 Goal=   None    Shift=    0.000
 Gap=     0.209 Goal=   None    Shift=    0.000
 RMSDP=8.24D-07 MaxDP=9.74D-06 DE=-2.90D-11 OVMax= 1.03D-04

 Cycle  70  Pass 1  IDiag  1:
 E= -76.5666428495989     Delta-E=       -0.000000000129 Rises=F Damp=F
 DIIS: error= 2.35D-07 at cycle  70 NSaved=   4.
 NSaved= 4 IEnMin= 1 EnMin= -76.5666428597541     IErMin= 4 ErrMin= 2.35D-07
 ErrMax= 2.35D-07  0.00D+00 EMaxC= 1.00D-01 BMatC= 8.47D-13 BMatP= 8.47D-13
 IDIUse=1 WtCom= 1.00D+00 WtEn= 0.00D+00
 Large coefficients: NSaved=  4 BigCof=  621.75 CofMax=   10.00 Det=-2.89D-19
 Inversion failed.  Reducing to  3 matrices.
 Coeff-Com:  0.177D-02 0.495D-01 0.949D+00
 Coeff:      0.177D-02 0.495D-01 0.949D+00
 Gap=     0.146 Goal=   None    Shift=    0.000
 Gap=     0.209 Goal=   None    Shift=    0.000
 RMSDP=1.07D-07 MaxDP=1.26D-06 DE=-1.29D-10 OVMax= 1.33D-05

 Cycle  71  Pass 1  IDiag  1:
 E= -76.5666428496155     Delta-E=       -0.000000000017 Rises=F Damp=F
 DIIS: error= 2.35D-07 at cycle  71 NSaved=   4.
 NSaved= 4 IEnMin= 1 EnMin= -76.5666428597541     IErMin= 4 ErrMin= 2.35D-07
 ErrMax= 2.35D-07  0.00D+00 EMaxC= 1.00D-01 BMatC= 8.47D-13 BMatP= 8.47D-13
 IDIUse=1 WtCom= 1.00D+00 WtEn= 0.00D+00
 Large coefficients: NSaved=  4 BigCof=  221.03 CofMax=   10.00 Det=-1.72D-18
 Inversion failed.  Reducing to  3 matrices.
 Coeff-Com:  0.177D-02 0.519D+00 0.480D+00
 Coeff:      0.177D-02 0.519D+00 0.480D+00
 Gap=     0.146 Goal=   None    Shift=    0.000
 Gap=     0.209 Goal=   None    Shift=    0.000
 RMSDP=9.23D-08 MaxDP=1.09D-06 DE=-1.66D-11 OVMax= 1.15D-05

 Cycle  72  Pass 1  IDiag  1:
 E= -76.5666428496300     Delta-E=       -0.000000000014 Rises=F Damp=F
 DIIS: error= 2.35D-07 at cycle  72 NSaved=   4.
 NSaved= 4 IEnMin= 1 EnMin= -76.5666428597541     IErMin= 4 ErrMin= 2.35D-07
 ErrMax= 2.35D-07  0.00D+00 EMaxC= 1.00D-01 BMatC= 8.46D-13 BMatP= 8.47D-13
 IDIUse=1 WtCom= 1.00D+00 WtEn= 0.00D+00
 Large coefficients: NSaved=  4 BigCof=  310.21 CofMax=   10.00 Det=-6.72D-19
 Inversion failed.  Reducing to  3 matrices.
 Coeff-Com:  0.178D-02-0.124D-01 0.101D+01
 Coeff:      0.178D-02-0.124D-01 0.101D+01
 Gap=     0.146 Goal=   None    Shift=    0.000
 Gap=     0.209 Goal=   None    Shift=    0.000
 RMSDP=1.49D-07 MaxDP=1.76D-06 DE=-1.45D-11 OVMax= 1.86D-05

 Cycle  73  Pass 1  IDiag  1:
 E= -76.5666428496532     Delta-E=       -0.000000000023 Rises=F Damp=F
 DIIS: error= 2.35D-07 at cycle  73 NSaved=   4.
 NSaved= 4 IEnMin= 1 EnMin= -76.5666428597541     IErMin= 4 ErrMin= 2.35D-07
 ErrMax= 2.35D-07  0.00D+00 EMaxC= 1.00D-01 BMatC= 8.46D-13 BMatP= 8.46D-13
 IDIUse=1 WtCom= 1.00D+00 WtEn= 0.00D+00
 Large coefficients: NSaved=  4 BigCof=  224.82 CofMax=   10.00 Det=-4.16D-19
 Inversion failed.  Reducing to  3 matrices.
 Coeff-Com:  0.178D-02-0.513D+01 0.613D+01
 Coeff:      0.178D-02-0.513D+01 0.613D+01
 Gap=     0.146 Goal=   None    Shift=    0.000
 Gap=     0.209 Goal=   None    Shift=    0.000
 RMSDP=9.14D-07 MaxDP=1.08D-05 DE=-2.33D-11 OVMax= 1.14D-04

 Cycle  74  Pass 1  IDiag  1:
 E= -76.5666428497961     Delta-E=       -0.000000000143 Rises=F Damp=F
 DIIS: error= 2.35D-07 at cycle  74 NSaved=   4.
 NSaved= 4 IEnMin= 1 EnMin= -76.5666428597541     IErMin= 4 ErrMin= 2.35D-07
 ErrMax= 2.35D-07  0.00D+00 EMaxC= 1.00D-01 BMatC= 8.46D-13 BMatP= 8.46D-13
 IDIUse=1 WtCom= 1.00D+00 WtEn= 0.00D+00
 Large coefficients: NSaved=  4 BigCof=  113.20 CofMax=   10.00 Det=-1.00D-18
 Inversion failed.  Reducing to  3 matrices.
 Coeff-Com:  0.171D-02 0.348D+00 0.650D+00
 Coeff:      0.171D-02 0.348D+00 0.650D+00
 Gap=     0.146 Goal=   None    Shift=    0.000
 Gap=     0.209 Goal=   None    Shift=    0.000
 RMSDP=1.77D-07 MaxDP=2.10D-06 DE=-1.43D-10 OVMax= 2.21D-05

 Cycle  75  Pass 1  IDiag  1:
 E= -76.5666428497684     Delta-E=        0.000000000028 Rises=F Damp=F
 DIIS: error= 2.35D-07 at cycle  75 NSaved=   4.
 NSaved= 4 IEnMin= 1 EnMin= -76.5666428597541     IErMin= 3 ErrMin= 2.35D-07
 ErrMax= 2.35D-07  0.00D+00 EMaxC= 1.00D-01 BMatC= 8.46D-13 BMatP= 8.46D-13
 IDIUse=1 WtCom= 1.00D+00 WtEn= 0.00D+00
 Large coefficients: NSaved=  4 BigCof=   26.08 CofMax=   10.00 Det=-1.28D-17
 Inversion failed.  Reducing to  3 matrices.
 Coeff-Com:  0.170D-02 0.478D+00 0.521D+00
 Coeff:      0.170D-02 0.478D+00 0.521D+00
 Gap=     0.146 Goal=   None    Shift=    0.000
 Gap=     0.209 Goal=   None    Shift=    0.000
 RMSDP=2.26D-07 MaxDP=2.67D-06 DE= 2.77D-11 OVMax= 2.82D-05

 Cycle  76  Pass 1  IDiag  1:
 E= -76.5666428498037     Delta-E=       -0.000000000035 Rises=F Damp=F
 DIIS: error= 2.35D-07 at cycle  76 NSaved=   4.
 NSaved= 4 IEnMin= 1 EnMin= -76.5666428597541     IErMin= 4 ErrMin= 2.35D-07
 ErrMax= 2.35D-07  0.00D+00 EMaxC= 1.00D-01 BMatC= 8.45D-13 BMatP= 8.46D-13
 IDIUse=1 WtCom= 1.00D+00 WtEn= 0.00D+00
 Large coefficients: NSaved=  4 BigCof=   41.09 CofMax=   10.00 Det=-3.96D-18
 Inversion failed.  Reducing to  3 matrices.
 Coeff-Com:  0.169D-02-0.470D+00 0.147D+01
 Coeff:      0.169D-02-0.470D+00 0.147D+01
 Gap=     0.146 Goal=   None    Shift=    0.000
 Gap=     0.209 Goal=   None    Shift=    0.000
 RMSDP=2.46D-07 MaxDP=2.91D-06 DE=-3.53D-11 OVMax= 3.07D-05

 Cycle  77  Pass 1  IDiag  1:
 E= -76.5666428498421     Delta-E=       -0.000000000038 Rises=F Damp=F
 DIIS: error= 2.35D-07 at cycle  77 NSaved=   4.
 NSaved= 4 IEnMin= 1 EnMin= -76.5666428597541     IErMin= 4 ErrMin= 2.35D-07
 ErrMax= 2.35D-07  0.00D+00 EMaxC= 1.00D-01 BMatC= 8.45D-13 BMatP= 8.45D-13
 IDIUse=1 WtCom= 1.00D+00 WtEn= 0.00D+00
 Large coefficients: NSaved=  4 BigCof=   18.39 CofMax=   10.00 Det=-1.12D-17
 Inversion failed.  Reducing to  3 matrices.
 Coeff-Com:  0.164D-02-0.222D+01 0.322D+01
 Coeff:      0.164D-02-0.222D+01 0.322D+01
 Gap=     0.146 Goal=   None    Shift=    0.000
 Gap=     0.209 Goal=   None    Shift=    0.000
 RMSDP=6.83D-07 MaxDP=8.07D-06 DE=-3.84D-11 OVMax= 8.53D-05

 Cycle  78  Pass 1  IDiag  1:
 E= -76.5666428499488     Delta-E=       -0.000000000107 Rises=F Damp=F
 DIIS: error= 2.35D-07 at cycle  78 NSaved=   4.
 NSaved= 4 IEnMin= 1 EnMin= -76.5666428597541     IErMin= 4 ErrMin= 2.35D-07
 ErrMax= 2.35D-07  0.00D+00 EMaxC= 1.00D-01 BMatC= 8.45D-13 BMatP= 8.45D-13
 IDIUse=1 WtCom= 1.00D+00 WtEn= 0.00D+00
 Large coefficients: NSaved=  4 BigCof=   10.83 CofMax=   10.00 Det=-1.03D-17
 Inversion failed.  Reducing to  3 matrices.
 Coeff-Com:  0.163D-02 0.497D+00 0.502D+00
 Coeff:      0.163D-02 0.497D+00 0.502D+00
 Gap=     0.146 Goal=   None    Shift=    0.000
 Gap=     0.209 Goal=   None    Shift=    0.000
 RMSDP=2.04D-07 MaxDP=2.42D-06 DE=-1.07D-10 OVMax= 2.55D-05

 Cycle  79  Pass 1  IDiag  1:
 E= -76.5666428499168     Delta-E=        0.000000000032 Rises=F Damp=F
 DIIS: error= 2.35D-07 at cycle  79 NSaved=   4.
 NSaved= 4 IEnMin= 1 EnMin= -76.5666428597541     IErMin= 3 ErrMin= 2.35D-07
 ErrMax= 2.35D-07  0.00D+00 EMaxC= 1.00D-01 BMatC= 8.45D-13 BMatP= 8.45D-13
 IDIUse=1 WtCom= 1.00D+00 WtEn= 0.00D+00
 Coeff-Com:  0.155D-02-0.315D+01 0.577D+00 0.357D+01
 Coeff:      0.155D-02-0.315D+01 0.577D+00 0.357D+01
 Gap=     0.146 Goal=   None    Shift=    0.000
 Gap=     0.209 Goal=   None    Shift=    0.000
 RMSDP=1.75D-06 MaxDP=2.07D-05 DE= 3.19D-11 OVMax= 2.19D-04

 Cycle  80  Pass 1  IDiag  1:
 E= -76.5666428501905     Delta-E=       -0.000000000274 Rises=F Damp=F
 DIIS: error= 2.35D-07 at cycle  80 NSaved=   5.
 NSaved= 5 IEnMin= 1 EnMin= -76.5666428597541     IErMin= 5 ErrMin= 2.35D-07
 ErrMax= 2.35D-07  0.00D+00 EMaxC= 1.00D-01 BMatC= 8.44D-13 BMatP= 8.45D-13
 IDIUse=1 WtCom= 1.00D+00 WtEn= 0.00D+00
 Large coefficients: NSaved=  5 BigCof=19955.99 CofMax=   10.00 Det=-1.92D-21
 Inversion failed.  Reducing to  4 matrices.
 Coeff-Com:  0.140D-02 0.241D+00 0.275D+00 0.482D+00
 Coeff:      0.140D-02 0.241D+00 0.275D+00 0.482D+00
 Gap=     0.146 Goal=   None    Shift=    0.000
 Gap=     0.209 Goal=   None    Shift=    0.000
 RMSDP=7.39D-07 MaxDP=8.74D-06 DE=-2.74D-10 OVMax= 9.23D-05

 Cycle  81  Pass 1  IDiag  1:
 E= -76.5666428500752     Delta-E=        0.000000000115 Rises=F Damp=F
 DIIS: error= 2.35D-07 at cycle  81 NSaved=   5.
 NSaved= 5 IEnMin= 1 EnMin= -76.5666428597541     IErMin= 4 ErrMin= 2.35D-07
 ErrMax= 2.35D-07  0.00D+00 EMaxC= 1.00D-01 BMatC= 8.45D-13 BMatP= 8.44D-13
 IDIUse=1 WtCom= 1.00D+00 WtEn= 0.00D+00
 Large coefficients: NSaved=  5 BigCof=10168.26 CofMax=   10.00 Det=-1.52D-20
 Inversion failed.  Reducing to  4 matrices.
 Coeff-Com:  0.940D-03 0.531D+00 0.150D+01-0.103D+01
 Coeff:      0.940D-03 0.531D+00 0.150D+01-0.103D+01
 Gap=     0.146 Goal=   None    Shift=    0.000
 Gap=     0.209 Goal=   None    Shift=    0.000
 RMSDP=7.68D-07 MaxDP=9.08D-06 DE= 1.15D-10 OVMax= 9.59D-05

 Cycle  82  Pass 1  IDiag  1:
 E= -76.5666428501950     Delta-E=       -0.000000000120 Rises=F Damp=F
 DIIS: error= 2.35D-07 at cycle  82 NSaved=   5.
 NSaved= 5 IEnMin= 1 EnMin= -76.5666428597541     IErMin= 5 ErrMin= 2.35D-07
 ErrMax= 2.35D-07  0.00D+00 EMaxC= 1.00D-01 BMatC= 8.45D-13 BMatP= 8.44D-13
 IDIUse=1 WtCom= 1.00D+00 WtEn= 0.00D+00
 Large coefficients: NSaved=  5 BigCof=11932.54 CofMax=   10.00 Det=-5.54D-21
 Inversion failed.  Reducing to  4 matrices.
 Coeff-Com:  0.124D-02 0.106D+01 0.423D+00-0.480D+00
 Coeff:      0.124D-02 0.106D+01 0.423D+00-0.480D+00
 Gap=     0.146 Goal=   None    Shift=    0.000
 Gap=     0.209 Goal=   None    Shift=    0.000
 RMSDP=2.48D-07 MaxDP=2.93D-06 DE=-1.20D-10 OVMax= 3.10D-05

 Cycle  83  Pass 1  IDiag  1:
 E= -76.5666428501563     Delta-E=        0.000000000039 Rises=F Damp=F
 DIIS: error= 2.35D-07 at cycle  83 NSaved=   5.
 NSaved= 5 IEnMin= 1 EnMin= -76.5666428597541     IErMin= 4 ErrMin= 2.35D-07
 ErrMax= 2.35D-07  0.00D+00 EMaxC= 1.00D-01 BMatC= 8.45D-13 BMatP= 8.44D-13
 IDIUse=1 WtCom= 1.00D+00 WtEn= 0.00D+00
 Large coefficients: NSaved=  5 BigCof= 5252.38 CofMax=   10.00 Det=-3.11D-20
 Inversion failed.  Reducing to  4 matrices.
 Large coefficients: NSaved=  4 BigCof=   58.37 CofMax=   10.00 Det=-4.66D-18
 Inversion failed.  Reducing to  3 matrices.
 Coeff-Com:  0.136D-02 0.105D+01-0.543D-01
 Coeff:      0.136D-02 0.105D+01-0.543D-01
 Gap=     0.146 Goal=   None    Shift=    0.000
 Gap=     0.209 Goal=   None    Shift=    0.000
 RMSDP=3.76D-07 MaxDP=4.45D-06 DE= 3.87D-11 OVMax= 4.70D-05

 Cycle  84  Pass 1  IDiag  1:
 E= -76.5666428502150     Delta-E=       -0.000000000059 Rises=F Damp=F
 DIIS: error= 2.35D-07 at cycle  84 NSaved=   4.
 NSaved= 4 IEnMin= 1 EnMin= -76.5666428597541     IErMin= 4 ErrMin= 2.35D-07
 ErrMax= 2.35D-07  0.00D+00 EMaxC= 1.00D-01 BMatC= 8.45D-13 BMatP= 8.45D-13
 IDIUse=1 WtCom= 1.00D+00 WtEn= 0.00D+00
 Large coefficients: NSaved=  4 BigCof=   16.66 CofMax=   10.00 Det=-2.85D-18
 Inversion failed.  Reducing to  3 matrices.
 Coeff-Com:  0.144D-02 0.107D+01-0.667D-01
 Coeff:      0.144D-02 0.107D+01-0.667D-01
 Gap=     0.146 Goal=   None    Shift=    0.000
 Gap=     0.209 Goal=   None    Shift=    0.000
 RMSDP=2.81D-07 MaxDP=3.32D-06 DE=-5.88D-11 OVMax= 3.51D-05

 Cycle  85  Pass 1  IDiag  1:
 E= -76.5666428501711     Delta-E=        0.000000000044 Rises=F Damp=F
 DIIS: error= 2.35D-07 at cycle  85 NSaved=   4.
 NSaved= 4 IEnMin= 1 EnMin= -76.5666428597541     IErMin= 3 ErrMin= 2.35D-07
 ErrMax= 2.35D-07  0.00D+00 EMaxC= 1.00D-01 BMatC= 8.45D-13 BMatP= 8.45D-13
 IDIUse=1 WtCom= 1.00D+00 WtEn= 0.00D+00
 Large coefficients: NSaved=  4 BigCof=   21.30 CofMax=   10.00 Det=-2.34D-17
 Inversion failed.  Reducing to  3 matrices.
 Coeff-Com:  0.150D-02 0.493D+00 0.506D+00
 Coeff:      0.150D-02 0.493D+00 0.506D+00
 Gap=     0.146 Goal=   None    Shift=    0.000
 Gap=     0.209 Goal=   None    Shift=    0.000
 RMSDP=2.63D-07 MaxDP=3.11D-06 DE= 4.39D-11 OVMax= 3.28D-05

 Cycle  86  Pass 1  IDiag  1:
 E= -76.5666428502122     Delta-E=       -0.000000000041 Rises=F Damp=F
 DIIS: error= 2.35D-07 at cycle  86 NSaved=   4.
 NSaved= 4 IEnMin= 1 EnMin= -76.5666428597541     IErMin= 2 ErrMin= 2.35D-07
 ErrMax= 2.35D-07  0.00D+00 EMaxC= 1.00D-01 BMatC= 8.46D-13 BMatP= 8.45D-13
 IDIUse=1 WtCom= 1.00D+00 WtEn= 0.00D+00
 Coeff-Com:  0.153D-02-0.651D+00 0.215D+01-0.500D+00
 Coeff:      0.153D-02-0.651D+00 0.215D+01-0.500D+00
 Gap=     0.146 Goal=   None    Shift=    0.000
 Gap=     0.209 Goal=   None    Shift=    0.000
 RMSDP=4.51D-07 MaxDP=5.33D-06 DE=-4.10D-11 OVMax= 5.63D-05

 Cycle  87  Pass 1  IDiag  1:
 E= -76.5666428501419     Delta-E=        0.000000000070 Rises=F Damp=F
 DIIS: error= 2.35D-07 at cycle  87 NSaved=   5.
 NSaved= 5 IEnMin= 1 EnMin= -76.5666428597541     IErMin= 2 ErrMin= 2.35D-07
 ErrMax= 2.35D-07  0.00D+00 EMaxC= 1.00D-01 BMatC= 8.46D-13 BMatP= 8.45D-13
 IDIUse=1 WtCom= 1.00D+00 WtEn= 0.00D+00
 Large coefficients: NSaved=  5 BigCof=44704.94 CofMax=   10.00 Det=-3.93D-22
 Inversion failed.  Reducing to  4 matrices.
 Coeff-Com:  0.150D-02 0.797D+00-0.231D+01 0.251D+01
 Coeff:      0.150D-02 0.797D+00-0.231D+01 0.251D+01
 Gap=     0.146 Goal=   None    Shift=    0.000
 Gap=     0.209 Goal=   None    Shift=    0.000
 RMSDP=5.44D-07 MaxDP=6.44D-06 DE= 7.03D-11 OVMax= 6.80D-05

 Cycle  88  Pass 1  IDiag  1:
 E= -76.5666428500569     Delta-E=        0.000000000085 Rises=F Damp=F
 DIIS: error= 2.35D-07 at cycle  88 NSaved=   5.
 NSaved= 5 IEnMin= 1 EnMin= -76.5666428597541     IErMin= 2 ErrMin= 2.35D-07
 ErrMax= 2.35D-07  0.00D+00 EMaxC= 1.00D-01 BMatC= 8.46D-13 BMatP= 8.45D-13
 IDIUse=1 WtCom= 1.00D+00 WtEn= 0.00D+00
 Large coefficients: NSaved=  5 BigCof=47729.81 CofMax=   10.00 Det=-3.32D-22
 Inversion failed.  Reducing to  4 matrices.
 Coeff-Com:  0.134D-02 0.629D+00-0.186D+01 0.223D+01
 Coeff:      0.134D-02 0.629D+00-0.186D+01 0.223D+01
 Gap=     0.146 Goal=   None    Shift=    0.000
 Gap=     0.209 Goal=   None    Shift=    0.000
 RMSDP=2.61D-07 MaxDP=3.09D-06 DE= 8.50D-11 OVMax= 3.27D-05

 Cycle  89  Pass 1  IDiag  1:
 E= -76.5666428500161     Delta-E=        0.000000000041 Rises=F Damp=F
 DIIS: error= 2.35D-07 at cycle  89 NSaved=   5.
 NSaved= 5 IEnMin= 1 EnMin= -76.5666428597541     IErMin= 2 ErrMin= 2.35D-07
 ErrMax= 2.35D-07  0.00D+00 EMaxC= 1.00D-01 BMatC= 8.46D-13 BMatP= 8.45D-13
 IDIUse=1 WtCom= 1.00D+00 WtEn= 0.00D+00
 Large coefficients: NSaved=  5 BigCof=17623.28 CofMax=   10.00 Det=-2.64D-21
 Inversion failed.  Reducing to  4 matrices.
 Coeff-Com:  0.152D-02 0.722D+00-0.455D+01 0.482D+01
 Coeff:      0.152D-02 0.722D+00-0.455D+01 0.482D+01
 Gap=     0.146 Goal=   None    Shift=    0.000
 Gap=     0.209 Goal=   None    Shift=    0.000
 RMSDP=1.41D-07 MaxDP=1.66D-06 DE= 4.08D-11 OVMax= 1.76D-05

 Cycle  90  Pass 1  IDiag  1:
 E= -76.5666428499942     Delta-E=        0.000000000022 Rises=F Damp=F
 DIIS: error= 2.35D-07 at cycle  90 NSaved=   5.
 NSaved= 5 IEnMin= 1 EnMin= -76.5666428597541     IErMin= 2 ErrMin= 2.35D-07
 ErrMax= 2.35D-07  0.00D+00 EMaxC= 1.00D-01 BMatC= 8.45D-13 BMatP= 8.45D-13
 IDIUse=1 WtCom= 1.00D+00 WtEn= 0.00D+00
 Large coefficients: NSaved=  5 BigCof= 9410.48 CofMax=   10.00 Det=-9.38D-21
 Inversion failed.  Reducing to  4 matrices.
 Coeff-Com:  0.210D-02 0.135D+01-0.376D+01 0.341D+01
 Coeff:      0.210D-02 0.135D+01-0.376D+01 0.341D+01
 Gap=     0.146 Goal=   None    Shift=    0.000
 Gap=     0.209 Goal=   None    Shift=    0.000
 RMSDP=1.55D-06 MaxDP=1.83D-05 DE= 2.19D-11 OVMax= 1.93D-04

 Cycle  91  Pass 1  IDiag  1:
 E= -76.5666428502358     Delta-E=       -0.000000000242 Rises=F Damp=F
 DIIS: error= 2.34D-07 at cycle  91 NSaved=   5.
 NSaved= 5 IEnMin= 1 EnMin= -76.5666428597541     IErMin= 5 ErrMin= 2.34D-07
 ErrMax= 2.34D-07  0.00D+00 EMaxC= 1.00D-01 BMatC= 8.43D-13 BMatP= 8.45D-13
 IDIUse=1 WtCom= 1.00D+00 WtEn= 0.00D+00
 Large coefficients: NSaved=  5 BigCof= 2244.95 CofMax=   10.00 Det=-1.65D-19
 Inversion failed.  Reducing to  4 matrices.
 Large coefficients: NSaved=  4 BigCof=   11.87 CofMax=   10.00 Det=-7.08D-17
 Inversion failed.  Reducing to  3 matrices.
 Coeff-Com:  0.204D-02-0.739D+00 0.174D+01
 Coeff:      0.204D-02-0.739D+00 0.174D+01
 Gap=     0.146 Goal=   None    Shift=    0.000
 Gap=     0.209 Goal=   None    Shift=    0.000
 RMSDP=1.30D-06 MaxDP=1.54D-05 DE=-2.42D-10 OVMax= 1.63D-04

 Cycle  92  Pass 1  IDiag  1:
 E= -76.5666428504388     Delta-E=       -0.000000000203 Rises=F Damp=F
 DIIS: error= 2.34D-07 at cycle  92 NSaved=   4.
 NSaved= 4 IEnMin= 1 EnMin= -76.5666428597541     IErMin= 4 ErrMin= 2.34D-07
 ErrMax= 2.34D-07  0.00D+00 EMaxC= 1.00D-01 BMatC= 8.43D-13 BMatP= 8.43D-13
 IDIUse=1 WtCom= 1.00D+00 WtEn= 0.00D+00
 Coeff-Com:  0.177D-02-0.774D+00 0.129D+01 0.486D+00
 Coeff:      0.177D-02-0.774D+00 0.129D+01 0.486D+00
 Gap=     0.146 Goal=   None    Shift=    0.000
 Gap=     0.209 Goal=   None    Shift=    0.000
 RMSDP=6.70D-07 MaxDP=7.92D-06 DE=-2.03D-10 OVMax= 8.36D-05

 Cycle  93  Pass 1  IDiag  1:
 E= -76.5666428505431     Delta-E=       -0.000000000104 Rises=F Damp=F
 DIIS: error= 2.34D-07 at cycle  93 NSaved=   5.
 NSaved= 5 IEnMin= 1 EnMin= -76.5666428597541     IErMin= 5 ErrMin= 2.34D-07
 ErrMax= 2.34D-07  0.00D+00 EMaxC= 1.00D-01 BMatC= 8.42D-13 BMatP= 8.43D-13
 IDIUse=1 WtCom= 1.00D+00 WtEn= 0.00D+00
 Large coefficients: NSaved=  5 BigCof= 5622.98 CofMax=   10.00 Det=-1.50D-20
[...]
 Gap=     0.146 Goal=   None    Shift=    0.000
 Gap=     0.207 Goal=   None    Shift=    0.000
 RMSDP=2.38D-08 MaxDP=2.09D-07 DE= 2.56D-13 OVMax= 1.55D-06

 Cycle  14  Pass 1  IDiag  1:
 E= -76.5674453866666     Delta-E=        0.000000000000 Rises=F Damp=F
 DIIS: error= 6.36D-09 at cycle  14 NSaved=  11.
 NSaved=11 IEnMin= 9 EnMin= -76.5674453866669     IErMin=11 ErrMin= 6.36D-09
 ErrMax= 6.36D-09  0.00D+00 EMaxC= 1.00D-01 BMatC= 3.65D-15 BMatP= 2.01D-14
 IDIUse=1 WtCom= 1.00D+00 WtEn= 0.00D+00
 Coeff-Com: -0.975D-04 0.587D-04 0.444D-03 0.638D-02 0.913D-02-0.172D+00
 Coeff-Com:  0.466D+00-0.628D+00 0.380D+00-0.213D+00 0.115D+01
 Coeff:     -0.975D-04 0.587D-04 0.444D-03 0.638D-02 0.913D-02-0.172D+00
 Coeff:      0.466D+00-0.628D+00 0.380D+00-0.213D+00 0.115D+01
 Gap=     0.146 Goal=   None    Shift=    0.000
 Gap=     0.207 Goal=   None    Shift=    0.000
 RMSDP=2.59D-09 MaxDP=2.59D-08 DE= 1.42D-14 OVMax= 1.69D-07

 SCF Done:  E(UM062X) =  -76.5674453867     A.U. after   14 cycles
            NFock= 14  Conv=0.26D-08     -V/T= 2.0005
 <Sx>= 0.0000 <Sy>= 0.0000 <Sz>= 0.5000 <S**2>= 0.7509 S= 0.5005
 <L.S>=  0.00000000000    
 KE= 7.653006715064D+01 PE=-2.057697708927D+02 EE= 3.705302471109D+01
 Annihilation of the first spin contaminant:
 S**2 before annihilation     0.7509,   after     0.7500
 Leave Link  502 at Tue Dec  3 11:24:15 2024, MaxMem=  2147483648 cpu:              64.7 elap:               2.8
 (Enter /home/szhao/Apps/g16/l701.exe)
 ... and contract with generalized density number  0.
 Compute integral first derivatives.
 Leave Link  701 at Tue Dec  3 11:24:15 2024, MaxMem=  2147483648 cpu:               3.4 elap:               0.2
 (Enter /home/szhao/Apps/g16/l702.exe)
 L702 exits ... SP integral derivatives will be done elsewhere.
 Leave Link  702 at Tue Dec  3 11:24:15 2024, MaxMem=  2147483648 cpu:               0.8 elap:               0.0
 (Enter /home/szhao/Apps/g16/l703.exe)
 Integral derivatives from FoFJK, PRISM(SPDF).
 Compute integral first derivatives, UseDBF=F ICtDFT=           0.
 Calling FoFJK, ICntrl=      2127 FMM=F ISym2X=0 I1Cent= 0 IOpClX= 1 NMat=1 NMatS=1 NMatT=0.
 FoFJK:  IHMeth= 1 ICntrl=    2127 DoSepK=F KAlg= 0 I1Cent=           0 FoldK=F
 IRaf=         0 NMat=       1 IRICut=       1 DoRegI=T DoRafI=F ISym2E= 0 IDoP0=0 IntGTp=1.
 FoFCou: FMM=F IPFlag=           0 FMFlag=      100000 FMFlg1=         800
         NFxFlg=           0 DoJE=F BraDBF=F KetDBF=F FulRan=T
         wScrn=  0.000000 ICntrl=      2127 IOpCl=  1 I1Cent=           0 NGrid=           0
         NMat0=    1 NMatS0=      1 NMatT0=    0 NMatD0=    1 NMtDS0=    0 NMtDT0=    0
 Symmetry not used in FoFCou.
 Leave Link  703 at Tue Dec  3 11:24:15 2024, MaxMem=  2147483648 cpu:              10.3 elap:               0.4
 (Enter /home/szhao/Apps/g16/l716.exe)
 Dipole        =-6.21205354D-08-5.73192902D-07-5.65238883D-07
 -------------------------------------------------------------------
 Center     Atomic                   Forces (Hartrees/Bohr)
 Number     Number              X              Y              Z
 -------------------------------------------------------------------
      1        6          -0.000000000   -0.000000000   -0.000000000
      2        6          -0.000000000   -0.000000000   -0.000000000
      3        1           0.000004682    0.000000127    0.000000397
      4        1          -0.000004571   -0.000000146   -0.000000473
 -------------------------------------------------------------------
 Cartesian Forces:  Max     0.000004682 RMS     0.000001898
 Leave Link  716 at Tue Dec  3 11:24:15 2024, MaxMem=  2147483648 cpu:               0.9 elap:               0.0
 (Enter /home/szhao/Apps/g16/l103.exe)

 GradGradGradGradGradGradGradGradGradGradGradGradGradGradGradGradGradGrad
 Berny optimization.
 Using GEDIIS/GDIIS optimizer.
 FormGI is forming the generalized inverse of G from B-inverse, IUseBI=4.
 Internal  Forces:  Max     0.000004682 RMS     0.000002691
 Search for a local minimum.
 Step number   3 out of a maximum of   22
 All quantities printed in internal units (Hartrees-Bohrs-Radians)
 RMS Force = .26932D-05 SwitMx=.10000D-02 MixMth= 2
 Mixed Optimization -- En-DIIS/RFO-DIIS
 Swapping is turned off.
 Update second derivatives using D2CorX and points    1    2    3
 DE= -3.97D-06 DEPred=-3.38D-06 R= 1.17D+00
 TightC=F SS=  1.41D+00  RLast= 5.05D-03 DXNew= 5.0454D-01 1.5153D-02
 Trust test= 1.17D+00 RLast= 5.05D-03 DXMaxT set to 3.00D-01
 The second derivative matrix:
                          X1        Y1        Z1        X2        Y2
           X1           0.64572
           Y1           0.00007   0.50000
           Z1           0.00001   0.00000   0.50000
           X2          -0.14586  -0.00007  -0.00001   0.64601
           Y2          -0.00007  -0.00000  -0.00000   0.00007   0.50000
           Z2          -0.00002  -0.00000  -0.00000   0.00002   0.00000
           R1          -0.14574  -0.00007  -0.00001   0.14588   0.00007
           R2          -0.14585  -0.00007  -0.00001   0.14599   0.00007
           A1          -0.00002  -0.00000  -0.00000   0.00002   0.00000
           A2          -0.00005  -0.00000  -0.00000   0.00005   0.00000
           A3           0.00007   0.00000   0.00000  -0.00007  -0.00000
           A4           0.00008   0.00000   0.00000  -0.00008  -0.00000
                          Z2        R1        R2        A1        A2
           Z2           0.50000
           R1           0.00002   0.31376
           R2           0.00002  -0.02201   0.31371
           A1           0.00000   0.00002   0.00002   0.00230
           A2           0.00000   0.00005   0.00005   0.00000   0.00230
           A3          -0.00000  -0.00007  -0.00007  -0.00000  -0.00000
           A4          -0.00000  -0.00008  -0.00008  -0.00000  -0.00000
                          A3        A4
           A3           0.00230
           A4           0.00000   0.00230
 ITU=  1  1  0
     Eigenvalues ---    0.00230   0.00230   0.00230   0.29173   0.33574
     Eigenvalues --- 1000.000001000.000001000.000001000.000001000.00000
     Eigenvalues --- 1000.000001000.00000
 En-DIIS/RFO-DIIS/Sim-DIIS IScMMF=       -3 using points:     3    2
 RFO step:  Lambda=-1.40284977D-10.
 NNeg= 0 NGDIIS= 2 SimSw=  2.50D-03 Rises=F DC= -3.97D-06 SmlDif=  1.00D-05
 NRisDI= 0 DoIntr=F SqrtH=F CThrHd= 10.0 CDAdj=  3.0
 RMS Error=  0.1055926771D-03 NUsed= 2 OKEnD=F EnDIS=F
 InvSVX:  RCond= 2.87D-05 Info=           0 Equed=N FErr=  8.98D-16 BErr=  4.95D-17
 DidBck=F Rises=F RFO-DIIS coefs:    0.99566    0.00434
 Iteration  1 RMS(Cart)=  0.00022478 RMS(Int)=  0.00000003
 Iteration  2 RMS(Cart)=  0.00000003 RMS(Int)=  0.00000000
 ITry= 1 IFail=0 DXMaxC= 5.31D-04 DCOld= 1.00D+10 DXMaxT= 3.00D-01 DXLimC= 3.00D+00 Rises=F
 Variable       Old X    -DE/DX   Delta X   Delta X   Delta X     New X
                                 (Linear)    (Quad)   (Total)
    X1       -2.23396   0.00000   0.00000   0.00000   0.00000  -2.23396
    Y1        0.00000   0.00000   0.00000   0.00000   0.00000   0.00000
    Z1        0.00000   0.00000   0.00000   0.00000   0.00000   0.00000
    X2        2.23396  -0.00000   0.00000   0.00000   0.00000   2.23396
    Y2        0.00000  -0.00000   0.00000   0.00000   0.00000   0.00000
    Z2        0.00000  -0.00000   0.00000   0.00000   0.00000   0.00000
    R1        2.13182  -0.00000  -0.00002  -0.00000  -0.00002   2.13180
    R2        2.13182  -0.00000  -0.00002  -0.00000  -0.00002   2.13180
    A1        3.14159  -0.00000   0.00000  -0.00005  -0.00005   3.14154
    A2        3.14159  -0.00000   0.00000  -0.00012  -0.00012   3.14147
    A3        3.14159   0.00000  -0.00000   0.00023   0.00023   3.14183
    A4        3.14159   0.00000  -0.00000   0.00025   0.00025   3.14184
         Item               Value     Threshold  Converged?
 Maximum Force            0.000005     0.000450     YES
 RMS     Force            0.000003     0.000300     YES
 Maximum Displacement     0.000531     0.001800     YES
 RMS     Displacement     0.000225     0.001200     YES
 Predicted change in Energy=-2.266688D-10
 Optimization completed.
    -- Stationary point found.
                           ----------------------------
                           !   Optimized Parameters   !
                           ! (Angstroms and Degrees)  !
 --------------------------                            --------------------------
 ! Name  Definition              Value          Derivative Info.                !
 --------------------------------------------------------------------------------
 ! X1    R(1,-1)                -1.1822         -DE/DX =    0.0                 !
 ! Y1    R(1,-2)                 0.0            -DE/DX =    0.0                 !
 ! Z1    R(1,-3)                 0.0            -DE/DX =    0.0                 !
 ! X2    R(2,-1)                 1.1822         -DE/DX =    0.0                 !
 ! Y2    R(2,-2)                 0.0            -DE/DX =    0.0                 !
 ! Z2    R(2,-3)                 0.0            -DE/DX =    0.0                 !
 ! R1    R(1,3)                  1.1281         -DE/DX =    0.0                 !
 ! R2    R(2,4)                  1.1281         -DE/DX =    0.0                 !
 ! A1    L(2,1,3,-2,-1)        179.9997         -DE/DX =    0.0                 !
 ! A2    L(1,2,4,-2,-1)        179.9997         -DE/DX =    0.0                 !
 ! A3    L(2,1,3,-3,-2)        180.0001         -DE/DX =    0.0                 !
 ! A4    L(1,2,4,-3,-2)        180.0001         -DE/DX =    0.0                 !
 --------------------------------------------------------------------------------
 Lowest energy point so far.  Saving SCF results.
 Largest change from initial coordinates is atom    4       0.027 Angstoms.
 GradGradGradGradGradGradGradGradGradGradGradGradGradGradGradGradGradGrad

 Leave Link  103 at Tue Dec  3 11:24:15 2024, MaxMem=  2147483648 cpu:               0.7 elap:               0.0
 (Enter /home/szhao/Apps/g16/l202.exe)
                          Input orientation:                          
 ---------------------------------------------------------------------
 Center     Atomic      Atomic             Coordinates (Angstroms)
 Number     Number       Type             X           Y           Z
 ---------------------------------------------------------------------
      1          6           0       -1.182160    0.000000    0.000000
      2          6           0        1.182160    0.000000    0.000000
      3          1           0       -2.310268    0.000001    0.000005
      4          1           0        2.310268   -0.000002   -0.000006
 ---------------------------------------------------------------------
                    Distance matrix (angstroms):
                    1          2          3          4
     1  C    0.000000
     2  C    2.364320   0.000000
     3  H    1.128108   3.492428   0.000000
     4  H    3.492428   1.128108   4.620536   0.000000
 Symmetry turned off by external request.
 Stoichiometry    C2H2(1+,2)
 Framework group  C*V[C*(HCCH)]
 Deg. of freedom     3
 Full point group                 C*V     NOp   4
 Rotational constants (GHZ):           0.0000000          11.4085518          11.4085518
 Leave Link  202 at Tue Dec  3 11:24:15 2024, MaxMem=  2147483648 cpu:               0.0 elap:               0.0
 (Enter /home/szhao/Apps/g16/l601.exe)
 Copying SCF densities to generalized density rwf, IOpCl= 1 IROHF=0.

 **********************************************************************

            Population analysis using the SCF density.

 **********************************************************************

 Alpha  occ. eigenvalues --  -10.95535 -10.95532  -1.00415  -0.98302  -0.71896
 Alpha  occ. eigenvalues --   -0.57684  -0.53306
 Alpha virt. eigenvalues --   -0.38684  -0.36905  -0.33130  -0.13484  -0.11692
 Alpha virt. eigenvalues --   -0.08547  -0.08020  -0.07414  -0.05379  -0.05011
 Alpha virt. eigenvalues --   -0.00698   0.02241   0.05853   0.26052   0.31982
 Alpha virt. eigenvalues --    0.32168   0.32838   0.38614   0.39175   0.45682
 Alpha virt. eigenvalues --    0.53577   0.56034   0.66804   0.84368   0.84376
 Alpha virt. eigenvalues --    0.94292   0.94754   1.05291   1.06293   1.06751
 Alpha virt. eigenvalues --    1.07764   1.23047   1.44563   1.59392   1.59594
 Alpha virt. eigenvalues --    1.62361   1.62773   2.07500   2.26980   2.27868
 Alpha virt. eigenvalues --    2.40974   2.42370   2.43908   2.44307   2.45759
 Alpha virt. eigenvalues --    3.02163   3.03054  23.24301  23.27059
  Beta  occ. eigenvalues --  -10.95168 -10.95167  -0.97860  -0.96247  -0.70611
  Beta  occ. eigenvalues --   -0.56127
  Beta virt. eigenvalues --   -0.35400  -0.33791  -0.31335  -0.29671  -0.14245
  Beta virt. eigenvalues --   -0.11713  -0.08088  -0.08046  -0.07294  -0.04762
  Beta virt. eigenvalues --   -0.03916  -0.01487   0.03677   0.06829   0.25473
  Beta virt. eigenvalues --    0.33366   0.33763   0.34293   0.37840   0.38452
  Beta virt. eigenvalues --    0.47463   0.55088   0.56909   0.66019   0.89953
  Beta virt. eigenvalues --    0.90924   1.00155   1.00904   1.08550   1.08577
  Beta virt. eigenvalues --    1.09825   1.09826   1.23515   1.45469   1.60873
  Beta virt. eigenvalues --    1.61482   1.63837   1.64626   2.20166   2.30887
  Beta virt. eigenvalues --    2.37217   2.44847   2.45016   2.46714   2.47276
  Beta virt. eigenvalues --    2.48848   3.09548   3.10611  23.25448  23.28176
          Condensed to atoms (all electrons):
               1          2          3          4
     1  C    5.823736  -0.361226   0.263424   0.023998
     2  C   -0.361226   5.823736   0.023998   0.263424
     3  H    0.263424   0.023998   0.462783  -0.000136
     4  H    0.023998   0.263424  -0.000136   0.462783
          Atomic-Atomic Spin Densities.
               1          2          3          4
     1  C    0.426943   0.093463  -0.003517  -0.001791
     2  C    0.093463   0.426943  -0.001791  -0.003517
     3  H   -0.003517  -0.001791  -0.009790   0.000000
     4  H   -0.001791  -0.003517   0.000000  -0.009790
 Mulliken charges and spin densities:
               1          2
     1  C    0.250069   0.515098
     2  C    0.250069   0.515098
     3  H    0.249931  -0.015098
     4  H    0.249931  -0.015098
 Sum of Mulliken charges =   1.00000   1.00000
 Mulliken charges and spin densities with hydrogens summed into heavy atoms:
               1          2
     1  C    0.500000   0.500000
     2  C    0.500000   0.500000
 Electronic spatial extent (au):  <R**2>=            109.9919
 Charge=              1.0000 electrons
 Dipole moment (field-independent basis, Debye):
    X=             -0.0000    Y=             -0.0000    Z=             -0.0000  Tot=              0.0000
 Quadrupole moment (field-independent basis, Debye-Ang):
   XX=              4.8852   YY=             -9.4550   ZZ=            -11.5505
   XY=             -0.0000   XZ=             -0.0000   YZ=             -0.0115
 Traceless Quadrupole moment (field-independent basis, Debye-Ang):
   XX=             10.2587   YY=             -4.0816   ZZ=             -6.1771
   XY=             -0.0000   XZ=             -0.0000   YZ=             -0.0115
 Octapole moment (field-independent basis, Debye-Ang**2):
  XXX=             -0.0000  YYY=              0.0000  ZZZ=              0.0000  XYY=              0.0000
  XXY=             -0.0000  XXZ=             -0.0000  XZZ=              0.0000  YZZ=              0.0000
  YYZ=              0.0000  XYZ=             -0.0000
 Hexadecapole moment (field-independent basis, Debye-Ang**3):
 XXXX=            -70.9256 YYYY=             -8.0944 ZZZZ=            -12.5905 XXXY=              0.0000
 XXXZ=             -0.0000 YYYX=              0.0000 YYYZ=             -0.0123 ZZZX=              0.0000
 ZZZY=             -0.0123 XXYY=            -20.2676 XXZZ=            -23.6429 YYZZ=             -3.4475
 XXYZ=             -0.0185 YYXZ=              0.0000 ZZXY=              0.0000
 N-N= 1.561923364432D+01 E-N=-2.057697708996D+02  KE= 7.653006715064D+01
                          Isotropic Fermi Contact Couplings
        Atom                 a.u.       MegaHertz       Gauss      10(-4) cm-1
     1  C(13)              0.05407      60.78191      21.68850      20.27466
     2  C(13)              0.05407      60.78195      21.68851      20.27468
     3  H(1)              -0.00487     -21.76357      -7.76578      -7.25954
     4  H(1)              -0.00487     -21.76355      -7.76578      -7.25954
 --------------------------------------------------------
       Center         ----  Spin Dipole Couplings  ----
                      3XX-RR        3YY-RR        3ZZ-RR
 --------------------------------------------------------
     1   Atom       -0.290313     -0.330239      0.620552
     2   Atom       -0.290314     -0.330239      0.620552
     3   Atom        0.042375     -0.036207     -0.006168
     4   Atom        0.042375     -0.036207     -0.006168
 --------------------------------------------------------
                        XY            XZ            YZ
 --------------------------------------------------------
     1   Atom       -0.000001      0.000023      0.005203
     2   Atom        0.000000      0.000021      0.005203
     3   Atom       -0.000000     -0.000001      0.000164
     4   Atom       -0.000000     -0.000001      0.000164
 --------------------------------------------------------


 ---------------------------------------------------------------------------------
              Anisotropic Spin Dipole Couplings in Principal Axis System
 ---------------------------------------------------------------------------------

       Atom             a.u.   MegaHertz   Gauss  10(-4) cm-1        Axes

              Baa    -0.3303   -44.319   -15.814   -14.783  0.0000  1.0000 -0.0055
     1 C(13)  Bbb    -0.2903   -38.957   -13.901   -12.995  1.0000 -0.0000 -0.0000
              Bcc     0.6206    83.276    29.715    27.778  0.0000  0.0055  1.0000
 
              Baa    -0.3303   -44.319   -15.814   -14.783  0.0000  1.0000 -0.0055
     2 C(13)  Bbb    -0.2903   -38.957   -13.901   -12.995  1.0000 -0.0000 -0.0000
              Bcc     0.6206    83.276    29.715    27.778  0.0000  0.0055  1.0000
 
              Baa    -0.0362   -19.319    -6.893    -6.444  0.0000  1.0000 -0.0055
     3 H(1)   Bbb    -0.0062    -3.290    -1.174    -1.098  0.0000  0.0055  1.0000
              Bcc     0.0424    22.609     8.068     7.542  1.0000 -0.0000 -0.0000
 
              Baa    -0.0362   -19.319    -6.893    -6.444  0.0000  1.0000 -0.0055
     4 H(1)   Bbb    -0.0062    -3.290    -1.174    -1.098  0.0000  0.0055  1.0000
              Bcc     0.0424    22.609     8.068     7.542  1.0000 -0.0000 -0.0000
 

 ---------------------------------------------------------------------------------

 No NMR shielding tensors so no spin-rotation constants.
 Leave Link  601 at Tue Dec  3 11:24:16 2024, MaxMem=  2147483648 cpu:               6.2 elap:               0.3
 (Enter /home/szhao/Apps/g16/l9999.exe)
 1\1\GINC-NODE01\FOpt\UM062X\6-311+G(d,p)\C2H2(1+,2)\SZHAO\03-Dec-2024\
 0\\#p opt UM062X/6-311+G** nosymm int=superfine\\Title Card Required\\
 1,2\C,-1.18216,0.,0.\C,1.18216,0.,0.\H,-2.3102681927,0.0000012504,0.00
 00053831\H,2.3102679845,-0.0000020551,-0.0000061085\\Version=ES64L-G16
 RevA.03\HF=-76.5674454\S2=0.75091\S2-1=0.\S2A=0.750001\RMSD=2.594e-09\
 RMSF=1.898e-06\Dipole=0.,-0.0000005,-0.0000005\Quadrupole=7.6270685,-3
 .0345364,-4.5925321,-0.0000055,-0.0000309,-0.008526\PG=C*V [C*(H1C1C1H
 1)]\\@


 NOTHING WILL BE ATTEMPTED IF ALL POSSIBLE OBJECTIONS
 MUST FIRST BE OVERCOME.

                               -- THE GOLDEN PRINCIPLE,
                    PAUL DICKSON'S "THE OFFICIAL RULES"
 Job cpu time:       0 days  0 hours 13 minutes  7.8 seconds.
 Elapsed time:       0 days  0 hours  0 minutes 34.2 seconds.
 File lengths (MBytes):  RWF=      6 Int=      0 D2E=      0 Chk=      1 Scr=      1
 Normal termination of Gaussian 16 at Tue Dec  3 11:24:16 2024.
