 Entering Gaussian System, Link 0=g16
 Initial command:
 /home/szhao/Apps/g16/l1.exe "/home/szhao/tmp/Gau-49678.inp" -scrdir="/home/szhao/tmp/"
 Default is to use a total of  16 processors:
                               16 via shared-memory
                                1 via Linda
 Entering Link 1 = /home/szhao/Apps/g16/l1.exe PID=     49680.
  
 Copyright (c) 1988,1990,1992,1993,1995,1998,2003,2009,2016,
            Gaussian, Inc.  All Rights Reserved.
  
 This is part of the Gaussian(R) 16 program.  It is based on
 the Gaussian(R) 09 system (copyright 2009, Gaussian, Inc.),
 the Gaussian(R) 03 system (copyright 2003, Gaussian, Inc.),
 the Gaussian(R) 98 system (copyright 1998, Gaussian, Inc.),
 the Gaussian(R) 94 system (copyright 1995, Gaussian, Inc.),
 the Gaussian 92(TM) system (copyright 1992, Gaussian, Inc.),
 the Gaussian 90(TM) system (copyright 1990, Gaussian, Inc.),
 the Gaussian 88(TM) system (copyright 1988, Gaussian, Inc.),
 the Gaussian 86(TM) system (copyright 1986, Carnegie Mellon
 University), and the Gaussian 82(TM) system (copyright 1983,
 Carnegie Mellon University). Gaussian is a federally registered
 trademark of Gaussian, Inc.
  
 This software contains proprietary and confidential information,
 including trade secrets, belonging to Gaussian, Inc.
  
 This software is provided under written license and may be
 used, copied, transmitted, or stored only in accord with that
 written license.
  
 The following legend is applicable only to US Government
 contracts under FAR:
  
                    RESTRICTED RIGHTS LEGEND
  
 Use, reproduction and disclosure by the US Government is
 subject to restrictions as set forth in subparagraphs (a)
 and (c) of the Commercial Computer Software - Restricted
 Rights clause in FAR 52.227-19.
  
 Gaussian, Inc.
 340 Quinnipiac St., Bldg. 40, Wallingford CT 06492
  
  
 ---------------------------------------------------------------
 Warning -- This program may not be used in any manner that
 competes with the business of Gaussian, Inc. or will provide
 assistance to any competitor of Gaussian, Inc.  The licensee
 of this program is prohibited from giving any competitor of
 Gaussian, Inc. access to this program.  By using this program,
 the user acknowledges that Gaussian, Inc. is engaged in the
 business of creating and licensing software in the field of
 computational chemistry and represents and warrants to the
 licensee that it is not a competitor of Gaussian, Inc. and that
 it will not use this program in any manner prohibited above.
 ---------------------------------------------------------------
  

 Cite this work as:
 Gaussian 16, Revision A.03,
 M. J. Frisch, G. W. Trucks, H. B. Schlegel, G. E. Scuseria, 
 M. A. Robb, J. R. Cheeseman, G. Scalmani, V. Barone, 
 G. A. Petersson, H. Nakatsuji, X. Li, M. Caricato, A. V. Marenich, 
 J. Bloino, B. G. Janesko, R. Gomperts, B. Mennucci, H. P. Hratchian, 
 J. V. Ortiz, A. F. Izmaylov, J. L. Sonnenberg, D. Williams-Young, 
 F. Ding, F. Lipparini, F. Egidi, J. Goings, B. Peng, A. Petrone, 
 T. Henderson, D. Ranasinghe, V. G. Zakrzewski, J. Gao, N. Rega, 
 G. Zheng, W. Liang, M. Hada, M. Ehara, K. Toyota, R. Fukuda, 
 J. Hasegawa, M. Ishida, T. Nakajima, Y. Honda, O. Kitao, H. Nakai, 
 T. Vreven, K. Throssell, J. A. Montgomery, Jr., J. E. Peralta, 
 F. Ogliaro, M. J. Bearpark, J. J. Heyd, E. N. Brothers, K. N. Kudin, 
 V. N. Staroverov, T. A. Keith, R. Kobayashi, J. Normand, 
 K. Raghavachari, A. P. Rendell, J. C. Burant, S. S. Iyengar, 
 J. Tomasi, M. Cossi, J. M. Millam, M. Klene, C. Adamo, R. Cammi, 
 J. W. Ochterski, R. L. Martin, K. Morokuma, O. Farkas, 
 J. B. Foresman, and D. J. Fox, Gaussian, Inc., Wallingford CT, 2016.
 
 ******************************************
 Gaussian 16:  ES64L-G16RevA.03 25-Dec-2016
                19-Nov-2024 
 ******************************************
 %chk=opt.chk
 %mem=8GB
 %nprocshared=24
 Will use up to   24 processors via shared memory.
 ---------------------------------------
 #p UM062X/6-311+G** force int=superfine
 ---------------------------------------
 1/10=7,30=1,38=1/1,3;
 2/12=2,17=6,18=5,40=1/2;
 3/5=4,6=6,7=111,11=2,25=1,30=1,71=1,74=-55,75=-7,116=2/1,2,3;
 4//1;
 5/5=2,38=5/2;
 6/7=2,8=2,9=2,10=2,28=1/1;
 7/29=1/1,2,3,16;
 1/10=7,30=1/3;
 99//99;
 Leave Link    1 at Tue Nov 19 12:39:41 2024, MaxMem=  1073741824 cpu:               1.9 elap:               0.1
 (Enter /home/szhao/Apps/g16/l101.exe)
 -------------------
 Title Card Required
 -------------------
 Symbolic Z-matrix:
 Charge =  0 Multiplicity = 1
 C                    -0.64138   0.        0. 
 C                     0.64145   0.        0. 
 H                     1.09447  -0.8663    0.5013 
 H                    -1.09438  -0.86731  -0.4996 
 H                     1.09445   0.86731   0.4996 
 H                     1.09449  -0.00095  -1.0009 
 H                    -1.09441   0.8663   -0.50131 
 H                    -1.09442   0.00095   1.0009 
 
 ITRead=  0  0  0  0  0  0  0  0
 MicOpt= -1 -1 -1 -1 -1 -1 -1 -1
 NAtoms=      8 NQM=        8 NQMF=       0 NMMI=      0 NMMIF=      0
                NMic=       0 NMicF=      0.
                    Isotopes and Nuclear Properties:
 (Nuclear quadrupole moments (NQMom) in fm**2, nuclear magnetic moments (NMagM)
  in nuclear magnetons)

  Atom         1           2           3           4           5           6           7           8
 IAtWgt=          12          12           1           1           1           1           1           1
 AtmWgt=  12.0000000  12.0000000   1.0078250   1.0078250   1.0078250   1.0078250   1.0078250   1.0078250
 NucSpn=           0           0           1           1           1           1           1           1
 AtZEff=  -0.0000000  -0.0000000  -0.0000000  -0.0000000  -0.0000000  -0.0000000  -0.0000000  -0.0000000
 NQMom=    0.0000000   0.0000000   0.0000000   0.0000000   0.0000000   0.0000000   0.0000000   0.0000000
 NMagM=    0.0000000   0.0000000   2.7928460   2.7928460   2.7928460   2.7928460   2.7928460   2.7928460
 AtZNuc=   6.0000000   6.0000000   1.0000000   1.0000000   1.0000000   1.0000000   1.0000000   1.0000000
 Leave Link  101 at Tue Nov 19 12:39:42 2024, MaxMem=  1073741824 cpu:               3.6 elap:               0.2
 (Enter /home/szhao/Apps/g16/l103.exe)

 GradGradGradGradGradGradGradGradGradGradGradGradGradGradGradGradGradGrad
 Berny optimization.
 Initialization pass.
 Trust Radius=3.00D-01 FncErr=1.00D-07 GrdErr=1.00D-07 EigMax=2.50D+02 EigMin=1.00D-04
 Number of steps in this run=      2 maximum allowed number of steps=      2.
 GradGradGradGradGradGradGradGradGradGradGradGradGradGradGradGradGradGrad

 Leave Link  103 at Tue Nov 19 12:39:42 2024, MaxMem=  1073741824 cpu:               0.7 elap:               0.1
 (Enter /home/szhao/Apps/g16/l202.exe)
                          Input orientation:                          
 ---------------------------------------------------------------------
 Center     Atomic      Atomic             Coordinates (Angstroms)
 Number     Number       Type             X           Y           Z
 ---------------------------------------------------------------------
      1          6           0       -0.641379    0.000000    0.000000
      2          6           0        0.641445    0.000000    0.000000
      3          1           0        1.094472   -0.866298    0.501304
      4          1           0       -1.094381   -0.867309   -0.499601
      5          1           0        1.094448    0.867310    0.499596
      6          1           0        1.094488   -0.000948   -1.000898
      7          1           0       -1.094406    0.866296   -0.501309
      8          1           0       -1.094424    0.000946    1.000895
 ---------------------------------------------------------------------
                    Distance matrix (angstroms):
                    1          2          3          4          5
     1  C    0.000000
     2  C    1.282824   0.000000
     3  H    2.003736   1.098641   0.000000
     4  H    1.098652   2.003726   2.406842   0.000000
     5  H    2.003726   1.098651   1.733609   2.966188   0.000000
     6  H    2.003754   1.098656   1.733621   2.406871   1.733596
     7  H    1.098641   2.003736   2.966193   1.733606   2.406843
     8  H    1.098654   2.003755   2.406859   1.733596   2.406875
                    6          7          8
     6  H    0.000000
     7  H    2.406857   0.000000
     8  H    2.966229   1.733623   0.000000
 Stoichiometry    C2H6
 Framework group  C1[X(C2H6)]
 Deg. of freedom    18
 Full point group                 C1      NOp   1
 Largest Abelian subgroup         C1      NOp   1
 Largest concise Abelian subgroup C1      NOp   1
                         Standard orientation:                         
 ---------------------------------------------------------------------
 Center     Atomic      Atomic             Coordinates (Angstroms)
 Number     Number       Type             X           Y           Z
 ---------------------------------------------------------------------
      1          6           0        0.641412    0.000006   -0.000004
      2          6           0       -0.641412   -0.000007    0.000003
      3          1           0       -1.094427   -0.957774    0.290643
      4          1           0        1.094421   -0.227170    0.974783
      5          1           0       -1.094422    0.227173   -0.974782
      6          1           0       -1.094459    0.730607    0.684106
      7          1           0        1.094427    0.957775   -0.290639
      8          1           0        1.094461   -0.730607   -0.684104
 ---------------------------------------------------------------------
 Rotational constants (GHZ):          83.4257448          25.0862332          25.0861027
 Leave Link  202 at Tue Nov 19 12:39:42 2024, MaxMem=  1073741824 cpu:               2.6 elap:               0.2
 (Enter /home/szhao/Apps/g16/l301.exe)
 Standard basis: 6-311+G(d,p) (5D, 7F)
 Ernie: Thresh=  0.10000D-02 Tol=  0.10000D-05 Strict=F.
 There are    82 symmetry adapted cartesian basis functions of A   symmetry.
 There are    80 symmetry adapted basis functions of A   symmetry.
    80 basis functions,   120 primitive gaussians,    82 cartesian basis functions
     9 alpha electrons        9 beta electrons
       nuclear repulsion energy        45.3834361785 Hartrees.
 IExCor= 4336 DFT=T Ex+Corr=M062X ExCW=0 ScaHFX=  0.540000
 ScaDFX=  1.000000  1.000000  1.000000  1.000000 ScalE2=  1.000000  1.000000
 IRadAn=      7 IRanWt=     -1 IRanGd=            0 ICorTp=0 IEmpDi=  4
 NAtoms=    8 NActive=    8 NUniq=    8 SFac= 1.00D+00 NAtFMM=   60 NAOKFM=F Big=F
 Integral buffers will be    131072 words long.
 Raffenetti 2 integral format.
 Two-electron integral symmetry is turned on.
 Leave Link  301 at Tue Nov 19 12:39:42 2024, MaxMem=  1073741824 cpu:               1.5 elap:               0.1
 (Enter /home/szhao/Apps/g16/l302.exe)
 NPDir=0 NMtPBC=     1 NCelOv=     1 NCel=       1 NClECP=     1 NCelD=      1
         NCelK=      1 NCelE2=     1 NClLst=     1 CellRange=     0.0.
 One-electron integrals computed using PRISM.
 One-electron integral symmetry used in STVInt
 NBasis=    80 RedAO= T EigKep=  7.32D-05  NBF=    80
 NBsUse=    80 1.00D-06 EigRej= -1.00D+00 NBFU=    80
 Precomputing XC quadrature grid using
 IXCGrd= 4 IRadAn=           7 IRanWt=          -1 IRanGd=           0 AccXCQ= 0.00D+00.
 Generated NRdTot=       0 NPtTot=           0 NUsed=           0 NTot=          32
 NSgBfM=    82    82    82    82    82 MxSgAt=     8 MxSgA2=     8.
 Leave Link  302 at Tue Nov 19 12:39:43 2024, MaxMem=  1073741824 cpu:               9.9 elap:               0.5
 (Enter /home/szhao/Apps/g16/l303.exe)
 DipDrv:  MaxL=1.
 Leave Link  303 at Tue Nov 19 12:39:44 2024, MaxMem=  1073741824 cpu:               2.6 elap:               0.2
 (Enter /home/szhao/Apps/g16/l401.exe)
 ExpMin= 4.38D-02 ExpMax= 4.56D+03 ExpMxC= 6.82D+02 IAcc=3 IRadAn=         7 AccDes= 0.00D+00
 Harris functional with IExCor= 1009 and IRadAn=       7 diagonalized for initial guess.
 HarFok:  IExCor= 1009 AccDes= 0.00D+00 IRadAn=         7 IDoV= 1 UseB2=F ITyADJ=14
 ICtDFT=  3500011 ScaDFX=  1.000000  1.000000  1.000000  1.000000
 FoFCou: FMM=F IPFlag=           0 FMFlag=      100000 FMFlg1=           0
         NFxFlg=           0 DoJE=T BraDBF=F KetDBF=T FulRan=T
         wScrn=  0.000000 ICntrl=       500 IOpCl=  0 I1Cent=   200000004 NGrid=           0
         NMat0=    1 NMatS0=      1 NMatT0=    0 NMatD0=    1 NMtDS0=    0 NMtDT0=    0
 Petite list used in FoFCou.
 Harris En= -79.8165917951094    
 JPrj=0 DoOrth=F DoCkMO=F.
 Initial guess <Sx>= 0.0000 <Sy>= 0.0000 <Sz>= 0.0000 <S**2>= 0.0000 S= 0.0000
 Leave Link  401 at Tue Nov 19 12:39:45 2024, MaxMem=  1073741824 cpu:              18.5 elap:               1.1
 (Enter /home/szhao/Apps/g16/l502.exe)
 Keep R1 and R2 ints in memory in canonical form, NReq=32327004.
 FoFCou: FMM=F IPFlag=           0 FMFlag=           0 FMFlg1=           0
         NFxFlg=           0 DoJE=F BraDBF=F KetDBF=F FulRan=T
         wScrn=  0.000000 ICntrl=       600 IOpCl=  0 I1Cent=           0 NGrid=           0
         NMat0=    1 NMatS0=   3240 NMatT0=    0 NMatD0=    1 NMtDS0=    0 NMtDT0=    0
 Symmetry not used in FoFCou.
 Two-electron integral symmetry not used.
 UHF open shell SCF:
 Using DIIS extrapolation, IDIIS=  1040.
 NGot=  1073741824 LenX=  1063224540 LenY=  1063217375
 Requested convergence on RMS density matrix=1.00D-08 within 128 cycles.
 Requested convergence on MAX density matrix=1.00D-06.
 Requested convergence on             energy=1.00D-06.
 No special actions if energy rises.

 Cycle   1  Pass 1  IDiag  1:
 E= -79.5550881235774    
 DIIS: error= 7.14D-02 at cycle   1 NSaved=   1.
 NSaved= 1 IEnMin= 1 EnMin= -79.5550881235774     IErMin= 1 ErrMin= 7.14D-02
 ErrMax= 7.14D-02  0.00D+00 EMaxC= 1.00D-01 BMatC= 8.35D-01 BMatP= 8.35D-01
 IDIUse=3 WtCom= 2.86D-01 WtEn= 7.14D-01
 Coeff-Com:  0.100D+01
 Coeff-En:   0.100D+01
 Coeff:      0.100D+01
 Gap=     0.310 Goal=   None    Shift=    0.000
 Gap=     0.310 Goal=   None    Shift=    0.000
 GapD=    0.310 DampG=1.000 DampE=0.500 DampFc=0.5000 IDamp=-1.
 Damping current iteration by 5.00D-01
 RMSDP=6.79D-03 MaxDP=1.23D-01              OVMax= 2.03D-01

 Cycle   2  Pass 1  IDiag  1:
 E= -79.6522003052605     Delta-E=       -0.097112181683 Rises=F Damp=T
 DIIS: error= 1.20D-02 at cycle   2 NSaved=   2.
 NSaved= 2 IEnMin= 2 EnMin= -79.6522003052605     IErMin= 2 ErrMin= 1.20D-02
 ErrMax= 1.20D-02  0.00D+00 EMaxC= 1.00D-01 BMatC= 2.03D-02 BMatP= 8.35D-01
 IDIUse=3 WtCom= 8.80D-01 WtEn= 1.20D-01
 Coeff-Com: -0.294D-01 0.103D+01
 Coeff-En:   0.000D+00 0.100D+01
 Coeff:     -0.259D-01 0.103D+01
 Gap=     0.389 Goal=   None    Shift=    0.000
 Gap=     0.389 Goal=   None    Shift=    0.000
 RMSDP=1.77D-03 MaxDP=2.75D-02 DE=-9.71D-02 OVMax= 1.12D-01

 Cycle   3  Pass 1  IDiag  1:
 E= -79.7506711296916     Delta-E=       -0.098470824431 Rises=F Damp=F
 DIIS: error= 3.20D-03 at cycle   3 NSaved=   3.
 NSaved= 3 IEnMin= 3 EnMin= -79.7506711296916     IErMin= 3 ErrMin= 3.20D-03
 ErrMax= 3.20D-03  0.00D+00 EMaxC= 1.00D-01 BMatC= 1.15D-03 BMatP= 2.03D-02
 IDIUse=3 WtCom= 9.68D-01 WtEn= 3.20D-02
 Coeff-Com: -0.275D-01 0.113D+00 0.915D+00
 Coeff-En:   0.000D+00 0.000D+00 0.100D+01
 Coeff:     -0.266D-01 0.109D+00 0.917D+00
 Gap=     0.393 Goal=   None    Shift=    0.000
 Gap=     0.393 Goal=   None    Shift=    0.000
 RMSDP=1.34D-04 MaxDP=1.59D-03 DE=-9.85D-02 OVMax= 5.62D-03

 Cycle   4  Pass 1  IDiag  1:
 E= -79.7509459932342     Delta-E=       -0.000274863543 Rises=F Damp=F
 DIIS: error= 7.12D-04 at cycle   4 NSaved=   4.
 NSaved= 4 IEnMin= 4 EnMin= -79.7509459932342     IErMin= 4 ErrMin= 7.12D-04
 ErrMax= 7.12D-04  0.00D+00 EMaxC= 1.00D-01 BMatC= 2.15D-05 BMatP= 1.15D-03
 IDIUse=3 WtCom= 9.93D-01 WtEn= 7.12D-03
 Coeff-Com: -0.928D-03-0.341D-02 0.105D+00 0.899D+00
 Coeff-En:   0.000D+00 0.000D+00 0.000D+00 0.100D+01
 Coeff:     -0.921D-03-0.339D-02 0.105D+00 0.900D+00
 Gap=     0.393 Goal=   None    Shift=    0.000
 Gap=     0.393 Goal=   None    Shift=    0.000
 RMSDP=3.30D-05 MaxDP=6.83D-04 DE=-2.75D-04 OVMax= 1.23D-03

 Cycle   5  Pass 1  IDiag  1:
 E= -79.7509520323770     Delta-E=       -0.000006039143 Rises=F Damp=F
 DIIS: error= 7.66D-05 at cycle   5 NSaved=   5.
 NSaved= 5 IEnMin= 5 EnMin= -79.7509520323770     IErMin= 5 ErrMin= 7.66D-05
 ErrMax= 7.66D-05  0.00D+00 EMaxC= 1.00D-01 BMatC= 6.03D-07 BMatP= 2.15D-05
 IDIUse=1 WtCom= 1.00D+00 WtEn= 0.00D+00
 Coeff-Com:  0.126D-02-0.321D-02-0.314D-01-0.451D-01 0.108D+01
 Coeff:      0.126D-02-0.321D-02-0.314D-01-0.451D-01 0.108D+01
 Gap=     0.393 Goal=   None    Shift=    0.000
 Gap=     0.393 Goal=   None    Shift=    0.000
 RMSDP=8.59D-06 MaxDP=1.17D-04 DE=-6.04D-06 OVMax= 2.82D-04

 Cycle   6  Pass 1  IDiag  1:
 E= -79.7509522590618     Delta-E=       -0.000000226685 Rises=F Damp=F
 DIIS: error= 8.27D-06 at cycle   6 NSaved=   6.
 NSaved= 6 IEnMin= 6 EnMin= -79.7509522590618     IErMin= 6 ErrMin= 8.27D-06
 ErrMax= 8.27D-06  0.00D+00 EMaxC= 1.00D-01 BMatC= 6.06D-09 BMatP= 6.03D-07
 IDIUse=1 WtCom= 1.00D+00 WtEn= 0.00D+00
 Coeff-Com: -0.146D-03 0.223D-03 0.116D-02-0.489D-02-0.669D-01 0.107D+01
 Coeff:     -0.146D-03 0.223D-03 0.116D-02-0.489D-02-0.669D-01 0.107D+01
 Gap=     0.393 Goal=   None    Shift=    0.000
 Gap=     0.393 Goal=   None    Shift=    0.000
 RMSDP=9.52D-07 MaxDP=1.49D-05 DE=-2.27D-07 OVMax= 2.07D-05

 Cycle   7  Pass 1  IDiag  1:
 E= -79.7509522615553     Delta-E=       -0.000000002493 Rises=F Damp=F
 DIIS: error= 6.77D-07 at cycle   7 NSaved=   7.
 NSaved= 7 IEnMin= 7 EnMin= -79.7509522615553     IErMin= 7 ErrMin= 6.77D-07
 ErrMax= 6.77D-07  0.00D+00 EMaxC= 1.00D-01 BMatC= 3.88D-11 BMatP= 6.06D-09
 IDIUse=1 WtCom= 1.00D+00 WtEn= 0.00D+00
 Coeff-Com:  0.150D-04-0.950D-05-0.716D-04-0.295D-03 0.340D-02-0.120D+00
 Coeff-Com:  0.112D+01
 Coeff:      0.150D-04-0.950D-05-0.716D-04-0.295D-03 0.340D-02-0.120D+00
 Coeff:      0.112D+01
 Gap=     0.393 Goal=   None    Shift=    0.000
 Gap=     0.393 Goal=   None    Shift=    0.000
 RMSDP=1.14D-07 MaxDP=1.34D-06 DE=-2.49D-09 OVMax= 2.53D-06

 Cycle   8  Pass 1  IDiag  1:
 E= -79.7509522615746     Delta-E=       -0.000000000019 Rises=F Damp=F
 DIIS: error= 3.92D-08 at cycle   8 NSaved=   8.
 NSaved= 8 IEnMin= 8 EnMin= -79.7509522615746     IErMin= 8 ErrMin= 3.92D-08
 ErrMax= 3.92D-08  0.00D+00 EMaxC= 1.00D-01 BMatC= 2.73D-13 BMatP= 3.88D-11
 IDIUse=1 WtCom= 1.00D+00 WtEn= 0.00D+00
 Coeff-Com:  0.101D-05-0.222D-05-0.193D-05 0.733D-04 0.366D-03-0.395D-02
 Coeff-Com: -0.312D-01 0.103D+01
 Coeff:      0.101D-05-0.222D-05-0.193D-05 0.733D-04 0.366D-03-0.395D-02
 Coeff:     -0.312D-01 0.103D+01
 Gap=     0.393 Goal=   None    Shift=    0.000
 Gap=     0.393 Goal=   None    Shift=    0.000
 RMSDP=5.67D-09 MaxDP=1.06D-07 DE=-1.93D-11 OVMax= 1.18D-07

 SCF Done:  E(UM062X) =  -79.7509522616     A.U. after    8 cycles
            NFock=  8  Conv=0.57D-08     -V/T= 1.9977
 <Sx>= 0.0000 <Sy>= 0.0000 <Sz>= 0.0000 <S**2>=-0.0000 S=-0.0000
 <L.S>=  0.00000000000    
 KE= 7.993708959306D+01 PE=-2.752336900964D+02 EE= 7.016221206330D+01
 Annihilation of the first spin contaminant:
 S**2 before annihilation    -0.0000,   after     0.0000
 Leave Link  502 at Tue Nov 19 12:39:52 2024, MaxMem=  1073741824 cpu:             127.0 elap:               6.7
 (Enter /home/szhao/Apps/g16/l601.exe)
 Copying SCF densities to generalized density rwf, IOpCl= 1 IROHF=0.

 **********************************************************************

            Population analysis using the SCF density.

 **********************************************************************

 Orbital symmetries:
 Alpha Orbitals:
       Occupied  (A) (A) (A) (A) (A) (A) (A) (A) (A)
       Virtual   (A) (A) (A) (A) (A) (A) (A) (A) (A) (A) (A) (A)
                 (A) (A) (A) (A) (A) (A) (A) (A) (A) (A) (A) (A)
                 (A) (A) (A) (A) (A) (A) (A) (A) (A) (A) (A) (A)
                 (A) (A) (A) (A) (A) (A) (A) (A) (A) (A) (A) (A)
                 (A) (A) (A) (A) (A) (A) (A) (A) (A) (A) (A) (A)
                 (A) (A) (A) (A) (A) (A) (A) (A) (A) (A) (A)
 Beta  Orbitals:
       Occupied  (A) (A) (A) (A) (A) (A) (A) (A) (A)
       Virtual   (A) (A) (A) (A) (A) (A) (A) (A) (A) (A) (A) (A)
                 (A) (A) (A) (A) (A) (A) (A) (A) (A) (A) (A) (A)
                 (A) (A) (A) (A) (A) (A) (A) (A) (A) (A) (A) (A)
                 (A) (A) (A) (A) (A) (A) (A) (A) (A) (A) (A) (A)
                 (A) (A) (A) (A) (A) (A) (A) (A) (A) (A) (A) (A)
                 (A) (A) (A) (A) (A) (A) (A) (A) (A) (A) (A)
 The electronic state is 1-A.
 Alpha  occ. eigenvalues --  -10.50597 -10.50454  -0.90606  -0.68608  -0.52679
 Alpha  occ. eigenvalues --   -0.52678  -0.48319  -0.37194  -0.37193
 Alpha virt. eigenvalues --    0.02117   0.04198   0.05114   0.05114   0.08719
 Alpha virt. eigenvalues --    0.08908   0.08908   0.14181   0.19406   0.19407
 Alpha virt. eigenvalues --    0.19915   0.19915   0.24076   0.27943   0.36330
 Alpha virt. eigenvalues --    0.44375   0.44375   0.45796   0.47605   0.47605
 Alpha virt. eigenvalues --    0.64020   0.64021   0.67520   0.67522   0.70786
 Alpha virt. eigenvalues --    0.76152   0.82001   0.88927   0.93907   1.04471
 Alpha virt. eigenvalues --    1.04472   1.32725   1.32727   1.53091   1.54493
 Alpha virt. eigenvalues --    1.57494   1.57494   1.60187   1.60188   1.69154
 Alpha virt. eigenvalues --    1.80039   1.80040   1.82771   1.87873   1.87875
 Alpha virt. eigenvalues --    2.19003   2.22638   2.22640   2.22923   2.33457
 Alpha virt. eigenvalues --    2.33459   2.35809   2.51833   2.51836   2.54678
 Alpha virt. eigenvalues --    2.61305   2.61305   2.70119   2.70120   2.84175
 Alpha virt. eigenvalues --    2.85965   2.85971   2.93431   3.74206   3.84965
 Alpha virt. eigenvalues --    3.84970   3.92610   3.92615   4.26694  23.99678
 Alpha virt. eigenvalues --   24.58253
  Beta  occ. eigenvalues --  -10.50597 -10.50454  -0.90606  -0.68608  -0.52679
  Beta  occ. eigenvalues --   -0.52678  -0.48319  -0.37194  -0.37193
  Beta virt. eigenvalues --    0.02117   0.04198   0.05114   0.05114   0.08719
  Beta virt. eigenvalues --    0.08908   0.08908   0.14181   0.19406   0.19407
  Beta virt. eigenvalues --    0.19915   0.19915   0.24076   0.27943   0.36330
  Beta virt. eigenvalues --    0.44375   0.44375   0.45796   0.47605   0.47605
  Beta virt. eigenvalues --    0.64020   0.64021   0.67520   0.67522   0.70786
  Beta virt. eigenvalues --    0.76152   0.82001   0.88927   0.93907   1.04471
  Beta virt. eigenvalues --    1.04472   1.32725   1.32727   1.53091   1.54493
  Beta virt. eigenvalues --    1.57494   1.57494   1.60187   1.60188   1.69154
  Beta virt. eigenvalues --    1.80039   1.80040   1.82771   1.87873   1.87875
  Beta virt. eigenvalues --    2.19003   2.22638   2.22640   2.22923   2.33457
  Beta virt. eigenvalues --    2.33459   2.35809   2.51833   2.51836   2.54678
  Beta virt. eigenvalues --    2.61305   2.61305   2.70119   2.70120   2.84175
  Beta virt. eigenvalues --    2.85965   2.85971   2.93431   3.74206   3.84965
  Beta virt. eigenvalues --    3.84970   3.92610   3.92615   4.26694  23.99678
  Beta virt. eigenvalues --   24.58253
          Condensed to atoms (all electrons):
               1          2          3          4          5          6
     1  C    5.188319   0.138578  -0.060002   0.432333  -0.060012  -0.060003
     2  C    0.138578   5.188319   0.432325  -0.060013   0.432332   0.432328
     3  H   -0.060002   0.432325   0.570475  -0.013952  -0.038541  -0.038539
     4  H    0.432333  -0.060013  -0.013952   0.570489   0.014229  -0.013953
     5  H   -0.060012   0.432332  -0.038541   0.014229   0.570489  -0.038545
     6  H   -0.060003   0.432328  -0.038539  -0.013953  -0.038545   0.570481
     7  H    0.432326  -0.060002   0.014228  -0.038542  -0.013952  -0.013951
     8  H    0.432326  -0.060001  -0.013951  -0.038545  -0.013953   0.014227
               7          8
     1  C    0.432326   0.432326
     2  C   -0.060002  -0.060001
     3  H    0.014228  -0.013951
     4  H   -0.038542  -0.038545
     5  H   -0.013952  -0.013953
     6  H   -0.013951   0.014227
     7  H    0.570475  -0.038539
     8  H   -0.038539   0.570480
          Atomic-Atomic Spin Densities.
               1          2          3          4          5          6
     1  C    0.000000  -0.000000  -0.000000   0.000000   0.000000   0.000000
     2  C   -0.000000   0.000000   0.000000  -0.000000  -0.000000  -0.000000
     3  H   -0.000000   0.000000  -0.000000   0.000000  -0.000000  -0.000000
     4  H    0.000000  -0.000000   0.000000  -0.000000  -0.000000  -0.000000
     5  H    0.000000  -0.000000  -0.000000  -0.000000   0.000000   0.000000
     6  H    0.000000  -0.000000  -0.000000  -0.000000   0.000000   0.000000
     7  H   -0.000000   0.000000   0.000000   0.000000  -0.000000  -0.000000
     8  H    0.000000  -0.000000   0.000000  -0.000000   0.000000   0.000000
               7          8
     1  C   -0.000000   0.000000
     2  C    0.000000  -0.000000
     3  H    0.000000   0.000000
     4  H    0.000000  -0.000000
     5  H   -0.000000   0.000000
     6  H   -0.000000   0.000000
     7  H    0.000000   0.000000
     8  H    0.000000  -0.000000
 Mulliken charges and spin densities:
               1          2
     1  C   -0.443865   0.000000
     2  C   -0.443865  -0.000000
     3  H    0.147957   0.000000
     4  H    0.147954  -0.000000
     5  H    0.147954   0.000000
     6  H    0.147955   0.000000
     7  H    0.147957  -0.000000
     8  H    0.147955  -0.000000
 Sum of Mulliken charges =  -0.00000   0.00000
 Mulliken charges and spin densities with hydrogens summed into heavy atoms:
               1          2
     1  C    0.000000   0.000000
     2  C   -0.000000  -0.000000
 Electronic spatial extent (au):  <R**2>=             98.6232
 Charge=             -0.0000 electrons
 Dipole moment (field-independent basis, Debye):
    X=              0.0000    Y=              0.0000    Z=              0.0000  Tot=              0.0000
 Quadrupole moment (field-independent basis, Debye-Ang):
   XX=            -15.6268   YY=            -14.9606   ZZ=            -14.9608
   XY=             -0.0000   XZ=             -0.0001   YZ=             -0.0000
 Traceless Quadrupole moment (field-independent basis, Debye-Ang):
   XX=             -0.4441   YY=              0.2221   ZZ=              0.2219
   XY=             -0.0000   XZ=             -0.0001   YZ=             -0.0000
 Octapole moment (field-independent basis, Debye-Ang**2):
  XXX=              0.0000  YYY=             -0.0000  ZZZ=             -0.0000  XYY=              0.0000
  XXY=             -0.0000  XXZ=             -0.0000  XZZ=             -0.0000  YZZ=              0.0000
  YYZ=             -0.0000  XYZ=              0.0000
 Hexadecapole moment (field-independent basis, Debye-Ang**3):
 XXXX=            -80.2298 YYYY=            -30.2201 ZZZZ=            -30.2203 XXXY=             -0.0000
 XXXZ=             -0.0003 YYYX=              0.7533 YYYZ=             -0.0000 ZZZX=              0.9184
 ZZZY=             -0.0001 XXYY=            -17.7453 XXZZ=            -17.7456 YYZZ=            -10.0734
 XXYZ=              0.0000 YYXZ=             -0.9185 ZZXY=             -0.7532
 N-N= 4.538343617850D+01 E-N=-2.752336915763D+02  KE= 7.993708959306D+01
                          Isotropic Fermi Contact Couplings
        Atom                 a.u.       MegaHertz       Gauss      10(-4) cm-1
     1  C(13)              0.00000       0.00000       0.00000       0.00000
     2  C(13)              0.00000       0.00000       0.00000       0.00000
     3  H(1)               0.00000       0.00000       0.00000       0.00000
     4  H(1)               0.00000       0.00000       0.00000       0.00000
     5  H(1)              -0.00000      -0.00000      -0.00000      -0.00000
     6  H(1)              -0.00000      -0.00000      -0.00000      -0.00000
     7  H(1)               0.00000       0.00000       0.00000       0.00000
     8  H(1)              -0.00000      -0.00000      -0.00000      -0.00000
 --------------------------------------------------------
       Center         ----  Spin Dipole Couplings  ----
                      3XX-RR        3YY-RR        3ZZ-RR
 --------------------------------------------------------
     1   Atom       -0.000000      0.000000      0.000000
     2   Atom       -0.000000      0.000000      0.000000
     3   Atom       -0.000000     -0.000000      0.000000
     4   Atom       -0.000000      0.000000     -0.000000
     5   Atom        0.000000     -0.000000     -0.000000
     6   Atom        0.000000     -0.000000     -0.000000
     7   Atom        0.000000     -0.000000      0.000000
     8   Atom       -0.000000      0.000000      0.000000
 --------------------------------------------------------
                        XY            XZ            YZ
 --------------------------------------------------------
     1   Atom       -0.000000      0.000000      0.000000
     2   Atom        0.000000     -0.000000      0.000000
     3   Atom       -0.000000      0.000000      0.000000
     4   Atom       -0.000000     -0.000000     -0.000000
     5   Atom        0.000000      0.000000      0.000000
     6   Atom        0.000000     -0.000000     -0.000000
     7   Atom       -0.000000     -0.000000     -0.000000
     8   Atom        0.000000      0.000000     -0.000000
 --------------------------------------------------------


 ---------------------------------------------------------------------------------
              Anisotropic Spin Dipole Couplings in Principal Axis System
 ---------------------------------------------------------------------------------

       Atom             a.u.   MegaHertz   Gauss  10(-4) cm-1        Axes

              Baa    -0.0000    -0.000    -0.000    -0.000  0.7433  0.6633 -0.0865
     1 C(13)  Bbb     0.0000     0.000     0.000     0.000  0.0603  0.0624  0.9962
              Bcc     0.0000     0.000     0.000     0.000 -0.6662  0.7457 -0.0064
 
              Baa    -0.0000    -0.000    -0.000    -0.000  0.7799 -0.5846  0.2235
     2 C(13)  Bbb     0.0000     0.000     0.000     0.000 -0.1400  0.1852  0.9727
              Bcc     0.0000     0.000     0.000     0.000  0.6100  0.7899 -0.0626
 
              Baa    -0.0000    -0.000    -0.000    -0.000  0.7320  0.5984 -0.3258
     3 H(1)   Bbb     0.0000     0.000     0.000     0.000  0.6809 -0.6257  0.3805
              Bcc     0.0000     0.000     0.000     0.000 -0.0238  0.5004  0.8655
 
              Baa    -0.0000    -0.000    -0.000    -0.000  0.6303  0.2697  0.7280
     4 H(1)   Bbb     0.0000     0.000     0.000     0.000 -0.5951 -0.4344  0.6761
              Bcc     0.0000     0.000     0.000     0.000 -0.4986  0.8594  0.1132
 
              Baa    -0.0000    -0.000    -0.000    -0.000 -0.3506  0.7309 -0.5855
     5 H(1)   Bbb     0.0000     0.000     0.000     0.000 -0.6506  0.2596  0.7137
              Bcc     0.0000     0.000     0.000     0.000  0.6737  0.6311  0.3845
 
              Baa    -0.0000    -0.000    -0.000    -0.000 -0.1242  0.9477  0.2941
     6 H(1)   Bbb    -0.0000    -0.000    -0.000    -0.000  0.4658 -0.2060  0.8606
              Bcc     0.0000     0.000     0.000     0.000  0.8761  0.2439 -0.4159
 
              Baa    -0.0000    -0.000    -0.000    -0.000  0.2037  0.9529  0.2245
     7 H(1)   Bbb     0.0000     0.000     0.000     0.000  0.3789 -0.2882  0.8794
              Bcc     0.0000     0.000     0.000     0.000  0.9027 -0.0941 -0.4198
 
              Baa    -0.0000    -0.000    -0.000    -0.000  0.7664 -0.3368 -0.5470
     8 H(1)   Bbb     0.0000     0.000     0.000     0.000  0.4743  0.8709  0.1284
              Bcc     0.0000     0.000     0.000     0.000  0.4331 -0.3579  0.8272
 

 ---------------------------------------------------------------------------------

 No NMR shielding tensors so no spin-rotation constants.
 Leave Link  601 at Tue Nov 19 12:39:52 2024, MaxMem=  1073741824 cpu:               7.7 elap:               0.4
 (Enter /home/szhao/Apps/g16/l701.exe)
 ... and contract with generalized density number  0.
 Compute integral first derivatives.
 Leave Link  701 at Tue Nov 19 12:39:53 2024, MaxMem=  1073741824 cpu:               9.4 elap:               0.5
 (Enter /home/szhao/Apps/g16/l702.exe)
 L702 exits ... SP integral derivatives will be done elsewhere.
 Leave Link  702 at Tue Nov 19 12:39:53 2024, MaxMem=  1073741824 cpu:               2.3 elap:               0.2
 (Enter /home/szhao/Apps/g16/l703.exe)
 Integral derivatives from FoFJK, PRISM(SPDF).
 Compute integral first derivatives, UseDBF=F ICtDFT=           0.
 Calling FoFJK, ICntrl=      2127 FMM=F ISym2X=0 I1Cent= 0 IOpClX= 1 NMat=1 NMatS=1 NMatT=0.
 FoFJK:  IHMeth= 1 ICntrl=    2127 DoSepK=F KAlg= 0 I1Cent=           0 FoldK=F
 IRaf=         0 NMat=       1 IRICut=       1 DoRegI=T DoRafI=F ISym2E= 0 IDoP0=0 IntGTp=1.
 FoFCou: FMM=F IPFlag=           0 FMFlag=      100000 FMFlg1=         800
         NFxFlg=           0 DoJE=F BraDBF=F KetDBF=F FulRan=T
         wScrn=  0.000000 ICntrl=      2127 IOpCl=  1 I1Cent=           0 NGrid=           0
         NMat0=    1 NMatS0=      1 NMatT0=    0 NMatD0=    1 NMtDS0=    0 NMtDT0=    0
 Symmetry not used in FoFCou.
 Leave Link  703 at Tue Nov 19 12:39:55 2024, MaxMem=  1073741824 cpu:              28.7 elap:               1.6
 (Enter /home/szhao/Apps/g16/l716.exe)
 Dipole        = 9.60729847D-08 2.46295695D-07 6.19061958D-07
 ***** Axes restored to original set *****
 -------------------------------------------------------------------
 Center     Atomic                   Forces (Hartrees/Bohr)
 Number     Number              X              Y              Z
 -------------------------------------------------------------------
      1        6          -0.247927560   -0.000015709   -0.000001320
      2        6           0.247927459    0.000015339   -0.000000956
      3        1          -0.000075385   -0.000088793    0.000049202
      4        1           0.000075294   -0.000083115   -0.000051568
      5        1          -0.000074990    0.000083291    0.000052200
      6        1          -0.000082006   -0.000005693   -0.000095517
      7        1           0.000075607    0.000088819   -0.000048516
      8        1           0.000081581    0.000005862    0.000096475
 -------------------------------------------------------------------
 Cartesian Forces:  Max     0.247927560 RMS     0.071570535
 Z-matrix is all fixed cartesians, so copy forces.
 Force constants in Cartesian coordinates: 
                1             2             3             4             5 
      1  0.111330D+01
      2 -0.462103D-05  0.723680D+00
      3  0.000000D+00 -0.123325D-04  0.723671D+00
      4 -0.721982D+00  0.120287D-05  0.000000D+00  0.111330D+01
      5  0.126468D-05 -0.168521D+00  0.109675D-05 -0.448451D-05  0.723682D+00
      6  0.000000D+00  0.109674D-05 -0.168520D+00  0.000000D+00 -0.118358D-04
      7  0.000000D+00  0.252508D-01 -0.146119D-01 -0.130443D+00  0.922188D-01
      8  0.000000D+00  0.127822D-01 -0.730407D-03  0.814414D-01 -0.243601D+00
      9  0.000000D+00 -0.730299D-03  0.119425D-01 -0.471278D-01  0.803607D-01
     10 -0.130430D+00 -0.923161D-01 -0.531780D-01  0.000000D+00 -0.252796D-01
     11 -0.815275D-01 -0.243914D+00 -0.801758D-01  0.000000D+00  0.127839D-01
     12 -0.469634D-01 -0.801757D-01 -0.150912D+00  0.000000D+00  0.728788D-03
     13  0.000000D+00 -0.252797D-01 -0.145619D-01 -0.130431D+00 -0.923168D-01
     14  0.000000D+00  0.127840D-01  0.729062D-03 -0.815282D-01 -0.243916D+00
     15  0.000000D+00  0.728823D-03  0.119381D-01 -0.469634D-01 -0.801753D-01
     16  0.000000D+00  0.277199D-04  0.291732D-01 -0.130439D+00  0.102427D-03
     17  0.000000D+00  0.115196D-01  0.150471D-05  0.900363D-04 -0.104730D+00
     18  0.000000D+00  0.163630D-05  0.132049D-01  0.940906D-01 -0.174874D-03
     19 -0.130443D+00  0.922185D-01 -0.533639D-01  0.000000D+00  0.252507D-01
     20  0.814410D-01 -0.243599D+00  0.803601D-01  0.000000D+00  0.127822D-01
     21 -0.471279D-01  0.803613D-01 -0.151236D+00  0.000000D+00 -0.730255D-03
     22 -0.130441D+00  0.102291D-03  0.106543D+00  0.000000D+00  0.276660D-04
     23  0.898947D-04 -0.104731D+00 -0.173221D-03  0.000000D+00  0.115197D-01
     24  0.940915D-01 -0.174471D-03 -0.290088D+00  0.000000D+00  0.163489D-05
                6             7             8             9            10 
      6  0.723668D+00
      7 -0.533638D-01  0.109381D+00
      8  0.803598D-01 -0.896928D-01  0.238526D+00
      9 -0.151235D+00  0.519022D-01 -0.914123D-01  0.133456D+00
     10 -0.145620D-01  0.000000D+00  0.000000D+00  0.000000D+00  0.109371D+00
     11  0.729066D-03  0.000000D+00  0.254283D-02  0.439424D-02  0.897870D-01
     12  0.119381D-01  0.000000D+00 -0.441436D-02 -0.762841D-02  0.517206D-01
     13 -0.531781D-01  0.105304D-01  0.120275D-01  0.112683D-01  0.000000D+00
     14 -0.801756D-01 -0.120044D-01 -0.140574D-01 -0.134442D-01  0.000000D+00
     15 -0.150912D+00  0.112916D-01  0.134982D-01  0.131220D-01  0.000000D+00
     16  0.106542D+00  0.105315D-01 -0.377611D-02 -0.160427D-01  0.000000D+00
     17 -0.173691D-03 -0.157725D-01  0.634945D-02  0.252260D-01  0.000000D+00
     18 -0.290087D+00  0.478187D-02 -0.171522D-02 -0.728541D-02  0.000000D+00
     19 -0.146120D-01  0.000000D+00  0.000000D+00  0.000000D+00  0.105302D-01
     20 -0.730420D-03  0.000000D+00  0.255164D-02  0.440947D-02  0.120274D-01
     21  0.119425D-01  0.000000D+00  0.440941D-02  0.761986D-02  0.112682D-01
     22  0.291732D-01  0.000000D+00  0.000000D+00  0.000000D+00  0.105297D-01
     23  0.152022D-05  0.000000D+00 -0.509445D-02 -0.880367D-02  0.157814D-01
     24  0.132050D-01  0.000000D+00  0.481504D-05  0.832083D-05  0.475124D-02
               11            12            13            14            15 
     11  0.238884D+00
     12  0.912020D-01  0.133093D+00
     13  0.000000D+00  0.000000D+00  0.109371D+00
     14  0.253405D-02 -0.439913D-02  0.897877D-01  0.238885D+00
     15 -0.439918D-02  0.763698D-02  0.517205D-01  0.912017D-01  0.133092D+00
     16  0.000000D+00  0.000000D+00  0.105296D-01  0.374480D-02 -0.160487D-01
     17 -0.507689D-02  0.881349D-02  0.157813D-01  0.630403D-02 -0.252534D-01
     18  0.480857D-05 -0.834770D-05  0.475114D-02  0.168906D-02 -0.724030D-02
     19 -0.120043D-01  0.112915D-01  0.000000D+00  0.000000D+00  0.000000D+00
     20 -0.140575D-01  0.134983D-01  0.000000D+00  0.254284D-02 -0.441442D-02
     21 -0.134442D-01  0.131220D-01  0.000000D+00  0.439419D-02 -0.762842D-02
     22  0.374485D-02 -0.160486D-01  0.000000D+00  0.000000D+00  0.000000D+00
     23  0.630411D-02 -0.252534D-01  0.000000D+00 -0.507687D-02  0.881356D-02
     24  0.168911D-02 -0.724038D-02  0.000000D+00  0.479842D-05 -0.833017D-05
               16            17            18            19            20 
     16  0.109378D+00
     17 -0.988369D-04  0.805574D-01
     18 -0.103624D+00  0.199394D-03  0.291407D+00
     19  0.000000D+00  0.000000D+00  0.000000D+00  0.109381D+00
     20  0.000000D+00 -0.509448D-02  0.482524D-05 -0.896923D-01  0.238525D+00
     21  0.000000D+00 -0.880361D-02  0.833833D-05  0.519024D-01 -0.914127D-01
     22  0.000000D+00  0.000000D+00  0.000000D+00  0.105316D-01 -0.377614D-02
     23  0.000000D+00  0.101713D-01 -0.963377D-05 -0.157726D-01  0.634948D-02
     24  0.000000D+00 -0.961347D-05  0.000000D+00  0.478195D-02 -0.171523D-02
               21            22            23            24 
     21  0.133457D+00
     22 -0.160427D-01  0.109379D+00
     23  0.252258D-01 -0.986637D-04  0.805576D-01
     24 -0.728543D-02 -0.103625D+00  0.198960D-03  0.291409D+00
 Leave Link  716 at Tue Nov 19 12:39:55 2024, MaxMem=  1073741824 cpu:               2.1 elap:               0.1
 (Enter /home/szhao/Apps/g16/l103.exe)

 GradGradGradGradGradGradGradGradGradGradGradGradGradGradGradGradGradGrad
 Berny optimization.
 Search for a local minimum.
 Step number   1 out of a maximum of    2
 All quantities printed in internal units (Hartrees-Bohrs-Radians)
 Second derivative matrix not updated -- first step.
 ITU=  0
     Eigenvalues ---    0.04483   0.04483   0.06103   0.07536   0.09435
     Eigenvalues ---    0.09435   0.14969   0.14969   0.17937   0.18604
     Eigenvalues ---    0.18604   0.30234   0.54677   0.72470   0.72473
     Eigenvalues ---    1.00360   1.00364   1.88376
 Quadratic step=4.829D-01 exceeds max=3.000D-01 adjusted using Lamda=-7.881D-02.
 Angle between NR and scaled steps=  16.83 degrees.
 Angle between quadratic step and forces=  45.26 degrees.
 Linear search not attempted -- first point.
 B after Tr=    -0.000000   -0.000000   -0.000000
         Rot=    1.000000    0.000000    0.000000   -0.000001 Ang=   0.00 deg.
 Variable       Old X    -DE/DX   Delta X   Delta X   Delta X     New X
                                 (Linear)    (Quad)   (Total)
    X1       -1.21203  -0.24793   0.00000  -0.14940  -0.14940  -1.36143
    Y1       -0.00000  -0.00002   0.00000  -0.00002  -0.00002  -0.00002
    Z1        0.00000  -0.00000   0.00000  -0.00001  -0.00001  -0.00001
    X2        1.21216   0.24793   0.00000   0.14940   0.14940   1.36155
    Y2        0.00000   0.00002   0.00000   0.00002   0.00002   0.00002
    Z2        0.00000  -0.00000   0.00000   0.00001   0.00001   0.00001
    X3        2.06825  -0.00008   0.00000   0.08542   0.08542   2.15367
    Y3       -1.63707  -0.00009   0.00000  -0.01414  -0.01414  -1.65120
    Z3        0.94733   0.00005   0.00000   0.00818   0.00818   0.95551
    X4       -2.06808   0.00008   0.00000  -0.08543  -0.08542  -2.15350
    Y4       -1.63898  -0.00008   0.00000  -0.01416  -0.01416  -1.65314
    Z4       -0.94411  -0.00005   0.00000  -0.00817  -0.00817  -0.95228
    X5        2.06821  -0.00007   0.00000   0.08543   0.08542   2.15363
    Y5        1.63898   0.00008   0.00000   0.01416   0.01416   1.65314
    Z5        0.94410   0.00005   0.00000   0.00817   0.00817   0.95227
    X6        2.06828  -0.00008   0.00000   0.08539   0.08539   2.15367
    Y6       -0.00179  -0.00001   0.00000  -0.00003  -0.00003  -0.00182
    Z6       -1.89142  -0.00010   0.00000  -0.01633  -0.01633  -1.90775
    X7       -2.06813   0.00008   0.00000  -0.08542  -0.08542  -2.15355
    Y7        1.63706   0.00009   0.00000   0.01414   0.01414   1.65120
    Z7       -0.94734  -0.00005   0.00000  -0.00818  -0.00818  -0.95552
    X8       -2.06816   0.00008   0.00000  -0.08539  -0.08539  -2.15355
    Y8        0.00179   0.00001   0.00000   0.00003   0.00003   0.00182
    Z8        1.89142   0.00010   0.00000   0.01633   0.01633   1.90775
         Item               Value     Threshold  Converged?
 Maximum Force            0.247928     0.000450     NO 
 RMS     Force            0.071571     0.000300     NO 
 Maximum Displacement     0.149398     0.001800     NO 
 RMS     Displacement     0.061242     0.001200     NO 
 Predicted change in Energy=-4.057201D-02
 GradGradGradGradGradGradGradGradGradGradGradGradGradGradGradGradGradGrad

 Leave Link  103 at Tue Nov 19 12:39:55 2024, MaxMem=  1073741824 cpu:               3.7 elap:               0.2
 (Enter /home/szhao/Apps/g16/l9999.exe)
 1\1\GINC-NODE02\Force\UM062X\6-311+G(d,p)\C2H6\SZHAO\19-Nov-2024\0\\#p
  UM062X/6-311+G** force int=superfine\\Title Card Required\\0,1\C,-0.6
 41379,0.,0.\C,0.641445,0.,0.\H,1.094472,-0.866298,0.501304\H,-1.094381
 ,-0.867309,-0.499601\H,1.094448,0.86731,0.499596\H,1.094488,-0.000948,
 -1.000898\H,-1.094406,0.866296,-0.501309\H,-1.094424,0.000946,1.000895
 \\Version=ES64L-G16RevA.03\State=1-A\HF=-79.7509523\S2=0.\S2-1=0.\S2A=
 0.\RMSD=5.671e-09\RMSF=7.157e-02\Dipole=0.,-0.0000003,-0.0000006\Quadr
 upole=-0.3301447,0.1650818,0.1650629,-0.0000299,-0.0000346,-0.000084\P
 G=C01 [X(C2H6)]\\@


 LAWS OF PROGRAMMING DEFINITION:  A WORKING PROGRAM
                                  IS ONE THAT HAS
                                  ONLY UNOBSERVED
                                  BUGS.
 Job cpu time:       0 days  0 hours  3 minutes 44.5 seconds.
 Elapsed time:       0 days  0 hours  0 minutes 12.3 seconds.
 File lengths (MBytes):  RWF=     22 Int=      0 D2E=      0 Chk=      2 Scr=      2
 Normal termination of Gaussian 16 at Tue Nov 19 12:39:56 2024.
