Title Card Required                                                     
FOpt      UM062X                                                      6-311+G(d,p)        
Number of atoms                            I                4
Info1-9                                    I   N=           9
          13          13           0           0           0         110
           2          18        -502
Full Title                                 C   N=           2
Title Card Required     
Route                                      C   N=           5
#p opt UM062X/6-311+G** nosymm int=superfine SCF=NoVarAcc   
Charge                                     I                0
Multiplicity                               I                1
Number of electrons                        I               14
Number of alpha electrons                  I                7
Number of beta electrons                   I                7
Number of basis functions                  I               56
Number of independent functions            I               56
Number of point charges in /Mol/           I                0
Number of translation vectors              I                0
Atomic numbers                             I   N=           4
           6           6           1           1
Nuclear charges                            R   N=           4
  6.00000000E+00  6.00000000E+00  1.00000000E+00  1.00000000E+00
Current cartesian coordinates              R   N=          12
 -1.12110364E+01  0.00000000E+00  0.00000000E+00  1.12110364E+01  0.00000000E+00
  0.00000000E+00 -1.33279913E+01 -1.29436971E-05  1.29436861E-05  1.33279912E+01
  8.78405895E-06 -8.78403518E-06
Number of symbols in /Mol/                 I                0
Force Field                                I                0
Atom Types                                 C   N=           4
                                                
Int Atom Types                             I   N=           4
           0           0           0           0
MM charges                                 R   N=           4
  0.00000000E+00  0.00000000E+00  0.00000000E+00  0.00000000E+00
Integer atomic weights                     I   N=           4
          12          12           1           1
Real atomic weights                        R   N=           4
  1.20000000E+01  1.20000000E+01  1.00782504E+00  1.00782504E+00
Atom fragment info                         I   N=           4
           0           0           0           0
Atom residue num                           I   N=           4
           0           0           0           0
Nuclear spins                              I   N=           4
           0           0           1           1
Nuclear ZEff                               R   N=           4
 -3.60000000E+00 -3.60000000E+00 -1.00000000E+00 -1.00000000E+00
Nuclear ZNuc                               R   N=           4
  6.00000000E+00  6.00000000E+00  1.00000000E+00  1.00000000E+00
Nuclear QMom                               R   N=           4
  0.00000000E+00  0.00000000E+00  0.00000000E+00  0.00000000E+00
Nuclear GFac                               R   N=           4
  0.00000000E+00  0.00000000E+00  2.79284600E+00  2.79284600E+00
MicOpt                                     I   N=           4
          -2          -2          -1          -1
Number of residues                         I                0
Number of secondary structures             I                0
Redundant internal dimensions              I   N=           4
          12           8           4           0
Redundant internal coordinate indices      I   N=          48
           1          -1           0           0           1          -2
           0           0           1          -3           0           0
           2          -1           0           0           2          -2
           0           0           2          -3           0           0
           1           3           0           0           2           4
           0           0           2           1           3          -4
           1           2           4          -4           2           1
           3          -8           1           2           4          -8
Redundant internal coordinates             R   N=          12
 -1.12110364E+01  0.00000000E+00  0.00000000E+00  1.12110364E+01  0.00000000E+00
  0.00000000E+00  2.11695481E+00  2.11695473E+00  3.14158654E+00  3.14158850E+00
  3.14158654E+00  3.14158850E+00
ZRed-IntVec                                I   N=          12
          -1          -1          -1          -1          -1          -1
           0           0           0           0           0           0
ZRed-FPVec                                 R   N=          12
  0.00000000E+00  0.00000000E+00  0.00000000E+00  0.00000000E+00  0.00000000E+00
  0.00000000E+00  0.00000000E+00  0.00000000E+00  0.00000000E+00  0.00000000E+00
  0.00000000E+00  0.00000000E+00
ZRed-Constraint1                           R   N=          12
 -1.12110364E+01  0.00000000E+00  0.00000000E+00  1.12110364E+01  0.00000000E+00
  0.00000000E+00  2.12190166E+00  2.12189977E+00  3.14158731E+00  3.14158909E+00
  3.14158731E+00  3.14158909E+00
ZRed-Constraint2                           R   N=          12
 -1.12110364E+01  0.00000000E+00  0.00000000E+00  1.12110364E+01  0.00000000E+00
  0.00000000E+00  0.00000000E+00  0.00000000E+00  0.00000000E+00  0.00000000E+00
  0.00000000E+00  0.00000000E+00
Number of contracted shells                I               20
Number of primitive shells                 I               38
Pure/Cartesian d shells                    I                0
Pure/Cartesian f shells                    I                0
Highest angular momentum                   I                2
Largest degree of contraction              I                6
Shell types                                I   N=          20
           0          -1          -1          -1          -1          -2
           0          -1          -1          -1          -1          -2
           0           0           0           1           0           0
           0           1
Number of primitives per shell             I   N=          20
           6           3           1           1           1           1
           6           3           1           1           1           1
           3           1           1           1           3           1
           1           1
Shell to atom map                          I   N=          20
           1           1           1           1           1           1
           2           2           2           2           2           2
           3           3           3           3           4           4
           4           4
Primitive exponents                        R   N=          38
  4.56324000E+03  6.82024000E+02  1.54973000E+02  4.44553000E+01  1.30290000E+01
  1.82773000E+00  2.09642000E+01  4.80331000E+00  1.45933000E+00  4.83456000E-01
  1.45585000E-01  4.38000000E-02  6.26000000E-01  4.56324000E+03  6.82024000E+02
  1.54973000E+02  4.44553000E+01  1.30290000E+01  1.82773000E+00  2.09642000E+01
  4.80331000E+00  1.45933000E+00  4.83456000E-01  1.45585000E-01  4.38000000E-02
  6.26000000E-01  3.38650000E+01  5.09479000E+00  1.15879000E+00  3.25840000E-01
  1.02741000E-01  7.50000000E-01  3.38650000E+01  5.09479000E+00  1.15879000E+00
  3.25840000E-01  1.02741000E-01  7.50000000E-01
Contraction coefficients                   R   N=          38
  1.96665025E-03  1.52306019E-02  7.61269097E-02  2.60801033E-01  6.16462078E-01
  2.21006028E-01  1.14660081E-01  9.19999648E-01 -3.03068213E-03  1.00000000E+00
  1.00000000E+00  1.00000000E+00  1.00000000E+00  1.96665025E-03  1.52306019E-02
  7.61269097E-02  2.60801033E-01  6.16462078E-01  2.21006028E-01  1.14660081E-01
  9.19999648E-01 -3.03068213E-03  1.00000000E+00  1.00000000E+00  1.00000000E+00
  1.00000000E+00  2.54938145E-02  1.90373109E-01  8.52161486E-01  1.00000000E+00
  1.00000000E+00  1.00000000E+00  2.54938145E-02  1.90373109E-01  8.52161486E-01
  1.00000000E+00  1.00000000E+00  1.00000000E+00
P(S=P) Contraction coefficients            R   N=          38
  0.00000000E+00  0.00000000E+00  0.00000000E+00  0.00000000E+00  0.00000000E+00
  0.00000000E+00  4.02486927E-02  2.37593957E-01  8.15853851E-01  1.00000000E+00
  1.00000000E+00  1.00000000E+00  0.00000000E+00  0.00000000E+00  0.00000000E+00
  0.00000000E+00  0.00000000E+00  0.00000000E+00  0.00000000E+00  4.02486927E-02
  2.37593957E-01  8.15853851E-01  1.00000000E+00  1.00000000E+00  1.00000000E+00
  0.00000000E+00  0.00000000E+00  0.00000000E+00  0.00000000E+00  0.00000000E+00
  0.00000000E+00  0.00000000E+00  0.00000000E+00  0.00000000E+00  0.00000000E+00
  0.00000000E+00  0.00000000E+00  0.00000000E+00
Coordinates of each shell                  R   N=          60
 -1.12110364E+01  0.00000000E+00  0.00000000E+00 -1.12110364E+01  0.00000000E+00
  0.00000000E+00 -1.12110364E+01  0.00000000E+00  0.00000000E+00 -1.12110364E+01
  0.00000000E+00  0.00000000E+00 -1.12110364E+01  0.00000000E+00  0.00000000E+00
 -1.12110364E+01  0.00000000E+00  0.00000000E+00  1.12110364E+01  0.00000000E+00
  0.00000000E+00  1.12110364E+01  0.00000000E+00  0.00000000E+00  1.12110364E+01
  0.00000000E+00  0.00000000E+00  1.12110364E+01  0.00000000E+00  0.00000000E+00
  1.12110364E+01  0.00000000E+00  0.00000000E+00  1.12110364E+01  0.00000000E+00
  0.00000000E+00 -1.33279913E+01 -1.29436971E-05  1.29436861E-05 -1.33279913E+01
 -1.29436971E-05  1.29436861E-05 -1.33279913E+01 -1.29436971E-05  1.29436861E-05
 -1.33279913E+01 -1.29436971E-05  1.29436861E-05  1.33279912E+01  8.78405895E-06
 -8.78403518E-06  1.33279912E+01  8.78405895E-06 -8.78403518E-06  1.33279912E+01
  8.78405895E-06 -8.78403518E-06  1.33279912E+01  8.78405895E-06 -8.78403518E-06
Num ILSW                                   I              100
ILSW                                       I   N=         100
           1           0           0           1           2           0
           0           0           0           0        4336          -1
           7           0           0           0           2           0
           0           0           0           0           1           0
           1           1           0           0           0           0
           0           0      100000           0          -1           0
           0           0           0           0           0           0
           0           0           0           1           0           0
           0 -2000000000           1           0           0           0
           0           0           4          52           0           0
           0           0          55           0           0           0
           0           0           0           4           0           1
           0           0           0           0           0           0
           0           0           0           0           0           0
           0           0           0           0           0           0
           0           0           0           0           0           0
           0           0           0           0
Num RLSW                                   I               52
RLSW                                       R   N=          52
  1.00000000E+00  1.00000000E+00  1.00000000E+00  1.00000000E+00  5.40000000E-01
  0.00000000E+00  0.00000000E+00  1.00000000E+00  0.00000000E+00  0.00000000E+00
  0.00000000E+00  0.00000000E+00  1.00000000E+00  0.00000000E+00  0.00000000E+00
  0.00000000E+00  0.00000000E+00  1.00000000E+00  0.00000000E+00  0.00000000E+00
  0.00000000E+00  0.00000000E+00  1.00000000E+00  0.00000000E+00  0.00000000E+00
  0.00000000E+00  0.00000000E+00  1.00000000E+00  0.00000000E+00  0.00000000E+00
  0.00000000E+00  0.00000000E+00  1.00000000E+00  0.00000000E+00  0.00000000E+00
  0.00000000E+00  0.00000000E+00  0.00000000E+00  1.00000000E+00  1.00000000E+00
  0.00000000E+00  1.00000000E+00  0.00000000E+00  0.00000000E+00  0.00000000E+00
  0.00000000E+00  0.00000000E+00  0.00000000E+00  0.00000000E+00  0.00000000E+00
  0.00000000E+00  0.00000000E+00
MxBond                                     I                2
NBond                                      I   N=           4
           2           2           1           1
IBond                                      I   N=           8
           2           3           1           4           1           0
           2           0
RBond                                      R   N=           8
  1.00000000E-01  1.00000000E+00  1.00000000E-01  1.00000000E+00  1.00000000E+00
  0.00000000E+00  1.00000000E+00  0.00000000E+00
Virial Ratio                               R      2.003121462564066E+00
SCF Energy                                 R     -7.681570291666583E+01
Total Energy                               R     -7.681570291666583E+01
S**2                                       R     -1.421085471520200E-14
S**2 after annihilation                    R      1.421085471520190E-14
RMS Force                                  R      3.109328765378357E-05
RMS Density                                R      1.051518269710628E-09
Job Status                                 I                1
Nuclear derivative order                   I                1
External E-field                           R   N=          35
  0.00000000E+00  0.00000000E+00  0.00000000E+00  0.00000000E+00  0.00000000E+00
  0.00000000E+00  0.00000000E+00  0.00000000E+00  0.00000000E+00  0.00000000E+00
  0.00000000E+00  0.00000000E+00  0.00000000E+00  0.00000000E+00  0.00000000E+00
  0.00000000E+00  0.00000000E+00  0.00000000E+00  0.00000000E+00  0.00000000E+00
  0.00000000E+00  0.00000000E+00  0.00000000E+00  0.00000000E+00  0.00000000E+00
  0.00000000E+00  0.00000000E+00  0.00000000E+00  0.00000000E+00  0.00000000E+00
  0.00000000E+00  0.00000000E+00  0.00000000E+00  0.00000000E+00  0.00000000E+00
IOpCl                                      I                1
IROHF                                      I                0
Alpha Orbital Energies                     R   N=          56
 -1.06671878E+01 -1.06671875E+01 -7.25024685E-01 -7.24995989E-01 -3.86827486E-01
 -3.86812783E-01 -1.93400514E-01 -1.69518199E-01 -9.70550801E-02 -9.70543049E-02
  3.31021743E-02  3.31557401E-02  8.11796979E-02  8.12020265E-02  8.22221781E-02
  8.27106268E-02  8.94335209E-02  8.94571775E-02  1.73551206E-01  1.73617518E-01
  4.54079734E-01  4.54322628E-01  5.72024870E-01  5.72038618E-01  5.77498620E-01
  5.77512966E-01  6.12511656E-01  6.12529445E-01  6.84540244E-01  6.84729009E-01
  1.12602077E+00  1.12602086E+00  1.13628103E+00  1.13631933E+00  1.33351947E+00
  1.33353834E+00  1.34591157E+00  1.34593039E+00  1.58034343E+00  1.58041396E+00
  1.84825995E+00  1.84826038E+00  1.85917896E+00  1.85918288E+00  2.38397328E+00
  2.38399959E+00  2.48772430E+00  2.48780910E+00  2.70415319E+00  2.70416045E+00
  2.70817353E+00  2.70818081E+00  3.16993536E+00  3.17001177E+00  2.35095776E+01
  2.35096185E+01
Beta Orbital Energies                      R   N=          56
 -1.06671878E+01 -1.06671875E+01 -7.25024685E-01 -7.24995989E-01 -3.86827486E-01
 -3.86812783E-01 -1.93400514E-01 -1.69518199E-01 -9.70550801E-02 -9.70543049E-02
  3.31021743E-02  3.31557401E-02  8.11796979E-02  8.12020265E-02  8.22221781E-02
  8.27106268E-02  8.94335209E-02  8.94571775E-02  1.73551206E-01  1.73617518E-01
  4.54079734E-01  4.54322628E-01  5.72024870E-01  5.72038618E-01  5.77498620E-01
  5.77512966E-01  6.12511656E-01  6.12529445E-01  6.84540244E-01  6.84729009E-01
  1.12602077E+00  1.12602086E+00  1.13628103E+00  1.13631933E+00  1.33351947E+00
  1.33353834E+00  1.34591157E+00  1.34593039E+00  1.58034343E+00  1.58041396E+00
  1.84825995E+00  1.84826038E+00  1.85917896E+00  1.85918288E+00  2.38397328E+00
  2.38399959E+00  2.48772430E+00  2.48780910E+00  2.70415319E+00  2.70416045E+00
  2.70817353E+00  2.70818081E+00  3.16993536E+00  3.17001177E+00  2.35095776E+01
  2.35096185E+01
Alpha MO coefficients                      R   N=        3136
  4.02408714E-01  3.31520897E-01 -1.28753452E-03 -7.84162208E-09  7.84160526E-09
  6.74524655E-03 -9.80027945E-04 -6.00895618E-09  6.00895133E-09 -2.82436496E-03
 -4.36487427E-05 -2.61353671E-10  2.61355948E-10  2.99344134E-04  4.67843642E-04
  2.85997771E-09 -2.85997500E-09 -3.84407350E-04 -7.88569974E-09 -4.27687156E-05
  6.65850864E-04  7.88593945E-09  3.95194182E-01  3.25577269E-01  1.26445030E-03
  5.22648536E-09 -5.22646559E-09  6.62431048E-03  9.62460089E-04  4.00435557E-09
 -4.00434648E-09 -2.77371253E-03  4.28605880E-05  1.74461526E-10 -1.74464670E-10
  2.93989418E-04 -4.59436453E-04 -1.90619236E-09  1.90618655E-09 -3.77514735E-04
 -5.25565900E-09 -4.19996454E-05  6.53911826E-04  5.25582922E-09  2.36315669E-04
 -1.97761182E-03  1.60689824E-03 -1.38094662E-03 -8.43941040E-09  8.43940402E-09
  2.32076409E-04 -1.94214569E-03  1.57805923E-03  1.35618890E-03  5.62449523E-09
 -5.62448062E-09 -3.95194197E-01 -3.25577252E-01  1.26449644E-03  7.70078367E-09
 -7.70076377E-09 -6.62459979E-03  9.62345372E-04  5.90239720E-09 -5.90238942E-09
  2.77461935E-03  4.31752450E-05  2.54526568E-10 -2.54524064E-10 -2.93303960E-04
 -4.60537939E-04 -2.81119283E-09  2.81119118E-09  3.77566422E-04  7.74457033E-09
  4.21287933E-05 -6.54001462E-04 -7.74480576E-09  4.02408729E-01  3.31520880E-01
  1.28757981E-03  5.32171350E-09 -5.32169062E-09  6.74553135E-03  9.79916114E-04
  4.07831127E-09 -4.07829493E-09 -2.82525539E-03  4.39577314E-05  1.76079810E-10
 -1.76077390E-10  2.98670673E-04 -4.68925491E-04 -1.94261370E-09  1.94260976E-09
 -3.84458313E-04 -5.35177510E-09 -4.28955435E-05  6.65939248E-04  5.35194814E-09
 -2.32213691E-04  1.94278346E-03 -1.57976247E-03  1.35618367E-03  8.28824938E-09
 -8.28824291E-09  2.36450354E-04 -1.97823928E-03  1.60857158E-03  1.38094211E-03
  5.72727682E-09 -5.72726166E-09 -7.66120198E-02 -1.23992725E-01 -5.44764535E-02
 -3.32740524E-07  3.32740376E-07  3.52808301E-01 -8.20686553E-02 -5.00999520E-07
  5.00999237E-07  2.45694736E-01 -3.29460609E-02 -2.00597809E-07  2.00598079E-07
 -6.48772231E-04 -8.72977146E-04 -5.31585690E-09  5.31595041E-09 -5.16934949E-03
 -8.99852209E-08 -3.19730360E-03  8.95640314E-03  9.00026579E-08 -7.66413784E-02
 -1.24040240E-01  5.44973376E-02  2.25851642E-07 -2.25851324E-07  3.52943502E-01
  8.21001150E-02  3.40053886E-07 -3.40053369E-07  2.45788873E-01  3.29586829E-02
  1.36042331E-07 -1.36042591E-07 -6.49041380E-04  8.73311841E-04  3.59488108E-09
 -3.59504298E-09 -5.17133164E-03 -6.10885496E-08 -3.19853175E-03  8.95983747E-03
  6.11005399E-08  1.02468798E-01  1.30466341E-01  1.56619264E-02  1.58255442E-02
  9.67735914E-08 -9.67734803E-08  1.02508075E-01  1.30516350E-01  1.56679415E-02
 -1.58316102E-02 -6.57060486E-08  6.57058368E-08 -7.66404358E-02 -1.24039008E-01
 -5.45049332E-02 -3.32911712E-07  3.32911027E-07  3.52947548E-01 -8.21120897E-02
 -5.01258004E-07  5.01256900E-07  2.45763579E-01 -3.29479243E-02 -2.00606180E-07
  2.00605537E-07 -7.02003722E-04 -8.73726100E-04 -5.27212095E-09  5.27196984E-09
 -5.17320461E-03 -9.00104931E-08 -3.20652212E-03  8.96308854E-03  9.00279799E-08
  7.66110754E-02  1.23991489E-01 -5.44840609E-02 -2.25794990E-07  2.25793882E-07
 -3.52812336E-01 -8.20806432E-02 -3.39969075E-07  3.39967348E-07 -2.45669413E-01
 -3.29352989E-02 -1.35944216E-07  1.35943135E-07  7.01755316E-04 -8.73391542E-04
 -3.56283585E-09  3.56262299E-09  5.17122398E-03  6.10588889E-08  3.20529664E-03
 -8.95965698E-03 -6.10709207E-08  1.02514625E-01  1.30536109E-01  1.57035191E-02
  1.58334130E-02  9.68208249E-08 -9.68207441E-08 -1.02475362E-01 -1.30486115E-01
 -1.56975165E-02  1.58273487E-02  6.56877583E-08 -6.56875966E-08 -4.28904455E-02
 -7.08460253E-02  1.53574487E-01  9.38087726E-07 -9.38086419E-07  2.08527115E-01
  2.21284330E-01  1.35173694E-06 -1.35173504E-06  2.97918396E-01  1.45797853E-01
  8.90609249E-07 -8.90607503E-07  4.24527369E-02  9.42244740E-03  5.78935965E-08
 -5.78932598E-08  1.23731510E-02  2.78998969E-07 -2.86215120E-03 -2.14283955E-02
 -2.78983829E-07 -4.28938743E-02 -7.08516889E-02 -1.53586760E-01 -6.36660746E-07
  6.36658263E-07  2.08543786E-01 -2.21302012E-01 -9.17395985E-07  9.17392358E-07
  2.97942216E-01 -1.45809502E-01 -6.04534741E-07  6.04531759E-07  4.24561260E-02
 -9.42319972E-03 -3.93898797E-08  3.93893970E-08  1.23741398E-02  1.89311774E-07
 -2.86238052E-03 -2.14301077E-02 -1.89301842E-07 -9.49067817E-02 -1.75795135E-01
 -1.16001219E-01 -7.22424112E-03 -4.42618851E-08  4.42618848E-08 -9.49143631E-02
 -1.75809178E-01 -1.16010484E-01  7.22481802E-03  3.00575033E-08 -3.00574818E-08
 -4.29004385E-02 -7.08626582E-02  1.53585396E-01  9.38162660E-07 -9.38162306E-07
  2.08582094E-01  2.21297914E-01  1.35183705E-06 -1.35183661E-06  2.97957375E-01
  1.45829945E-01  8.90811270E-07 -8.90811143E-07  4.23882789E-02  9.42283193E-03
  5.79732267E-08 -5.79733381E-08  1.23728071E-02  2.79037404E-07 -2.86956694E-03
 -2.14277932E-02 -2.79022182E-07  4.28970123E-02  7.08569989E-02  1.53573126E-01
  6.36609721E-07 -6.36608643E-07 -2.08565436E-01  2.21280232E-01  9.17317196E-07
 -9.17315717E-07 -2.97933583E-01  1.45818291E-01  6.04574872E-07 -6.04574278E-07
 -4.23848890E-02  9.42207846E-03  3.94393038E-08 -3.94394981E-08 -1.23718186E-02
 -1.89307637E-07  2.86933829E-03  2.14260811E-02  1.89297604E-07 -9.49071664E-02
 -1.75792976E-01 -1.15974903E-01 -7.22271672E-03 -4.42525709E-08  4.42525001E-08
  9.48995811E-02  1.75778925E-01  1.15965633E-01 -7.22213926E-03 -3.00464121E-08
  3.00462813E-08 -3.19990417E-13 -5.15516373E-13 -3.57603251E-10  1.32255823E-01
  1.32197365E-01  1.68925050E-12 -5.47830409E-10  2.02577690E-01  2.02488151E-01
  1.76919502E-12 -6.05410745E-10  2.24149649E-01  2.24050575E-01 -3.93434907E-12
 -1.82428620E-10  6.76082504E-02  6.75783681E-02  1.22653608E-07 -1.15110248E-02
  3.12025819E-11  7.08765083E-08 -1.15161149E-02  1.97128107E-13  3.16550530E-13
 -2.43730576E-10  1.32255823E-01  1.32197364E-01 -1.03925027E-12 -3.73364915E-10
  2.02577691E-01  2.02488150E-01 -1.04280503E-12 -4.12696227E-10  2.24149650E-01
  2.24050573E-01  2.34488463E-12 -1.24279848E-10  6.76082508E-02  6.75783678E-02
 -8.31843307E-08  1.15110252E-02 -2.10722187E-11 -4.80690318E-08  1.15161155E-02
 -8.74726463E-14  2.99271764E-14  1.55492769E-12 -3.34525549E-11  1.23893718E-02
  1.23838957E-02  5.10820336E-14 -1.85721422E-14 -9.80537265E-13 -2.28004036E-11
  1.23893724E-02  1.23838961E-02  3.81754173E-13  6.63500434E-13 -3.58365719E-10
  1.32235141E-01  1.32176693E-01 -2.37058941E-12 -5.48627147E-10  2.02544431E-01
  2.02454906E-01 -1.51750200E-12 -6.08361188E-10  2.24085326E-01  2.23986280E-01
  5.80374788E-12 -1.83649584E-10  6.77185525E-02  6.76886215E-02  1.22445332E-07
 -1.17125200E-02  3.11815800E-11  7.07572230E-08 -1.17176992E-02  2.75081280E-13
  4.77455716E-13  2.44240418E-10 -1.32235141E-01 -1.32176692E-01 -1.70302067E-12
  3.73903353E-10 -2.02544431E-01 -2.02454905E-01 -1.11784108E-12  4.14652973E-10
 -2.24085327E-01 -2.23986279E-01  4.23789609E-12  1.25223936E-10 -6.77185528E-02
 -6.76886211E-02  8.30460279E-08 -1.17125204E-02  2.10547382E-11  4.79898367E-08
 -1.17176997E-02 -5.37144324E-14 -1.36561574E-14 -2.95835122E-12 -3.38668062E-11
  1.25006919E-02  1.24951666E-02 -3.29721533E-14  1.69435959E-14 -2.16922388E-12
  2.30821137E-11 -1.25006925E-02 -1.24951670E-02 -3.84987691E-10 -6.45365935E-10
  1.49817637E-06 -1.22517501E-01  1.22571677E-01  2.22464994E-09  2.36697651E-06
 -1.93625527E-01  1.93711147E-01  2.90009368E-09  2.63428057E-06 -2.15193172E-01
  2.15288329E-01 -1.32612714E-08  1.29428971E-06 -1.05940653E-01  1.05987500E-01
  1.11240612E-07 -1.05238457E-02 -1.28171597E-07 -1.92618203E-07  1.05191942E-02
  3.83419225E-10  6.38341814E-10  1.01641696E-06 -1.22471017E-01  1.22525174E-01
 -2.11762081E-09  1.60566367E-06 -1.93552065E-01  1.93637655E-01 -3.22602791E-09
  1.78780151E-06 -2.15111526E-01  2.15206649E-01  1.19420525E-08  8.77448995E-07
 -1.05900463E-01  1.05947294E-01 -7.54547285E-08  1.05198534E-02  8.68955211E-08
  1.30653493E-07 -1.05152035E-02  7.23789543E-10  1.18000534E-09  6.00580653E-09
  1.47478633E-07 -1.20607275E-02  1.20660607E-02 -5.09383921E-10 -9.30221702E-10
 -4.80494833E-09  1.00053719E-07 -1.20561521E-02  1.20614834E-02  3.58742120E-10
  6.09964541E-10 -1.49754128E-06  1.22472094E-01 -1.22526250E-01 -2.22125399E-09
 -2.36607281E-06  1.93552317E-01 -1.93637905E-01 -1.97635897E-09 -2.63281227E-06
  2.15117645E-01 -2.15212768E-01  1.34726485E-08 -1.29571355E-06  1.05890616E-01
 -1.05937442E-01 -1.11179490E-07  1.05199559E-02  1.28109533E-07  1.92512375E-07
 -1.05153061E-02  3.45267409E-10  5.86562656E-10  1.01669828E-06 -1.22518575E-01
  1.22572754E-01 -2.10850641E-09  1.60626923E-06 -1.93625776E-01  1.93711398E-01
 -1.91308620E-09  1.78774204E-06 -2.15199287E-01  2.15294449E-01  1.21471145E-08
  8.80534186E-07 -1.05930810E-01  1.05977654E-01 -7.54568554E-08  1.05239490E-02
  8.69077456E-08  1.30657190E-07 -1.05192973E-02 -8.04582485E-10 -7.46385227E-10
 -7.74201290E-09 -1.47423466E-07  1.20561282E-02 -1.20614594E-02 -6.20952813E-10
 -3.31813201E-10 -7.16895704E-09  1.00093984E-07 -1.20607044E-02  1.20660377E-02
  2.12708178E-02  3.47621998E-02  3.43364307E-02  2.04369037E-07 -2.04368753E-07
 -8.44593811E-02  7.92780272E-02  4.78611405E-07 -4.78610672E-07 -4.28216066E-01
  7.49235358E-02  4.36981216E-07 -4.36980480E-07  1.09623615E+00 -5.38849179E-01
 -3.25568330E-06  3.25567948E-06  8.49652774E-03  1.70201910E-07  1.52305355E-03
 -1.47177645E-02 -1.70210292E-07  2.12711599E-02  3.47627590E-02 -3.43369778E-02
 -1.37490778E-07  1.37490587E-07 -8.44607423E-02 -7.92793018E-02 -3.23474511E-07
  3.23473865E-07 -4.28222945E-01 -7.49247172E-02 -2.92061480E-07  2.92060509E-07
  1.09625380E+00  5.38857832E-01  2.20128751E-06 -2.20127952E-06  8.49666512E-03
  1.15404630E-07  1.52307783E-03 -1.47180025E-02 -1.15410517E-07 -1.80548444E-02
  1.16717640E-01 -4.16265550E-01 -2.45856891E-04 -1.60929990E-09  1.60927590E-09
 -1.80551365E-02  1.16719518E-01 -4.16272268E-01  2.45858109E-04  1.11759803E-09
 -1.11753630E-09  2.13037421E-02  3.48104270E-02  3.42793403E-02  2.05533321E-07
 -2.05532059E-07 -8.44913888E-02  7.93161560E-02  4.79956874E-07 -4.79954578E-07
 -4.29477898E-01  7.45147704E-02  4.41615782E-07 -4.41613794E-07  1.09686305E+00
 -5.36899594E-01 -3.25649803E-06  3.25649588E-06  8.48110676E-03  1.70055800E-07
  1.51491826E-03 -1.46910473E-02 -1.70064286E-07 -2.13033993E-02 -3.48098671E-02
  3.42787837E-02  1.38364663E-07 -1.38362878E-07  8.44900323E-02  7.93148795E-02
  3.24445667E-07 -3.24442526E-07  4.29470980E-01  7.45135480E-02  2.95600011E-07
 -2.95596649E-07 -1.09684543E+00 -5.36890943E-01 -2.20248127E-06  2.20247502E-06
 -8.48097105E-03 -1.15309326E-07 -1.51489368E-03  1.46908123E-02  1.15315393E-07
 -1.79852476E-02  1.16562328E-01 -4.14903213E-01 -2.34880616E-04 -1.55996562E-09
  1.56007722E-09  1.79849601E-02 -1.16560454E-01  4.14896561E-01 -2.34874099E-04
 -1.08457208E-09  1.08470681E-09 -5.40852919E-08 -8.64281144E-08 -7.06636951E-07
  7.07134558E-02 -7.07447337E-02  1.92062319E-07 -7.86782995E-07  7.09856731E-02
 -7.10170707E-02  1.26682284E-06 -2.76590972E-06  2.92113993E-01 -2.92243203E-01
 -1.37507792E-06  4.81384481E-06 -6.06435270E-01  6.06703517E-01 -4.51047036E-08
  5.87980540E-03  6.73773792E-08  7.80959993E-08 -5.87720579E-03  5.67231247E-08
  9.06478760E-08 -4.22501658E-07  7.07131963E-02 -7.07444749E-02 -2.01523265E-07
 -5.05430921E-07  7.09854127E-02 -7.10168109E-02 -1.32910686E-06 -1.58495898E-06
  2.92112922E-01 -2.92242134E-01  1.44222808E-06  2.31907228E-06 -6.06433046E-01
  6.06701298E-01  2.44045619E-08 -5.87978425E-03 -4.41109633E-08 -4.22526983E-08
  5.87718459E-03 -7.43364308E-08  4.54870906E-08 -6.73457234E-07 -1.97981700E-08
 -2.27969060E-04  2.28070006E-04  7.75701200E-08 -4.74386665E-08  7.07644538E-07
 -2.15714167E-08 -2.27967806E-04  2.28068753E-04  3.16397843E-08  5.05447199E-08
  7.67477130E-07 -7.07138788E-02  7.07451569E-02 -1.12026453E-07  8.15729282E-07
 -7.09954033E-02  7.10268052E-02 -7.39524560E-07  3.07901632E-06 -2.92094964E-01
  2.92224164E-01  8.04779309E-07 -5.84334388E-06  6.06441947E-01 -6.06710197E-01
  5.17997643E-08 -5.87970992E-03 -6.91458979E-08 -8.96906134E-08  5.87711035E-03
  1.97552254E-08  3.15464919E-08 -5.23022312E-07  7.07141373E-02 -7.07454163E-02
 -6.96777350E-08 -5.53303867E-07  7.09956629E-02 -7.10270657E-02 -4.61055192E-07
 -2.10239385E-06  2.92096032E-01 -2.92225237E-01  5.02571865E-07  4.01746531E-06
 -6.06444165E-01  6.06712423E-01  3.54511832E-08 -5.87973184E-03 -4.70335677E-08
 -6.13834126E-08  5.87713220E-03  4.46584955E-08 -2.79396747E-08  3.89429829E-07
  1.11839319E-08  2.27740790E-04 -2.27841635E-04  2.86453173E-08 -1.84971941E-08
  2.40919417E-07 -7.32863477E-09 -2.27741205E-04  2.27842052E-04  1.73736621E-02
  2.78054009E-02 -4.84001709E-02 -1.90198190E-07  1.90146694E-07 -6.25005693E-02
 -2.40081386E-02 -4.16579349E-08  4.16065184E-08 -4.04826641E-01 -2.47541069E-01
 -1.07425916E-06  1.07404637E-06  4.43197184E-01  8.06283656E-01  4.01665530E-06
 -4.01620977E-06 -5.25015448E-03 -1.10729329E-07  1.38036026E-03  9.09231376E-03
  1.10726265E-07  1.73736455E-02  2.78053745E-02  4.84001248E-02  8.50033802E-08
 -8.49463044E-08 -6.25005094E-02  2.40081141E-02 -1.59398669E-08  1.59968322E-08
 -4.04826257E-01  2.47540835E-01  5.46837587E-07 -5.46601978E-07  4.43196789E-01
 -8.06282859E-01 -2.34666823E-06  2.34617376E-06 -5.25014905E-03 -7.14749170E-08
  1.38035894E-03  9.09230432E-03  7.14747916E-08  2.30901360E-02 -1.28613817E-02
  2.12889943E-01  6.86213397E-03  4.14801857E-08 -4.14799763E-08  2.30901130E-02
 -1.28613670E-02  2.12889706E-01 -6.86212818E-03 -2.79871528E-08  2.79869016E-08
  1.73194064E-02  2.77315676E-02 -4.86974298E-02 -4.26319539E-08  4.24976132E-08
 -6.25280057E-02 -2.45418133E-02  1.06724196E-07 -1.06857536E-07 -4.02320232E-01
 -2.48353336E-01 -4.65938517E-07  4.65380653E-07  4.42810829E-01  8.06622087E-01
  2.73733966E-06 -2.73615954E-06 -5.25336372E-03 -9.83225725E-08  1.36808098E-03