Title Card Required                                                     
FOpt      UM062X                                                      6-311+G(d,p)        
Number of atoms                            I                4
Info1-9                                    I   N=           9
          14          14           0           0           0         110
           2          18        -502
Full Title                                 C   N=           2
Title Card Required     
Route                                      C   N=           8
#p opt UM062X/6-311+G** nosymm int=superfine SCF=(MaxCycle=2
00,NoVarAcc,noincfock) guess=read   
Charge                                     I                0
Multiplicity                               I                1
Number of electrons                        I               26
Number of alpha electrons                  I               13
Number of beta electrons                   I               13
Number of basis functions                  I               64
Number of independent functions            I               64
Number of point charges in /Mol/           I                0
Number of translation vectors              I                0
Atomic numbers                             I   N=           4
           8          16           1           1
Nuclear charges                            R   N=           4
  8.00000000E+00  1.60000000E+01  1.00000000E+00  1.00000000E+00
Current cartesian coordinates              R   N=          12
 -2.66641584E+00  0.00000000E+00  0.00000000E+00  2.66641584E+00  0.00000000E+00
  0.00000000E+00 -4.50440196E+00 -2.44622401E-03 -1.15096261E-03  5.21275388E+00
  1.08766607E-03 -2.61377201E-03
Number of symbols in /Mol/                 I                0
Force Field                                I                0
Atom Types                                 C   N=           4
                                                
Int Atom Types                             I   N=           4
           0           0           0           0
MM charges                                 R   N=           4
  0.00000000E+00  0.00000000E+00  0.00000000E+00  0.00000000E+00
Integer atomic weights                     I   N=           4
          16          32           1           1
Real atomic weights                        R   N=           4
  1.59949146E+01  3.19720718E+01  1.00782504E+00  1.00782504E+00
Atom fragment info                         I   N=           4
           0           0           0           0
Atom residue num                           I   N=           4
           0           0           0           0
Nuclear spins                              I   N=           4
           0           0           1           1
Nuclear ZEff                               R   N=           4
 -5.60000000E+00 -1.36000000E+01 -1.00000000E+00 -1.00000000E+00
Nuclear ZNuc                               R   N=           4
  8.00000000E+00  1.60000000E+01  1.00000000E+00  1.00000000E+00
Nuclear QMom                               R   N=           4
  0.00000000E+00  0.00000000E+00  0.00000000E+00  0.00000000E+00
Nuclear GFac                               R   N=           4
  0.00000000E+00  0.00000000E+00  2.79284600E+00  2.79284600E+00
MicOpt                                     I   N=           4
          -2          -2          -1          -1
Number of residues                         I                0
Number of secondary structures             I                0
Redundant internal dimensions              I   N=           4
          12           8           4           0
Redundant internal coordinate indices      I   N=          48
           1          -1           0           0           1          -2
           0           0           1          -3           0           0
           2          -1           0           0           2          -2
           0           0           2          -3           0           0
           1           3           0           0           2           4
           0           0           2           1           3          -5
           1           2           4          -5           2           1
           3          -7           1           2           4          -7
Redundant internal coordinates             R   N=          12
 -2.66641584E+00  0.00000000E+00  0.00000000E+00  2.66641584E+00  0.00000000E+00
  0.00000000E+00  1.83798810E+00  2.54633961E+00  3.14026173E+00  3.14116550E+00
  3.14221886E+00  3.14056617E+00
ZRed-IntVec                                I   N=          12
          -1          -1          -1          -1          -1          -1
           0           0           0           0           0           0
ZRed-FPVec                                 R   N=          12
  0.00000000E+00  0.00000000E+00  0.00000000E+00  0.00000000E+00  0.00000000E+00
  0.00000000E+00  0.00000000E+00  0.00000000E+00  0.00000000E+00  0.00000000E+00
  0.00000000E+00  0.00000000E+00
ZRed-Constraint1                           R   N=          12
 -2.66641584E+00  0.00000000E+00  0.00000000E+00  2.66641584E+00  0.00000000E+00
  0.00000000E+00  1.83597177E+00  2.59721753E+00  3.14071774E+00  3.14233270E+00
  3.14159265E+00  3.14158686E+00
ZRed-Constraint2                           R   N=          12
 -2.66641584E+00  0.00000000E+00  0.00000000E+00  2.66641584E+00  0.00000000E+00
  0.00000000E+00  0.00000000E+00  0.00000000E+00  0.00000000E+00  0.00000000E+00
  0.00000000E+00  0.00000000E+00
Number of contracted shells                I               27
Number of primitive shells                 I               49
Pure/Cartesian d shells                    I                0
Pure/Cartesian f shells                    I                0
Highest angular momentum                   I                2
Largest degree of contraction              I                6
Shell types                                I   N=          27
           0          -1          -1          -1          -1          -2
           0           0           0           0           0           0
          -1           1           1           1           1           1
          -2           0           0           0           1           0
           0           0           1
Number of primitives per shell             I   N=          27
           6           3           1           1           1           1
           6           3           1           1           1           1
           1           4           2           1           1           1
           1           3           1           1           1           3
           1           1           1
Shell to atom map                          I   N=          27
           1           1           1           1           1           1
           2           2           2           2           2           2
           2           2           2           2           2           2
           2           3           3           3           3           4
           4           4           4
Primitive exponents                        R   N=          49
  8.58850000E+03  1.29723000E+03  2.99296000E+02  8.73771000E+01  2.56789000E+01
  3.74004000E+00  4.21175000E+01  9.62837000E+00  2.85332000E+00  9.05661000E-01
  2.55611000E-01  8.45000000E-02  1.29200000E+00  9.34134000E+04  1.39617000E+04
  3.16991000E+03  9.02456000E+02  2.97158000E+02  1.08702000E+02  1.08702000E+02
  4.31553000E+01  1.81079000E+01  5.56009000E+00  2.13183000E+00  4.20403000E-01
  1.36045000E-01  4.05000000E-02  4.95040000E+02  1.17221000E+02  3.77749000E+01
  1.40584000E+01  5.56574000E+00  2.26297000E+00  8.07994000E-01  2.77460000E-01
  7.71410000E-02  6.50000000E-01  3.38650000E+01  5.09479000E+00  1.15879000E+00
  3.25840000E-01  1.02741000E-01  7.50000000E-01  3.38650000E+01  5.09479000E+00
  1.15879000E+00  3.25840000E-01  1.02741000E-01  7.50000000E-01
Contraction coefficients                   R   N=          49
  1.89515008E-03  1.43859006E-02  7.07320031E-02  2.40001011E-01  5.94797026E-01
  2.80802012E-01  1.13889012E-01  9.20811101E-01 -3.27447036E-03  1.00000000E+00
  1.00000000E+00  1.00000000E+00  1.00000000E+00  7.42999957E-04  5.79299966E-03
  2.99539983E-02  1.19027993E-01  3.68431979E-01  5.77298966E-01  1.43186060E-01
  6.24465262E-01  2.83366119E-01  1.00000000E+00  1.00000000E+00  1.00000000E+00
  1.00000000E+00  1.00000000E+00  8.30900251E-03  6.40240194E-02  2.77614084E-01
  7.45076225E-01  6.13711672E-01  4.43817763E-01  1.00000000E+00  1.00000000E+00
  1.00000000E+00  1.00000000E+00  2.54938145E-02  1.90373109E-01  8.52161486E-01
  1.00000000E+00  1.00000000E+00  1.00000000E+00  2.54938145E-02  1.90373109E-01
  8.52161486E-01  1.00000000E+00  1.00000000E+00  1.00000000E+00
P(S=P) Contraction coefficients            R   N=          49
  0.00000000E+00  0.00000000E+00  0.00000000E+00  0.00000000E+00  0.00000000E+00
  0.00000000E+00  3.65113974E-02  2.37152983E-01  8.19701941E-01  1.00000000E+00
  1.00000000E+00  1.00000000E+00  0.00000000E+00  0.00000000E+00  0.00000000E+00
  0.00000000E+00  0.00000000E+00  0.00000000E+00  0.00000000E+00  0.00000000E+00
  0.00000000E+00  0.00000000E+00  0.00000000E+00  0.00000000E+00  0.00000000E+00
  0.00000000E+00  1.00000000E+00  0.00000000E+00  0.00000000E+00  0.00000000E+00
  0.00000000E+00  0.00000000E+00  0.00000000E+00  0.00000000E+00  0.00000000E+00
  0.00000000E+00  0.00000000E+00  0.00000000E+00  0.00000000E+00  0.00000000E+00
  0.00000000E+00  0.00000000E+00  0.00000000E+00  0.00000000E+00  0.00000000E+00
  0.00000000E+00  0.00000000E+00  0.00000000E+00  0.00000000E+00
Coordinates of each shell                  R   N=          81
 -2.66641584E+00  0.00000000E+00  0.00000000E+00 -2.66641584E+00  0.00000000E+00
  0.00000000E+00 -2.66641584E+00  0.00000000E+00  0.00000000E+00 -2.66641584E+00
  0.00000000E+00  0.00000000E+00 -2.66641584E+00  0.00000000E+00  0.00000000E+00
 -2.66641584E+00  0.00000000E+00  0.00000000E+00  2.66641584E+00  0.00000000E+00
  0.00000000E+00  2.66641584E+00  0.00000000E+00  0.00000000E+00  2.66641584E+00
  0.00000000E+00  0.00000000E+00  2.66641584E+00  0.00000000E+00  0.00000000E+00
  2.66641584E+00  0.00000000E+00  0.00000000E+00  2.66641584E+00  0.00000000E+00
  0.00000000E+00  2.66641584E+00  0.00000000E+00  0.00000000E+00  2.66641584E+00
  0.00000000E+00  0.00000000E+00  2.66641584E+00  0.00000000E+00  0.00000000E+00
  2.66641584E+00  0.00000000E+00  0.00000000E+00  2.66641584E+00  0.00000000E+00
  0.00000000E+00  2.66641584E+00  0.00000000E+00  0.00000000E+00  2.66641584E+00
  0.00000000E+00  0.00000000E+00 -4.50440196E+00 -2.44622401E-03 -1.15096261E-03
 -4.50440196E+00 -2.44622401E-03 -1.15096261E-03 -4.50440196E+00 -2.44622401E-03
 -1.15096261E-03 -4.50440196E+00 -2.44622401E-03 -1.15096261E-03  5.21275388E+00
  1.08766607E-03 -2.61377201E-03  5.21275388E+00  1.08766607E-03 -2.61377201E-03
  5.21275388E+00  1.08766607E-03 -2.61377201E-03  5.21275388E+00  1.08766607E-03
 -2.61377201E-03
Num ILSW                                   I              100
ILSW                                       I   N=         100
           1           0           0           1           2           0
           0           0           0           0        4336          -1
           7           0           0           0           2           0
           0           0           0           0           1           0
           1           1           0           0           0           0
           0           0      100000           0          -1           0
           0           0           0           0           0           0
           0           0           0           1           0           0
           0 -2000000000           1           0           0           0
           0           0           4          52           0           0
           0           0          55           0           0           0
           0           0           0           4           0           1
           0           0           0           0           0           0
           0           0           0           0           0           0
           0           0           0           0           0           0
           0           0           0           0           0           0
           0           0           0           0
Num RLSW                                   I               52
RLSW                                       R   N=          52
  1.00000000E+00  1.00000000E+00  1.00000000E+00  1.00000000E+00  5.40000000E-01
  0.00000000E+00  0.00000000E+00  1.00000000E+00  0.00000000E+00  0.00000000E+00
  0.00000000E+00  0.00000000E+00  1.00000000E+00  0.00000000E+00  0.00000000E+00
  0.00000000E+00  0.00000000E+00  1.00000000E+00  0.00000000E+00  0.00000000E+00
  0.00000000E+00  0.00000000E+00  1.00000000E+00  0.00000000E+00  0.00000000E+00
  0.00000000E+00  0.00000000E+00  1.00000000E+00  0.00000000E+00  0.00000000E+00
  0.00000000E+00  0.00000000E+00  1.00000000E+00  0.00000000E+00  0.00000000E+00
  0.00000000E+00  0.00000000E+00  0.00000000E+00  1.00000000E+00  1.00000000E+00
  0.00000000E+00  1.00000000E+00  0.00000000E+00  0.00000000E+00  0.00000000E+00
  0.00000000E+00  0.00000000E+00  0.00000000E+00  0.00000000E+00  0.00000000E+00
  0.00000000E+00  0.00000000E+00
MxBond                                     I                2
NBond                                      I   N=           4
           2           2           1           1
IBond                                      I   N=           8
           2           3           1           4           1           0
           2           0
RBond                                      R   N=           8
  1.00000000E-01  1.00000000E+00  1.00000000E-01  1.00000000E+00  1.00000000E+00
  0.00000000E+00  1.00000000E+00  0.00000000E+00
Virial Ratio                               R      2.001233176096627E+00
SCF Energy                                 R     -4.744558397483677E+02
Total Energy                               R     -4.744558397483677E+02
S**2                                       R      1.000399691967369E+00
S**2 after annihilation                    R      4.401355825638428E-02
RMS Force                                  R      1.409319792436450E-06
RMS Density                                R      7.474708991692932E-09
Job Status                                 I                1
Nuclear derivative order                   I                1
External E-field                           R   N=          35
  0.00000000E+00  0.00000000E+00  0.00000000E+00  0.00000000E+00  0.00000000E+00
  0.00000000E+00  0.00000000E+00  0.00000000E+00  0.00000000E+00  0.00000000E+00
  0.00000000E+00  0.00000000E+00  0.00000000E+00  0.00000000E+00  0.00000000E+00
  0.00000000E+00  0.00000000E+00  0.00000000E+00  0.00000000E+00  0.00000000E+00
  0.00000000E+00  0.00000000E+00  0.00000000E+00  0.00000000E+00  0.00000000E+00
  0.00000000E+00  0.00000000E+00  0.00000000E+00  0.00000000E+00  0.00000000E+00
  0.00000000E+00  0.00000000E+00  0.00000000E+00  0.00000000E+00  0.00000000E+00
IOpCl                                      I                1
IROHF                                      I                0
Alpha Orbital Energies                     R   N=          64
 -8.99126177E+01 -1.96795966E+01 -8.27358922E+00 -6.20540297E+00 -6.19292350E+00
 -6.18724589E+00 -1.06614861E+00 -8.09263381E-01 -5.44551445E-01 -4.48217187E-01
 -4.06518697E-01 -3.61045725E-01 -3.19036188E-01 -1.09082583E-01  3.58465490E-02
  4.81178241E-02  6.56543253E-02  6.82036811E-02  8.75897081E-02  1.34802136E-01
  1.89556125E-01  1.92306685E-01  2.20551440E-01  3.28508166E-01  3.58540095E-01
  3.66835710E-01  4.09074453E-01  4.39071374E-01  5.35842572E-01  6.62888790E-01
  7.30953993E-01  7.61134296E-01  8.07336852E-01  8.08606479E-01  9.40856947E-01
  1.06736885E+00  1.06798466E+00  1.10793645E+00  1.37146584E+00  1.37642667E+00
  1.45482196E+00  1.47867367E+00  1.49270622E+00  1.66360558E+00  1.70331141E+00
  1.73922245E+00  2.05473496E+00  2.12563346E+00  2.46207452E+00  2.56313830E+00
  2.87668556E+00  2.91281177E+00  3.15232780E+00  3.16534066E+00  3.85230364E+00
  5.02384042E+00  5.04506069E+00  5.55088801E+00  7.90485896E+00  1.74445435E+01
  1.74672739E+01  1.75445053E+01  4.98779492E+01  1.89173928E+02
Beta Orbital Energies                      R   N=          64
 -8.99034950E+01 -1.96956211E+01 -8.27121261E+00 -6.19003376E+00 -6.18416520E+00
 -6.18134581E+00 -1.14909379E+00 -7.60141776E-01 -5.74420570E-01 -5.07029104E-01
 -4.42993747E-01 -4.33991793E-01 -2.98384976E-01 -1.19405442E-01  2.64861995E-02
  4.60630152E-02  6.48923553E-02  6.79387459E-02  8.08088139E-02  1.34537458E-01
  1.76972078E-01  1.87349884E-01  2.28761779E-01  3.28402832E-01  3.36177569E-01
  3.63142498E-01  3.99863534E-01  4.36978858E-01  5.25543043E-01  6.77221224E-01
  7.80000737E-01  7.82250048E-01  8.60119710E-01  8.82983471E-01  9.47451156E-01
  1.01358043E+00  1.05698633E+00  1.12021596E+00  1.35780565E+00  1.37162781E+00
  1.43295005E+00  1.49782328E+00  1.50056678E+00  1.71674063E+00  1.73307564E+00
  1.75412832E+00  2.03908996E+00  2.14194071E+00  2.46231657E+00  2.57068872E+00
  2.81761642E+00  2.81765837E+00  3.10197399E+00  3.14728936E+00  3.81331280E+00
  4.94239691E+00  5.01007093E+00  5.52794130E+00  7.91574795E+00  1.74777751E+01
  1.74992037E+01  1.75569052E+01  4.98825585E+01  1.89188801E+02
Alpha MO coefficients                      R   N=        4096
 -7.81183193E-07  4.02723055E-06  2.97029677E-06 -3.88756642E-09  5.32052340E-10
 -1.88608010E-05 -7.88907880E-06  1.75317191E-08  4.20322604E-10  2.17857751E-06
  3.47310924E-05 -7.92069420E-09  1.68604027E-08 -4.12056277E-04  2.85545592E-04
  3.40663072E-07  1.04533015E-07  1.30281685E-06 -9.47293386E-09  6.40343648E-09
 -2.27039915E-06 -1.84556935E-08  4.10743690E-01  6.54421194E-01  1.54401184E-02
 -4.40842778E-03  1.65767950E-03 -1.00115306E-03  1.73010194E-04 -1.17611291E-04
 -1.10811570E-08  2.87060617E-09  8.40786918E-05  3.87347224E-08 -9.25322732E-08
 -2.69024984E-05 -9.23725717E-09  3.00807561E-08 -7.43011653E-06 -1.40115439E-08
  3.54303130E-09  1.78416434E-04  1.06808187E-07 -1.81224206E-07 -2.51237879E-05
 -1.46324113E-07  1.40362430E-07 -4.59668976E-05 -1.69704257E-07 -1.67794112E-07
  7.99796182E-05  8.10460626E-08 -2.58970978E-06  2.37078671E-05  4.43472080E-04
  1.74698377E-05  5.06823333E-08  2.82885494E-08  3.80429120E-05 -2.58613657E-04
  2.90380613E-04  1.75200726E-04  8.29477441E-08 -1.83323819E-07  5.52792248E-01
  4.69790686E-01 -1.33098966E-03 -1.71459948E-06 -8.78185748E-07  8.09471966E-03
  2.52627625E-04  1.85084509E-07  1.68758460E-07 -3.60131010E-03 -6.26176688E-04
 -4.46016422E-07 -3.78693185E-07  1.62259230E-03  2.06001598E-03  1.17519641E-06
  9.17725813E-07 -2.52152739E-04  2.12563473E-07  1.23145298E-04  1.70421085E-04
  3.59762087E-07 -2.15717612E-07  3.16771844E-06 -2.63000088E-05  5.97236510E-05
 -1.27991138E-04  3.90752842E-04 -5.92397082E-04  4.51568847E-04 -3.29968810E-08
 -1.75643253E-07  3.27499339E-06 -1.06618243E-09 -2.06754043E-09 -1.58780563E-05
  4.48848681E-09  8.65199511E-09  4.75047761E-05 -1.82534691E-08 -3.80415731E-08
 -4.14909175E-05  4.93773392E-08  9.65572141E-08  1.46190583E-03  8.82733329E-08
 -8.38288247E-07  1.52784357E-05 -4.57899295E-08 -1.54845732E-07 -2.61277534E-05
  5.62841860E-08  8.41247474E-05 -3.04793987E-04  1.55797925E-03 -4.70748633E-04
 -5.01791741E-07 -2.59440425E-07 -2.79768825E-05  1.48641915E-04 -1.35474379E-03
  1.49144355E-05  6.64923013E-08 -1.02050808E-07  5.57934964E-06  3.35082970E-05
  1.47354418E-05 -3.01817427E-08  5.66360608E-09 -2.64501998E-04 -6.62252053E-05
  1.65138103E-07 -1.34790423E-08  2.80034937E-04  3.29643231E-04 -2.11019497E-07
  1.71888188E-07 -5.81095854E-03  3.90259183E-03  4.66018812E-06  1.43390473E-06
  2.60014679E-07 -7.70811567E-08 -2.71171137E-07  1.36351690E-07 -1.45405061E-07
 -1.19788527E-01 -3.20542967E-01  5.16313946E-01  5.98476166E-01  4.36171969E-02
 -1.61209814E-02  2.91324062E-03 -1.74739931E-03 -2.22159580E-07  1.27896704E-07
  2.11867683E-03  1.06451796E-06 -2.44899965E-06  4.73420952E-03  2.36868479E-06
 -5.34226910E-06  5.23143444E-04  1.50197874E-07 -6.52722791E-07  1.78728494E-03
  1.13388851E-06 -1.81256166E-06 -7.35448107E-05 -1.82452079E-06  1.64759331E-06
 -2.62764118E-04 -1.54177883E-06 -3.11359498E-04  1.12743801E-03  7.87182141E-07
 -1.18796189E-05  1.07842304E-04  6.10659062E-03  1.52009365E-04  5.35274394E-07
  3.02421523E-07  2.89887756E-04 -2.62090191E-03  3.72278294E-03  1.69161548E-03
  8.21211270E-07 -1.77844933E-06 -2.02201771E-09 -2.81360155E-09 -5.46089317E-08
  3.52311643E-06 -8.99052295E-06 -1.09324376E-07  1.70580355E-07 -1.64634380E-05
  4.20049132E-05  1.24352652E-06 -7.65785933E-07  6.54537476E-05 -1.67011147E-04
 -7.16926485E-07  8.85800186E-07 -4.47682016E-05  1.14227035E-04 -6.01669652E-08
 -1.01095829E-05  7.86540930E-09  1.20169076E-07  3.96234933E-06 -4.49042848E-08
 -1.20909111E-07  1.17605575E-07  3.83727135E-07 -8.39105355E-08  2.34547068E-07
  8.12079831E-08 -3.17375368E-06  9.20576749E-04 -2.34888704E-03  4.45470169E-04
 -1.38645712E-01  3.53750579E-01  8.30933687E-04 -2.58589159E-01  6.59782967E-01
  6.33302273E-05 -1.96635497E-02  5.01710742E-02 -9.61485337E-06  2.91140966E-03
 -7.42855143E-03  6.54117166E-06 -1.72271982E-03  4.39558429E-03 -8.88091884E-07
  4.59825321E-04  4.34156797E-07  6.51567750E-07 -1.80259271E-04  7.19387309E-08
 -1.03284344E-06  7.54571157E-07 -3.07004088E-07 -1.22348701E-05  3.12168577E-05
  2.48295096E-08  1.29022737E-07 -7.72615473E-07  1.19195514E-07 -3.49948000E-05
  8.93079243E-05 -3.04449320E-06 -1.10963807E-05 -5.24662068E-05  1.42961541E-08
 -6.98301634E-10  2.01269328E-05  1.78852202E-04 -8.19128886E-08 -8.17272862E-09
  4.75961536E-04 -6.94817055E-04 -6.25806454E-07 -3.38187667E-07 -7.26139468E-04
  2.36462288E-03  1.38545906E-06  1.13541283E-06 -4.65352097E-05  1.08575025E-07
 -2.64346564E-08  8.06586135E-05  1.91233508E-07  8.21939821E-04  2.22165838E-03
 -3.88855458E-03 -4.08233915E-03  8.37222156E-04  5.12609301E-04  2.81910341E-04
 -2.27779889E-03 -9.58191132E-07  2.04015182E-06  3.79413328E-01  1.71229826E-04
 -4.10771350E-04  7.08672121E-01  3.19802804E-04 -7.67164952E-04  5.45964729E-02
  2.45573499E-05 -5.89704512E-05 -7.56723644E-03 -3.25435065E-06  7.94467952E-06
  6.86540656E-03  2.23035195E-06 -5.95789849E-06 -3.93940650E-04 -1.60112169E-06
 -1.31548321E-06  6.85055090E-04  7.17589639E-07  7.51598704E-05 -8.43409349E-04
  2.29947526E-03 -1.82433019E-04 -9.02214511E-08 -1.13649865E-07  5.27329154E-04
  2.75370880E-04 -2.79710668E-03  6.70991453E-04  3.34841082E-07 -7.52185644E-07
  7.53035092E-10  4.30189656E-09  2.00971178E-08 -6.82942651E-06 -2.67727860E-06
 -7.35918374E-08 -1.06051796E-07  3.79078644E-05  1.48569289E-05  4.79656129E-07
  2.99983875E-08 -1.45458208E-04 -5.70117611E-05  1.39820446E-06 -2.06957864E-06
  1.02263822E-04  4.00803414E-05 -2.59528342E-08 -3.35907255E-06  6.84543938E-09
  3.13094462E-08 -8.56987462E-06  1.88071101E-08  5.33942775E-08 -1.14190723E-07
 -3.21730064E-08 -1.31711142E-07  1.18599102E-07  9.89039332E-08  3.18447712E-07
 -2.05332637E-03 -8.04785524E-04 -9.55162033E-06  3.54006634E-01  1.38746046E-01
 -1.78038960E-05  6.60122415E-01  2.58722240E-01 -1.33959366E-06  4.87787688E-02
  1.91179288E-02  2.47941412E-07 -6.59374894E-03 -2.58436018E-03 -1.51690380E-06
  3.85514659E-03  1.51099506E-03 -3.82388580E-07  1.83636515E-04 -4.40296560E-07
 -2.31113803E-07  4.68643409E-04 -1.61411729E-08 -1.53170550E-07 -2.67266626E-06
 -1.88474378E-07  2.70168451E-05  1.05891547E-05 -6.49632960E-09 -1.43515263E-08
  8.23604901E-07 -8.19334764E-09  8.49464597E-05  3.33009502E-05 -1.17319941E-01
 -1.91687451E-01 -4.91703206E-02 -6.67281054E-05 -3.15327755E-05  5.60144102E-01
 -7.75098519E-02 -1.03337590E-04 -4.95414225E-05  4.13600289E-01 -1.67032093E-02
 -3.06328002E-05 -1.30841521E-05  6.20903356E-03 -3.54588982E-02 -2.29070979E-05
 -1.59314901E-05 -9.51284905E-03  1.35826051E-05  2.56988832E-03  1.09182454E-02
  2.70259467E-05  5.07264104E-04  1.43071765E-03 -2.90988374E-03 -5.67461271E-03
  9.44632681E-03  3.15151756E-03  7.08089258E-03 -4.65218667E-03  4.52304773E-08
  1.83721797E-06  6.55052361E-04 -5.20468820E-08  1.77017445E-07  1.25896291E-03
 -1.25790622E-07  3.19620252E-07 -1.23372645E-03  3.22430789E-07 -2.71648829E-07
 -4.45542541E-03 -4.79988557E-07 -1.67126676E-06 -2.34801054E-02 -4.87859015E-07
  1.31930569E-05 -5.67950745E-04  1.04563751E-06 -1.98633201E-04  1.41278544E-03
 -5.72924340E-07  1.17883976E-01  1.14425801E-01 -3.18706626E-02  2.96258967E-02
  3.89966584E-05  1.83345021E-05  5.69929394E-04 -2.02411653E-04  1.91040274E-02
 -3.73327649E-04 -6.31476584E-07  1.02412889E-06  1.50707210E-03  2.45132796E-03
  9.22940186E-03  4.87588784E-06  2.15443428E-06 -6.93878415E-03  1.33754189E-02
  6.87196171E-06  3.16156119E-06 -6.59416781E-03  7.99821177E-03  3.99502125E-06
  1.51588306E-06  2.12565359E-02 -1.30434992E-02 -1.50202013E-05 -7.53565204E-06
  3.36812792E-04 -8.55493798E-07 -3.55883645E-05 -5.06425637E-04 -1.65295069E-06
  3.33403445E-02  9.46039271E-02 -1.97276835E-01 -3.70724443E-01  6.63588413E-01
  4.22507856E-01 -7.17917236E-03  6.50464296E-03  7.64882251E-07  1.33712973E-06
 -1.61880296E-02 -7.34616417E-06  1.75529855E-05 -3.25444112E-02 -1.48657229E-05
  3.54530121E-05  4.45395218E-02  2.10063021E-05 -4.98658372E-05  6.34500989E-02
  2.81320949E-05 -6.80777284E-05  7.19882086E-03  8.21910942E-06 -1.43481107E-05
  3.71862892E-03 -9.50664974E-06 -1.26147331E-02  2.07989833E-02  4.51960649E-06
 -7.48458824E-03 -7.37850724E-03 -2.22599904E-02 -1.53698891E-03 -3.06227036E-06
 -1.38392945E-06  9.64022624E-02  1.22842024E-01  1.03373634E-03 -2.07710767E-02
 -8.97148852E-06  2.14003345E-05 -3.83665627E-02 -6.37267257E-02  2.35970307E-01
  2.90868743E-04  1.39445467E-04  1.92608410E-01  3.39021800E-01  4.18863446E-04
  2.00572456E-04  2.73601316E-01  2.45441103E-01  2.89427033E-04  1.40534358E-04
  6.25396644E-02  1.03816646E-02  1.95162879E-05  5.70243954E-06  7.80846370E-03
 -1.87452624E-05  4.20479351E-04 -1.44346782E-02 -3.92094475E-05  8.51543589E-04
  2.42035461E-03 -5.10584158E-03 -1.00250388E-02  1.72173418E-02  3.02855623E-02
  5.29015694E-03  5.12624012E-03  2.70357732E-06  4.08050103E-06  2.26899867E-02
  2.31324669E-06 -1.06942998E-05  4.44968165E-02  4.71166556E-06 -2.09335279E-05
 -6.27838288E-02 -7.34729251E-06  2.91231731E-05 -1.12431885E-01 -3.97045584E-06
  4.52429016E-05 -3.84119631E-02 -2.37812168E-06  5.49961187E-06  4.23468678E-03
  2.38794840E-05 -7.72220846E-04 -5.66634120E-03 -1.21883216E-05 -1.60174040E-01
 -2.38308447E-01 -9.36132617E-02 -2.62848827E-02 -3.66608537E-05 -1.67260662E-05
 -4.12714579E-02 -6.73127089E-02 -1.78492167E-02  7.19783223E-03  3.54886740E-06
 -8.24304124E-06 -1.70396868E-02 -2.84349797E-02  7.26899984E-02  3.30154437E-04
  1.37093238E-04  8.88916580E-02  1.02734287E-01  4.80882991E-04  2.00708269E-04
  1.08717279E-01  7.51642306E-02  4.13865652E-04  1.63569007E-04  3.21947840E-02
  6.49357780E-02  1.03600174E-04  6.78587437E-05  3.30672179E-03 -1.07770583E-05
  1.63588907E-04 -6.08138013E-03 -2.34277232E-05 -1.22936399E-02 -3.50709830E-02
  7.48919999E-02  1.39527646E-01 -2.55572879E-01 -3.02168648E-01 -4.23136342E-02
 -2.08205711E-02 -7.46083661E-06  1.68998993E-05 -7.84995212E-02 -4.18854087E-05
  8.78325007E-05 -1.53802167E-01 -8.15797849E-05  1.71798529E-04  2.25355762E-01
  1.16867985E-04 -2.49783382E-04  3.79051524E-01  2.17390336E-04 -4.36015978E-04
  1.56959879E-01  6.00790370E-05 -1.50073362E-04 -3.72431511E-02 -1.15013938E-04
  7.70642415E-03  4.78632377E-02  4.46509330E-05 -5.01143482E-02 -8.40497334E-02
  1.19116326E-02 -6.55245790E-03  1.87499882E-05  6.71079510E-06  1.53488114E-01
  2.89724110E-01  1.14840735E-01 -2.48307292E-02 -9.42836136E-06  2.45953991E-05
  1.11927629E-05  1.89921077E-05 -4.82150399E-04  2.79172130E-01  1.09285010E-01
 -6.58646752E-05 -7.04993396E-04  4.08362912E-01  1.59858378E-01 -2.04941133E-05
 -6.29921166E-04  3.81356247E-01  1.49284204E-01  8.35672543E-05 -5.16949188E-04
  8.64470858E-02  3.38405506E-02 -8.41824283E-06 -5.34975567E-03 -1.65023124E-05
  4.46471772E-05 -1.36654253E-02  1.44760053E-05  4.14106624E-05 -8.94019115E-05
 -1.61466365E-04  2.88905350E-04  3.60753235E-04  7.31625197E-05  7.60116303E-05
  1.48900760E-04  6.15661271E-05  7.05828516E-05 -6.97900341E-03 -2.72879312E-03
  1.38761400E-04 -1.33551354E-02 -5.22171115E-03 -2.10662167E-04  1.82043342E-02
  7.11704930E-03 -3.11562731E-04  4.35242880E-02  1.70188710E-02 -4.65670682E-04
  1.15530687E-02  4.51241213E-03  4.40912763E-05 -9.29293693E-04 -1.05900171E-05
 -5.92715040E-05 -2.37278847E-03  2.92358611E-05  6.68696501E-05 -3.64193634E-04
 -5.23440480E-05  3.36897078E-02  1.31883112E-02 -1.48411841E-04 -3.09220567E-04
  5.94770524E-05  2.40334926E-05  1.04808203E-03  4.09805039E-04 -1.64895873E-05
 -2.78631744E-05  5.23479609E-05 -3.47564541E-03  8.93646832E-03  9.34169776E-05
  7.69101025E-05 -4.85054079E-03  1.24761731E-02  7.59240043E-05  3.25502456E-05
 -6.01575496E-03  1.54446079E-02 -7.86356716E-06  3.07456580E-04  7.91969345E-05
 -1.71454924E-04  2.63813074E-06  4.31725008E-04 -3.53615574E-07 -5.87201269E-06
 -1.70524354E-04 -1.42467269E-06 -4.07263815E-06  8.75148570E-06  1.66026460E-05
 -3.36098964E-05  1.03983561E-06 -4.67544381E-05 -7.87596573E-05  2.24430392E-02
 -5.72582463E-02 -1.19503660E-04  3.77860112E-02 -9.64088021E-02 -2.33749792E-04
  7.36200051E-02 -1.87836874E-01  3.48541337E-04 -1.07860168E-01  2.75196770E-01
  6.72987852E-04 -2.23304031E-01  5.69750735E-01  6.26728281E-04 -1.17236701E-01
  2.99119692E-01 -4.11953546E-05  1.87376987E-02  1.87149786E-05  3.35138326E-05
 -7.34571161E-03 -3.79591204E-05 -8.94215509E-05  2.45988100E-04 -3.53431190E-06
 -2.48319923E-04  6.41929029E-04  1.33242485E-05  4.65054976E-05 -1.70049928E-04
  1.74674507E-05 -6.78794203E-03  1.73187941E-02  2.11981531E-06  3.58916593E-06
  3.40470629E-05 -2.82213607E-02 -1.10410039E-02 -1.07857553E-05  4.84212821E-05