Title Card Required                                                     
Force     UM062X                                                      6-311+G(d,p)        
Number of atoms                            I                6
Info1-9                                    I   N=           9
          15          15           0           0           0         100
           5          18        -502
Full Title                                 C   N=           2
Title Card Required     
Route                                      C   N=           4
#p UM062X/6-311+G** force int=superfine         
Charge                                     I                1
Multiplicity                               I                2
Number of electrons                        I               15
Number of alpha electrons                  I                8
Number of beta electrons                   I                7
Number of basis functions                  I               68
Number of independent functions            I               68
Number of point charges in /Mol/           I                0
Number of translation vectors              I                0
Atomic numbers                             I   N=           6
           6           6           1           1           1           1
Nuclear charges                            R   N=           6
  6.00000000E+00  6.00000000E+00  1.00000000E+00  1.00000000E+00  1.00000000E+00
  1.00000000E+00
Current cartesian coordinates              R   N=          18
  1.18107883E-07  1.80337320E+00  7.39557099E-32 -1.18107883E-07 -1.80337320E+00
  0.00000000E+00  1.84075399E+00  2.70459682E+00  9.86076132E-32 -1.84057234E+00
  2.70467241E+00  9.86076132E-32 -1.84075399E+00 -2.70459682E+00  0.00000000E+00
  1.84057234E+00 -2.70467241E+00  0.00000000E+00
Number of symbols in /Mol/                 I                0
Force Field                                I                0
Atom Types                                 C   N=           6
                                                            
            
Int Atom Types                             I   N=           6
           0           0           0           0           0           0
MM charges                                 R   N=           6
  0.00000000E+00  0.00000000E+00  0.00000000E+00  0.00000000E+00  0.00000000E+00
  0.00000000E+00
Integer atomic weights                     I   N=           6
          12          12           1           1           1           1
Real atomic weights                        R   N=           6
  1.20000000E+01  1.20000000E+01  1.00782504E+00  1.00782504E+00  1.00782504E+00
  1.00782504E+00
Atom fragment info                         I   N=           6
           0           0           0           0           0           0
Atom residue num                           I   N=           6
           0           0           0           0           0           0
Nuclear spins                              I   N=           6
           0           0           1           1           1           1
Nuclear ZEff                               R   N=           6
 -3.60000000E+00 -3.60000000E+00 -1.00000000E+00 -1.00000000E+00 -1.00000000E+00
 -1.00000000E+00
Nuclear ZNuc                               R   N=           6
  6.00000000E+00  6.00000000E+00  1.00000000E+00  1.00000000E+00  1.00000000E+00
  1.00000000E+00
Nuclear QMom                               R   N=           6
  0.00000000E+00  0.00000000E+00  0.00000000E+00  0.00000000E+00  0.00000000E+00
  0.00000000E+00
Nuclear GFac                               R   N=           6
  0.00000000E+00  0.00000000E+00  2.79284600E+00  2.79284600E+00  2.79284600E+00
  2.79284600E+00
MicOpt                                     I   N=           6
          -1          -1          -1          -1          -1          -1
Number of residues                         I                0
Number of secondary structures             I                0
SymInf integers                            I   N=          26
           2           4           1           1           1          -1
          -1           1           1           1          -1          -1
          -1          -1           0           0           0           0
           0           0           0           0           0           0
           0           0
RotTr to input orientation                 R   N=          12
  5.93536965E-17 -1.00000000E+00 -1.58447397E-21 -1.00000000E+00 -5.93528888E-17
 -1.22464680E-16  1.22464680E-16  1.58447397E-21 -1.00000000E+00  2.77555756E-17
  1.18107883E-07  0.00000000E+00
Number of contracted shells                I               28
Number of primitive shells                 I               50
Pure/Cartesian d shells                    I                0
Pure/Cartesian f shells                    I                0
Highest angular momentum                   I                2
Largest degree of contraction              I                6
Shell types                                I   N=          28
           0          -1          -1          -1          -1          -2
           0          -1          -1          -1          -1          -2
           0           0           0           1           0           0
           0           1           0           0           0           1
           0           0           0           1
Number of primitives per shell             I   N=          28
           6           3           1           1           1           1
           6           3           1           1           1           1
           3           1           1           1           3           1
           1           1           3           1           1           1
           3           1           1           1
Shell to atom map                          I   N=          28
           1           1           1           1           1           1
           2           2           2           2           2           2
           3           3           3           3           4           4
           4           4           5           5           5           5
           6           6           6           6
Primitive exponents                        R   N=          50
  4.56324000E+03  6.82024000E+02  1.54973000E+02  4.44553000E+01  1.30290000E+01
  1.82773000E+00  2.09642000E+01  4.80331000E+00  1.45933000E+00  4.83456000E-01
  1.45585000E-01  4.38000000E-02  6.26000000E-01  4.56324000E+03  6.82024000E+02
  1.54973000E+02  4.44553000E+01  1.30290000E+01  1.82773000E+00  2.09642000E+01
  4.80331000E+00  1.45933000E+00  4.83456000E-01  1.45585000E-01  4.38000000E-02
  6.26000000E-01  3.38650000E+01  5.09479000E+00  1.15879000E+00  3.25840000E-01
  1.02741000E-01  7.50000000E-01  3.38650000E+01  5.09479000E+00  1.15879000E+00
  3.25840000E-01  1.02741000E-01  7.50000000E-01  3.38650000E+01  5.09479000E+00
  1.15879000E+00  3.25840000E-01  1.02741000E-01  7.50000000E-01  3.38650000E+01
  5.09479000E+00  1.15879000E+00  3.25840000E-01  1.02741000E-01  7.50000000E-01
Contraction coefficients                   R   N=          50
  1.96665025E-03  1.52306019E-02  7.61269097E-02  2.60801033E-01  6.16462078E-01
  2.21006028E-01  1.14660081E-01  9.19999648E-01 -3.03068213E-03  1.00000000E+00
  1.00000000E+00  1.00000000E+00  1.00000000E+00  1.96665025E-03  1.52306019E-02
  7.61269097E-02  2.60801033E-01  6.16462078E-01  2.21006028E-01  1.14660081E-01
  9.19999648E-01 -3.03068213E-03  1.00000000E+00  1.00000000E+00  1.00000000E+00
  1.00000000E+00  2.54938145E-02  1.90373109E-01  8.52161486E-01  1.00000000E+00
  1.00000000E+00  1.00000000E+00  2.54938145E-02  1.90373109E-01  8.52161486E-01
  1.00000000E+00  1.00000000E+00  1.00000000E+00  2.54938145E-02  1.90373109E-01
  8.52161486E-01  1.00000000E+00  1.00000000E+00  1.00000000E+00  2.54938145E-02
  1.90373109E-01  8.52161486E-01  1.00000000E+00  1.00000000E+00  1.00000000E+00
P(S=P) Contraction coefficients            R   N=          50
  0.00000000E+00  0.00000000E+00  0.00000000E+00  0.00000000E+00  0.00000000E+00
  0.00000000E+00  4.02486927E-02  2.37593957E-01  8.15853851E-01  1.00000000E+00
  1.00000000E+00  1.00000000E+00  0.00000000E+00  0.00000000E+00  0.00000000E+00
  0.00000000E+00  0.00000000E+00  0.00000000E+00  0.00000000E+00  4.02486927E-02
  2.37593957E-01  8.15853851E-01  1.00000000E+00  1.00000000E+00  1.00000000E+00
  0.00000000E+00  0.00000000E+00  0.00000000E+00  0.00000000E+00  0.00000000E+00
  0.00000000E+00  0.00000000E+00  0.00000000E+00  0.00000000E+00  0.00000000E+00
  0.00000000E+00  0.00000000E+00  0.00000000E+00  0.00000000E+00  0.00000000E+00
  0.00000000E+00  0.00000000E+00  0.00000000E+00  0.00000000E+00  0.00000000E+00
  0.00000000E+00  0.00000000E+00  0.00000000E+00  0.00000000E+00  0.00000000E+00
Coordinates of each shell                  R   N=          84
  1.18107883E-07  1.80337320E+00  2.22282909E-32  1.18107883E-07  1.80337320E+00
  2.22282909E-32  1.18107883E-07  1.80337320E+00  2.22282909E-32  1.18107883E-07
  1.80337320E+00  2.22282909E-32  1.18107883E-07  1.80337320E+00  2.22282909E-32
  1.18107883E-07  1.80337320E+00  2.22282909E-32 -1.18107883E-07 -1.80337320E+00
  2.22282909E-32 -1.18107883E-07 -1.80337320E+00  2.22282909E-32 -1.18107883E-07
 -1.80337320E+00  2.22282909E-32 -1.18107883E-07 -1.80337320E+00  2.22282909E-32
 -1.18107883E-07 -1.80337320E+00  2.22282909E-32 -1.18107883E-07 -1.80337320E+00
  2.22282909E-32  1.84075399E+00  2.70459682E+00  3.33369027E-32  1.84075399E+00
  2.70459682E+00  3.33369027E-32  1.84075399E+00  2.70459682E+00  3.33369027E-32
  1.84075399E+00  2.70459682E+00  3.33369027E-32 -1.84057234E+00  2.70467241E+00
  3.33374882E-32 -1.84057234E+00  2.70467241E+00  3.33374882E-32 -1.84057234E+00
  2.70467241E+00  3.33374882E-32 -1.84057234E+00  2.70467241E+00  3.33374882E-32
 -1.84075399E+00 -2.70459682E+00  3.33369027E-32 -1.84075399E+00 -2.70459682E+00
  3.33369027E-32 -1.84075399E+00 -2.70459682E+00  3.33369027E-32 -1.84075399E+00
 -2.70459682E+00  3.33369027E-32  1.84057234E+00 -2.70467241E+00  3.33374882E-32
  1.84057234E+00 -2.70467241E+00  3.33374882E-32  1.84057234E+00 -2.70467241E+00
  3.33374882E-32  1.84057234E+00 -2.70467241E+00  3.33374882E-32
Num ILSW                                   I              100
ILSW                                       I   N=         100
           1           0           0           0           2           0
           0           0           0           0        4336          -1
           7           0           0           0           2           0
           0           0           0           0           1           0
           1           0           0           0           0           0
           0           0      100000           0          -1           0
           0           0           0           0           0           0
           0           0           0           1           0           0
           0 -2000000000           1           0           0           0
           0           0           4          52           0           0
           0           0          55           0           0           0
           0           0           0           6           0           1
           0           0           0           0           0           0
           0           0           0           0           0           0
           0           0           0           0           0           0
           0           0           0           0           0           0
           0           0           0           0
Num RLSW                                   I               52
RLSW                                       R   N=          52
  1.00000000E+00  1.00000000E+00  1.00000000E+00  1.00000000E+00  5.40000000E-01
  0.00000000E+00  0.00000000E+00  1.00000000E+00  0.00000000E+00  0.00000000E+00
  0.00000000E+00  0.00000000E+00  1.00000000E+00  0.00000000E+00  0.00000000E+00
  0.00000000E+00  0.00000000E+00  1.00000000E+00  0.00000000E+00  0.00000000E+00
  0.00000000E+00  0.00000000E+00  1.00000000E+00  0.00000000E+00  0.00000000E+00
  0.00000000E+00  0.00000000E+00  1.00000000E+00  0.00000000E+00  0.00000000E+00
  0.00000000E+00  0.00000000E+00  1.00000000E+00  0.00000000E+00  0.00000000E+00
  0.00000000E+00  0.00000000E+00  0.00000000E+00  1.00000000E+00  1.00000000E+00
  0.00000000E+00  1.00000000E+00  0.00000000E+00  0.00000000E+00  0.00000000E+00
  0.00000000E+00  0.00000000E+00  0.00000000E+00  0.00000000E+00  0.00000000E+00
  0.00000000E+00  0.00000000E+00
MxBond                                     I                2
NBond                                      I   N=           6
           2           2           1           1           1           1
IBond                                      I   N=          12
           3           4           5           6           1           0
           1           0           2           0           2           0
RBond                                      R   N=          12
  1.00000000E+00  1.00000000E+00  1.00000000E+00  1.00000000E+00  1.00000000E+00
  0.00000000E+00  1.00000000E+00  0.00000000E+00  1.00000000E+00  0.00000000E+00
  1.00000000E+00  0.00000000E+00
Virial Ratio                               R      2.010057445341576E+00
SCF Energy                                 R     -7.809071173681366E+01
Total Energy                               R     -7.809071173681366E+01
S**2                                       R      7.522440390353884E-01
S**2 after annihilation                    R      7.500038441285022E-01
RMS Force                                  R      4.394429381314669E-02
RMS Density                                R      3.518041163165245E-09
Job Status                                 I                1
Nuclear derivative order                   I                1
External E-field                           R   N=          35
  0.00000000E+00  0.00000000E+00  0.00000000E+00  0.00000000E+00  0.00000000E+00
  0.00000000E+00  0.00000000E+00  0.00000000E+00  0.00000000E+00  0.00000000E+00
  0.00000000E+00  0.00000000E+00  0.00000000E+00  0.00000000E+00  0.00000000E+00
  0.00000000E+00  0.00000000E+00  0.00000000E+00  0.00000000E+00  0.00000000E+00
  0.00000000E+00  0.00000000E+00  0.00000000E+00  0.00000000E+00  0.00000000E+00
  0.00000000E+00  0.00000000E+00  0.00000000E+00  0.00000000E+00  0.00000000E+00
  0.00000000E+00  0.00000000E+00  0.00000000E+00  0.00000000E+00  0.00000000E+00
IOpCl                                      I                1
IROHF                                      I                0
Alpha Orbital Energies                     R   N=          68
 -1.09196493E+01 -1.09194611E+01 -1.08171443E+00 -9.97347256E-01 -8.11587748E-01
 -7.69460545E-01 -6.94957069E-01 -5.77593050E-01 -3.55743761E-01 -2.08783752E-01
 -1.42599153E-01 -1.11409963E-01 -9.65475175E-02 -8.57876407E-02 -7.39769977E-02
 -7.28421594E-02 -4.73842364E-02 -4.30450252E-02 -2.27907343E-02 -9.52196777E-03
  2.32597883E-02  9.50809187E-02  1.81658197E-01  2.31110182E-01  2.46659224E-01
  3.26927102E-01  3.69680494E-01  3.75270569E-01  4.12084376E-01  4.47646564E-01
  4.57251006E-01  4.75935529E-01  5.35328648E-01  5.62259155E-01  7.92701791E-01
  8.22135920E-01  8.25144306E-01  9.69329441E-01  1.14782705E+00  1.17409274E+00
  1.22306440E+00  1.22525998E+00  1.26611020E+00  1.36519053E+00  1.46850266E+00
  1.53998583E+00  1.59646849E+00  1.64477821E+00  1.69402003E+00  1.70287278E+00
  1.78148200E+00  1.79462588E+00  2.11612707E+00  2.25953763E+00  2.31198444E+00
  2.31285255E+00  2.36598946E+00  2.37879568E+00  2.43473381E+00  2.43951213E+00
  2.45169264E+00  2.48595302E+00  2.49564594E+00  3.26710069E+00  3.42950082E+00
  3.47424283E+00  2.34825803E+01  2.35271688E+01
Beta Orbital Energies                      R   N=          68
 -1.09173338E+01 -1.09172122E+01 -1.04969277E+00 -9.75556522E-01 -8.05476383E-01
 -7.65946654E-01 -6.80796550E-01 -3.63838112E-01 -2.71230260E-01 -1.84948353E-01
 -1.56934453E-01 -1.15057228E-01 -9.47535668E-02 -8.21219781E-02 -7.80169538E-02
 -7.35388115E-02 -4.34074742E-02 -3.97848594E-02 -1.85377256E-02 -3.45333730E-03
  1.59837423E-02  1.01538979E-01  1.80666700E-01  2.30815257E-01  2.51574044E-01
  3.37080662E-01  3.60617185E-01  3.84352660E-01  4.22315957E-01  4.51432291E-01
  4.62503818E-01  4.89466030E-01  5.28089299E-01  5.60570408E-01  8.24711236E-01
  8.50226669E-01  8.59239358E-01  1.00276634E+00  1.15755642E+00  1.19007614E+00
  1.24216772E+00  1.26304021E+00  1.29308259E+00  1.38322423E+00  1.48322388E+00
  1.55951948E+00  1.63151429E+00  1.65793510E+00  1.71274904E+00  1.71490802E+00
  1.79932948E+00  1.81557657E+00  2.15352792E+00  2.27439512E+00  2.32897276E+00
  2.33514716E+00  2.41015572E+00  2.41428593E+00  2.47000503E+00  2.47144825E+00
  2.47516148E+00  2.50339090E+00  2.52849266E+00  3.32382042E+00  3.47724244E+00
  3.52202529E+00  2.34949714E+01  2.35399308E+01
Alpha MO coefficients                      R   N=        4624
  3.99030673E-01  3.28040345E-01  1.61648362E-08 -5.93836373E-04  0.00000000E+00
  8.00951572E-03 -6.87565587E-07  1.36798999E-03  0.00000000E+00 -2.01295469E-03
 -4.98681991E-08 -5.65554385E-06  0.00000000E+00 -5.35396062E-04  3.11848934E-07
 -4.17649460E-04  0.00000000E+00 -8.05021948E-04  0.00000000E+00  0.00000000E+00
  9.06169761E-04 -3.42902055E-07  3.99030673E-01  3.28040345E-01 -1.61648362E-08
  5.93836373E-04  0.00000000E+00  8.00951572E-03  6.87565587E-07 -1.36798999E-03
  0.00000000E+00 -2.01295469E-03  4.98681991E-08  5.65554385E-06  0.00000000E+00
 -5.35396062E-04 -3.11848934E-07  4.17649460E-04  0.00000000E+00 -8.05021948E-04
  0.00000000E+00  0.00000000E+00  9.06169761E-04 -3.42902055E-07  1.46499189E-04
 -2.25979194E-03  1.47031594E-03  1.25789843E-03  6.65002934E-04  0.00000000E+00
  1.46355141E-04 -2.26107738E-03  1.47121409E-03 -1.25837441E-03  6.65347555E-04
  0.00000000E+00  1.46499189E-04 -2.25979194E-03  1.47031594E-03 -1.25789843E-03
 -6.65002934E-04  0.00000000E+00  1.46355141E-04 -2.26107738E-03  1.47121409E-03
  1.25837441E-03 -6.65347555E-04  0.00000000E+00  3.99047815E-01  3.28098463E-01
  1.58877182E-08 -6.27411177E-04  0.00000000E+00  8.03209904E-03 -6.57830765E-07
  1.85214232E-03  0.00000000E+00 -3.52667542E-03  2.97300035E-08  5.19622845E-04
  0.00000000E+00  1.30459161E-03  9.13592052E-08 -1.06489925E-03  0.00000000E+00
 -7.13205884E-04  0.00000000E+00  0.00000000E+00  1.09431430E-03 -3.26664744E-07
 -3.99047815E-01 -3.28098463E-01  1.58877182E-08 -6.27411177E-04  0.00000000E+00
 -8.03209904E-03 -6.57830765E-07  1.85214232E-03  0.00000000E+00  3.52667542E-03
  2.97300035E-08  5.19622845E-04  0.00000000E+00 -1.30459161E-03  9.13592052E-08
 -1.06489925E-03  0.00000000E+00  7.13205884E-04  0.00000000E+00  0.00000000E+00
 -1.09431430E-03  3.26664744E-07  1.10235774E-04 -2.10779550E-03  1.62165320E-03
  1.28061764E-03  6.06442141E-04  0.00000000E+00  1.10065395E-04 -2.10889763E-03
  1.62235017E-03 -1.28107341E-03  6.06775780E-04  0.00000000E+00 -1.10235774E-04
  2.10779550E-03 -1.62165320E-03  1.28061764E-03  6.06442141E-04  0.00000000E+00
 -1.10065395E-04  2.10889763E-03 -1.62235017E-03 -1.28107341E-03  6.06775780E-04
  0.00000000E+00 -8.11069722E-02 -1.32108809E-01 -5.91705411E-06 -1.44518849E-03
  0.00000000E+00  3.63696836E-01 -5.82429018E-06 -1.30191580E-02  0.00000000E+00
  2.40310833E-01 -1.81122834E-06 -9.33620896E-03  0.00000000E+00  6.81728386E-04
 -1.51090422E-06  6.68745353E-03  0.00000000E+00 -5.77085154E-03  0.00000000E+00
  0.00000000E+00 -2.41111491E-03 -9.23103126E-07 -8.11069722E-02 -1.32108809E-01
  5.91705411E-06  1.44518849E-03  0.00000000E+00  3.63696836E-01  5.82429018E-06
  1.30191580E-02  0.00000000E+00  2.40310833E-01  1.81122834E-06  9.33620896E-03
  0.00000000E+00  6.81728386E-04  1.51090422E-06 -6.68745353E-03  0.00000000E+00
 -5.77085154E-03  0.00000000E+00  0.00000000E+00 -2.41111491E-03 -9.23103126E-07
  6.55589987E-02  7.22486798E-02 -8.34532957E-03 -1.14819748E-02 -5.35307566E-03
  0.00000000E+00  6.55705276E-02  7.22599826E-02 -8.34913213E-03  1.14829476E-02
 -5.35490570E-03  0.00000000E+00  6.55589987E-02  7.22486798E-02 -8.34532957E-03
  1.14819748E-02  5.35307566E-03  0.00000000E+00  6.55705276E-02  7.22599826E-02
 -8.34913213E-03 -1.14829476E-02  5.35490570E-03  0.00000000E+00 -7.73268854E-02
 -1.26389822E-01 -1.12495299E-05  5.14720232E-02  0.00000000E+00  3.54443785E-01
 -1.35977525E-05  7.67158612E-02  0.00000000E+00  2.55928156E-01 -5.14371693E-06
  2.09268852E-02  0.00000000E+00 -3.47313522E-02 -1.79619377E-07  1.49883773E-02
  0.00000000E+00 -3.07399832E-03  0.00000000E+00  0.00000000E+00  1.07711716E-02
 -1.65776589E-06  7.73268854E-02  1.26389822E-01 -1.12495299E-05  5.14720232E-02
  0.00000000E+00 -3.54443785E-01 -1.35977525E-05  7.67158612E-02  0.00000000E+00
 -2.55928156E-01 -5.14371693E-06  2.09268852E-02  0.00000000E+00  3.47313522E-02
 -1.79619377E-07  1.49883773E-02  0.00000000E+00  3.07399832E-03  0.00000000E+00
  0.00000000E+00 -1.07711716E-02  1.65776589E-06  8.23285718E-02  9.49695383E-02
 -2.99088830E-03 -1.28857609E-02 -3.79452466E-03  0.00000000E+00  8.23488078E-02
  9.49887843E-02 -2.99261978E-03  1.28875459E-02 -3.79659036E-03  0.00000000E+00
 -8.23285718E-02 -9.49695383E-02  2.99088830E-03 -1.28857609E-02 -3.79452466E-03
  0.00000000E+00 -8.23488078E-02 -9.49887843E-02  2.99261978E-03  1.28875459E-02
 -3.79659036E-03  0.00000000E+00 -4.70744772E-06 -7.94073685E-06  1.58419190E-01
 -1.12679739E-06  0.00000000E+00  2.32499992E-05  2.32561689E-01  6.31600464E-07
  0.00000000E+00  2.84623308E-05  1.41228771E-01 -1.91164953E-06  0.00000000E+00
 -9.84259479E-07  3.81068873E-03  6.98404580E-07  0.00000000E+00  4.59200068E-08
  0.00000000E+00  0.00000000E+00  1.36751186E-06  7.89915533E-03  4.70744772E-06
  7.94073685E-06  1.58419190E-01 -1.12679739E-06  0.00000000E+00 -2.32499992E-05
  2.32561689E-01  6.31600464E-07  0.00000000E+00 -2.84623308E-05  1.41228771E-01
 -1.91164953E-06  0.00000000E+00  9.84259479E-07  3.81068873E-03  6.98404580E-07
  0.00000000E+00 -4.59200068E-08  0.00000000E+00  0.00000000E+00 -1.36751186E-06
 -7.89915533E-03  1.02172697E-01  1.29870704E-01  5.12241111E-03 -9.66032224E-03
 -7.72927245E-03  0.00000000E+00 -1.02164413E-01 -1.29853859E-01 -5.11998555E-03
 -9.65783835E-03  7.72986520E-03  0.00000000E+00 -1.02172697E-01 -1.29870704E-01
 -5.12241111E-03 -9.66032224E-03 -7.72927245E-03  0.00000000E+00  1.02164413E-01
  1.29853859E-01  5.11998555E-03 -9.65783835E-03  7.72986520E-03  0.00000000E+00
 -2.41020316E-06 -4.20910719E-06  1.62920274E-01 -2.98851521E-05  0.00000000E+00
  1.22517119E-05  2.34671589E-01 -4.54287462E-05  0.00000000E+00  2.07629344E-05
  1.49727122E-01 -2.59394011E-05  0.00000000E+00  4.01399906E-08  1.29581335E-02
  1.18236731E-06  0.00000000E+00 -9.22085353E-08  0.00000000E+00  0.00000000E+00
 -2.28794351E-06  2.04451772E-02 -2.41020316E-06 -4.20910719E-06 -1.62920274E-01
  2.98851521E-05  0.00000000E+00  1.22517119E-05 -2.34671589E-01  4.54287462E-05
  0.00000000E+00  2.07629344E-05 -1.49727122E-01  2.59394011E-05  0.00000000E+00
  4.01399906E-08 -1.29581335E-02 -1.18236731E-06  0.00000000E+00 -9.22085353E-08
  0.00000000E+00  0.00000000E+00 -2.28794351E-06  2.04451772E-02  1.09935515E-01
  1.47996665E-01  1.17013346E-02 -9.67736999E-03 -8.67450612E-03  0.00000000E+00
 -1.09951460E-01 -1.48012988E-01 -1.17024798E-02 -9.67786332E-03  8.67422539E-03
  0.00000000E+00  1.09935515E-01  1.47996665E-01  1.17013346E-02  9.67736999E-03
  8.67450612E-03  0.00000000E+00 -1.09951460E-01 -1.48012988E-01 -1.17024798E-02
  9.67786332E-03 -8.67422539E-03  0.00000000E+00  6.85093708E-03  1.18165109E-02
  2.54559884E-05  1.81639101E-01  0.00000000E+00 -3.16064654E-02  3.92535242E-05
  2.93720524E-01  0.00000000E+00 -6.45624632E-02  2.64777813E-05  1.86031343E-01
  0.00000000E+00  9.74734120E-04  1.27205579E-06 -9.02472783E-03  0.00000000E+00
  1.34202529E-03  0.00000000E+00  0.00000000E+00  2.02033345E-02  2.02350925E-06
  6.85093708E-03  1.18165109E-02 -2.54559884E-05 -1.81639101E-01  0.00000000E+00
 -3.16064654E-02 -3.92535242E-05 -2.93720524E-01  0.00000000E+00 -6.45624632E-02
 -2.64777813E-05 -1.86031343E-01  0.00000000E+00  9.74734120E-04 -1.27205579E-06
  9.02472783E-03  0.00000000E+00  1.34202529E-03  0.00000000E+00  0.00000000E+00
  2.02033345E-02  2.02350925E-06  6.01802239E-02  9.14536301E-02  2.24519741E-02
 -8.69433059E-03  4.72473935E-03  0.00000000E+00  6.01525859E-02  9.14087638E-02
  2.24423438E-02  8.69245915E-03  4.72719690E-03  0.00000000E+00  6.01802239E-02
  9.14536301E-02  2.24519741E-02  8.69433059E-03 -4.72473935E-03  0.00000000E+00
  6.01525859E-02  9.14087638E-02  2.24423438E-02 -8.69245915E-03 -4.72719690E-03
  0.00000000E+00  0.00000000E+00  0.00000000E+00  0.00000000E+00  0.00000000E+00
  1.86733692E-01  0.00000000E+00  0.00000000E+00  0.00000000E+00  3.03618773E-01
  0.00000000E+00  0.00000000E+00  0.00000000E+00  2.85896704E-01  0.00000000E+00
  0.00000000E+00  0.00000000E+00  5.53934297E-03  0.00000000E+00 -5.89353088E-07
 -1.57915641E-02  0.00000000E+00  0.00000000E+00  0.00000000E+00  0.00000000E+00
  0.00000000E+00  0.00000000E+00  1.86733692E-01  0.00000000E+00  0.00000000E+00
  0.00000000E+00  3.03618773E-01  0.00000000E+00  0.00000000E+00  0.00000000E+00
  2.85896704E-01  0.00000000E+00  0.00000000E+00  0.00000000E+00  5.53934297E-03
  0.00000000E+00  5.89353088E-07  1.57915641E-02  0.00000000E+00  0.00000000E+00
  0.00000000E+00  0.00000000E+00  0.00000000E+00  0.00000000E+00  0.00000000E+00
  1.16776145E-02  0.00000000E+00  0.00000000E+00  0.00000000E+00  0.00000000E+00
  0.00000000E+00  1.16785709E-02  0.00000000E+00  0.00000000E+00  0.00000000E+00
  0.00000000E+00  0.00000000E+00  1.16776145E-02  0.00000000E+00  0.00000000E+00
  0.00000000E+00  0.00000000E+00  0.00000000E+00  1.16785709E-02  0.00000000E+00
  0.00000000E+00  0.00000000E+00  0.00000000E+00  2.07936665E-01  0.00000000E+00
  0.00000000E+00  0.00000000E+00  3.30798595E-01  0.00000000E+00  0.00000000E+00
  0.00000000E+00  3.68815134E-01  0.00000000E+00  0.00000000E+00  0.00000000E+00
  6.06329125E-02  0.00000000E+00 -6.01996727E-07  1.54932976E-02  0.00000000E+00
  0.00000000E+00  0.00000000E+00  0.00000000E+00  0.00000000E+00  0.00000000E+00
 -2.07936665E-01  0.00000000E+00  0.00000000E+00  0.00000000E+00 -3.30798595E-01
  0.00000000E+00  0.00000000E+00  0.00000000E+00 -3.68815134E-01  0.00000000E+00
  0.00000000E+00  0.00000000E+00 -6.06329125E-02  0.00000000E+00 -6.01996727E-07
  1.54932976E-02  0.00000000E+00  0.00000000E+00  0.00000000E+00  0.00000000E+00
  0.00000000E+00  0.00000000E+00  0.00000000E+00  1.69280163E-02  0.00000000E+00
  0.00000000E+00  0.00000000E+00  0.00000000E+00  0.00000000E+00  1.69293941E-02
  0.00000000E+00  0.00000000E+00  0.00000000E+00  0.00000000E+00  0.00000000E+00
 -1.69280163E-02  0.00000000E+00  0.00000000E+00  0.00000000E+00  0.00000000E+00
  0.00000000E+00 -1.69293941E-02 -5.38068241E-02 -9.14705794E-02 -1.09290092E-06
 -1.81049520E-01  0.00000000E+00  2.71492055E-01 -4.87091285E-06 -2.78489798E-01
  0.00000000E+00  7.37516033E-01 -8.76202481E-06 -5.06262340E-01  0.00000000E+00
  9.21039775E-01 -7.48411143E-06 -5.01224726E-01  0.00000000E+00  1.84253198E-02
  0.00000000E+00  0.00000000E+00  2.31889915E-02  1.02872487E-06  5.38068241E-02
  9.14705794E-02 -1.09290092E-06 -1.81049520E-01  0.00000000E+00 -2.71492055E-01
 -4.87091285E-06 -2.78489798E-01  0.00000000E+00 -7.37516033E-01 -8.76202481E-06
 -5.06262340E-01  0.00000000E+00 -9.21039775E-01 -7.48411143E-06 -5.01224726E-01
  0.00000000E+00 -1.84253198E-02  0.00000000E+00  0.00000000E+00 -2.31889915E-02
 -1.02872487E-06 -3.05785019E-02 -8.13846961E-02 -1.06286983E-01  6.01528461E-03
 -1.57909434E-02  0.00000000E+00 -3.05840561E-02 -8.13978094E-02 -1.06290821E-01
 -6.01824408E-03 -1.57914273E-02  0.00000000E+00  3.05785019E-02  8.13846961E-02
  1.06286983E-01  6.01528461E-03 -1.57909434E-02  0.00000000E+00  3.05840561E-02
  8.13978094E-02  1.06290821E-01 -6.01824408E-03 -1.57914273E-02  0.00000000E+00
  3.33561766E-02  5.73744507E-02 -9.75374093E-06 -3.69213958E-02  0.00000000E+00
 -1.72753644E-01 -7.53424296E-06 -5.16246964E-02  0.00000000E+00 -7.19213302E-01
 -4.62589343E-05 -1.47610536E-01  0.00000000E+00  8.26128174E-01 -3.19941788E-05
  1.11314481E-01  0.00000000E+00  1.08289121E-02  0.00000000E+00  0.00000000E+00
  5.04546317E-03  2.30686316E-06  3.33561766E-02  5.73744507E-02  9.75374093E-06
  3.69213958E-02  0.00000000E+00 -1.72753644E-01  7.53424296E-06  5.16246964E-02
  0.00000000E+00 -7.19213302E-01  4.62589343E-05  1.47610536E-01  0.00000000E+00
  8.26128174E-01  3.19941788E-05 -1.11314481E-01  0.00000000E+00  1.08289121E-02
  0.00000000E+00  0.00000000E+00  5.04546317E-03  2.30686316E-06  4.42160937E-03
  1.12406337E-01  3.49866684E-02  7.93434982E-03 -2.33855904E-03  0.00000000E+00
  4.41593646E-03  1.12405572E-01  3.48797928E-02 -7.93106414E-03 -2.34045219E-03
  0.00000000E+00  4.42160937E-03  1.12406337E-01  3.49866684E-02 -7.93434982E-03
  2.33855904E-03  0.00000000E+00  4.41593646E-03  1.12405572E-01  3.48797928E-02
  7.93106414E-03  2.34045219E-03  0.00000000E+00  1.13482769E-06  1.80408567E-06
 -7.54830008E-02 -8.09390263E-06  0.00000000E+00 -2.38825738E-06 -1.23598967E-01
 -1.02317942E-05  0.00000000E+00 -3.76747051E-05 -2.45638468E-01 -4.43962204E-05
  0.00000000E+00  1.17726484E-04  6.93038625E-01 -6.26762798E-05  0.00000000E+00
 -9.19585377E-07  0.00000000E+00  0.00000000E+00  1.67495160E-06 -3.65469410E-03
 -1.13482769E-06 -1.80408567E-06 -7.54830008E-02 -8.09390263E-06  0.00000000E+00
  2.38825738E-06 -1.23598967E-01 -1.02317942E-05  0.00000000E+00  3.76747051E-05
 -2.45638468E-01 -4.43962204E-05  0.00000000E+00 -1.17726484E-04  6.93038625E-01
 -6.26762798E-05  0.00000000E+00  9.19585377E-07  0.00000000E+00  0.00000000E+00
 -1.67495160E-06  3.65469410E-03 -1.19377725E-02  6.78344435E-02 -1.04326924E-01
  9.49622437E-03  2.48933391E-03  0.00000000E+00  1.19471696E-02 -6.78070363E-02
  1.04392443E-01  9.49313772E-03 -2.49079231E-03  0.00000000E+00  1.19377725E-02