Title Card Required                                                     
Force     UM062X                                                      6-311+G(d,p)        
Number of atoms                            I                6
Info1-9                                    I   N=           9
          15          15           0           0           0         100
           5          18        -502
Full Title                                 C   N=           2
Title Card Required     
Route                                      C   N=           4
#p UM062X/6-311+G** force int=superfine         
Charge                                     I                0
Multiplicity                               I                1
Number of electrons                        I               16
Number of alpha electrons                  I                8
Number of beta electrons                   I                8
Number of basis functions                  I               68
Number of independent functions            I               68
Number of point charges in /Mol/           I                0
Number of translation vectors              I                0
Atomic numbers                             I   N=           6
           6           6           1           1           1           1
Nuclear charges                            R   N=           6
  6.00000000E+00  6.00000000E+00  1.00000000E+00  1.00000000E+00  1.00000000E+00
  1.00000000E+00
Current cartesian coordinates              R   N=          18
 -1.17056535E-20  1.17748835E+00  0.00000000E+00 -1.44181224E-16 -1.17748835E+00
  0.00000000E+00  1.73296956E+00  2.27849948E+00  0.00000000E+00 -1.73269366E+00
  2.27873759E+00  0.00000000E+00 -1.73296956E+00 -2.27849948E+00  0.00000000E+00
  1.73269366E+00 -2.27873759E+00  0.00000000E+00
Number of symbols in /Mol/                 I                0
Force Field                                I                0
Atom Types                                 C   N=           6
                                                            
            
Int Atom Types                             I   N=           6
           0           0           0           0           0           0
MM charges                                 R   N=           6
  0.00000000E+00  0.00000000E+00  0.00000000E+00  0.00000000E+00  0.00000000E+00
  0.00000000E+00
Integer atomic weights                     I   N=           6
          12          12           1           1           1           1
Real atomic weights                        R   N=           6
  1.20000000E+01  1.20000000E+01  1.00782504E+00  1.00782504E+00  1.00782504E+00
  1.00782504E+00
Atom fragment info                         I   N=           6
           0           0           0           0           0           0
Atom residue num                           I   N=           6
           0           0           0           0           0           0
Nuclear spins                              I   N=           6
           0           0           1           1           1           1
Nuclear ZEff                               R   N=           6
 -3.60000000E+00 -3.60000000E+00 -1.00000000E+00 -1.00000000E+00 -1.00000000E+00
 -1.00000000E+00
Nuclear ZNuc                               R   N=           6
  6.00000000E+00  6.00000000E+00  1.00000000E+00  1.00000000E+00  1.00000000E+00
  1.00000000E+00
Nuclear QMom                               R   N=           6
  0.00000000E+00  0.00000000E+00  0.00000000E+00  0.00000000E+00  0.00000000E+00
  0.00000000E+00
Nuclear GFac                               R   N=           6
  0.00000000E+00  0.00000000E+00  2.79284600E+00  2.79284600E+00  2.79284600E+00
  2.79284600E+00
MicOpt                                     I   N=           6
          -1          -1          -1          -1          -1          -1
Number of residues                         I                0
Number of secondary structures             I                0
SymInf integers                            I   N=          26
           2           4           1           1           1          -1
          -1           1           1           1          -1          -1
          -1          -1           0           0           0           0
           0           0           0           0           0           0
           0           0
RotTr to input orientation                 R   N=          12
  3.01526417E-17 -1.00000000E+00 -2.08396183E-21 -1.00000000E+00 -3.01493279E-17
 -1.22464680E-16  1.22464680E-16  2.08396183E-21 -1.00000000E+00  2.77555756E-17
  0.00000000E+00  0.00000000E+00
Number of contracted shells                I               28
Number of primitive shells                 I               50
Pure/Cartesian d shells                    I                0
Pure/Cartesian f shells                    I                0
Highest angular momentum                   I                2
Largest degree of contraction              I                6
Shell types                                I   N=          28
           0          -1          -1          -1          -1          -2
           0          -1          -1          -1          -1          -2
           0           0           0           1           0           0
           0           1           0           0           0           1
           0           0           0           1
Number of primitives per shell             I   N=          28
           6           3           1           1           1           1
           6           3           1           1           1           1
           3           1           1           1           3           1
           1           1           3           1           1           1
           3           1           1           1
Shell to atom map                          I   N=          28
           1           1           1           1           1           1
           2           2           2           2           2           2
           3           3           3           3           4           4
           4           4           5           5           5           5
           6           6           6           6
Primitive exponents                        R   N=          50
  4.56324000E+03  6.82024000E+02  1.54973000E+02  4.44553000E+01  1.30290000E+01
  1.82773000E+00  2.09642000E+01  4.80331000E+00  1.45933000E+00  4.83456000E-01
  1.45585000E-01  4.38000000E-02  6.26000000E-01  4.56324000E+03  6.82024000E+02
  1.54973000E+02  4.44553000E+01  1.30290000E+01  1.82773000E+00  2.09642000E+01
  4.80331000E+00  1.45933000E+00  4.83456000E-01  1.45585000E-01  4.38000000E-02
  6.26000000E-01  3.38650000E+01  5.09479000E+00  1.15879000E+00  3.25840000E-01
  1.02741000E-01  7.50000000E-01  3.38650000E+01  5.09479000E+00  1.15879000E+00
  3.25840000E-01  1.02741000E-01  7.50000000E-01  3.38650000E+01  5.09479000E+00
  1.15879000E+00  3.25840000E-01  1.02741000E-01  7.50000000E-01  3.38650000E+01
  5.09479000E+00  1.15879000E+00  3.25840000E-01  1.02741000E-01  7.50000000E-01
Contraction coefficients                   R   N=          50
  1.96665025E-03  1.52306019E-02  7.61269097E-02  2.60801033E-01  6.16462078E-01
  2.21006028E-01  1.14660081E-01  9.19999648E-01 -3.03068213E-03  1.00000000E+00
  1.00000000E+00  1.00000000E+00  1.00000000E+00  1.96665025E-03  1.52306019E-02
  7.61269097E-02  2.60801033E-01  6.16462078E-01  2.21006028E-01  1.14660081E-01
  9.19999648E-01 -3.03068213E-03  1.00000000E+00  1.00000000E+00  1.00000000E+00
  1.00000000E+00  2.54938145E-02  1.90373109E-01  8.52161486E-01  1.00000000E+00
  1.00000000E+00  1.00000000E+00  2.54938145E-02  1.90373109E-01  8.52161486E-01
  1.00000000E+00  1.00000000E+00  1.00000000E+00  2.54938145E-02  1.90373109E-01
  8.52161486E-01  1.00000000E+00  1.00000000E+00  1.00000000E+00  2.54938145E-02
  1.90373109E-01  8.52161486E-01  1.00000000E+00  1.00000000E+00  1.00000000E+00
P(S=P) Contraction coefficients            R   N=          50
  0.00000000E+00  0.00000000E+00  0.00000000E+00  0.00000000E+00  0.00000000E+00
  0.00000000E+00  4.02486927E-02  2.37593957E-01  8.15853851E-01  1.00000000E+00
  1.00000000E+00  1.00000000E+00  0.00000000E+00  0.00000000E+00  0.00000000E+00
  0.00000000E+00  0.00000000E+00  0.00000000E+00  0.00000000E+00  4.02486927E-02
  2.37593957E-01  8.15853851E-01  1.00000000E+00  1.00000000E+00  1.00000000E+00
  0.00000000E+00  0.00000000E+00  0.00000000E+00  0.00000000E+00  0.00000000E+00
  0.00000000E+00  0.00000000E+00  0.00000000E+00  0.00000000E+00  0.00000000E+00
  0.00000000E+00  0.00000000E+00  0.00000000E+00  0.00000000E+00  0.00000000E+00
  0.00000000E+00  0.00000000E+00  0.00000000E+00  0.00000000E+00  0.00000000E+00
  0.00000000E+00  0.00000000E+00  0.00000000E+00  0.00000000E+00  0.00000000E+00
Coordinates of each shell                  R   N=          84
 -7.80376900E-21  1.17748835E+00  0.00000000E+00 -7.80376900E-21  1.17748835E+00
  0.00000000E+00 -7.80376900E-21  1.17748835E+00  0.00000000E+00 -7.80376900E-21
  1.17748835E+00  0.00000000E+00 -7.80376900E-21  1.17748835E+00  0.00000000E+00
 -7.80376900E-21  1.17748835E+00  0.00000000E+00 -1.44185126E-16 -1.17748835E+00
  2.93545164E-57 -1.44185126E-16 -1.17748835E+00  2.93545164E-57 -1.44185126E-16
 -1.17748835E+00  2.93545164E-57 -1.44185126E-16 -1.17748835E+00  2.93545164E-57
 -1.44185126E-16 -1.17748835E+00  2.93545164E-57 -1.44185126E-16 -1.17748835E+00
  2.93545164E-57  1.73296956E+00  2.27849948E+00  6.51870698E-37  1.73296956E+00
  2.27849948E+00  6.51870698E-37  1.73296956E+00  2.27849948E+00  6.51870698E-37
  1.73296956E+00  2.27849948E+00  6.51870698E-37 -1.73269366E+00  2.27873759E+00
 -6.51766916E-37 -1.73269366E+00  2.27873759E+00 -6.51766916E-37 -1.73269366E+00
  2.27873759E+00 -6.51766916E-37 -1.73269366E+00  2.27873759E+00 -6.51766916E-37
 -1.73296956E+00 -2.27849948E+00  0.00000000E+00 -1.73296956E+00 -2.27849948E+00
  0.00000000E+00 -1.73296956E+00 -2.27849948E+00  0.00000000E+00 -1.73296956E+00
 -2.27849948E+00  0.00000000E+00  1.73269366E+00 -2.27873759E+00  0.00000000E+00
  1.73269366E+00 -2.27873759E+00  0.00000000E+00  1.73269366E+00 -2.27873759E+00
  0.00000000E+00  1.73269366E+00 -2.27873759E+00  0.00000000E+00
Num ILSW                                   I              100
ILSW                                       I   N=         100
           1           0           0           0           2           0
           0           0           0           0        4336          -1
           7           0           0           0           2           0
           0           0           0           0           1           0
           1           0           0           0           0           0
           0           0      100000           0          -1           0
           0           0           0           0           0           0
           0           0           0           1           0           0
           0 -2000000000           1           0           0           0
           0           0           4          52           0           0
           0           0          55           0           0           0
           0           0           0           6           0           1
           0           0           0           0           0           0
           0           0           0           0           0           0
           0           0           0           0           0           0
           0           0           0           0           0           0
           0           0           0           0
Num RLSW                                   I               52
RLSW                                       R   N=          52
  1.00000000E+00  1.00000000E+00  1.00000000E+00  1.00000000E+00  5.40000000E-01
  0.00000000E+00  0.00000000E+00  1.00000000E+00  0.00000000E+00  0.00000000E+00
  0.00000000E+00  0.00000000E+00  1.00000000E+00  0.00000000E+00  0.00000000E+00
  0.00000000E+00  0.00000000E+00  1.00000000E+00  0.00000000E+00  0.00000000E+00
  0.00000000E+00  0.00000000E+00  1.00000000E+00  0.00000000E+00  0.00000000E+00
  0.00000000E+00  0.00000000E+00  1.00000000E+00  0.00000000E+00  0.00000000E+00
  0.00000000E+00  0.00000000E+00  1.00000000E+00  0.00000000E+00  0.00000000E+00
  0.00000000E+00  0.00000000E+00  0.00000000E+00  1.00000000E+00  1.00000000E+00
  0.00000000E+00  1.00000000E+00  0.00000000E+00  0.00000000E+00  0.00000000E+00
  0.00000000E+00  0.00000000E+00  0.00000000E+00  0.00000000E+00  0.00000000E+00
  0.00000000E+00  0.00000000E+00
MxBond                                     I                3
NBond                                      I   N=           6
           3           3           1           1           1           1
IBond                                      I   N=          18
           2           3           4           1           5           6
           1           0           0           1           0           0
           2           0           0           2           0           0
RBond                                      R   N=          18
  3.00000000E+00  1.00000000E+00  1.00000000E+00  3.00000000E+00  1.00000000E+00
  1.00000000E+00  1.00000000E+00  0.00000000E+00  0.00000000E+00  1.00000000E+00
  0.00000000E+00  0.00000000E+00  1.00000000E+00  0.00000000E+00  0.00000000E+00
  1.00000000E+00  0.00000000E+00  0.00000000E+00
Virial Ratio                               R      2.001046847789535E+00
SCF Energy                                 R     -7.855513814940187E+01
Total Energy                               R     -7.855513814940187E+01
S**2                                       R     -4.618527782440651E-14
S**2 after annihilation                    R     -7.638334409420894E-14
RMS Force                                  R      4.016827859320108E-02
RMS Density                                R      3.381317499807825E-09
Job Status                                 I                1
Nuclear derivative order                   I                1
External E-field                           R   N=          35
  0.00000000E+00  0.00000000E+00  0.00000000E+00  0.00000000E+00  0.00000000E+00
  0.00000000E+00  0.00000000E+00  0.00000000E+00  0.00000000E+00  0.00000000E+00
  0.00000000E+00  0.00000000E+00  0.00000000E+00  0.00000000E+00  0.00000000E+00
  0.00000000E+00  0.00000000E+00  0.00000000E+00  0.00000000E+00  0.00000000E+00
  0.00000000E+00  0.00000000E+00  0.00000000E+00  0.00000000E+00  0.00000000E+00
  0.00000000E+00  0.00000000E+00  0.00000000E+00  0.00000000E+00  0.00000000E+00
  0.00000000E+00  0.00000000E+00  0.00000000E+00  0.00000000E+00  0.00000000E+00
IOpCl                                      I                1
IROHF                                      I                0
Alpha Orbital Energies                     R   N=          68
 -1.05256545E+01 -1.05237224E+01 -8.80992201E-01 -6.54861674E-01 -5.49657200E-01
 -4.98327263E-01 -4.03151344E-01 -3.51377807E-01  3.40133156E-02  4.03138617E-02
  4.14987634E-02  4.99011879E-02  7.48802516E-02  8.34182004E-02  9.74253000E-02
  1.43254691E-01  1.60834913E-01  1.75267117E-01  1.96657986E-01  2.36198202E-01
  3.20237500E-01  3.79488112E-01  4.42793544E-01  4.47851202E-01  5.39862633E-01
  5.68391547E-01  5.81183186E-01  6.45563441E-01  6.53920556E-01  7.46052322E-01
  7.76283644E-01  7.78860751E-01  8.04566030E-01  9.71863318E-01  1.04307474E+00
  1.18321889E+00  1.18333636E+00  1.40357124E+00  1.48906457E+00  1.48940950E+00
  1.64968914E+00  1.66981202E+00  1.67463870E+00  1.67733249E+00  1.80887181E+00
  1.82722398E+00  2.02442348E+00  2.09322314E+00  2.19148479E+00  2.19602696E+00
  2.21964424E+00  2.30136340E+00  2.36771806E+00  2.50343038E+00  2.58599449E+00
  2.59981528E+00  2.67331321E+00  2.75055865E+00  2.80398884E+00  2.86409701E+00
  2.97421882E+00  3.26425693E+00  3.66114319E+00  3.66496098E+00  3.90579571E+00
  4.06660021E+00  2.37810453E+01  2.46971167E+01
Beta Orbital Energies                      R   N=          68
 -1.05256545E+01 -1.05237224E+01 -8.80992201E-01 -6.54861674E-01 -5.49657200E-01
 -4.98327263E-01 -4.03151344E-01 -3.51377807E-01  3.40133156E-02  4.03138617E-02
  4.14987634E-02  4.99011879E-02  7.48802516E-02  8.34182004E-02  9.74253000E-02
  1.43254691E-01  1.60834913E-01  1.75267117E-01  1.96657986E-01  2.36198202E-01
  3.20237500E-01  3.79488112E-01  4.42793544E-01  4.47851202E-01  5.39862633E-01
  5.68391547E-01  5.81183186E-01  6.45563441E-01  6.53920556E-01  7.46052322E-01
  7.76283644E-01  7.78860751E-01  8.04566030E-01  9.71863318E-01  1.04307474E+00
  1.18321889E+00  1.18333636E+00  1.40357124E+00  1.48906457E+00  1.48940950E+00
  1.64968914E+00  1.66981202E+00  1.67463870E+00  1.67733249E+00  1.80887181E+00
  1.82722398E+00  2.02442348E+00  2.09322314E+00  2.19148479E+00  2.19602696E+00
  2.21964424E+00  2.30136340E+00  2.36771806E+00  2.50343038E+00  2.58599449E+00
  2.59981528E+00  2.67331321E+00  2.75055865E+00  2.80398884E+00  2.86409701E+00
  2.97421882E+00  3.26425693E+00  3.66114319E+00  3.66496098E+00  3.90579571E+00
  4.06660021E+00  2.37810453E+01  2.46971167E+01
Alpha MO coefficients                      R   N=        4624
  3.98662746E-01  3.27983539E-01  5.07345269E-08 -3.69566780E-04  0.00000000E+00
  9.01023983E-03 -4.98558324E-07  1.63417235E-03  0.00000000E+00 -2.32527602E-03
 -6.51042376E-07  2.88260282E-04  0.00000000E+00 -6.07345150E-04  3.53128093E-07
 -8.39134327E-04  0.00000000E+00 -7.47164848E-04  0.00000000E+00  0.00000000E+00
  5.21699693E-04 -6.61244821E-07  3.98662746E-01  3.27983539E-01 -5.07345269E-08
  3.69566780E-04  0.00000000E+00  9.01023983E-03  4.98558324E-07 -1.63417235E-03
  0.00000000E+00 -2.32527602E-03  6.51042376E-07 -2.88260282E-04  0.00000000E+00
 -6.07345150E-04 -3.53128093E-07  8.39134327E-04  0.00000000E+00 -7.47164848E-04
  0.00000000E+00  0.00000000E+00  5.21699693E-04 -6.61244821E-07  1.84304139E-04
 -2.36441160E-03  1.58699512E-03  1.27247760E-03  6.61565078E-04  0.00000000E+00
  1.84144738E-04 -2.36618401E-03  1.58760122E-03 -1.27299579E-03  6.62133851E-04
  0.00000000E+00  1.84304139E-04 -2.36441160E-03  1.58699512E-03 -1.27247760E-03
 -6.61565078E-04  0.00000000E+00  1.84144738E-04 -2.36618401E-03  1.58760122E-03
  1.27299579E-03 -6.62133851E-04  0.00000000E+00  3.98963007E-01  3.27547948E-01
  5.38692344E-08  9.78032743E-04  0.00000000E+00  1.21851615E-02 -3.01577795E-07
 -7.71479573E-03  0.00000000E+00 -9.82575272E-04  8.68072766E-08  1.06244186E-03
  0.00000000E+00  1.53773329E-03  2.01698475E-08 -5.64779183E-04  0.00000000E+00
 -2.08561687E-03  0.00000000E+00  0.00000000E+00 -3.27359990E-03 -1.82314830E-07
 -3.98963007E-01 -3.27547948E-01  5.38692344E-08  9.78032743E-04  0.00000000E+00
 -1.21851615E-02 -3.01577795E-07 -7.71479573E-03  0.00000000E+00  9.82575272E-04
  8.68072766E-08  1.06244186E-03  0.00000000E+00 -1.53773329E-03  2.01698475E-08
 -5.64779183E-04  0.00000000E+00  2.08561687E-03  0.00000000E+00  0.00000000E+00
  3.27359990E-03  1.82314830E-07  4.95716847E-04 -6.87515307E-04  2.43032219E-04
  3.94580291E-04  9.98533690E-05  0.00000000E+00  4.95610426E-04 -6.87899282E-04
  2.43266018E-04 -3.94953612E-04  9.99108860E-05  0.00000000E+00 -4.95716847E-04
  6.87515307E-04 -2.43032219E-04  3.94580291E-04  9.98533690E-05  0.00000000E+00
 -4.95610426E-04  6.87899282E-04 -2.43266018E-04 -3.94953612E-04  9.99108860E-05
  0.00000000E+00 -8.81178091E-02 -1.40914006E-01 -9.54822676E-07 -6.33467957E-02
  0.00000000E+00  3.53719931E-01 -1.87956376E-06 -7.51295495E-02  0.00000000E+00
  1.80158845E-01 -3.26004657E-06 -1.84241062E-02  0.00000000E+00  7.11928554E-04
 -7.33307004E-07  8.39299865E-03  0.00000000E+00 -1.15118173E-02  0.00000000E+00
  0.00000000E+00 -1.02884609E-02 -2.09626171E-06 -8.81178091E-02 -1.40914006E-01
  9.54822676E-07  6.33467957E-02  0.00000000E+00  3.53719931E-01  1.87956376E-06
  7.51295495E-02  0.00000000E+00  1.80158845E-01  3.26004657E-06  1.84241062E-02
  0.00000000E+00  7.11928554E-04  7.33307004E-07 -8.39299865E-03  0.00000000E+00
 -1.15118173E-02  0.00000000E+00  0.00000000E+00 -1.02884609E-02 -2.09626171E-06
  4.91336066E-02  5.34798284E-02 -9.53206914E-04 -6.38973937E-03 -6.92297988E-03
  0.00000000E+00  4.91357240E-02  5.34781999E-02 -9.55468634E-04  6.38700733E-03
 -6.92336452E-03  0.00000000E+00  4.91336066E-02  5.34798284E-02 -9.53206914E-04
  6.38973937E-03  6.92297988E-03  0.00000000E+00  4.91357240E-02  5.34781999E-02
 -9.55468634E-04 -6.38700733E-03  6.92336452E-03  0.00000000E+00 -6.45193996E-02
 -1.04958737E-01 -1.14444552E-05  7.69486092E-02  0.00000000E+00  2.72789638E-01
 -1.35963234E-05  1.16034301E-01  0.00000000E+00  2.21533931E-01 -6.23744007E-06
  5.33473137E-02  0.00000000E+00 -9.46995954E-02 -2.98620715E-07  2.69140327E-02
  0.00000000E+00 -5.31260580E-03  0.00000000E+00  0.00000000E+00  9.05590343E-03
 -1.22354332E-06  6.45193996E-02  1.04958737E-01 -1.14444552E-05  7.69486092E-02
  0.00000000E+00 -2.72789638E-01 -1.35963234E-05  1.16034301E-01  0.00000000E+00
 -2.21533931E-01 -6.23744007E-06  5.33473137E-02  0.00000000E+00  9.46995954E-02
 -2.98620715E-07  2.69140327E-02  0.00000000E+00  5.31260580E-03  0.00000000E+00
  0.00000000E+00 -9.05590343E-03  1.22354332E-06  9.17574260E-02  1.14439201E-01
  1.85347852E-02 -1.26001721E-02 -4.22303068E-03  0.00000000E+00  9.17837544E-02
  1.14469738E-01  1.85377024E-02  1.26023183E-02 -4.22754132E-03  0.00000000E+00
 -9.17574260E-02 -1.14439201E-01 -1.85347852E-02 -1.26001721E-02 -4.22303068E-03
  0.00000000E+00 -9.17837544E-02 -1.14469738E-01 -1.85377024E-02  1.26023183E-02
 -4.22754132E-03  0.00000000E+00 -4.30644398E-06 -7.11237537E-06  1.51215043E-01
  1.33586352E-06  0.00000000E+00  1.87838690E-05  2.13034378E-01  9.18529751E-06
  0.00000000E+00  2.17596542E-05  1.22286995E-01  3.90881398E-06  0.00000000E+00
  1.45579807E-05  5.93297828E-03 -3.03462725E-06  0.00000000E+00 -3.66704072E-07
  0.00000000E+00  0.00000000E+00  4.00462339E-06 -6.50786397E-03  4.30644398E-06
  7.11237537E-06  1.51215043E-01  1.33586352E-06  0.00000000E+00 -1.87838690E-05
  2.13034378E-01  9.18529751E-06  0.00000000E+00 -2.17596542E-05  1.22286995E-01
  3.90881398E-06  0.00000000E+00 -1.45579807E-05  5.93297828E-03 -3.03462725E-06
  0.00000000E+00  3.66704072E-07  0.00000000E+00  0.00000000E+00 -4.00462339E-06
  6.50786397E-03  9.53427100E-02  1.30280129E-01  2.78720033E-02 -9.23541988E-03
 -1.02549979E-02  0.00000000E+00 -9.53250311E-02 -1.30254816E-01 -2.78652772E-02
 -9.23235111E-03  1.02571611E-02  0.00000000E+00 -9.53427100E-02 -1.30280129E-01
 -2.78720033E-02 -9.23541988E-03 -1.02549979E-02  0.00000000E+00  9.53250311E-02
  1.30254816E-01  2.78652772E-02 -9.23235111E-03  1.02571611E-02  0.00000000E+00
  6.74953125E-03  1.10894480E-02 -2.43481122E-05  1.96893982E-01  0.00000000E+00
 -2.80351575E-02 -2.93334790E-05  2.62739919E-01  0.00000000E+00  4.51517080E-02
 -2.31253529E-05  1.45529081E-01  0.00000000E+00  6.70744131E-03 -7.65553145E-06
  1.38385465E-03  0.00000000E+00  1.91638640E-03  0.00000000E+00  0.00000000E+00
  1.76966986E-02 -6.05094607E-06  6.74953125E-03  1.10894480E-02  2.43481122E-05
 -1.96893982E-01  0.00000000E+00 -2.80351575E-02  2.93334790E-05 -2.62739919E-01
  0.00000000E+00  4.51517080E-02  2.31253529E-05 -1.45529081E-01  0.00000000E+00
  6.70744131E-03  7.65553145E-06 -1.38385465E-03  0.00000000E+00  1.91638640E-03
  0.00000000E+00  0.00000000E+00  1.76966986E-02 -6.05094607E-06  7.96519999E-02
  1.13009212E-01  3.84968721E-02 -1.21884304E-02  2.99014112E-03  0.00000000E+00
  7.97085429E-02  1.13088034E-01  3.85130440E-02  1.21946822E-02  2.98309866E-03
  0.00000000E+00  7.96519999E-02  1.13009212E-01  3.84968721E-02  1.21884304E-02
 -2.99014112E-03  0.00000000E+00  7.97085429E-02  1.13088034E-01  3.85130440E-02
 -1.21946822E-02 -2.98309866E-03  0.00000000E+00  3.61625865E-06  5.90246604E-06
  1.36145542E-01  3.47483535E-05  0.00000000E+00 -1.61627709E-05  1.98760598E-01
  4.78898999E-05  0.00000000E+00  7.82041099E-07  1.73694831E-01  3.07168278E-05
  0.00000000E+00  3.18767195E-06  2.77367990E-02  4.37515357E-07  0.00000000E+00
  1.63605449E-07  0.00000000E+00  0.00000000E+00  7.42543572E-06  3.67979695E-02
  3.61625865E-06  5.90246604E-06 -1.36145542E-01 -3.47483535E-05  0.00000000E+00
 -1.61627709E-05 -1.98760598E-01 -4.78898999E-05  0.00000000E+00  7.82041099E-07
 -1.73694831E-01 -3.07168278E-05  0.00000000E+00  3.18767195E-06 -2.77367990E-02
 -4.37515357E-07  0.00000000E+00  1.63605449E-07  0.00000000E+00  0.00000000E+00
  7.42543572E-06  3.67979695E-02  1.18705383E-01  1.74510441E-01  8.61300311E-02
 -3.78303683E-03 -7.21303275E-03  0.00000000E+00 -1.18670252E-01 -1.74451171E-01
 -8.60980662E-02 -3.77527694E-03  7.21597889E-03  0.00000000E+00  1.18705383E-01
  1.74510441E-01  8.61300311E-02  3.78303683E-03  7.21303275E-03  0.00000000E+00
 -1.18670252E-01 -1.74451171E-01 -8.60980662E-02  3.77527694E-03 -7.21597889E-03
  0.00000000E+00  0.00000000E+00  0.00000000E+00  0.00000000E+00  0.00000000E+00
  1.80153993E-01  0.00000000E+00  0.00000000E+00  0.00000000E+00  2.85277125E-01
  0.00000000E+00  0.00000000E+00  0.00000000E+00  2.34070838E-01  0.00000000E+00
  0.00000000E+00  0.00000000E+00  2.27114801E-02  0.00000000E+00  1.61797301E-07
 -2.40982701E-02  0.00000000E+00  0.00000000E+00  0.00000000E+00  0.00000000E+00
  0.00000000E+00  0.00000000E+00  1.80153993E-01  0.00000000E+00  0.00000000E+00
  0.00000000E+00  2.85277125E-01  0.00000000E+00  0.00000000E+00  0.00000000E+00
  2.34070838E-01  0.00000000E+00  0.00000000E+00  0.00000000E+00  2.27114801E-02
  0.00000000E+00 -1.61797301E-07  2.40982701E-02  0.00000000E+00  0.00000000E+00
  0.00000000E+00  0.00000000E+00  0.00000000E+00  0.00000000E+00  0.00000000E+00
  1.24374434E-02  0.00000000E+00  0.00000000E+00  0.00000000E+00  0.00000000E+00
  0.00000000E+00  1.24384016E-02  0.00000000E+00  0.00000000E+00  0.00000000E+00
  0.00000000E+00  0.00000000E+00  1.24374434E-02  0.00000000E+00  0.00000000E+00
  0.00000000E+00  0.00000000E+00  0.00000000E+00  1.24384016E-02  1.66863861E-02
  2.85642201E-02 -2.66728036E-06 -4.11110418E-02  0.00000000E+00 -8.05591959E-02
  5.48100481E-06 -6.37624978E-02  0.00000000E+00 -2.81446856E-01 -9.61498655E-05
 -1.46170908E-01  0.00000000E+00  1.20477741E+00 -2.92400808E-04  7.17114191E-01
  0.00000000E+00  1.22761112E-02  0.00000000E+00  0.00000000E+00 -6.70844479E-03
  4.16633570E-06  1.66863861E-02  2.85642201E-02  2.66728036E-06  4.11110418E-02
  0.00000000E+00 -8.05591959E-02 -5.48100481E-06  6.37624978E-02  0.00000000E+00
 -2.81446856E-01  9.61498655E-05  1.46170908E-01  0.00000000E+00  1.20477741E+00
  2.92400808E-04 -7.17114191E-01  0.00000000E+00  1.22761112E-02  0.00000000E+00
  0.00000000E+00 -6.70844479E-03  4.16633570E-06 -2.25181339E-02  8.29012638E-02
 -4.01887523E-01  1.59429735E-03  2.11736121E-03  0.00000000E+00 -2.25209386E-02
  8.29087712E-02 -4.02176669E-01 -1.59247374E-03  2.11836321E-03  0.00000000E+00
 -2.25181339E-02  8.29012638E-02 -4.01887523E-01 -1.59429735E-03 -2.11736121E-03
  0.00000000E+00 -2.25209386E-02  8.29087712E-02 -4.02176669E-01  1.59247374E-03
 -2.11836321E-03  0.00000000E+00  0.00000000E+00  0.00000000E+00  0.00000000E+00
  0.00000000E+00  1.29299698E-01  0.00000000E+00  0.00000000E+00  0.00000000E+00
  2.16635141E-01  0.00000000E+00  0.00000000E+00  0.00000000E+00  3.45961027E-01
  0.00000000E+00  0.00000000E+00  0.00000000E+00  1.22543665E+00  0.00000000E+00
  2.50272954E-07  2.89758605E-02  0.00000000E+00  0.00000000E+00  0.00000000E+00
  0.00000000E+00  0.00000000E+00  0.00000000E+00 -1.29299698E-01  0.00000000E+00
  0.00000000E+00  0.00000000E+00 -2.16635141E-01  0.00000000E+00  0.00000000E+00
  0.00000000E+00 -3.45961027E-01  0.00000000E+00  0.00000000E+00  0.00000000E+00
 -1.22543665E+00  0.00000000E+00  2.50272954E-07  2.89758605E-02  0.00000000E+00
  0.00000000E+00  0.00000000E+00  0.00000000E+00  0.00000000E+00  0.00000000E+00
  0.00000000E+00  1.97861224E-02  0.00000000E+00  0.00000000E+00  0.00000000E+00
  0.00000000E+00  0.00000000E+00  1.97884895E-02  0.00000000E+00  0.00000000E+00
  0.00000000E+00  0.00000000E+00  0.00000000E+00 -1.97861224E-02  0.00000000E+00
  0.00000000E+00  0.00000000E+00  0.00000000E+00  0.00000000E+00 -1.97884895E-02
 -1.87479745E-02 -3.21774704E-02 -5.14316638E-06  1.85033506E-02  0.00000000E+00
  1.07344406E-01 -1.32028024E-05  3.88641440E-02  0.00000000E+00 -1.76430270E-01
 -9.14979575E-06  2.36662164E-01  0.00000000E+00  1.29509691E+01  9.10185160E-05
 -4.08263621E+00  0.00000000E+00  3.07727023E-03  0.00000000E+00  0.00000000E+00
  1.53192631E-02 -2.44031976E-06  1.87479745E-02  3.21774704E-02 -5.14316638E-06
  1.85033506E-02  0.00000000E+00 -1.07344406E-01 -1.32028024E-05  3.88641440E-02
  0.00000000E+00  1.76430270E-01 -9.14979575E-06  2.36662164E-01  0.00000000E+00
 -1.29509691E+01  9.10185160E-05 -4.08263621E+00  0.00000000E+00 -3.07727023E-03
  0.00000000E+00  0.00000000E+00 -1.53192631E-02  2.44031976E-06  1.14685498E-02
 -4.86922338E-02  1.89410733E-01 -1.86192291E-03 -9.97543891E-03  0.00000000E+00
  1.14733370E-02 -4.87310937E-02  1.89567102E-01  1.86089687E-03 -9.97545343E-03
  0.00000000E+00 -1.14685498E-02  4.86922338E-02 -1.89410733E-01 -1.86192291E-03
 -9.97543891E-03  0.00000000E+00 -1.14733370E-02  4.87310937E-02 -1.89567102E-01
  1.86089687E-03 -9.97545343E-03  0.00000000E+00  2.63587379E-06  4.46775435E-06
 -5.85860012E-02 -2.57158382E-06  0.00000000E+00 -1.25316709E-05 -9.70725462E-02
 -2.76430058E-06  0.00000000E+00  1.32643909E-05 -1.61000691E-01 -2.86851630E-05
  0.00000000E+00  1.22821969E-04  8.16565315E-01  7.04618232E-05  0.00000000E+00
  1.25776599E-07  0.00000000E+00  0.00000000E+00 -4.43488986E-06 -8.49923391E-04
 -2.63587379E-06 -4.46775435E-06 -5.85860012E-02 -2.57158382E-06  0.00000000E+00
  1.25316709E-05 -9.70725462E-02 -2.76430058E-06  0.00000000E+00 -1.32643909E-05
 -1.61000691E-01 -2.86851630E-05  0.00000000E+00 -1.22821969E-04  8.16565315E-01
  7.04618232E-05  0.00000000E+00 -1.25776599E-07  0.00000000E+00  0.00000000E+00