Title Card Required                                                     
FOpt      UM062X                                                      6-311+G(d,p)        
Number of atoms                            I                4
Info1-9                                    I   N=           9
          13          13           0           0           0         110
           2          18        -502
Full Title                                 C   N=           2
Title Card Required     
Route                                      C   N=           4
#p opt UM062X/6-311+G** nosymm int=superfine    
Charge                                     I                0
Multiplicity                               I                1
Number of electrons                        I               14
Number of alpha electrons                  I                7
Number of beta electrons                   I                7
Number of basis functions                  I               56
Number of independent functions            I               56
Number of point charges in /Mol/           I                0
Number of translation vectors              I                0
Atomic numbers                             I   N=           4
           6           6           1           1
Nuclear charges                            R   N=           4
  6.00000000E+00  6.00000000E+00  1.00000000E+00  1.00000000E+00
Current cartesian coordinates              R   N=          12
 -1.27806432E+00  0.00000000E+00  0.00000000E+00  1.27806432E+00  0.00000000E+00
  0.00000000E+00 -3.29500491E+00  1.08197421E-09 -2.31704660E-07  3.29500720E+00
  3.61310244E-07 -1.49274467E-07
Number of symbols in /Mol/                 I                0
Force Field                                I                0
Atom Types                                 C   N=           4
                                                
Int Atom Types                             I   N=           4
           0           0           0           0
MM charges                                 R   N=           4
  0.00000000E+00  0.00000000E+00  0.00000000E+00  0.00000000E+00
Integer atomic weights                     I   N=           4
          12          12           1           1
Real atomic weights                        R   N=           4
  1.20000000E+01  1.20000000E+01  1.00782504E+00  1.00782504E+00
Atom fragment info                         I   N=           4
           0           0           0           0
Atom residue num                           I   N=           4
           0           0           0           0
Nuclear spins                              I   N=           4
           0           0           1           1
Nuclear ZEff                               R   N=           4
 -3.60000000E+00 -3.60000000E+00 -1.00000000E+00 -1.00000000E+00
Nuclear ZNuc                               R   N=           4
  6.00000000E+00  6.00000000E+00  1.00000000E+00  1.00000000E+00
Nuclear QMom                               R   N=           4
  0.00000000E+00  0.00000000E+00  0.00000000E+00  0.00000000E+00
Nuclear GFac                               R   N=           4
  0.00000000E+00  0.00000000E+00  2.79284600E+00  2.79284600E+00
MicOpt                                     I   N=           4
          -2          -2          -1          -1
Number of residues                         I                0
Number of secondary structures             I                0
Redundant internal dimensions              I   N=           4
          12           8           4           0
Redundant internal coordinate indices      I   N=          48
           1          -1           0           0           1          -2
           0           0           1          -3           0           0
           2          -1           0           0           2          -2
           0           0           2          -3           0           0
           1           3           0           0           2           4
           0           0           2           1           3          -4
           1           2           4          -4           2           1
           3          -8           1           2           4          -8
Redundant internal coordinates             R   N=          12
 -1.27806432E+00  0.00000000E+00  0.00000000E+00  1.27806432E+00  0.00000000E+00
  0.00000000E+00  2.01694060E+00  2.01694289E+00  3.14159277E+00  3.14159258E+00
  3.14159265E+00  3.14159248E+00
ZRed-IntVec                                I   N=          12
          -1          -1          -1          -1          -1          -1
           0           0           0           0           0           0
ZRed-FPVec                                 R   N=          12
  0.00000000E+00  0.00000000E+00  0.00000000E+00  0.00000000E+00  0.00000000E+00
  0.00000000E+00  0.00000000E+00  0.00000000E+00  0.00000000E+00  0.00000000E+00
  0.00000000E+00  0.00000000E+00
ZRed-Constraint1                           R   N=          12
 -1.27806432E+00  0.00000000E+00  0.00000000E+00  1.27806432E+00  0.00000000E+00
  0.00000000E+00  2.27292889E+00  2.27289472E+00  3.14159265E+00  3.14159265E+00
  3.14159265E+00  3.14159265E+00
ZRed-Constraint2                           R   N=          12
 -1.27806432E+00  0.00000000E+00  0.00000000E+00  1.27806432E+00  0.00000000E+00
  0.00000000E+00  0.00000000E+00  0.00000000E+00  0.00000000E+00  0.00000000E+00
  0.00000000E+00  0.00000000E+00
Number of contracted shells                I               20
Number of primitive shells                 I               38
Pure/Cartesian d shells                    I                0
Pure/Cartesian f shells                    I                0
Highest angular momentum                   I                2
Largest degree of contraction              I                6
Shell types                                I   N=          20
           0          -1          -1          -1          -1          -2
           0          -1          -1          -1          -1          -2
           0           0           0           1           0           0
           0           1
Number of primitives per shell             I   N=          20
           6           3           1           1           1           1
           6           3           1           1           1           1
           3           1           1           1           3           1
           1           1
Shell to atom map                          I   N=          20
           1           1           1           1           1           1
           2           2           2           2           2           2
           3           3           3           3           4           4
           4           4
Primitive exponents                        R   N=          38
  4.56324000E+03  6.82024000E+02  1.54973000E+02  4.44553000E+01  1.30290000E+01
  1.82773000E+00  2.09642000E+01  4.80331000E+00  1.45933000E+00  4.83456000E-01
  1.45585000E-01  4.38000000E-02  6.26000000E-01  4.56324000E+03  6.82024000E+02
  1.54973000E+02  4.44553000E+01  1.30290000E+01  1.82773000E+00  2.09642000E+01
  4.80331000E+00  1.45933000E+00  4.83456000E-01  1.45585000E-01  4.38000000E-02
  6.26000000E-01  3.38650000E+01  5.09479000E+00  1.15879000E+00  3.25840000E-01
  1.02741000E-01  7.50000000E-01  3.38650000E+01  5.09479000E+00  1.15879000E+00
  3.25840000E-01  1.02741000E-01  7.50000000E-01
Contraction coefficients                   R   N=          38
  1.96665025E-03  1.52306019E-02  7.61269097E-02  2.60801033E-01  6.16462078E-01
  2.21006028E-01  1.14660081E-01  9.19999648E-01 -3.03068213E-03  1.00000000E+00
  1.00000000E+00  1.00000000E+00  1.00000000E+00  1.96665025E-03  1.52306019E-02
  7.61269097E-02  2.60801033E-01  6.16462078E-01  2.21006028E-01  1.14660081E-01
  9.19999648E-01 -3.03068213E-03  1.00000000E+00  1.00000000E+00  1.00000000E+00
  1.00000000E+00  2.54938145E-02  1.90373109E-01  8.52161486E-01  1.00000000E+00
  1.00000000E+00  1.00000000E+00  2.54938145E-02  1.90373109E-01  8.52161486E-01
  1.00000000E+00  1.00000000E+00  1.00000000E+00
P(S=P) Contraction coefficients            R   N=          38
  0.00000000E+00  0.00000000E+00  0.00000000E+00  0.00000000E+00  0.00000000E+00
  0.00000000E+00  4.02486927E-02  2.37593957E-01  8.15853851E-01  1.00000000E+00
  1.00000000E+00  1.00000000E+00  0.00000000E+00  0.00000000E+00  0.00000000E+00
  0.00000000E+00  0.00000000E+00  0.00000000E+00  0.00000000E+00  4.02486927E-02
  2.37593957E-01  8.15853851E-01  1.00000000E+00  1.00000000E+00  1.00000000E+00
  0.00000000E+00  0.00000000E+00  0.00000000E+00  0.00000000E+00  0.00000000E+00
  0.00000000E+00  0.00000000E+00  0.00000000E+00  0.00000000E+00  0.00000000E+00
  0.00000000E+00  0.00000000E+00  0.00000000E+00
Coordinates of each shell                  R   N=          60
 -1.27806432E+00  0.00000000E+00  0.00000000E+00 -1.27806432E+00  0.00000000E+00
  0.00000000E+00 -1.27806432E+00  0.00000000E+00  0.00000000E+00 -1.27806432E+00
  0.00000000E+00  0.00000000E+00 -1.27806432E+00  0.00000000E+00  0.00000000E+00
 -1.27806432E+00  0.00000000E+00  0.00000000E+00  1.27806432E+00  0.00000000E+00
  0.00000000E+00  1.27806432E+00  0.00000000E+00  0.00000000E+00  1.27806432E+00
  0.00000000E+00  0.00000000E+00  1.27806432E+00  0.00000000E+00  0.00000000E+00
  1.27806432E+00  0.00000000E+00  0.00000000E+00  1.27806432E+00  0.00000000E+00
  0.00000000E+00 -3.29500491E+00  1.08197421E-09 -2.31704660E-07 -3.29500491E+00
  1.08197421E-09 -2.31704660E-07 -3.29500491E+00  1.08197421E-09 -2.31704660E-07
 -3.29500491E+00  1.08197421E-09 -2.31704660E-07  3.29500720E+00  3.61310244E-07
 -1.49274467E-07  3.29500720E+00  3.61310244E-07 -1.49274467E-07  3.29500720E+00
  3.61310244E-07 -1.49274467E-07  3.29500720E+00  3.61310244E-07 -1.49274467E-07
Num ILSW                                   I              100
ILSW                                       I   N=         100
           1           0           0           0           2           0
           0           0           0           0        4336          -1
           7           0           0           0           2           0
           0           0           0           0           1           0
           1           1           0           0           0           0
           0           0      100000           0          -1           0
           0           0           0           0           0           0
           0           0           0           1           0           0
           0 -2000000000           1           0           0           0
           0           0           4          52           0           0
           0           0          55           0           0           0
           0           0           0           4           0           1
           0           0           0           0           0           0
           0           0           0           0           0           0
           0           0           0           0           0           0
           0           0           0           0           0           0
           0           0           0           0
Num RLSW                                   I               52
RLSW                                       R   N=          52
  1.00000000E+00  1.00000000E+00  1.00000000E+00  1.00000000E+00  5.40000000E-01
  0.00000000E+00  0.00000000E+00  1.00000000E+00  0.00000000E+00  0.00000000E+00
  0.00000000E+00  0.00000000E+00  1.00000000E+00  0.00000000E+00  0.00000000E+00
  0.00000000E+00  0.00000000E+00  1.00000000E+00  0.00000000E+00  0.00000000E+00
  0.00000000E+00  0.00000000E+00  1.00000000E+00  0.00000000E+00  0.00000000E+00
  0.00000000E+00  0.00000000E+00  1.00000000E+00  0.00000000E+00  0.00000000E+00
  0.00000000E+00  0.00000000E+00  1.00000000E+00  0.00000000E+00  0.00000000E+00
  0.00000000E+00  0.00000000E+00  0.00000000E+00  1.00000000E+00  1.00000000E+00
  0.00000000E+00  1.00000000E+00  0.00000000E+00  0.00000000E+00  0.00000000E+00
  0.00000000E+00  0.00000000E+00  0.00000000E+00  0.00000000E+00  0.00000000E+00
  0.00000000E+00  0.00000000E+00
MxBond                                     I                2
NBond                                      I   N=           4
           2           2           1           1
IBond                                      I   N=           8
           2           3           1           4           1           0
           2           0
RBond                                      R   N=           8
  2.00000000E+00  1.00000000E+00  2.00000000E+00  1.00000000E+00  1.00000000E+00
  0.00000000E+00  1.00000000E+00  0.00000000E+00
Virial Ratio                               R      2.011295448434372E+00
SCF Energy                                 R     -7.727860291177704E+01
Total Energy                               R     -7.727860291177704E+01
S**2                                       R     -5.062616992290714E-14
S**2 after annihilation                    R      1.634248292248190E-13
RMS Force                                  R      1.252151613889916E-04
RMS Density                                R      5.849657030504736E-09
Job Status                                 I                1
Nuclear derivative order                   I                1
External E-field                           R   N=          35
  0.00000000E+00  0.00000000E+00  0.00000000E+00  0.00000000E+00  0.00000000E+00
  0.00000000E+00  0.00000000E+00  0.00000000E+00  0.00000000E+00  0.00000000E+00
  0.00000000E+00  0.00000000E+00  0.00000000E+00  0.00000000E+00  0.00000000E+00
  0.00000000E+00  0.00000000E+00  0.00000000E+00  0.00000000E+00  0.00000000E+00
  0.00000000E+00  0.00000000E+00  0.00000000E+00  0.00000000E+00  0.00000000E+00
  0.00000000E+00  0.00000000E+00  0.00000000E+00  0.00000000E+00  0.00000000E+00
  0.00000000E+00  0.00000000E+00  0.00000000E+00  0.00000000E+00  0.00000000E+00
IOpCl                                      I                1
IROHF                                      I                0
Alpha Orbital Energies                     R   N=          56
 -1.05907249E+01 -1.05896759E+01 -8.22767671E-01 -6.66218344E-01 -5.62417651E-01
 -3.35627384E-01 -3.35627384E-01  1.79635247E-02  1.79635247E-02  2.42743182E-02
  2.49422757E-02  7.90994983E-02  7.90994983E-02  9.31984037E-02  1.27960348E-01
  1.27960348E-01  1.39356975E-01  1.88251626E-01  2.38749039E-01  3.56038362E-01
  4.54547688E-01  5.80832094E-01  5.80832094E-01  6.34627053E-01  6.34627053E-01
  7.19733792E-01  7.19936010E-01  8.33599572E-01  8.65622894E-01  1.06227983E+00
  1.06227983E+00  1.06829310E+00  1.23091427E+00  1.23091511E+00  1.44196142E+00
  1.44196142E+00  1.54171762E+00  1.54171868E+00  1.69824033E+00  1.80456986E+00
  1.80456986E+00  2.00039200E+00  2.40020104E+00  2.40020104E+00  2.52632601E+00
  2.69062913E+00  2.76554100E+00  2.76554100E+00  2.93628285E+00  2.94441654E+00
  2.94441654E+00  3.24404911E+00  3.31200416E+00  3.70286981E+00  2.35923738E+01
  2.46139901E+01
Beta Orbital Energies                      R   N=          56
 -1.05907249E+01 -1.05896759E+01 -8.22767671E-01 -6.66218344E-01 -5.62417651E-01
 -3.35627384E-01 -3.35627384E-01  1.79635247E-02  1.79635247E-02  2.42743182E-02
  2.49422757E-02  7.90994983E-02  7.90994983E-02  9.31984037E-02  1.27960348E-01
  1.27960348E-01  1.39356975E-01  1.88251626E-01  2.38749039E-01  3.56038362E-01
  4.54547688E-01  5.80832094E-01  5.80832094E-01  6.34627053E-01  6.34627053E-01
  7.19733792E-01  7.19936010E-01  8.33599572E-01  8.65622894E-01  1.06227983E+00
  1.06227983E+00  1.06829310E+00  1.23091427E+00  1.23091511E+00  1.44196142E+00
  1.44196142E+00  1.54171762E+00  1.54171868E+00  1.69824033E+00  1.80456986E+00
  1.80456986E+00  2.00039200E+00  2.40020104E+00  2.40020104E+00  2.52632601E+00
  2.69062913E+00  2.76554100E+00  2.76554100E+00  2.93628285E+00  2.94441654E+00
  2.94441654E+00  3.24404911E+00  3.31200416E+00  3.70286981E+00  2.35923738E+01
  2.46139901E+01
Alpha MO coefficients                      R   N=        3136
  3.98832747E-01  3.28139578E-01  5.58347816E-05 -1.56960987E-10  8.56350297E-11
  7.85743241E-03 -2.10122513E-03  1.56206954E-10 -3.14210633E-10 -2.83603884E-03
  1.18983108E-04 -8.01091319E-11  5.19096558E-11 -4.40203037E-04  1.55892988E-03
  1.64288601E-10  9.07997564E-11 -5.08659060E-04  2.40960863E-10  4.95803710E-18
  8.81023336E-04  8.07480174E-11  3.98873545E-01  3.28173070E-01 -5.57556794E-05
 -3.29323650E-11  1.13998183E-10  7.85850405E-03  2.10094780E-03  3.90565076E-10
 -2.60496482E-10 -2.83709863E-03 -1.17848980E-04 -2.94157063E-11  6.31863283E-11
 -4.41448707E-04 -1.55858163E-03 -2.47783286E-10 -2.98547946E-12 -5.08878922E-04
 -1.24488714E-10 -3.33946230E-17  8.81404149E-04  4.28405225E-10  9.58694116E-05
 -3.28761109E-03  2.82223371E-03 -1.87266716E-03  1.86945693E-11 -1.96549602E-10
  9.58543104E-05 -3.28815493E-03  2.82199527E-03  1.87290125E-03  2.95130699E-10
 -1.33329881E-10  3.99073540E-01  3.27611812E-01 -7.60322054E-04 -1.08710528E-10
  5.12350475E-11  1.06243570E-02  2.55222740E-03 -9.32229430E-11 -1.96776461E-10
 -1.04786829E-02 -1.12331065E-02  2.87599231E-10 -4.78923131E-10 -1.28441850E-02
 -3.56310481E-03  1.28994768E-10 -2.09117913E-10 -2.18370974E-03  3.95259523E-10
 -7.20822300E-18  3.78229622E-03 -9.62266342E-11 -3.99032763E-01 -3.27578265E-01
 -7.60328050E-04  1.01596666E-11 -7.37715426E-11 -1.06235400E-02  2.55245696E-03
 -3.67116764E-10  9.14045533E-11  1.04784074E-02 -1.12331136E-02 -5.63854442E-10
  4.15722451E-10  1.28441389E-02 -3.56326320E-03 -2.43166842E-10  1.82982841E-10
  2.18365444E-03  2.90104136E-10  3.94473559E-17 -3.78220044E-03 -5.55670665E-10
 -1.80471697E-04 -5.56061775E-03 -2.26522737E-03 -2.39089600E-03 -6.93346971E-11
 -4.50056780E-10  1.80475707E-04  5.56026155E-03  2.26551164E-03 -2.39069648E-03
 -7.47652606E-10  2.63083092E-10 -8.85778272E-02 -1.42321722E-01  4.82855033E-02
  2.22085607E-10 -2.53766754E-09  3.77536027E-01  5.40094117E-02  5.72798705E-11
 -3.95531049E-09  2.26752289E-01  6.77366671E-03 -2.85685931E-10 -1.74506353E-09
 -5.25321580E-04 -1.58322904E-02 -9.30711955E-10 -6.58418770E-10 -1.15175303E-02
  1.71809639E-09 -4.01339023E-17  1.99489477E-02  9.20583361E-11 -8.85777488E-02
 -1.42321594E-01 -4.82856440E-02  3.82197091E-09 -1.71388748E-09  3.77535699E-01
 -5.40095639E-02  6.14278521E-09 -2.56292153E-09  2.26752080E-01 -6.77371504E-03
  2.90959963E-09 -1.01329994E-09 -5.25206036E-04  1.58322587E-02  1.62776841E-09
 -7.45202864E-11 -1.15175105E-02 -1.06925819E-09  7.25846650E-18  1.99489133E-02
  2.74340465E-09  5.63958036E-02  5.90485778E-02 -7.02422180E-03  4.15486966E-03
  1.36153082E-10 -9.73439957E-11  5.63955916E-02  5.90483943E-02 -7.02421593E-03
 -4.15484970E-03  6.46239763E-11 -1.13725365E-10 -6.27797776E-02 -1.02611983E-01
 -9.09571021E-02 -2.19492897E-09 -7.07612935E-09  2.77961965E-01 -1.16757735E-01
 -4.35630851E-09 -8.77523232E-09  2.33004063E-01 -4.71517112E-02 -9.57168901E-10
 -4.03316165E-09 -2.32133105E-01 -6.65256540E-02  6.86066682E-10 -1.04840132E-09
 -8.67378789E-03  2.89549880E-09 -9.12273856E-18  1.50234413E-02 -1.04645341E-09
  6.27798811E-02  1.02612157E-01 -9.09564094E-02 -1.24655786E-08  3.72131408E-09
 -2.77962496E-01 -1.16756939E-01 -1.65090437E-08  4.00058671E-09 -2.33004494E-01
 -4.71514832E-02 -6.91528289E-09  2.23169656E-09  2.32133101E-01 -6.65257050E-02
 -1.19939006E-09  9.30959568E-10  8.67381048E-03  2.25366107E-09 -2.10687385E-16
 -1.50234804E-02 -3.85151239E-09  1.31049076E-01  1.71958349E-01  2.48937000E-02
  1.78945219E-02 -3.38186802E-10  2.27951509E-09 -1.31048615E-01 -1.71957809E-01
 -2.48935774E-02  1.78944345E-02  3.34403545E-09 -1.59180078E-09 -4.12766572E-03
 -7.38047320E-03  1.84096300E-01 -3.02348464E-09  1.17589271E-08  2.52428783E-02
  2.37096948E-01 -5.05160465E-09  1.51464902E-08 -1.89020488E-02  1.10547971E-01
 -1.64014991E-09  7.47659453E-09 -6.67772291E-03  5.55772376E-03  8.32796314E-10
  6.12961033E-10 -2.84962428E-03 -4.64875380E-10  3.16391225E-18  4.93569404E-03
 -1.87752526E-09 -4.12748790E-03 -7.38017517E-03 -1.84096521E-01 -1.64290959E-08
  8.69135574E-09  2.52420075E-02 -2.37097393E-01 -2.04187529E-08  1.16300719E-08
 -1.89029161E-02 -1.10548259E-01 -1.06273777E-08  5.42006980E-09 -6.67653759E-03
 -5.55808266E-03 -1.49265844E-09  8.07438824E-11 -2.84959991E-03 -4.07063664E-10
 -3.89170742E-16  4.93565182E-03 -1.93255695E-09 -1.33507898E-01 -2.00490222E-01
 -4.13597436E-02 -2.41636580E-02 -3.31110994E-10 -3.50921625E-09 -1.33508201E-01
 -2.00490748E-01 -4.13598675E-02  2.41636849E-02  5.69546723E-09 -2.12996660E-09
 -1.74771235E-09 -2.91186820E-09 -1.59776455E-08 -4.05179120E-02  1.78599854E-01
  7.70422931E-09 -2.41086944E-08 -6.42331610E-02  2.83134855E-01  2.16684118E-08
 -1.77192528E-08 -5.31246764E-02  2.34169506E-01  2.84265570E-09 -4.42543104E-09
 -5.73328380E-03  2.52718760E-02 -5.82773023E-10  2.00827385E-02 -6.53916782E-10
 -1.90930780E-10 -4.55605430E-03 -1.73079958E-09 -2.88305958E-09  1.59618479E-08
 -4.05179116E-02  1.78599852E-01  7.61643398E-09  2.40736107E-08 -6.42331585E-02
  2.83134844E-01  2.16487609E-08  1.75950363E-08 -5.31246752E-02  2.34169500E-01
  3.12364247E-09  4.33716961E-09 -5.73328665E-03  2.52718886E-02  1.71211517E-10
 -2.00827359E-02  1.14963107E-09  2.39374000E-10  4.55605370E-03 -5.58889218E-10
  9.47419101E-11  4.37870836E-10 -2.57594572E-09 -3.63318147E-03  1.60147857E-02
 -5.43964015E-10  1.41967119E-10  4.80081266E-10  2.56297874E-09 -3.63317555E-03
  1.60147596E-02 -3.49106451E-09 -5.98387706E-09  5.28026261E-09  1.78599854E-01
  4.05179120E-02  1.89261185E-08  5.00706851E-09  2.83134855E-01  6.42331610E-02
 -7.46846840E-09 -2.25200087E-08  2.34169506E-01  5.31246764E-02 -7.65416020E-08
 -2.08904841E-08  2.52718760E-02  5.73328380E-03  2.87715311E-11  4.55605430E-03
 -5.98422539E-10  1.25727465E-09  2.00827385E-02  5.56349427E-09  9.43638123E-09
 -1.37487031E-08  1.78599852E-01  4.05179116E-02 -2.80540414E-08 -2.36993136E-08
  2.83134844E-01  6.42331585E-02 -1.83390875E-08 -4.35595401E-08  2.34169500E-01
  5.31246752E-02  7.29869555E-08 -2.61112001E-08  2.52718886E-02  5.73328665E-03
 -3.87117080E-10 -4.55605370E-03  2.68443417E-10 -1.63470792E-09 -2.00827359E-02
 -3.67356540E-09 -1.26214483E-08 -1.15311734E-08 -1.90803501E-09  1.60147857E-02
  3.63318147E-03  4.33071634E-09  1.24805264E-08  1.09843934E-08 -4.96997587E-09
  1.60147596E-02  3.63317555E-03 -2.37346745E-08 -4.01623753E-08 -8.46737978E-09
 -8.10742015E-02  1.33381553E-01  1.25468526E-07 -3.15928824E-08 -1.28391280E-01
  2.11226605E-01  1.61471740E-07 -3.74883857E-08 -1.99114881E-01  3.27579570E-01
  6.30952469E-06  2.15259476E-06 -4.60864488E-01  7.58204458E-01  4.06782439E-09
 -2.76564241E-02 -1.32293911E-11 -8.84023191E-09  1.68105893E-02  2.31392377E-08
  3.90640177E-08 -1.54404411E-08  8.10741993E-02 -1.33381549E-01 -1.19533947E-07
 -3.89745645E-08  1.28391280E-01 -2.11226604E-01 -1.87348569E-07 -6.38006758E-08
  1.99114862E-01 -3.27579538E-01 -6.44035634E-06  2.03768662E-06  4.60864556E-01
 -7.58204571E-01 -6.68162524E-09 -2.76564260E-02 -1.43442789E-09  1.05496293E-08
  1.68105904E-02 -2.10896462E-08 -1.10680224E-07  1.10380251E-07  6.72604121E-09
 -1.51214758E-02  2.48775305E-02  3.01813358E-08  1.19508076E-07 -1.17621169E-08
  5.91840330E-09  1.51214747E-02 -2.48775288E-02  5.99375745E-09  1.02692129E-08
 -7.87768944E-09  1.33381553E-01  8.10742015E-02 -3.55693625E-08 -3.41575544E-09
  2.11226605E-01  1.28391280E-01  9.40012933E-10 -2.85184958E-08  3.27579570E-01
  1.99114881E-01 -1.19034710E-06 -6.28498149E-07  7.58204458E-01  4.60864488E-01
  8.99090503E-10 -1.68105893E-02 -8.95705223E-10 -1.53284389E-09 -2.76564241E-02
 -4.20450141E-09 -6.96780363E-09  1.30793652E-08 -1.33381549E-01 -8.10741993E-02
  1.77343976E-08  1.87688494E-08 -2.11226604E-01 -1.28391280E-01  7.68287553E-08
  5.05600648E-08 -3.27579538E-01 -1.99114862E-01  1.58355045E-06 -2.83149524E-07
 -7.58204571E-01 -4.60864556E-01  4.54503493E-09 -1.68105904E-02 -5.11185622E-10
 -4.99716866E-09 -2.76564260E-02 -8.08469665E-09  1.17760111E-08 -1.61479475E-07
 -2.58912530E-09  2.48775305E-02  1.51214758E-02 -1.92397026E-08 -3.83057755E-08
 -1.34908706E-07 -1.62304096E-10 -2.48775288E-02 -1.51214747E-02 -2.51600275E-02
 -4.25089016E-02 -1.64854469E-02  5.41147187E-08 -5.99404092E-08  1.34007128E-01
 -5.05988850E-02  8.73684784E-08 -9.77481445E-08  3.71899284E-01  2.94224900E-01
  1.26062285E-07 -1.32016065E-07  1.42083097E+01  4.75842240E+00  2.57424700E-07
 -2.34842774E-07  5.06064946E-03  1.18848075E-08  1.12033458E-16 -8.76530198E-03
 -1.20878951E-08  2.51608461E-02  4.25103157E-02 -1.64872066E-02 -5.88764328E-08
  5.88508563E-08 -1.34012016E-01 -5.06025619E-02 -9.65788145E-08  9.56408232E-08
 -3.71900797E-01  2.94224773E-01 -1.25250957E-07  1.32201422E-07 -1.42082530E+01
  4.75848461E+00 -2.01490721E-07  2.47639652E-07 -5.06031664E-03  1.21792876E-08
  4.34633117E-16  8.76472552E-03 -1.08013808E-08 -5.65675071E-03 -6.03589176E-02
  4.94734958E-01  1.79796786E-02  1.06585928E-08 -9.26387438E-09  5.65534862E-03
  6.03633879E-02 -4.94772794E-01  1.79801203E-02 -7.62465833E-09  9.95809653E-09
 -1.58189001E-02 -2.73780661E-02 -3.06321750E-02  2.39415374E-08  4.20555659E-09
  9.52214479E-02 -6.79131044E-02  3.71142263E-08  3.48257478E-09  1.20288671E-02
  1.30309460E-02  6.77965146E-08  2.06849539E-08 -1.12201651E+00  1.19766868E+00
  2.41033859E-07  1.07167049E-07 -7.04457067E-03  9.51082430E-10 -1.96826897E-16
  1.22015543E-02 -4.37658511E-09 -1.58176575E-02 -2.73759626E-02  3.06313424E-02
 -2.19559593E-08 -6.29311264E-09  9.52147474E-02  6.79104185E-02 -2.92917447E-08
 -1.17066131E-08  1.20097190E-02 -1.30143578E-02 -7.58827649E-08 -1.21837089E-08
 -1.12272875E+00 -1.19742893E+00 -3.22304180E-07 -2.17266837E-08 -7.04480305E-03
 -2.25533338E-09 -8.50997378E-17  1.22019568E-02 -1.32659352E-09  2.95421683E-02
 -7.98378475E-02  7.65363713E-01  7.32322752E-03  4.63516690E-09  2.03375258E-09
  2.95423750E-02 -7.98350648E-02  7.65336589E-01 -7.32237107E-03 -6.15589100E-09
 -4.34880865E-10 -1.62841120E-11 -1.00188741E-10 -8.98420709E-10 -6.91444973E-02
 -8.15364694E-03  1.71307570E-09 -1.40972078E-09 -5.56126025E-02 -6.55794089E-03
 -4.00732791E-08 -4.26176932E-08 -2.99952140E-01 -3.53709109E-02 -9.79257885E-07
 -2.26748489E-07  6.47091071E-01  7.63061753E-02 -3.24630411E-10 -1.19101196E-03
  2.48738776E-10  1.74109372E-10 -1.01000109E-02 -5.46485379E-10 -9.41607203E-10
  1.13554601E-09 -6.91445551E-02 -8.15365375E-03  3.80704199E-09  4.33925355E-10
 -5.56126827E-02 -6.55795035E-03  1.81087740E-08 -4.81576338E-08 -2.99952315E-01
 -3.53709314E-02  9.19743109E-07 -3.36295981E-07  6.47091169E-01  7.63061869E-02
  7.34362971E-10  1.19101143E-03  2.51833594E-12 -2.76180903E-10  1.01000064E-02
  1.41541724E-09 -9.51781139E-09  4.35333355E-09 -1.69076699E-10  4.60242390E-03
  5.42726334E-04 -1.91064433E-09  2.25991931E-08  3.62833191E-08  7.39889344E-10
  4.60243777E-03  5.42727970E-04  4.04030070E-10  7.40819802E-10  1.37021166E-09
  8.15364694E-03 -6.91444973E-02 -3.79695871E-09  1.17743158E-09  6.55794089E-03
 -5.56126025E-02  1.15169642E-08 -8.59871323E-09  3.53709109E-02 -2.99952140E-01
 -6.28252209E-08 -1.03508601E-07 -7.63061753E-02  6.47091071E-01  9.32715248E-11
 -1.01000109E-02  1.94176163E-10  3.37329539E-10  1.19101196E-03  3.46865425E-10
  6.49854152E-10 -1.34459314E-09  8.15365375E-03 -6.91445551E-02 -3.57080584E-09
 -1.28268132E-09  6.55795035E-03 -5.56126827E-02  1.78001413E-08 -1.20456314E-09
  3.53709314E-02 -2.99952315E-01  1.42256942E-07  4.27023493E-08 -7.63061869E-02
  6.47091169E-01 -7.06892440E-11  1.01000064E-02 -4.96741092E-10  1.28126442E-10
 -1.19101143E-03  5.10087693E-10 -1.04643012E-08 -2.88425550E-08  6.37133340E-10
 -5.42726334E-04  4.60242390E-03  1.50924844E-10 -6.99598752E-09 -2.53936270E-08
 -5.75353735E-10 -5.42727970E-04  4.60243777E-03  8.15466695E-03  1.24992156E-02
 -6.20594176E-02 -1.41879818E-09 -4.34175438E-09 -1.16294372E-02 -3.48718548E-02
 -5.17402072E-09 -2.06819697E-09 -1.98900918E-01 -2.36573083E-01 -3.79133772E-09
 -2.10715204E-08  4.28849202E-01  1.08412718E+00 -1.39258863E-07 -3.45274526E-08
  2.13685503E-02 -3.73324163E-09  1.85795902E-16 -3.70114149E-02  1.08376374E-09
  8.15455238E-03  1.24990165E-02  6.20594044E-02  7.69506881E-09 -2.25647934E-09
 -1.16287969E-02  3.48719490E-02  6.55564363E-09  6.15624466E-10 -1.98900346E-01
  2.36575228E-01  3.53581012E-08 -1.21143152E-08  4.28835754E-01 -1.08412021E+00
  1.43416815E-07  3.01569591E-08  2.13685864E-02  2.80586461E-09  2.77203941E-16
 -3.70114772E-02 -5.13628799E-09 -3.16275258E-02 -4.81037695E-02 -4.34823588E-01
  3.18530834E-02 -1.76223962E-09  1.73860712E-09 -3.16279036E-02 -4.81047942E-02
 -4.34828563E-01 -3.18530284E-02 -1.58406097E-09  1.77932024E-09  9.20378225E-09
  1.53253490E-08  2.52163067E-09 -7.52002490E-02 -1.12740749E-01 -4.30173461E-08
  1.30936322E-09 -8.49958170E-02 -1.27426334E-01 -5.93621365E-08  1.99368466E-07
 -3.75687338E-01 -5.63233131E-01 -1.97840334E-06 -3.51826358E-07  1.14536558E+00
  1.71714023E+00 -4.49877051E-09  1.33442286E-02  7.79341593E-10  8.67051950E-09
  8.90085729E-03 -6.08489784E-09 -1.03950019E-08 -6.88747627E-09  7.52002496E-02
  1.12740749E-01  3.56293024E-08 -1.17031015E-08  8.49958149E-02  1.27426331E-01
 -5.93299208E-08  1.54143707E-07  3.75687323E-01  5.63233109E-01  2.02158789E-06
 -4.19390727E-07 -1.14536553E+00 -1.71714015E+00  4.95067227E-09  1.33442210E-02
  1.05270663E-09 -1.08479935E-08  8.90085222E-03  2.08618677E-08  4.92824029E-08
  4.10985362E-07 -9.30930377E-10 -3.51088636E-03 -5.26354582E-03 -1.52769276E-08
 -3.92080000E-08 -3.48689216E-07 -4.66117618E-09  3.51087338E-03  5.26352636E-03
 -3.23699747E-08 -5.46069756E-08  1.41152883E-08 -1.12740749E-01  7.52002490E-02
  1.70610791E-07  2.91669752E-08 -1.27426334E-01  8.49958170E-02 -5.60498738E-08
 -7.61186165E-07 -5.63233131E-01  3.75687338E-01  8.87500400E-06  1.73912877E-06
  1.71714023E+00 -1.14536558E+00  2.37634594E-08 -8.90085729E-03  4.37862999E-10