 Entering Gaussian System, Link 0=g16
 Initial command:
 /home/szhao/Apps/g16/l1.exe "/home/szhao/tmp/Gau-107310.inp" -scrdir="/home/szhao/tmp/"
 Default is to use a total of  16 processors:
                               16 via shared-memory
                                1 via Linda
 Entering Link 1 = /home/szhao/Apps/g16/l1.exe PID=    107318.
  
 Copyright (c) 1988,1990,1992,1993,1995,1998,2003,2009,2016,
            Gaussian, Inc.  All Rights Reserved.
  
 This is part of the Gaussian(R) 16 program.  It is based on
 the Gaussian(R) 09 system (copyright 2009, Gaussian, Inc.),
 the Gaussian(R) 03 system (copyright 2003, Gaussian, Inc.),
 the Gaussian(R) 98 system (copyright 1998, Gaussian, Inc.),
 the Gaussian(R) 94 system (copyright 1995, Gaussian, Inc.),
 the Gaussian 92(TM) system (copyright 1992, Gaussian, Inc.),
 the Gaussian 90(TM) system (copyright 1990, Gaussian, Inc.),
 the Gaussian 88(TM) system (copyright 1988, Gaussian, Inc.),
 the Gaussian 86(TM) system (copyright 1986, Carnegie Mellon
 University), and the Gaussian 82(TM) system (copyright 1983,
 Carnegie Mellon University). Gaussian is a federally registered
 trademark of Gaussian, Inc.
  
 This software contains proprietary and confidential information,
 including trade secrets, belonging to Gaussian, Inc.
  
 This software is provided under written license and may be
 used, copied, transmitted, or stored only in accord with that
 written license.
  
 The following legend is applicable only to US Government
 contracts under FAR:
  
                    RESTRICTED RIGHTS LEGEND
  
 Use, reproduction and disclosure by the US Government is
 subject to restrictions as set forth in subparagraphs (a)
 and (c) of the Commercial Computer Software - Restricted
 Rights clause in FAR 52.227-19.
  
 Gaussian, Inc.
 340 Quinnipiac St., Bldg. 40, Wallingford CT 06492
  
  
 ---------------------------------------------------------------
 Warning -- This program may not be used in any manner that
 competes with the business of Gaussian, Inc. or will provide
 assistance to any competitor of Gaussian, Inc.  The licensee
 of this program is prohibited from giving any competitor of
 Gaussian, Inc. access to this program.  By using this program,
 the user acknowledges that Gaussian, Inc. is engaged in the
 business of creating and licensing software in the field of
 computational chemistry and represents and warrants to the
 licensee that it is not a competitor of Gaussian, Inc. and that
 it will not use this program in any manner prohibited above.
 ---------------------------------------------------------------
  

 Cite this work as:
 Gaussian 16, Revision A.03,
 M. J. Frisch, G. W. Trucks, H. B. Schlegel, G. E. Scuseria, 
 M. A. Robb, J. R. Cheeseman, G. Scalmani, V. Barone, 
 G. A. Petersson, H. Nakatsuji, X. Li, M. Caricato, A. V. Marenich, 
 J. Bloino, B. G. Janesko, R. Gomperts, B. Mennucci, H. P. Hratchian, 
 J. V. Ortiz, A. F. Izmaylov, J. L. Sonnenberg, D. Williams-Young, 
 F. Ding, F. Lipparini, F. Egidi, J. Goings, B. Peng, A. Petrone, 
 T. Henderson, D. Ranasinghe, V. G. Zakrzewski, J. Gao, N. Rega, 
 G. Zheng, W. Liang, M. Hada, M. Ehara, K. Toyota, R. Fukuda, 
 J. Hasegawa, M. Ishida, T. Nakajima, Y. Honda, O. Kitao, H. Nakai, 
 T. Vreven, K. Throssell, J. A. Montgomery, Jr., J. E. Peralta, 
 F. Ogliaro, M. J. Bearpark, J. J. Heyd, E. N. Brothers, K. N. Kudin, 
 V. N. Staroverov, T. A. Keith, R. Kobayashi, J. Normand, 
 K. Raghavachari, A. P. Rendell, J. C. Burant, S. S. Iyengar, 
 J. Tomasi, M. Cossi, J. M. Millam, M. Klene, C. Adamo, R. Cammi, 
 J. W. Ochterski, R. L. Martin, K. Morokuma, O. Farkas, 
 J. B. Foresman, and D. J. Fox, Gaussian, Inc., Wallingford CT, 2016.
 
 ******************************************
 Gaussian 16:  ES64L-G16RevA.03 25-Dec-2016
                21-Apr-2025 
 ******************************************
 %chk=opt.chk
 %mem=4GB
 %nprocshared=8
 Will use up to    8 processors via shared memory.
 --------------------------------------------
 #p opt UM062X/6-311+G** nosymm int=superfine
 --------------------------------------------
 1/18=20,19=15,26=5,38=1/1,3;
 2/9=110,12=2,15=1,17=6,18=5,40=1/2;
 3/5=4,6=6,7=111,11=2,25=1,30=1,71=1,74=-55,75=-7,116=2/1,2,3;
 4//1;
 5/5=2,38=5/2;
 6/7=2,8=2,9=2,10=2,28=1/1;
 7/30=1/1,2,3,16;
 1/18=20,19=15,26=5/3(2);
 2/9=110,15=1/2;
 99//99;
 2/9=110,15=1/2;
 3/5=4,6=6,7=111,11=2,25=1,30=1,71=1,74=-55,75=-7,116=2/1,2,3;
 4/5=5,16=3,69=1/1;
 5/5=2,38=5/2;
 7/30=1/1,2,3,16;
 1/18=20,19=15,26=5/3(-5);
 2/9=110,15=1/2;
 6/7=2,8=2,9=2,10=2,19=2,28=1/1;
 99/9=1/99;
 Leave Link    1 at Mon Apr 21 21:33:00 2025, MaxMem=   536870912 cpu:               2.5 elap:               0.3
 (Enter /home/szhao/Apps/g16/l101.exe)
 -------------------
 Title Card Required
 -------------------
 Symbolic Z-matrix:
 Charge =  0 Multiplicity = 1
 O                    -1   -0.78694   0.        0. 
 O                    -1    0.78694   0.        0. 
 H                    0    -0.97672  -0.94528   0. 
 H                    0     0.97672   0.4601    0.82575 
 
 ITRead=  2  2  0  0
 MicOpt= -2 -2 -1 -1
 NAtoms=      4 NQM=        2 NQMF=       2 NMMI=      0 NMMIF=      0
                NMic=       0 NMicF=      0.
                    Isotopes and Nuclear Properties:
 (Nuclear quadrupole moments (NQMom) in fm**2, nuclear magnetic moments (NMagM)
  in nuclear magnetons)

  Atom         1           2           3           4
 IAtWgt=          16          16           1           1
 AtmWgt=  15.9949146  15.9949146   1.0078250   1.0078250
 NucSpn=           0           0           1           1
 AtZEff=  -0.0000000  -0.0000000  -0.0000000  -0.0000000
 NQMom=    0.0000000   0.0000000   0.0000000   0.0000000
 NMagM=    0.0000000   0.0000000   2.7928460   2.7928460
 AtZNuc=   8.0000000   8.0000000   1.0000000   1.0000000
 Leave Link  101 at Mon Apr 21 21:33:00 2025, MaxMem=   536870912 cpu:               3.1 elap:               0.4
 (Enter /home/szhao/Apps/g16/l103.exe)

 GradGradGradGradGradGradGradGradGradGradGradGradGradGradGradGradGradGrad
 Berny optimization.
 Initialization pass.
                           ----------------------------
                           !    Initial Parameters    !
                           ! (Angstroms and Degrees)  !
 --------------------------                            --------------------------
 ! Name  Definition              Value          Derivative Info.                !
 --------------------------------------------------------------------------------
 ! X1    R(1,-1)                -0.7869         Frozen                          !
 ! Y1    R(1,-2)                 0.0            Frozen                          !
 ! Z1    R(1,-3)                 0.0            Frozen                          !
 ! X2    R(2,-1)                 0.7869         Frozen                          !
 ! Y2    R(2,-2)                 0.0            Frozen                          !
 ! Z2    R(2,-3)                 0.0            Frozen                          !
 ! R1    R(1,3)                  0.9641         estimate D2E/DX2                !
 ! R2    R(2,4)                  0.9641         estimate D2E/DX2                !
 ! A1    A(2,1,3)              101.3523         estimate D2E/DX2                !
 ! A2    A(1,2,4)              101.3523         estimate D2E/DX2                !
 ! D1    D(3,1,2,4)           -119.1259         estimate D2E/DX2                !
 --------------------------------------------------------------------------------
 Trust Radius=3.00D-01 FncErr=1.00D-07 GrdErr=1.00D-07 EigMax=2.50D+02 EigMin=1.00D-04
 Number of steps in this run=     21 maximum allowed number of steps=    100.
 GradGradGradGradGradGradGradGradGradGradGradGradGradGradGradGradGradGrad

 Leave Link  103 at Mon Apr 21 21:33:00 2025, MaxMem=   536870912 cpu:               0.2 elap:               0.0
 (Enter /home/szhao/Apps/g16/l202.exe)
                          Input orientation:                          
 ---------------------------------------------------------------------
 Center     Atomic      Atomic             Coordinates (Angstroms)
 Number     Number       Type             X           Y           Z
 ---------------------------------------------------------------------
      1          8           0       -0.786938    0.000000    0.000000
      2          8           0        0.786938    0.000000    0.000000
      3          1           0       -0.976722   -0.945282    0.000000
      4          1           0        0.976722    0.460097    0.825754
 ---------------------------------------------------------------------
                    Distance matrix (angstroms):
                    1          2          3          4
     1  O    0.000000
     2  O    1.573876   0.000000
     3  H    0.964145   2.001013   0.000000
     4  H    2.001013   0.964145   2.544190   0.000000
 Symmetry turned off by external request.
 Stoichiometry    H2O2
 Framework group  C2[X(H2O2)]
 Deg. of freedom     4
 Full point group                 C2      NOp   2
 Rotational constants (GHZ):         306.6177366          22.6692715          21.9042841
 Leave Link  202 at Mon Apr 21 21:33:01 2025, MaxMem=   536870912 cpu:               0.0 elap:               0.0
 (Enter /home/szhao/Apps/g16/l301.exe)
 Standard basis: 6-311+G(d,p) (5D, 7F)
 Ernie: Thresh=  0.10000D-02 Tol=  0.10000D-05 Strict=F.
    56 basis functions,    88 primitive gaussians,    58 cartesian basis functions
     9 alpha electrons        9 beta electrons
       nuclear repulsion energy        34.7394036547 Hartrees.
 IExCor= 4336 DFT=T Ex+Corr=M062X ExCW=0 ScaHFX=  0.540000
 ScaDFX=  1.000000  1.000000  1.000000  1.000000 ScalE2=  1.000000  1.000000
 IRadAn=      7 IRanWt=     -1 IRanGd=            0 ICorTp=0 IEmpDi=  4
 NAtoms=    4 NActive=    4 NUniq=    4 SFac= 1.00D+00 NAtFMM=   60 NAOKFM=F Big=F
 Integral buffers will be    131072 words long.
 Raffenetti 2 integral format.
 Two-electron integral symmetry is turned off.
 Leave Link  301 at Mon Apr 21 21:33:01 2025, MaxMem=   536870912 cpu:               0.5 elap:               0.1
 (Enter /home/szhao/Apps/g16/l302.exe)
 NPDir=0 NMtPBC=     1 NCelOv=     1 NCel=       1 NClECP=     1 NCelD=      1
         NCelK=      1 NCelE2=     1 NClLst=     1 CellRange=     0.0.
 One-electron integrals computed using PRISM.
 NBasis=    56 RedAO= T EigKep=  2.08D-03  NBF=    56
 NBsUse=    56 1.00D-06 EigRej= -1.00D+00 NBFU=    56
 Precomputing XC quadrature grid using
 IXCGrd= 4 IRadAn=           7 IRanWt=          -1 IRanGd=           0 AccXCQ= 0.00D+00.
 Generated NRdTot=       0 NPtTot=           0 NUsed=           0 NTot=          32
 NSgBfM=    58    58    58    58    58 MxSgAt=     4 MxSgA2=     4.
 Leave Link  302 at Mon Apr 21 21:33:01 2025, MaxMem=   536870912 cpu:               1.3 elap:               0.2
 (Enter /home/szhao/Apps/g16/l303.exe)
 DipDrv:  MaxL=1.
 Leave Link  303 at Mon Apr 21 21:33:01 2025, MaxMem=   536870912 cpu:               0.4 elap:               0.1
 (Enter /home/szhao/Apps/g16/l401.exe)
 ExpMin= 8.45D-02 ExpMax= 8.59D+03 ExpMxC= 1.30D+03 IAcc=3 IRadAn=         7 AccDes= 0.00D+00
 Harris functional with IExCor= 1009 and IRadAn=       7 diagonalized for initial guess.
 HarFok:  IExCor= 1009 AccDes= 0.00D+00 IRadAn=         7 IDoV= 1 UseB2=F ITyADJ=14
 ICtDFT=  3500011 ScaDFX=  1.000000  1.000000  1.000000  1.000000
 FoFCou: FMM=F IPFlag=           0 FMFlag=      100000 FMFlg1=           0
         NFxFlg=           0 DoJE=T BraDBF=F KetDBF=T FulRan=T
         wScrn=  0.000000 ICntrl=       500 IOpCl=  0 I1Cent=   200000004 NGrid=           0
         NMat0=    1 NMatS0=      1 NMatT0=    0 NMatD0=    1 NMtDS0=    0 NMtDT0=    0
 Symmetry not used in FoFCou.
 Harris En= -151.468812741497    
 JPrj=0 DoOrth=F DoCkMO=F.
 Initial guess <Sx>= 0.0000 <Sy>= 0.0000 <Sz>= 0.0000 <S**2>= 0.0000 S= 0.0000
 Leave Link  401 at Mon Apr 21 21:33:02 2025, MaxMem=   536870912 cpu:               2.5 elap:               0.4
 (Enter /home/szhao/Apps/g16/l502.exe)
 Keep R1 and R2 ints in memory in canonical form, NReq=9624198.
 FoFCou: FMM=F IPFlag=           0 FMFlag=           0 FMFlg1=           0
         NFxFlg=           0 DoJE=F BraDBF=F KetDBF=F FulRan=T
         wScrn=  0.000000 ICntrl=       600 IOpCl=  0 I1Cent=           0 NGrid=           0
         NMat0=    1 NMatS0=   1596 NMatT0=    0 NMatD0=    1 NMtDS0=    0 NMtDT0=    0
 Symmetry not used in FoFCou.
 Two-electron integral symmetry not used.
 UHF open shell SCF:
 Using DIIS extrapolation, IDIIS=  1040.
 NGot=   536870912 LenX=   534314338 LenY=   534310533
 Requested convergence on RMS density matrix=1.00D-08 within 128 cycles.
 Requested convergence on MAX density matrix=1.00D-06.
 Requested convergence on             energy=1.00D-06.
 No special actions if energy rises.
 Integral accuracy reduced to 1.0D-05 until final iterations.

 Cycle   1  Pass 0  IDiag  1:
 E= -151.492386311913    
 DIIS: error= 2.80D-02 at cycle   1 NSaved=   1.
 NSaved= 1 IEnMin= 1 EnMin= -151.492386311913     IErMin= 1 ErrMin= 2.80D-02
 ErrMax= 2.80D-02  0.00D+00 EMaxC= 1.00D-01 BMatC= 2.66D-01 BMatP= 2.66D-01
 IDIUse=3 WtCom= 7.20D-01 WtEn= 2.80D-01
 Coeff-Com:  0.100D+01
 Coeff-En:   0.100D+01
 Coeff:      0.100D+01
 Gap=     0.396 Goal=   None    Shift=    0.000
 Gap=     0.396 Goal=   None    Shift=    0.000
 GapD=    0.396 DampG=1.000 DampE=0.500 DampFc=0.5000 IDamp=-1.
 Damping current iteration by 5.00D-01
 RMSDP=3.97D-03 MaxDP=3.83D-02              OVMax= 6.98D-02

 Cycle   2  Pass 0  IDiag  1:
 E= -151.508565125054     Delta-E=       -0.016178813141 Rises=F Damp=T
 DIIS: error= 9.87D-03 at cycle   2 NSaved=   2.
 NSaved= 2 IEnMin= 2 EnMin= -151.508565125054     IErMin= 2 ErrMin= 9.87D-03
 ErrMax= 9.87D-03  0.00D+00 EMaxC= 1.00D-01 BMatC= 2.85D-02 BMatP= 2.66D-01
 IDIUse=3 WtCom= 9.01D-01 WtEn= 9.87D-02
 Coeff-Com: -0.204D+00 0.120D+01
 Coeff-En:   0.000D+00 0.100D+01
 Coeff:     -0.183D+00 0.118D+01
 Gap=     0.391 Goal=   None    Shift=    0.000
 Gap=     0.391 Goal=   None    Shift=    0.000
 RMSDP=8.49D-04 MaxDP=1.07D-02 DE=-1.62D-02 OVMax= 3.57D-02

 Cycle   3  Pass 0  IDiag  1:
 E= -151.523399711473     Delta-E=       -0.014834586419 Rises=F Damp=F
 DIIS: error= 4.05D-03 at cycle   3 NSaved=   3.
 NSaved= 3 IEnMin= 3 EnMin= -151.523399711473     IErMin= 3 ErrMin= 4.05D-03
 ErrMax= 4.05D-03  0.00D+00 EMaxC= 1.00D-01 BMatC= 3.75D-03 BMatP= 2.85D-02
 IDIUse=3 WtCom= 9.60D-01 WtEn= 4.05D-02
 Coeff-Com: -0.127D+00 0.326D+00 0.801D+00
 Coeff-En:   0.000D+00 0.000D+00 0.100D+01
 Coeff:     -0.122D+00 0.313D+00 0.809D+00
 Gap=     0.379 Goal=   None    Shift=    0.000
 Gap=     0.379 Goal=   None    Shift=    0.000
 RMSDP=3.04D-04 MaxDP=3.72D-03 DE=-1.48D-02 OVMax= 5.96D-03

 Cycle   4  Pass 0  IDiag  1:
 E= -151.524022702068     Delta-E=       -0.000622990595 Rises=F Damp=F
 DIIS: error= 5.31D-04 at cycle   4 NSaved=   4.
 NSaved= 4 IEnMin= 4 EnMin= -151.524022702068     IErMin= 4 ErrMin= 5.31D-04
 ErrMax= 5.31D-04  0.00D+00 EMaxC= 1.00D-01 BMatC= 7.52D-05 BMatP= 3.75D-03
 IDIUse=3 WtCom= 9.95D-01 WtEn= 5.31D-03
 Coeff-Com: -0.209D-01 0.397D-01 0.196D+00 0.785D+00
 Coeff-En:   0.000D+00 0.000D+00 0.000D+00 0.100D+01
 Coeff:     -0.208D-01 0.395D-01 0.195D+00 0.786D+00
 Gap=     0.379 Goal=   None    Shift=    0.000
 Gap=     0.379 Goal=   None    Shift=    0.000
 RMSDP=3.83D-05 MaxDP=4.05D-04 DE=-6.23D-04 OVMax= 7.45D-04

 Cycle   5  Pass 0  IDiag  1:
 E= -151.524033359420     Delta-E=       -0.000010657352 Rises=F Damp=F
 DIIS: error= 2.78D-05 at cycle   5 NSaved=   5.
 NSaved= 5 IEnMin= 5 EnMin= -151.524033359420     IErMin= 5 ErrMin= 2.78D-05
 ErrMax= 2.78D-05  0.00D+00 EMaxC= 1.00D-01 BMatC= 2.42D-07 BMatP= 7.52D-05
 IDIUse=1 WtCom= 1.00D+00 WtEn= 0.00D+00
 Coeff-Com:  0.221D-02-0.469D-02-0.168D-01-0.698D-01 0.109D+01
 Coeff:      0.221D-02-0.469D-02-0.168D-01-0.698D-01 0.109D+01
 Gap=     0.379 Goal=   None    Shift=    0.000
 Gap=     0.379 Goal=   None    Shift=    0.000
 RMSDP=6.04D-06 MaxDP=3.86D-05 DE=-1.07D-05 OVMax= 1.32D-04

 Initial convergence to 1.0D-05 achieved.  Increase integral accuracy.
 Cycle   6  Pass 1  IDiag  1:
 E= -151.524032898257     Delta-E=        0.000000461163 Rises=F Damp=F
 DIIS: error= 8.20D-06 at cycle   1 NSaved=   1.
 NSaved= 1 IEnMin= 1 EnMin= -151.524032898257     IErMin= 1 ErrMin= 8.20D-06
 ErrMax= 8.20D-06  0.00D+00 EMaxC= 1.00D-01 BMatC= 1.74D-08 BMatP= 1.74D-08
 IDIUse=1 WtCom= 1.00D+00 WtEn= 0.00D+00
 Coeff-Com:  0.100D+01
 Coeff:      0.100D+01
 Gap=     0.379 Goal=   None    Shift=    0.000
 Gap=     0.379 Goal=   None    Shift=    0.000
 RMSDP=6.04D-06 MaxDP=3.86D-05 DE= 4.61D-07 OVMax= 2.68D-05

 Cycle   7  Pass 1  IDiag  1:
 E= -151.524032903701     Delta-E=       -0.000000005444 Rises=F Damp=F
 DIIS: error= 2.34D-06 at cycle   2 NSaved=   2.
 NSaved= 2 IEnMin= 2 EnMin= -151.524032903701     IErMin= 2 ErrMin= 2.34D-06
 ErrMax= 2.34D-06  0.00D+00 EMaxC= 1.00D-01 BMatC= 1.68D-09 BMatP= 1.74D-08
 IDIUse=1 WtCom= 1.00D+00 WtEn= 0.00D+00
 Coeff-Com:  0.131D+00 0.869D+00
 Coeff:      0.131D+00 0.869D+00
 Gap=     0.379 Goal=   None    Shift=    0.000
 Gap=     0.379 Goal=   None    Shift=    0.000
 RMSDP=4.28D-07 MaxDP=3.95D-06 DE=-5.44D-09 OVMax= 1.23D-05

 Cycle   8  Pass 1  IDiag  1:
 E= -151.524032904294     Delta-E=       -0.000000000593 Rises=F Damp=F
 DIIS: error= 1.94D-06 at cycle   3 NSaved=   3.
 NSaved= 3 IEnMin= 3 EnMin= -151.524032904294     IErMin= 3 ErrMin= 1.94D-06
 ErrMax= 1.94D-06  0.00D+00 EMaxC= 1.00D-01 BMatC= 6.60D-10 BMatP= 1.68D-09
 IDIUse=1 WtCom= 1.00D+00 WtEn= 0.00D+00
 Coeff-Com: -0.533D-01 0.313D+00 0.741D+00
 Coeff:     -0.533D-01 0.313D+00 0.741D+00
 Gap=     0.379 Goal=   None    Shift=    0.000
 Gap=     0.379 Goal=   None    Shift=    0.000
 RMSDP=2.19D-07 MaxDP=2.16D-06 DE=-5.93D-10 OVMax= 5.93D-06

 Cycle   9  Pass 1  IDiag  1:
 E= -151.524032904453     Delta-E=       -0.000000000158 Rises=F Damp=F
 DIIS: error= 8.31D-07 at cycle   4 NSaved=   4.
 NSaved= 4 IEnMin= 4 EnMin= -151.524032904453     IErMin= 4 ErrMin= 8.31D-07
 ErrMax= 8.31D-07  0.00D+00 EMaxC= 1.00D-01 BMatC= 1.47D-10 BMatP= 6.60D-10
 IDIUse=1 WtCom= 1.00D+00 WtEn= 0.00D+00
 Coeff-Com: -0.626D-01 0.550D-02 0.355D+00 0.702D+00
 Coeff:     -0.626D-01 0.550D-02 0.355D+00 0.702D+00
 Gap=     0.379 Goal=   None    Shift=    0.000
 Gap=     0.379 Goal=   None    Shift=    0.000
 RMSDP=1.02D-07 MaxDP=1.04D-06 DE=-1.58D-10 OVMax= 3.36D-06

 Cycle  10  Pass 1  IDiag  1:
 E= -151.524032904488     Delta-E=       -0.000000000035 Rises=F Damp=F
 DIIS: error= 4.81D-07 at cycle   5 NSaved=   5.
 NSaved= 5 IEnMin= 5 EnMin= -151.524032904488     IErMin= 5 ErrMin= 4.81D-07
 ErrMax= 4.81D-07  0.00D+00 EMaxC= 1.00D-01 BMatC= 3.96D-11 BMatP= 1.47D-10
 IDIUse=1 WtCom= 1.00D+00 WtEn= 0.00D+00
 Coeff-Com: -0.340D-01-0.256D-01 0.133D+00 0.425D+00 0.502D+00
 Coeff:     -0.340D-01-0.256D-01 0.133D+00 0.425D+00 0.502D+00
 Gap=     0.379 Goal=   None    Shift=    0.000
 Gap=     0.379 Goal=   None    Shift=    0.000
 RMSDP=3.47D-08 MaxDP=4.89D-07 DE=-3.52D-11 OVMax= 1.25D-06

 Cycle  11  Pass 1  IDiag  1:
 E= -151.524032904497     Delta-E=       -0.000000000009 Rises=F Damp=F
 DIIS: error= 1.34D-07 at cycle   6 NSaved=   6.
 NSaved= 6 IEnMin= 6 EnMin= -151.524032904497     IErMin= 6 ErrMin= 1.34D-07
 ErrMax= 1.34D-07  0.00D+00 EMaxC= 1.00D-01 BMatC= 1.76D-12 BMatP= 3.96D-11
 IDIUse=1 WtCom= 1.00D+00 WtEn= 0.00D+00
 Coeff-Com:  0.158D-01 0.133D-01-0.880D-01-0.225D+00-0.956D-01 0.138D+01
 Coeff:      0.158D-01 0.133D-01-0.880D-01-0.225D+00-0.956D-01 0.138D+01
 Gap=     0.379 Goal=   None    Shift=    0.000
 Gap=     0.379 Goal=   None    Shift=    0.000
 RMSDP=3.63D-08 MaxDP=2.25D-07 DE=-8.98D-12 OVMax= 1.75D-06

 Cycle  12  Pass 1  IDiag  1:
 E= -151.524032904499     Delta-E=       -0.000000000002 Rises=F Damp=F
 DIIS: error= 4.19D-08 at cycle   7 NSaved=   7.
 NSaved= 7 IEnMin= 7 EnMin= -151.524032904499     IErMin= 7 ErrMin= 4.19D-08
 ErrMax= 4.19D-08  0.00D+00 EMaxC= 1.00D-01 BMatC= 1.62D-13 BMatP= 1.76D-12
 IDIUse=1 WtCom= 1.00D+00 WtEn= 0.00D+00
 Coeff-Com:  0.568D-02 0.485D-02-0.267D-01-0.830D-01-0.778D-01 0.144D+00
 Coeff-Com:  0.103D+01
 Coeff:      0.568D-02 0.485D-02-0.267D-01-0.830D-01-0.778D-01 0.144D+00
 Coeff:      0.103D+01
 Gap=     0.379 Goal=   None    Shift=    0.000
 Gap=     0.379 Goal=   None    Shift=    0.000
 RMSDP=1.16D-08 MaxDP=7.76D-08 DE=-2.36D-12 OVMax= 5.88D-07

 Cycle  13  Pass 1  IDiag  1:
 E= -151.524032904499     Delta-E=       -0.000000000000 Rises=F Damp=F
 DIIS: error= 7.46D-09 at cycle   8 NSaved=   8.
 NSaved= 8 IEnMin= 8 EnMin= -151.524032904499     IErMin= 8 ErrMin= 7.46D-09
 ErrMax= 7.46D-09  0.00D+00 EMaxC= 1.00D-01 BMatC= 8.05D-15 BMatP= 1.62D-13
 IDIUse=1 WtCom= 1.00D+00 WtEn= 0.00D+00
 Coeff-Com: -0.201D-02-0.201D-02 0.112D-01 0.317D-01 0.229D-01-0.124D+00
 Coeff-Com: -0.250D+00 0.131D+01
 Coeff:     -0.201D-02-0.201D-02 0.112D-01 0.317D-01 0.229D-01-0.124D+00
 Coeff:     -0.250D+00 0.131D+01
 Gap=     0.379 Goal=   None    Shift=    0.000
 Gap=     0.379 Goal=   None    Shift=    0.000
 RMSDP=2.59D-09 MaxDP=1.84D-08 DE=-2.84D-14 OVMax= 1.29D-07

 SCF Done:  E(UM062X) =  -151.524032904     A.U. after   13 cycles
            NFock= 13  Conv=0.26D-08     -V/T= 2.0037
 <Sx>= 0.0000 <Sy>= 0.0000 <Sz>= 0.0000 <S**2>=-0.0000 S=-0.0000
 <L.S>=  0.00000000000    
 KE= 1.509615625452D+02 PE=-4.281085356923D+02 EE= 9.088353658780D+01
 Annihilation of the first spin contaminant:
 S**2 before annihilation    -0.0000,   after     0.0000
 Leave Link  502 at Mon Apr 21 21:33:06 2025, MaxMem=   536870912 cpu:              31.9 elap:               4.2
 (Enter /home/szhao/Apps/g16/l601.exe)
 Copying SCF densities to generalized density rwf, IOpCl= 1 IROHF=0.

 **********************************************************************

            Population analysis using the SCF density.

 **********************************************************************

 Alpha  occ. eigenvalues --  -19.69991 -19.69979  -1.21887  -1.04901  -0.59952
 Alpha  occ. eigenvalues --   -0.57894  -0.49484  -0.42838  -0.39041
 Alpha virt. eigenvalues --   -0.01142   0.06049   0.10600   0.16047   0.16422
 Alpha virt. eigenvalues --    0.18994   0.20386   0.20754   0.21931   0.27850
 Alpha virt. eigenvalues --    0.33386   0.51066   0.52289   0.96601   0.99952
 Alpha virt. eigenvalues --    1.01409   1.03663   1.09191   1.13322   1.32854
 Alpha virt. eigenvalues --    1.33834   1.42512   1.45373   1.58306   1.58697
 Alpha virt. eigenvalues --    2.02772   2.06474   2.43267   2.53569   2.61820
 Alpha virt. eigenvalues --    2.76319   2.88104   3.15670   3.16556   3.17348
 Alpha virt. eigenvalues --    3.28161   3.58629   3.81308   3.88324   4.90778
 Alpha virt. eigenvalues --    5.01317   5.03809   5.27683   5.53389   5.54461
 Alpha virt. eigenvalues --   49.86528  49.91558
  Beta  occ. eigenvalues --  -19.69991 -19.69979  -1.21887  -1.04901  -0.59952
  Beta  occ. eigenvalues --   -0.57894  -0.49484  -0.42838  -0.39041
  Beta virt. eigenvalues --   -0.01142   0.06049   0.10600   0.16047   0.16422
  Beta virt. eigenvalues --    0.18994   0.20386   0.20754   0.21931   0.27850
  Beta virt. eigenvalues --    0.33386   0.51066   0.52289   0.96601   0.99952
  Beta virt. eigenvalues --    1.01409   1.03663   1.09191   1.13322   1.32854
  Beta virt. eigenvalues --    1.33834   1.42512   1.45373   1.58306   1.58697
  Beta virt. eigenvalues --    2.02772   2.06474   2.43267   2.53569   2.61820
  Beta virt. eigenvalues --    2.76319   2.88104   3.15670   3.16556   3.17348
  Beta virt. eigenvalues --    3.28161   3.58629   3.81308   3.88324   4.90778
  Beta virt. eigenvalues --    5.01317   5.03809   5.27683   5.53389   5.54461
  Beta virt. eigenvalues --   49.86528  49.91558
          Condensed to atoms (all electrons):
               1          2          3          4
     1  O    7.903633   0.117664   0.262986  -0.014312
     2  O    0.117664   7.903634  -0.014312   0.262986
     3  H    0.262986  -0.014312   0.480359   0.000996
     4  H   -0.014312   0.262986   0.000996   0.480359
          Atomic-Atomic Spin Densities.
               1          2          3          4
     1  O    0.000000  -0.000000   0.000000   0.000000
     2  O   -0.000000  -0.000000  -0.000000  -0.000000
     3  H    0.000000  -0.000000   0.000000  -0.000000
     4  H    0.000000  -0.000000  -0.000000  -0.000000
 Mulliken charges and spin densities:
               1          2
     1  O   -0.269971   0.000000
     2  O   -0.269971  -0.000000
     3  H    0.269971   0.000000
     4  H    0.269971  -0.000000
 Sum of Mulliken charges =  -0.00000  -0.00000
 Mulliken charges and spin densities with hydrogens summed into heavy atoms:
               1          2
     1  O    0.000000   0.000000
     2  O   -0.000000  -0.000000
 Electronic spatial extent (au):  <R**2>=             73.0879
 Charge=             -0.0000 electrons
 Dipole moment (field-independent basis, Debye):
    X=             -0.0000    Y=             -0.9244    Z=              1.5733  Tot=              1.8248
 Quadrupole moment (field-independent basis, Debye-Ang):
   XX=            -11.2296   YY=            -10.2840   ZZ=            -11.4520
   XY=              3.0548   XZ=              1.7949   YZ=              1.0481
 Traceless Quadrupole moment (field-independent basis, Debye-Ang):
   XX=             -0.2411   YY=              0.7046   ZZ=             -0.4635
   XY=              3.0548   XZ=              1.7949   YZ=              1.0481
 Octapole moment (field-independent basis, Debye-Ang**2):
  XXX=              0.0000  YYY=             -0.9227  ZZZ=              0.0987  XYY=             -1.7661
  XXY=             -0.8295  XXZ=              1.4118  XZZ=              1.7661  YZZ=              0.8611
  YYZ=              0.0061  XYZ=              0.9841
 Hexadecapole moment (field-independent basis, Debye-Ang**3):
 XXXX=            -51.8062 YYYY=            -10.5223 ZZZZ=            -10.9875 XXXY=              1.9452
 XXXZ=              1.1429 YYYX=              0.6718 YYYZ=             -0.0195 ZZZX=              0.4206
 ZZZY=              0.4369 XXYY=             -9.8134 XXZZ=            -10.8078 YYZZ=             -3.7732
 XXYZ=              0.8923 YYXZ=              0.1052 ZZXY=              0.2231
 N-N= 3.473940365473D+01 E-N=-4.281085356863D+02  KE= 1.509615625452D+02
                          Isotropic Fermi Contact Couplings
        Atom                 a.u.       MegaHertz       Gauss      10(-4) cm-1
     1  O(17)             -0.00000       0.00000       0.00000       0.00000
     2  O(17)              0.00000      -0.00000      -0.00000      -0.00000
     3  H(1)              -0.00000      -0.00000      -0.00000      -0.00000
     4  H(1)              -0.00000      -0.00000      -0.00000      -0.00000
 --------------------------------------------------------
       Center         ----  Spin Dipole Couplings  ----
                      3XX-RR        3YY-RR        3ZZ-RR
 --------------------------------------------------------
     1   Atom        0.000000      0.000000      0.000000
     2   Atom        0.000000      0.000000      0.000000
     3   Atom        0.000000      0.000000      0.000000
     4   Atom        0.000000      0.000000      0.000000
 --------------------------------------------------------
                        XY            XZ            YZ
 --------------------------------------------------------
     1   Atom        0.000000      0.000000      0.000000
     2   Atom        0.000000      0.000000      0.000000
     3   Atom        0.000000      0.000000      0.000000
     4   Atom        0.000000      0.000000      0.000000
 --------------------------------------------------------


 ---------------------------------------------------------------------------------
              Anisotropic Spin Dipole Couplings in Principal Axis System
 ---------------------------------------------------------------------------------

       Atom             a.u.   MegaHertz   Gauss  10(-4) cm-1        Axes

              Baa     0.0000    -0.000    -0.000    -0.000  1.0000  0.0000  0.0000
     1 O(17)  Bbb     0.0000    -0.000    -0.000    -0.000 -0.0000  1.0000  0.0000
              Bcc     0.0000    -0.000    -0.000    -0.000  0.0000  0.0000  1.0000
 
              Baa     0.0000    -0.000    -0.000    -0.000  1.0000  0.0000  0.0000
     2 O(17)  Bbb     0.0000    -0.000    -0.000    -0.000 -0.0000  1.0000  0.0000
              Bcc     0.0000    -0.000    -0.000    -0.000  0.0000  0.0000  1.0000
 
              Baa     0.0000     0.000     0.000     0.000  1.0000  0.0000  0.0000
     3 H(1)   Bbb     0.0000     0.000     0.000     0.000 -0.0000  1.0000  0.0000
              Bcc     0.0000     0.000     0.000     0.000  0.0000  0.0000  1.0000
 
              Baa     0.0000     0.000     0.000     0.000  1.0000  0.0000  0.0000
     4 H(1)   Bbb     0.0000     0.000     0.000     0.000 -0.0000  1.0000  0.0000
              Bcc     0.0000     0.000     0.000     0.000  0.0000  0.0000  1.0000
 

 ---------------------------------------------------------------------------------

 No NMR shielding tensors so no spin-rotation constants.
 Leave Link  601 at Mon Apr 21 21:33:06 2025, MaxMem=   536870912 cpu:               1.2 elap:               0.2
 (Enter /home/szhao/Apps/g16/l701.exe)
 ... and contract with generalized density number  0.
 Compute integral first derivatives.
 Leave Link  701 at Mon Apr 21 21:33:07 2025, MaxMem=   536870912 cpu:               1.1 elap:               0.2
 (Enter /home/szhao/Apps/g16/l702.exe)
 L702 exits ... SP integral derivatives will be done elsewhere.
 Leave Link  702 at Mon Apr 21 21:33:07 2025, MaxMem=   536870912 cpu:               0.3 elap:               0.1
 (Enter /home/szhao/Apps/g16/l703.exe)
 Integral derivatives from FoFJK, PRISM(SPDF).
 Compute integral first derivatives, UseDBF=F ICtDFT=           0.
 Calling FoFJK, ICntrl=      2127 FMM=F ISym2X=0 I1Cent= 0 IOpClX= 1 NMat=1 NMatS=1 NMatT=0.
 FoFJK:  IHMeth= 1 ICntrl=    2127 DoSepK=F KAlg= 0 I1Cent=           0 FoldK=F
 IRaf=         0 NMat=       1 IRICut=       1 DoRegI=T DoRafI=F ISym2E= 0 IDoP0=0 IntGTp=1.
 FoFCou: FMM=F IPFlag=           0 FMFlag=      100000 FMFlg1=         800
         NFxFlg=           0 DoJE=F BraDBF=F KetDBF=F FulRan=T
         wScrn=  0.000000 ICntrl=      2127 IOpCl=  1 I1Cent=           0 NGrid=           0
         NMat0=    1 NMatS0=      1 NMatT0=    0 NMatD0=    1 NMtDS0=    0 NMtDT0=    0
 Symmetry not used in FoFCou.
 Leave Link  703 at Mon Apr 21 21:33:08 2025, MaxMem=   536870912 cpu:               5.3 elap:               0.7
 (Enter /home/szhao/Apps/g16/l716.exe)
 Dipole        =-4.19207797D-08-3.63695203D-01 6.18985575D-01
 -------------------------------------------------------------------
 Center     Atomic                   Forces (Hartrees/Bohr)
 Number     Number              X              Y              Z
 -------------------------------------------------------------------
      1        8          -0.000000000   -0.000000000   -0.000000000
      2        8          -0.000000000   -0.000000000   -0.000000000
      3        1           0.008015566   -0.003777600   -0.000195155
      4        1          -0.008013898    0.002008502    0.003203439
 -------------------------------------------------------------------
 Cartesian Forces:  Max     0.008015566 RMS     0.003617968
 Leave Link  716 at Mon Apr 21 21:33:08 2025, MaxMem=   536870912 cpu:               0.6 elap:               0.1
 (Enter /home/szhao/Apps/g16/l103.exe)

 GradGradGradGradGradGradGradGradGradGradGradGradGradGradGradGradGradGrad
 Berny optimization.
 FormGI is forming the generalized inverse of G from B-inverse, IUseBI=4.
 Internal  Forces:  Max     0.015673200 RMS     0.009271930
 Search for a local minimum.
 Step number   1 out of a maximum of   21
 All quantities printed in internal units (Hartrees-Bohrs-Radians)
 RMS Force = .10003D-01 SwitMx=.10000D-02 MixMth= 1
 Mixed Optimization -- RFO/linear search
 Second derivative matrix not updated -- first step.
 The second derivative matrix:
                          X1        Y1        Z1        X2        Y2
           X1           0.50000
           Y1           0.00000   0.50000
           Z1           0.00000   0.00000   0.50000
           X2           0.00000   0.00000   0.00000   0.50000
           Y2           0.00000   0.00000   0.00000   0.00000   0.50000
           Z2           0.00000   0.00000   0.00000   0.00000   0.00000
           R1           0.00000   0.00000   0.00000   0.00000   0.00000
           R2           0.00000   0.00000   0.00000   0.00000   0.00000
           A1           0.00000   0.00000   0.00000   0.00000   0.00000
           A2           0.00000   0.00000   0.00000   0.00000   0.00000
           D1           0.00000   0.00000   0.00000   0.00000   0.00000
                          Z2        R1        R2        A1        A2
           Z2           0.50000
           R1           0.00000   0.54591
           R2           0.00000   0.00000   0.54591
           A1           0.00000   0.00000   0.00000   0.16000
           A2           0.00000   0.00000   0.00000   0.00000   0.16000
           D1           0.00000   0.00000   0.00000   0.00000   0.00000
                          D1
           D1           0.00230
 ITU=  0
     Eigenvalues ---    0.00230   0.16000   0.16000   0.54591   0.54591
     Eigenvalues --- 1000.000001000.000001000.000001000.000001000.00000
     Eigenvalues --- 1000.00000
 RFO step:  Lambda=-3.05164345D-03 EMin= 2.30000000D-03
 Linear search not attempted -- first point.
 Iteration  1 RMS(Cart)=  0.07855521 RMS(Int)=  0.00398995
 Iteration  2 RMS(Cart)=  0.00410618 RMS(Int)=  0.00000315
 Iteration  3 RMS(Cart)=  0.00000458 RMS(Int)=  0.00000000
 Iteration  4 RMS(Cart)=  0.00000000 RMS(Int)=  0.00000000
 ITry= 1 IFail=0 DXMaxC= 1.73D-01 DCOld= 1.00D+10 DXMaxT= 3.00D-01 DXLimC= 3.00D+00 Rises=F
 Variable       Old X    -DE/DX   Delta X   Delta X   Delta X     New X
                                 (Linear)    (Quad)   (Total)
    X1       -1.48710   0.00802   0.00000   0.00000   0.00000  -1.48710
    Y1        0.00000  -0.01163   0.00000   0.00000   0.00000   0.00000
    Z1        0.00000  -0.00481   0.00000   0.00000   0.00000   0.00000
    X2        1.48710  -0.00801   0.00000   0.00000   0.00000   1.48710
    Y2        0.00000   0.00986   0.00000   0.00000   0.00000   0.00000
    Z2        0.00000   0.00782   0.00000   0.00000   0.00000   0.00000
    R1        1.82197   0.00213   0.00000   0.00387   0.00387   1.82584
    R2        1.82197   0.00212   0.00000   0.00387   0.00387   1.82584
    A1        1.76893  -0.01567   0.00000  -0.09612  -0.09612   1.67281
    A2        1.76893  -0.01567   0.00000  -0.09610  -0.09610   1.67283
    D1       -2.07914  -0.00035   0.00000  -0.06517  -0.06517  -2.14431
         Item               Value     Threshold  Converged?
 Maximum Force            0.015673     0.000450     NO 
 RMS     Force            0.010003     0.000300     NO 
 Maximum Displacement     0.172706     0.001800     NO 
 RMS     Displacement     0.078958     0.001200     NO 
 Predicted change in Energy=-1.560538D-03
 Lowest energy point so far.  Saving SCF results.
 GradGradGradGradGradGradGradGradGradGradGradGradGradGradGradGradGradGrad

 Leave Link  103 at Mon Apr 21 21:33:08 2025, MaxMem=   536870912 cpu:               0.7 elap:               0.1
 (Enter /home/szhao/Apps/g16/l202.exe)
                          Input orientation:                          
 ---------------------------------------------------------------------
 Center     Atomic      Atomic             Coordinates (Angstroms)
 Number     Number       Type             X           Y           Z
 ---------------------------------------------------------------------
      1          8           0       -0.786938    0.000000    0.000000
      2          8           0        0.786938    0.000000    0.000000
      3          1           0       -0.885330   -0.960451   -0.037219
      4          1           0        0.885351    0.489860    0.826971
 ---------------------------------------------------------------------
                    Distance matrix (angstroms):
                    1          2          3          4
     1  O    0.000000
     2  O    1.573876   0.000000
     3  H    0.966195   1.928816   0.000000
     4  H    1.928832   0.966193   2.446536   0.000000
 Symmetry turned off by external request.
 Stoichiometry    H2O2
 Framework group  C1[X(H2O2)]
 Deg. of freedom     6
 Full point group                 C1      NOp   1
 Rotational constants (GHZ):         293.1721685          23.0724281          22.1399509
 Leave Link  202 at Mon Apr 21 21:33:08 2025, MaxMem=   536870912 cpu:               0.1 elap:               0.1
 (Enter /home/szhao/Apps/g16/l301.exe)
 Standard basis: 6-311+G(d,p) (5D, 7F)
 Ernie: Thresh=  0.10000D-02 Tol=  0.10000D-05 Strict=F.
    56 basis functions,    88 primitive gaussians,    58 cartesian basis functions
     9 alpha electrons        9 beta electrons
       nuclear repulsion energy        34.8874475879 Hartrees.
 IExCor= 4336 DFT=T Ex+Corr=M062X ExCW=0 ScaHFX=  0.540000
 ScaDFX=  1.000000  1.000000  1.000000  1.000000 ScalE2=  1.000000  1.000000
 IRadAn=      7 IRanWt=     -1 IRanGd=            0 ICorTp=0 IEmpDi=  4
 NAtoms=    4 NActive=    4 NUniq=    4 SFac= 1.00D+00 NAtFMM=   60 NAOKFM=F Big=F
 Integral buffers will be    131072 words long.
 Raffenetti 2 integral format.
 Two-electron integral symmetry is turned off.
 Leave Link  301 at Mon Apr 21 21:33:09 2025, MaxMem=   536870912 cpu:               0.6 elap:               0.1
 (Enter /home/szhao/Apps/g16/l302.exe)
 NPDir=0 NMtPBC=     1 NCelOv=     1 NCel=       1 NClECP=     1 NCelD=      1
         NCelK=      1 NCelE2=     1 NClLst=     1 CellRange=     0.0.
 One-electron integrals computed using PRISM.
 NBasis=    56 RedAO= T EigKep=  2.04D-03  NBF=    56
 NBsUse=    56 1.00D-06 EigRej= -1.00D+00 NBFU=    56
 Precomputing XC quadrature grid using
 IXCGrd= 4 IRadAn=           7 IRanWt=          -1 IRanGd=           0 AccXCQ= 0.00D+00.
 Generated NRdTot=       0 NPtTot=           0 NUsed=           0 NTot=          32
 NSgBfM=    58    58    58    58    58 MxSgAt=     4 MxSgA2=     4.
 Leave Link  302 at Mon Apr 21 21:33:09 2025, MaxMem=   536870912 cpu:               1.3 elap:               0.2
 (Enter /home/szhao/Apps/g16/l303.exe)
 DipDrv:  MaxL=1.
 Leave Link  303 at Mon Apr 21 21:33:09 2025, MaxMem=   536870912 cpu:               0.6 elap:               0.1
 (Enter /home/szhao/Apps/g16/l401.exe)
 Initial guess from the checkpoint file:  "opt.chk"
 B after Tr=     0.000002    0.002064   -0.003465
         Rot=    0.999964   -0.003074    0.004027   -0.006806 Ang=  -0.97 deg.
 Guess basis will be translated and rotated to current coordinates.
 JPrj=2 DoOrth=T DoCkMO=T.
 Initial guess <Sx>= 0.0000 <Sy>= 0.0000 <Sz>= 0.0000 <S**2>= 0.0000 S= 0.0000
 Generating alternative initial guess.
 ExpMin= 8.45D-02 ExpMax= 8.59D+03 ExpMxC= 1.30D+03 IAcc=3 IRadAn=         5 AccDes= 0.00D+00
 Harris functional with IExCor= 1009 and IRadAn=       5 diagonalized for initial guess.
 HarFok:  IExCor= 1009 AccDes= 0.00D+00 IRadAn=         5 IDoV= 1 UseB2=F ITyADJ=14
 ICtDFT=  3500011 ScaDFX=  1.000000  1.000000  1.000000  1.000000
 FoFCou: FMM=F IPFlag=           0 FMFlag=      100000 FMFlg1=           0
         NFxFlg=           0 DoJE=T BraDBF=F KetDBF=T FulRan=T
         wScrn=  0.000000 ICntrl=       500 IOpCl=  0 I1Cent=   200000004 NGrid=           0
         NMat0=    1 NMatS0=      1 NMatT0=    0 NMatD0=    1 NMtDS0=    0 NMtDT0=    0
 Symmetry not used in FoFCou.
 Harris En= -151.469338006235    
 Leave Link  401 at Mon Apr 21 21:33:09 2025, MaxMem=   536870912 cpu:               2.0 elap:               0.3
 (Enter /home/szhao/Apps/g16/l502.exe)
 Keep R1 and R2 ints in memory in canonical form, NReq=9624198.
 FoFCou: FMM=F IPFlag=           0 FMFlag=           0 FMFlg1=           0
         NFxFlg=           0 DoJE=F BraDBF=F KetDBF=F FulRan=T
         wScrn=  0.000000 ICntrl=       600 IOpCl=  0 I1Cent=           0 NGrid=           0
         NMat0=    1 NMatS0=   1596 NMatT0=    0 NMatD0=    1 NMtDS0=    0 NMtDT0=    0
 Symmetry not used in FoFCou.
 Two-electron integral symmetry not used.
 UHF open shell SCF:
 Using DIIS extrapolation, IDIIS=  1040.
 NGot=   536870912 LenX=   534314338 LenY=   534310533
 Requested convergence on RMS density matrix=1.00D-08 within 128 cycles.
 Requested convergence on MAX density matrix=1.00D-06.
 Requested convergence on             energy=1.00D-06.
 No special actions if energy rises.
 Integral accuracy reduced to 1.0D-05 until final iterations.

 Cycle   1  Pass 0  IDiag  1:
 E= -151.523610851277    
 DIIS: error= 3.67D-03 at cycle   1 NSaved=   1.
 NSaved= 1 IEnMin= 1 EnMin= -151.523610851277     IErMin= 1 ErrMin= 3.67D-03
 ErrMax= 3.67D-03  0.00D+00 EMaxC= 1.00D-01 BMatC= 5.01D-03 BMatP= 5.01D-03
 IDIUse=3 WtCom= 9.63D-01 WtEn= 3.67D-02
 Coeff-Com:  0.100D+01
 Coeff-En:   0.100D+01
 Coeff:      0.100D+01
 Gap=     0.668 Goal=   None    Shift=    0.000
 Gap=     0.668 Goal=   None    Shift=    0.000
 GapD=    0.668 DampG=2.000 DampE=1.000 DampFc=2.0000 IDamp=-1.
 RMSDP=6.99D-04 MaxDP=4.15D-03              OVMax= 1.21D-02

 Cycle   2  Pass 0  IDiag  1:
 E= -151.525121793900     Delta-E=       -0.001510942623 Rises=F Damp=F
 DIIS: error= 6.72D-04 at cycle   2 NSaved=   2.
 NSaved= 2 IEnMin= 2 EnMin= -151.525121793900     IErMin= 2 ErrMin= 6.72D-04
 ErrMax= 6.72D-04  0.00D+00 EMaxC= 1.00D-01 BMatC= 1.35D-04 BMatP= 5.01D-03
 IDIUse=3 WtCom= 9.93D-01 WtEn= 6.72D-03
 Coeff-Com: -0.116D+00 0.112D+01
 Coeff-En:   0.000D+00 0.100D+01
 Coeff:     -0.115D+00 0.112D+01
 Gap=     0.380 Goal=   None    Shift=    0.000
 Gap=     0.380 Goal=   None    Shift=    0.000
 RMSDP=1.64D-04 MaxDP=1.24D-03 DE=-1.51D-03 OVMax= 5.29D-03

 Cycle   3  Pass 0  IDiag  1:
 E= -151.525192938955     Delta-E=       -0.000071145055 Rises=F Damp=F
 DIIS: error= 3.31D-04 at cycle   3 NSaved=   3.
 NSaved= 3 IEnMin= 3 EnMin= -151.525192938955     IErMin= 3 ErrMin= 3.31D-04
 ErrMax= 3.31D-04  0.00D+00 EMaxC= 1.00D-01 BMatC= 8.97D-06 BMatP= 1.35D-04
 IDIUse=3 WtCom= 9.97D-01 WtEn= 3.31D-03
 Coeff-Com: -0.191D-01 0.549D-01 0.964D+00
 Coeff-En:   0.000D+00 0.000D+00 0.100D+01
 Coeff:     -0.190D-01 0.548D-01 0.964D+00
 Gap=     0.380 Goal=   None    Shift=    0.000
 Gap=     0.380 Goal=   None    Shift=    0.000
 RMSDP=5.68D-05 MaxDP=3.84D-04 DE=-7.11D-05 OVMax= 2.24D-03

 Cycle   4  Pass 0  IDiag  1:
 E= -151.525200256504     Delta-E=       -0.000007317549 Rises=F Damp=F
 DIIS: error= 1.65D-04 at cycle   4 NSaved=   4.
 NSaved= 4 IEnMin= 4 EnMin= -151.525200256504     IErMin= 4 ErrMin= 1.65D-04
 ErrMax= 1.65D-04  0.00D+00 EMaxC= 1.00D-01 BMatC= 2.36D-06 BMatP= 8.97D-06
 IDIUse=3 WtCom= 9.98D-01 WtEn= 1.65D-03
 Coeff-Com:  0.110D-01-0.120D+00 0.106D+00 0.100D+01
 Coeff-En:   0.000D+00 0.000D+00 0.000D+00 0.100D+01
 Coeff:      0.109D-01-0.120D+00 0.106D+00 0.100D+01
 Gap=     0.380 Goal=   None    Shift=    0.000
 Gap=     0.380 Goal=   None    Shift=    0.000
 RMSDP=3.16D-05 MaxDP=1.94D-04 DE=-7.32D-06 OVMax= 1.42D-03

 Cycle   5  Pass 0  IDiag  1:
 E= -151.525202411444     Delta-E=       -0.000002154940 Rises=F Damp=F
 DIIS: error= 6.49D-05 at cycle   5 NSaved=   5.
 NSaved= 5 IEnMin= 5 EnMin= -151.525202411444     IErMin= 5 ErrMin= 6.49D-05
 ErrMax= 6.49D-05  0.00D+00 EMaxC= 1.00D-01 BMatC= 6.90D-07 BMatP= 2.36D-06
 IDIUse=1 WtCom= 1.00D+00 WtEn= 0.00D+00
 Coeff-Com:  0.879D-02-0.650D-01-0.139D+00 0.358D+00 0.838D+00
 Coeff:      0.879D-02-0.650D-01-0.139D+00 0.358D+00 0.838D+00
 Gap=     0.380 Goal=   None    Shift=    0.000
 Gap=     0.380 Goal=   None    Shift=    0.000
 RMSDP=1.53D-05 MaxDP=9.34D-05 DE=-2.15D-06 OVMax= 7.32D-04

 Cycle   6  Pass 0  IDiag  1:
 E= -151.525202910384     Delta-E=       -0.000000498940 Rises=F Damp=F
 DIIS: error= 2.49D-05 at cycle   6 NSaved=   6.
 NSaved= 6 IEnMin= 6 EnMin= -151.525202910384     IErMin= 6 ErrMin= 2.49D-05
 ErrMax= 2.49D-05  0.00D+00 EMaxC= 1.00D-01 BMatC= 5.67D-08 BMatP= 6.90D-07
 IDIUse=1 WtCom= 1.00D+00 WtEn= 0.00D+00
 Coeff-Com: -0.247D-02 0.260D-01-0.116D-01-0.233D+00-0.193D-01 0.124D+01
 Coeff:     -0.247D-02 0.260D-01-0.116D-01-0.233D+00-0.193D-01 0.124D+01
 Gap=     0.380 Goal=   None    Shift=    0.000
 Gap=     0.380 Goal=   None    Shift=    0.000
 RMSDP=7.39D-06 MaxDP=5.13D-05 DE=-4.99D-07 OVMax= 3.89D-04

 Initial convergence to 1.0D-05 achieved.  Increase integral accuracy.
 Cycle   7  Pass 1  IDiag  1:
 E= -151.525202071168     Delta-E=        0.000000839216 Rises=F Damp=F
 DIIS: error= 3.12D-06 at cycle   1 NSaved=   1.
 NSaved= 1 IEnMin= 1 EnMin= -151.525202071168     IErMin= 1 ErrMin= 3.12D-06
 ErrMax= 3.12D-06  0.00D+00 EMaxC= 1.00D-01 BMatC= 3.28D-09 BMatP= 3.28D-09
 IDIUse=1 WtCom= 1.00D+00 WtEn= 0.00D+00
 Coeff-Com:  0.100D+01
 Coeff:      0.100D+01
 Gap=     0.380 Goal=   None    Shift=    0.000
 Gap=     0.380 Goal=   None    Shift=    0.000
 RMSDP=7.39D-06 MaxDP=5.13D-05 DE= 8.39D-07 OVMax= 1.96D-05

 Cycle   8  Pass 1  IDiag  1:
 E= -151.525202071621     Delta-E=       -0.000000000453 Rises=F Damp=F
 DIIS: error= 6.40D-06 at cycle   2 NSaved=   2.
 NSaved= 2 IEnMin= 2 EnMin= -151.525202071621     IErMin= 1 ErrMin= 3.12D-06
 ErrMax= 6.40D-06  0.00D+00 EMaxC= 1.00D-01 BMatC= 4.73D-09 BMatP= 3.28D-09
 IDIUse=1 WtCom= 1.00D+00 WtEn= 0.00D+00
 Coeff-Com:  0.557D+00 0.443D+00
 Coeff:      0.557D+00 0.443D+00
 Gap=     0.380 Goal=   None    Shift=    0.000
 Gap=     0.380 Goal=   None    Shift=    0.000
 RMSDP=3.37D-07 MaxDP=3.82D-06 DE=-4.53D-10 OVMax= 1.08D-05

 Cycle   9  Pass 1  IDiag  1:
 E= -151.525202072446     Delta-E=       -0.000000000825 Rises=F Damp=F
 DIIS: error= 1.48D-06 at cycle   3 NSaved=   3.
 NSaved= 3 IEnMin= 3 EnMin= -151.525202072446     IErMin= 3 ErrMin= 1.48D-06
 ErrMax= 1.48D-06  0.00D+00 EMaxC= 1.00D-01 BMatC= 3.39D-10 BMatP= 3.28D-09
 IDIUse=1 WtCom= 1.00D+00 WtEn= 0.00D+00
 Coeff-Com: -0.899D-01 0.161D+00 0.928D+00
 Coeff:     -0.899D-01 0.161D+00 0.928D+00
 Gap=     0.380 Goal=   None    Shift=    0.000
 Gap=     0.380 Goal=   None    Shift=    0.000
 RMSDP=2.23D-07 MaxDP=2.21D-06 DE=-8.25D-10 OVMax= 6.76D-06

 Cycle  10  Pass 1  IDiag  1:
 E= -151.525202072578     Delta-E=       -0.000000000132 Rises=F Damp=F
 DIIS: error= 2.91D-07 at cycle   4 NSaved=   4.
 NSaved= 4 IEnMin= 4 EnMin= -151.525202072578     IErMin= 4 ErrMin= 2.91D-07
 ErrMax= 2.91D-07  0.00D+00 EMaxC= 1.00D-01 BMatC= 1.65D-11 BMatP= 3.39D-10
 IDIUse=1 WtCom= 1.00D+00 WtEn= 0.00D+00
 Coeff-Com: -0.767D-01-0.480D-01 0.452D-01 0.108D+01
 Coeff:     -0.767D-01-0.480D-01 0.452D-01 0.108D+01
 Gap=     0.380 Goal=   None    Shift=    0.000
 Gap=     0.380 Goal=   None    Shift=    0.000
 RMSDP=9.35D-08 MaxDP=8.51D-07 DE=-1.32D-10 OVMax= 3.96D-06

 Cycle  11  Pass 1  IDiag  1:
 E= -151.525202072595     Delta-E=       -0.000000000017 Rises=F Damp=F
 DIIS: error= 1.53D-07 at cycle   5 NSaved=   5.
 NSaved= 5 IEnMin= 5 EnMin= -151.525202072595     IErMin= 5 ErrMin= 1.53D-07
 ErrMax= 1.53D-07  0.00D+00 EMaxC= 1.00D-01 BMatC= 1.84D-12 BMatP= 1.65D-11
 IDIUse=1 WtCom= 1.00D+00 WtEn= 0.00D+00
 Coeff-Com:  0.126D-01-0.160D-01-0.920D-01 0.476D-01 0.105D+01
 Coeff:      0.126D-01-0.160D-01-0.920D-01 0.476D-01 0.105D+01
 Gap=     0.380 Goal=   None    Shift=    0.000
 Gap=     0.380 Goal=   None    Shift=    0.000
 RMSDP=2.72D-08 MaxDP=1.83D-07 DE=-1.70D-11 OVMax= 1.40D-06

 Cycle  12  Pass 1  IDiag  1:
 E= -151.525202072597     Delta-E=       -0.000000000002 Rises=F Damp=F
 DIIS: error= 5.89D-08 at cycle   6 NSaved=   6.
 NSaved= 6 IEnMin= 6 EnMin= -151.525202072597     IErMin= 6 ErrMin= 5.89D-08
 ErrMax= 5.89D-08  0.00D+00 EMaxC= 1.00D-01 BMatC= 6.49D-13 BMatP= 1.84D-12
 IDIUse=1 WtCom= 1.00D+00 WtEn= 0.00D+00
 Coeff-Com:  0.232D-01 0.233D-02-0.553D-01-0.184D+00 0.426D+00 0.788D+00
 Coeff:      0.232D-01 0.233D-02-0.553D-01-0.184D+00 0.426D+00 0.788D+00
 Gap=     0.380 Goal=   None    Shift=    0.000
 Gap=     0.380 Goal=   None    Shift=    0.000
 RMSDP=1.31D-08 MaxDP=7.78D-08 DE=-1.82D-12 OVMax= 6.13D-07

 Cycle  13  Pass 1  IDiag  1:
 E= -151.525202072598     Delta-E=       -0.000000000001 Rises=F Damp=F
 DIIS: error= 2.35D-08 at cycle   7 NSaved=   7.
 NSaved= 7 IEnMin= 7 EnMin= -151.525202072598     IErMin= 7 ErrMin= 2.35D-08
 ErrMax= 2.35D-08  0.00D+00 EMaxC= 1.00D-01 BMatC= 4.10D-14 BMatP= 6.49D-13
 IDIUse=1 WtCom= 1.00D+00 WtEn= 0.00D+00
 Coeff-Com: -0.841D-03 0.222D-02 0.954D-02-0.372D-02-0.198D+00-0.529D-01
 Coeff-Com:  0.124D+01
 Coeff:     -0.841D-03 0.222D-02 0.954D-02-0.372D-02-0.198D+00-0.529D-01
 Coeff:      0.124D+01
 Gap=     0.380 Goal=   None    Shift=    0.000
 Gap=     0.380 Goal=   None    Shift=    0.000
 RMSDP=7.32D-09 MaxDP=4.25D-08 DE=-5.68D-13 OVMax= 3.45D-07

 SCF Done:  E(UM062X) =  -151.525202073     A.U. after   13 cycles
            NFock= 13  Conv=0.73D-08     -V/T= 2.0036
 <Sx>= 0.0000 <Sy>= 0.0000 <Sz>= 0.0000 <S**2>=-0.0000 S=-0.0000
 <L.S>=  0.00000000000    
 KE= 1.509801013954D+02 PE=-4.284027388699D+02 EE= 9.100998781409D+01
 Annihilation of the first spin contaminant:
 S**2 before annihilation    -0.0000,   after     0.0000
 Leave Link  502 at Mon Apr 21 21:33:13 2025, MaxMem=   536870912 cpu:              29.3 elap:               3.8
 (Enter /home/szhao/Apps/g16/l701.exe)
 ... and contract with generalized density number  0.
 Compute integral first derivatives.
 Leave Link  701 at Mon Apr 21 21:33:14 2025, MaxMem=   536870912 cpu:               1.2 elap:               0.2
 (Enter /home/szhao/Apps/g16/l702.exe)
 L702 exits ... SP integral derivatives will be done elsewhere.
 Leave Link  702 at Mon Apr 21 21:33:14 2025, MaxMem=   536870912 cpu:               0.4 elap:               0.1
 (Enter /home/szhao/Apps/g16/l703.exe)
 Integral derivatives from FoFJK, PRISM(SPDF).
 Compute integral first derivatives, UseDBF=F ICtDFT=           0.
 Calling FoFJK, ICntrl=      2127 FMM=F ISym2X=0 I1Cent= 0 IOpClX= 1 NMat=1 NMatS=1 NMatT=0.
 FoFJK:  IHMeth= 1 ICntrl=    2127 DoSepK=F KAlg= 0 I1Cent=           0 FoldK=F
 IRaf=         0 NMat=       1 IRICut=       1 DoRegI=T DoRafI=F ISym2E= 0 IDoP0=0 IntGTp=1.
 FoFCou: FMM=F IPFlag=           0 FMFlag=      100000 FMFlg1=         800
         NFxFlg=           0 DoJE=F BraDBF=F KetDBF=F FulRan=T
         wScrn=  0.000000 ICntrl=      2127 IOpCl=  1 I1Cent=           0 NGrid=           0
         NMat0=    1 NMatS0=      1 NMatT0=    0 NMatD0=    1 NMtDS0=    0 NMtDT0=    0
 Symmetry not used in FoFCou.
 Leave Link  703 at Mon Apr 21 21:33:15 2025, MaxMem=   536870912 cpu:               5.5 elap:               0.7
 (Enter /home/szhao/Apps/g16/l716.exe)
 Dipole        = 8.75314501D-06-3.46298065D-01 5.81165669D-01
 -------------------------------------------------------------------
 Center     Atomic                   Forces (Hartrees/Bohr)
 Number     Number              X              Y              Z
 -------------------------------------------------------------------
      1        8          -0.000000000   -0.000000000   -0.000000000
      2        8          -0.000000000   -0.000000000   -0.000000000
      3        1          -0.002297295    0.000657249   -0.000582520
      4        1           0.002293124    0.000201409   -0.000852457
 -------------------------------------------------------------------
 Cartesian Forces:  Max     0.002297295 RMS     0.001003101
 Leave Link  716 at Mon Apr 21 21:33:15 2025, MaxMem=   536870912 cpu:               0.5 elap:               0.1
 (Enter /home/szhao/Apps/g16/l103.exe)

 GradGradGradGradGradGradGradGradGradGradGradGradGradGradGradGradGradGrad
 Berny optimization.
 Using GEDIIS/GDIIS optimizer.
 FormGI is forming the generalized inverse of G from B-inverse, IUseBI=4.
 Internal  Forces:  Max     0.004290614 RMS     0.002439244
 Search for a local minimum.
 Step number   2 out of a maximum of   21
 All quantities printed in internal units (Hartrees-Bohrs-Radians)
 RMS Force = .27669D-02 SwitMx=.10000D-02 MixMth= 1
 Mixed Optimization -- RFO/linear search
 Update second derivatives using D2CorX and points    1    2
 DE= -1.17D-03 DEPred=-1.56D-03 R= 7.49D-01
 TightC=F SS=  1.41D+00  RLast= 1.51D-01 DXNew= 5.0454D-01 4.5252D-01
 Trust test= 7.49D-01 RLast= 1.51D-01 DXMaxT set to 4.53D-01
 The second derivative matrix:
                          X1        Y1        Z1        X2        Y2
           X1           0.52794
           Y1          -0.03910   0.55473
           Z1          -0.01491   0.02087   0.50796
           X2          -0.02792   0.03908   0.01490   0.52791
           Y2           0.03198  -0.04476  -0.01707  -0.03197   0.53661
           Z2           0.02695  -0.03771  -0.01438  -0.02693   0.03085
           R1           0.00683  -0.00957  -0.00365  -0.00683   0.00782
           R2           0.00682  -0.00955  -0.00364  -0.00682   0.00781
           A1          -0.05408   0.07569   0.02886   0.05405  -0.06191
           A2          -0.05405   0.07565   0.02884   0.05402  -0.06188
           D1           0.00205  -0.00286  -0.00109  -0.00204   0.00234
                          Z2        R1        R2        A1        A2
           Z2           0.52599
           R1           0.00659   0.54609
           R2           0.00658   0.00017   0.54608
           A1          -0.05216  -0.00233  -0.00231   0.18538
           A2          -0.05213  -0.00232  -0.00231   0.02534   0.18529
           D1           0.00197   0.00061   0.00061  -0.00473  -0.00473
                          D1
           D1           0.00244
 ITU=  1  0
 Use linear search instead of GDIIS.
     Eigenvalues ---    0.00223   0.16000   0.21082   0.54591   0.54632
     Eigenvalues --- 1000.000001000.000001000.000001000.000001000.00000
     Eigenvalues --- 1000.00000
 RFO step:  Lambda=-3.82975892D-04 EMin= 2.22651646D-03
 Quartic linear search produced a step of -0.19321.
 Iteration  1 RMS(Cart)=  0.08118444 RMS(Int)=  0.05175299
 Iteration  2 RMS(Cart)=  0.06912970 RMS(Int)=  0.00344725
 Iteration  3 RMS(Cart)=  0.00351897 RMS(Int)=  0.00000185
 Iteration  4 RMS(Cart)=  0.00000284 RMS(Int)=  0.00000000
 Iteration  5 RMS(Cart)=  0.00000000 RMS(Int)=  0.00000000
 ITry= 1 IFail=0 DXMaxC= 4.25D-01 DCOld= 1.00D+10 DXMaxT= 4.53D-01 DXLimC= 3.00D+00 Rises=F
 Variable       Old X    -DE/DX   Delta X   Delta X   Delta X     New X
                                 (Linear)    (Quad)   (Total)
    X1       -1.48710  -0.00230   0.00000   0.00000   0.00000  -1.48710
    Y1        0.00000   0.00280   0.00000   0.00000   0.00000   0.00000
    Z1        0.00000   0.00069   0.00000   0.00000   0.00000   0.00000
    X2        1.48710   0.00229   0.00000   0.00000   0.00000   1.48710
    Y2        0.00000  -0.00194   0.00000   0.00000   0.00000   0.00000
    Z2        0.00000  -0.00213   0.00000   0.00000   0.00000   0.00000
    R1        1.82584  -0.00040  -0.00075   0.00054  -0.00021   1.82563
    R2        1.82584  -0.00039  -0.00075   0.00054  -0.00021   1.82563
    A1        1.67281   0.00429   0.01857  -0.00689   0.01168   1.68449
    A2        1.67283   0.00428   0.01857  -0.00693   0.01164   1.68447
    D1       -2.14431  -0.00110   0.01259  -0.38230  -0.36971  -2.51402
         Item               Value     Threshold  Converged?
 Maximum Force            0.004291     0.000450     NO 
 RMS     Force            0.002767     0.000300     NO 
 Maximum Displacement     0.424966     0.001800     NO 
 RMS     Displacement     0.148816     0.001200     NO 
 Predicted change in Energy=-2.716950D-04
 Lowest energy point so far.  Saving SCF results.
 GradGradGradGradGradGradGradGradGradGradGradGradGradGradGradGradGradGrad

 Leave Link  103 at Mon Apr 21 21:33:16 2025, MaxMem=   536870912 cpu:               0.4 elap:               0.1
 (Enter /home/szhao/Apps/g16/l202.exe)
                          Input orientation:                          
 ---------------------------------------------------------------------
 Center     Atomic      Atomic             Coordinates (Angstroms)
 Number     Number       Type             X           Y           Z
 ---------------------------------------------------------------------
      1          8           0       -0.786938    0.000000    0.000000
      2          8           0        0.786938    0.000000    0.000000
      3          1           0       -0.896536   -0.923367   -0.262102
      4          1           0        0.896519    0.593521    0.754349
 ---------------------------------------------------------------------
                    Distance matrix (angstroms):
                    1          2          3          4
     1  O    0.000000
     2  O    1.573876   0.000000
     3  H    0.966083   1.937882   0.000000
     4  H    1.937870   0.966084   2.559135   0.000000
 Symmetry turned off by external request.
 Stoichiometry    H2O2
 Framework group  C1[X(H2O2)]
 Deg. of freedom     6
 Full point group                 C1      NOp   1
 Rotational constants (GHZ):         295.5990843          23.2531494          21.8678582
 Leave Link  202 at Mon Apr 21 21:33:16 2025, MaxMem=   536870912 cpu:               0.1 elap:               0.0
 (Enter /home/szhao/Apps/g16/l301.exe)
 Standard basis: 6-311+G(d,p) (5D, 7F)
 Ernie: Thresh=  0.10000D-02 Tol=  0.10000D-05 Strict=F.
    56 basis functions,    88 primitive gaussians,    58 cartesian basis functions
     9 alpha electrons        9 beta electrons
       nuclear repulsion energy        34.8584302281 Hartrees.
 IExCor= 4336 DFT=T Ex+Corr=M062X ExCW=0 ScaHFX=  0.540000
 ScaDFX=  1.000000  1.000000  1.000000  1.000000 ScalE2=  1.000000  1.000000
 IRadAn=      7 IRanWt=     -1 IRanGd=            0 ICorTp=0 IEmpDi=  4
 NAtoms=    4 NActive=    4 NUniq=    4 SFac= 1.00D+00 NAtFMM=   60 NAOKFM=F Big=F
 Integral buffers will be    131072 words long.
 Raffenetti 2 integral format.
 Two-electron integral symmetry is turned off.
 Leave Link  301 at Mon Apr 21 21:33:16 2025, MaxMem=   536870912 cpu:               0.8 elap:               0.1
 (Enter /home/szhao/Apps/g16/l302.exe)
 NPDir=0 NMtPBC=     1 NCelOv=     1 NCel=       1 NClECP=     1 NCelD=      1
         NCelK=      1 NCelE2=     1 NClLst=     1 CellRange=     0.0.
 One-electron integrals computed using PRISM.
 NBasis=    56 RedAO= T EigKep=  1.75D-03  NBF=    56
 NBsUse=    56 1.00D-06 EigRej= -1.00D+00 NBFU=    56
 Precomputing XC quadrature grid using
 IXCGrd= 4 IRadAn=           7 IRanWt=          -1 IRanGd=           0 AccXCQ= 0.00D+00.
 Generated NRdTot=       0 NPtTot=           0 NUsed=           0 NTot=          32
 NSgBfM=    58    58    58    58    58 MxSgAt=     4 MxSgA2=     4.
 Leave Link  302 at Mon Apr 21 21:33:17 2025, MaxMem=   536870912 cpu:               1.7 elap:               0.3
 (Enter /home/szhao/Apps/g16/l303.exe)
 DipDrv:  MaxL=1.
 Leave Link  303 at Mon Apr 21 21:33:17 2025, MaxMem=   536870912 cpu:               0.6 elap:               0.1
 (Enter /home/szhao/Apps/g16/l401.exe)
 Initial guess from the checkpoint file:  "opt.chk"
 B after Tr=    -0.000004    0.019098   -0.028500
         Rot=    0.999641   -0.026493    0.002112   -0.003339 Ang=  -3.07 deg.
 Guess basis will be translated and rotated to current coordinates.
 JPrj=2 DoOrth=T DoCkMO=T.
 Initial guess <Sx>= 0.0000 <Sy>= 0.0000 <Sz>= 0.0000 <S**2>=-0.0000 S=-0.0000
 Generating alternative initial guess.
 ExpMin= 8.45D-02 ExpMax= 8.59D+03 ExpMxC= 1.30D+03 IAcc=3 IRadAn=         5 AccDes= 0.00D+00
 Harris functional with IExCor= 1009 and IRadAn=       5 diagonalized for initial guess.
 HarFok:  IExCor= 1009 AccDes= 0.00D+00 IRadAn=         5 IDoV= 1 UseB2=F ITyADJ=14
 ICtDFT=  3500011 ScaDFX=  1.000000  1.000000  1.000000  1.000000
 FoFCou: FMM=F IPFlag=           0 FMFlag=      100000 FMFlg1=           0
         NFxFlg=           0 DoJE=T BraDBF=F KetDBF=T FulRan=T
         wScrn=  0.000000 ICntrl=       500 IOpCl=  0 I1Cent=   200000004 NGrid=           0
         NMat0=    1 NMatS0=      1 NMatT0=    0 NMatD0=    1 NMtDS0=    0 NMtDT0=    0
 Symmetry not used in FoFCou.
 Harris En= -151.469323793508    
 Leave Link  401 at Mon Apr 21 21:33:17 2025, MaxMem=   536870912 cpu:               2.9 elap:               0.4
 (Enter /home/szhao/Apps/g16/l502.exe)
 Keep R1 and R2 ints in memory in canonical form, NReq=9624198.
 FoFCou: FMM=F IPFlag=           0 FMFlag=           0 FMFlg1=           0
         NFxFlg=           0 DoJE=F BraDBF=F KetDBF=F FulRan=T
         wScrn=  0.000000 ICntrl=       600 IOpCl=  0 I1Cent=           0 NGrid=           0
         NMat0=    1 NMatS0=   1596 NMatT0=    0 NMatD0=    1 NMtDS0=    0 NMtDT0=    0
 Symmetry not used in FoFCou.
 Two-electron integral symmetry not used.
 UHF open shell SCF:
 Using DIIS extrapolation, IDIIS=  1040.
 NGot=   536870912 LenX=   534314338 LenY=   534310533
 Requested convergence on RMS density matrix=1.00D-08 within 128 cycles.
 Requested convergence on MAX density matrix=1.00D-06.
 Requested convergence on             energy=1.00D-06.
 No special actions if energy rises.
 Integral accuracy reduced to 1.0D-05 until final iterations.

 Cycle   1  Pass 0  IDiag  1:
 E= -151.515684982866    
 DIIS: error= 1.37D-02 at cycle   1 NSaved=   1.
 NSaved= 1 IEnMin= 1 EnMin= -151.515684982866     IErMin= 1 ErrMin= 1.37D-02
 ErrMax= 1.37D-02  0.00D+00 EMaxC= 1.00D-01 BMatC= 3.01D-02 BMatP= 3.01D-02
 IDIUse=3 WtCom= 8.63D-01 WtEn= 1.37D-01
 Coeff-Com:  0.100D+01
 Coeff-En:   0.100D+01
 Coeff:      0.100D+01
 Recover alternate guess density for next cycle.
 RMSDP=3.24D-03 MaxDP=2.00D-02              OVMax= 0.00D+00

 Cycle   2  Pass 0  IDiag  1:
 E= -151.494847859205     Delta-E=        0.020837123660 Rises=F Damp=F
 Switch densities from cycles 1 and 2 for lowest energy.
 DIIS: error= 2.85D-02 at cycle   2 NSaved=   2.
 NSaved= 2 IEnMin= 1 EnMin= -151.515684982866     IErMin= 1 ErrMin= 1.37D-02
 ErrMax= 2.85D-02  0.00D+00 EMaxC= 1.00D+00 BMatC= 2.60D-01 BMatP= 3.01D-02
 IDIUse=1 WtCom= 1.00D+00 WtEn= 0.00D+00
 Coeff-Com:  0.899D+00 0.101D+00
 Coeff:      0.899D+00 0.101D+00
 Gap=     0.382 Goal=   None    Shift=    0.000
 Gap=     0.382 Goal=   None    Shift=    0.000
 RMSDP=1.76D-03 MaxDP=1.58D-02 DE= 2.08D-02 OVMax= 4.74D-02

 Cycle   3  Pass 0  IDiag  1:
 E= -151.524727264860     Delta-E=       -0.029879405654 Rises=F Damp=F
 DIIS: error= 2.91D-03 at cycle   3 NSaved=   3.
 NSaved= 3 IEnMin= 3 EnMin= -151.524727264860     IErMin= 3 ErrMin= 2.91D-03
 ErrMax= 2.91D-03  0.00D+00 EMaxC= 1.00D+00 BMatC= 1.91D-03 BMatP= 3.01D-02
 IDIUse=1 WtCom= 1.00D+00 WtEn= 0.00D+00
 Coeff-Com: -0.103D+00 0.582D-01 0.105D+01
 Coeff:     -0.103D+00 0.582D-01 0.105D+01
 Gap=     0.370 Goal=   None    Shift=    0.000
 Gap=     0.370 Goal=   None    Shift=    0.000
 RMSDP=4.47D-04 MaxDP=4.08D-03 DE=-2.99D-02 OVMax= 1.09D-02

 Cycle   4  Pass 0  IDiag  1:
 E= -151.525224231564     Delta-E=       -0.000496966704 Rises=F Damp=F
 DIIS: error= 8.81D-04 at cycle   4 NSaved=   4.
 NSaved= 4 IEnMin= 4 EnMin= -151.525224231564     IErMin= 4 ErrMin= 8.81D-04
 ErrMax= 8.81D-04  0.00D+00 EMaxC= 1.00D+00 BMatC= 2.06D-04 BMatP= 1.91D-03
 IDIUse=1 WtCom= 1.00D+00 WtEn= 0.00D+00
 Coeff-Com: -0.393D-01 0.641D-03 0.261D+00 0.777D+00
 Coeff:     -0.393D-01 0.641D-03 0.261D+00 0.777D+00
 Gap=     0.370 Goal=   None    Shift=    0.000
 Gap=     0.370 Goal=   None    Shift=    0.000
 RMSDP=9.91D-05 MaxDP=9.78D-04 DE=-4.97D-04 OVMax= 2.00D-03

 Cycle   5  Pass 0  IDiag  1:
 E= -151.525266451981     Delta-E=       -0.000042220417 Rises=F Damp=F
 DIIS: error= 2.41D-04 at cycle   5 NSaved=   5.
 NSaved= 5 IEnMin= 5 EnMin= -151.525266451981     IErMin= 5 ErrMin= 2.41D-04
 ErrMax= 2.41D-04  0.00D+00 EMaxC= 1.00D+00 BMatC= 8.35D-06 BMatP= 2.06D-04
 IDIUse=1 WtCom= 1.00D+00 WtEn= 0.00D+00
 Coeff-Com:  0.226D-02-0.220D-02-0.455D-01 0.841D-01 0.961D+00
 Coeff:      0.226D-02-0.220D-02-0.455D-01 0.841D-01 0.961D+00
 Gap=     0.370 Goal=   None    Shift=    0.000
 Gap=     0.370 Goal=   None    Shift=    0.000
 RMSDP=4.86D-05 MaxDP=4.95D-04 DE=-4.22D-05 OVMax= 1.19D-03

 Cycle   6  Pass 0  IDiag  1:
 E= -151.525270245443     Delta-E=       -0.000003793462 Rises=F Damp=F
 DIIS: error= 7.06D-05 at cycle   6 NSaved=   6.
 NSaved= 6 IEnMin= 6 EnMin= -151.525270245443     IErMin= 6 ErrMin= 7.06D-05
 ErrMax= 7.06D-05  0.00D+00 EMaxC= 1.00D+00 BMatC= 4.26D-07 BMatP= 8.35D-06
 IDIUse=1 WtCom= 1.00D+00 WtEn= 0.00D+00
 Coeff-Com:  0.232D-02 0.234D-03-0.192D-01-0.617D-01-0.185D-01 0.110D+01
 Coeff:      0.232D-02 0.234D-03-0.192D-01-0.617D-01-0.185D-01 0.110D+01
 Gap=     0.370 Goal=   None    Shift=    0.000
 Gap=     0.370 Goal=   None    Shift=    0.000
 RMSDP=1.83D-05 MaxDP=2.06D-04 DE=-3.79D-06 OVMax= 5.56D-04

 Cycle   7  Pass 0  IDiag  1:
 E= -151.525270646051     Delta-E=       -0.000000400607 Rises=F Damp=F
 DIIS: error= 2.33D-05 at cycle   7 NSaved=   7.
 NSaved= 7 IEnMin= 7 EnMin= -151.525270646051     IErMin= 7 ErrMin= 2.33D-05
 ErrMax= 2.33D-05  0.00D+00 EMaxC= 1.00D+00 BMatC= 3.26D-08 BMatP= 4.26D-07
 IDIUse=1 WtCom= 1.00D+00 WtEn= 0.00D+00
 Coeff-Com: -0.556D-03 0.918D-04 0.696D-02 0.667D-02-0.459D-01-0.186D+00
 Coeff-Com:  0.122D+01
 Coeff:     -0.556D-03 0.918D-04 0.696D-02 0.667D-02-0.459D-01-0.186D+00
 Coeff:      0.122D+01
 Gap=     0.370 Goal=   None    Shift=    0.000
 Gap=     0.370 Goal=   None    Shift=    0.000
 RMSDP=4.24D-06 MaxDP=2.93D-05 DE=-4.01D-07 OVMax= 2.11D-04

 Initial convergence to 1.0D-05 achieved.  Increase integral accuracy.
 Cycle   8  Pass 1  IDiag  1:
 E= -151.525270417537     Delta-E=        0.000000228514 Rises=F Damp=F
 DIIS: error= 9.84D-06 at cycle   1 NSaved=   1.
 NSaved= 1 IEnMin= 1 EnMin= -151.525270417537     IErMin= 1 ErrMin= 9.84D-06
 ErrMax= 9.84D-06  0.00D+00 EMaxC= 1.00D+00 BMatC= 9.60D-09 BMatP= 9.60D-09
 IDIUse=1 WtCom= 1.00D+00 WtEn= 0.00D+00
 Coeff-Com:  0.100D+01
 Coeff:      0.100D+01
 Gap=     0.370 Goal=   None    Shift=    0.000
 Gap=     0.370 Goal=   None    Shift=    0.000
 RMSDP=4.24D-06 MaxDP=2.93D-05 DE= 2.29D-07 OVMax= 6.85D-05

 Cycle   9  Pass 1  IDiag  1:
 E= -151.525270421487     Delta-E=       -0.000000003950 Rises=F Damp=F
 DIIS: error= 1.25D-05 at cycle   2 NSaved=   2.
 NSaved= 2 IEnMin= 2 EnMin= -151.525270421487     IErMin= 1 ErrMin= 9.84D-06
 ErrMax= 1.25D-05  0.00D+00 EMaxC= 1.00D+00 BMatC= 1.74D-08 BMatP= 9.60D-09
 IDIUse=1 WtCom= 1.00D+00 WtEn= 0.00D+00
 Coeff-Com:  0.596D+00 0.404D+00
 Coeff:      0.596D+00 0.404D+00
 Gap=     0.370 Goal=   None    Shift=    0.000
 Gap=     0.370 Goal=   None    Shift=    0.000
 RMSDP=6.17D-07 MaxDP=6.51D-06 DE=-3.95D-09 OVMax= 1.76D-05

 Cycle  10  Pass 1  IDiag  1:
 E= -151.525270425042     Delta-E=       -0.000000003556 Rises=F Damp=F
 DIIS: error= 4.63D-06 at cycle   3 NSaved=   3.
 NSaved= 3 IEnMin= 3 EnMin= -151.525270425042     IErMin= 3 ErrMin= 4.63D-06
 ErrMax= 4.63D-06  0.00D+00 EMaxC= 1.00D+00 BMatC= 1.17D-09 BMatP= 9.60D-09
 IDIUse=1 WtCom= 1.00D+00 WtEn= 0.00D+00
 Coeff-Com: -0.635D+00-0.141D+00 0.178D+01
 Coeff:     -0.635D+00-0.141D+00 0.178D+01
 Gap=     0.370 Goal=   None    Shift=    0.000
 Gap=     0.370 Goal=   None    Shift=    0.000
 RMSDP=1.24D-06 MaxDP=7.64D-06 DE=-3.56D-09 OVMax= 6.09D-05

 Cycle  11  Pass 1  IDiag  1:
 E= -151.525270426827     Delta-E=       -0.000000001785 Rises=F Damp=F
 DIIS: error= 6.01D-07 at cycle   4 NSaved=   4.
 NSaved= 4 IEnMin= 4 EnMin= -151.525270426827     IErMin= 4 ErrMin= 6.01D-07
 ErrMax= 6.01D-07  0.00D+00 EMaxC= 1.00D+00 BMatC= 5.38D-11 BMatP= 1.17D-09
 IDIUse=1 WtCom= 1.00D+00 WtEn= 0.00D+00
 Coeff-Com: -0.173D+00-0.637D-01 0.391D+00 0.846D+00
 Coeff:     -0.173D+00-0.637D-01 0.391D+00 0.846D+00
 Gap=     0.370 Goal=   None    Shift=    0.000
 Gap=     0.370 Goal=   None    Shift=    0.000
 RMSDP=1.50D-07 MaxDP=8.89D-07 DE=-1.78D-09 OVMax= 7.24D-06

 Cycle  12  Pass 1  IDiag  1:
 E= -151.525270426861     Delta-E=       -0.000000000034 Rises=F Damp=F
 DIIS: error= 2.40D-07 at cycle   5 NSaved=   5.
 NSaved= 5 IEnMin= 5 EnMin= -151.525270426861     IErMin= 5 ErrMin= 2.40D-07
 ErrMax= 2.40D-07  0.00D+00 EMaxC= 1.00D+00 BMatC= 1.08D-11 BMatP= 5.38D-11
 IDIUse=1 WtCom= 1.00D+00 WtEn= 0.00D+00
 Coeff-Com: -0.127D-02-0.115D-01-0.290D-01 0.322D+00 0.720D+00
 Coeff:     -0.127D-02-0.115D-01-0.290D-01 0.322D+00 0.720D+00
 Gap=     0.370 Goal=   None    Shift=    0.000
 Gap=     0.370 Goal=   None    Shift=    0.000
 RMSDP=3.20D-08 MaxDP=2.84D-07 DE=-3.38D-11 OVMax= 1.35D-06

 Cycle  13  Pass 1  IDiag  1:
 E= -151.525270426864     Delta-E=       -0.000000000003 Rises=F Damp=F
 DIIS: error= 4.24D-08 at cycle   6 NSaved=   6.
 NSaved= 6 IEnMin= 6 EnMin= -151.525270426864     IErMin= 6 ErrMin= 4.24D-08
 ErrMax= 4.24D-08  0.00D+00 EMaxC= 1.00D+00 BMatC= 3.81D-13 BMatP= 1.08D-11
 IDIUse=1 WtCom= 1.00D+00 WtEn= 0.00D+00
 Coeff-Com:  0.121D-01 0.212D-02-0.358D-01-0.250D-01 0.104D+00 0.942D+00
 Coeff:      0.121D-01 0.212D-02-0.358D-01-0.250D-01 0.104D+00 0.942D+00
 Gap=     0.370 Goal=   None    Shift=    0.000
 Gap=     0.370 Goal=   None    Shift=    0.000
 RMSDP=1.31D-08 MaxDP=1.14D-07 DE=-2.84D-12 OVMax= 5.69D-07

 Cycle  14  Pass 1  IDiag  1:
 E= -151.525270426864     Delta-E=       -0.000000000000 Rises=F Damp=F
 DIIS: error= 9.04D-09 at cycle   7 NSaved=   7.
 NSaved= 7 IEnMin= 7 EnMin= -151.525270426864     IErMin= 7 ErrMin= 9.04D-09
 ErrMax= 9.04D-09  0.00D+00 EMaxC= 1.00D+00 BMatC= 1.28D-14 BMatP= 3.81D-13
 IDIUse=1 WtCom= 1.00D+00 WtEn= 0.00D+00
 Coeff-Com: -0.973D-03 0.495D-03 0.526D-02-0.205D-01-0.524D-01-0.223D-01
 Coeff-Com:  0.109D+01
 Coeff:     -0.973D-03 0.495D-03 0.526D-02-0.205D-01-0.524D-01-0.223D-01
 Coeff:      0.109D+01
 Gap=     0.370 Goal=   None    Shift=    0.000
 Gap=     0.370 Goal=   None    Shift=    0.000
 RMSDP=3.34D-09 MaxDP=3.81D-08 DE=-2.84D-13 OVMax= 6.25D-08

 SCF Done:  E(UM062X) =  -151.525270427     A.U. after   14 cycles
            NFock= 14  Conv=0.33D-08     -V/T= 2.0036
 <Sx>= 0.0000 <Sy>= 0.0000 <Sz>= 0.0000 <S**2>=-0.0000 S=-0.0000
 <L.S>=  0.00000000000    
 KE= 1.509771653232D+02 PE=-4.283581588720D+02 EE= 9.099729289379D+01
 Annihilation of the first spin contaminant:
 S**2 before annihilation    -0.0000,   after     0.0000
 Leave Link  502 at Mon Apr 21 21:33:22 2025, MaxMem=   536870912 cpu:              30.7 elap:               4.0
 (Enter /home/szhao/Apps/g16/l701.exe)
 ... and contract with generalized density number  0.
 Compute integral first derivatives.
 Leave Link  701 at Mon Apr 21 21:33:22 2025, MaxMem=   536870912 cpu:               1.1 elap:               0.2
 (Enter /home/szhao/Apps/g16/l702.exe)
 L702 exits ... SP integral derivatives will be done elsewhere.
 Leave Link  702 at Mon Apr 21 21:33:22 2025, MaxMem=   536870912 cpu:               0.4 elap:               0.1
 (Enter /home/szhao/Apps/g16/l703.exe)
 Integral derivatives from FoFJK, PRISM(SPDF).
 Compute integral first derivatives, UseDBF=F ICtDFT=           0.
 Calling FoFJK, ICntrl=      2127 FMM=F ISym2X=0 I1Cent= 0 IOpClX= 1 NMat=1 NMatS=1 NMatT=0.
 FoFJK:  IHMeth= 1 ICntrl=    2127 DoSepK=F KAlg= 0 I1Cent=           0 FoldK=F
 IRaf=         0 NMat=       1 IRICut=       1 DoRegI=T DoRafI=F ISym2E= 0 IDoP0=0 IntGTp=1.
 FoFCou: FMM=F IPFlag=           0 FMFlag=      100000 FMFlg1=         800
         NFxFlg=           0 DoJE=F BraDBF=F KetDBF=F FulRan=T
         wScrn=  0.000000 ICntrl=      2127 IOpCl=  1 I1Cent=           0 NGrid=           0
         NMat0=    1 NMatS0=      1 NMatT0=    0 NMatD0=    1 NMtDS0=    0 NMtDT0=    0
 Symmetry not used in FoFCou.
 Leave Link  703 at Mon Apr 21 21:33:23 2025, MaxMem=   536870912 cpu:               5.5 elap:               0.7
 (Enter /home/szhao/Apps/g16/l716.exe)
 Dipole        =-4.99863484D-06-2.44579340D-01 3.64995518D-01
 -------------------------------------------------------------------
 Center     Atomic                   Forces (Hartrees/Bohr)
 Number     Number              X              Y              Z
 -------------------------------------------------------------------
      1        8          -0.000000000   -0.000000000   -0.000000000
      2        8          -0.000000000   -0.000000000   -0.000000000
      3        1          -0.000049900    0.000345847    0.000490362
      4        1           0.000050282   -0.000587860   -0.000134209
 -------------------------------------------------------------------
 Cartesian Forces:  Max     0.000587860 RMS     0.000246420
 Leave Link  716 at Mon Apr 21 21:33:23 2025, MaxMem=   536870912 cpu:               0.5 elap:               0.1
 (Enter /home/szhao/Apps/g16/l103.exe)

 GradGradGradGradGradGradGradGradGradGradGradGradGradGradGradGradGradGrad
 Berny optimization.
 Using GEDIIS/GDIIS optimizer.
 FormGI is forming the generalized inverse of G from B-inverse, IUseBI=4.
 Internal  Forces:  Max     0.000700368 RMS     0.000430077
 Search for a local minimum.
 Step number   3 out of a maximum of   21
 All quantities printed in internal units (Hartrees-Bohrs-Radians)
 RMS Force = .43875D-03 SwitMx=.10000D-02 MixMth= 2
 Mixed Optimization -- En-DIIS/RFO-DIIS
 Update second derivatives using D2CorX and points    1    2    3
 DE= -6.84D-05 DEPred=-2.72D-04 R= 2.52D-01
 Trust test= 2.52D-01 RLast= 3.70D-01 DXMaxT set to 4.53D-01
 The second derivative matrix:
                          X1        Y1        Z1        X2        Y2
           X1           0.52750
           Y1          -0.03817   0.55403
           Z1          -0.01425   0.02118   0.50926
           X2          -0.02748   0.03815   0.01425   0.52746
           Y2           0.03095  -0.04470  -0.01837  -0.03094   0.53773
           Z2           0.02642  -0.03700  -0.01413  -0.02641   0.03028
           R1           0.00648  -0.00979  -0.00443  -0.00648   0.00862
           R2           0.00646  -0.00978  -0.00443  -0.00646   0.00861
           A1          -0.05315   0.07410   0.02798   0.05312  -0.06037
           A2          -0.05312   0.07407   0.02797   0.05309  -0.06035
           D1           0.00272  -0.00165   0.00143  -0.00271  -0.00046
                          Z2        R1        R2        A1        A2
           Z2           0.52549
           R1           0.00647   0.54652
           R2           0.00646   0.00061   0.54652
           A1          -0.05118  -0.00196  -0.00194   0.18326
           A2          -0.05115  -0.00196  -0.00194   0.02322   0.18318
           D1           0.00195  -0.00060  -0.00061  -0.00458  -0.00457
                          D1
           D1           0.00455
 ITU=  0  1  0
 Use linear search instead of GDIIS.
     Eigenvalues ---    0.00434   0.16000   0.20660   0.54591   0.54717
     Eigenvalues --- 1000.000001000.000001000.000001000.000001000.00000
     Eigenvalues --- 1000.00000
 RFO step:  Lambda=-5.05103475D-05 EMin= 4.34391923D-03
 Quartic linear search produced a step of -0.44780.
 Iteration  1 RMS(Cart)=  0.07922522 RMS(Int)=  0.00642809
 Iteration  2 RMS(Cart)=  0.00768911 RMS(Int)=  0.00004002
 Iteration  3 RMS(Cart)=  0.00004588 RMS(Int)=  0.00000000
 Iteration  4 RMS(Cart)=  0.00000000 RMS(Int)=  0.00000000
 ITry= 1 IFail=0 DXMaxC= 2.34D-01 DCOld= 1.00D+10 DXMaxT= 4.53D-01 DXLimC= 3.00D+00 Rises=F
 Variable       Old X    -DE/DX   Delta X   Delta X   Delta X     New X
                                 (Linear)    (Quad)   (Total)
    X1       -1.48710  -0.00005   0.00000   0.00000   0.00000  -1.48710
    Y1        0.00000   0.00046   0.00000   0.00000   0.00000   0.00000
    Z1        0.00000   0.00057   0.00000   0.00000   0.00000   0.00000
    X2        1.48710   0.00005   0.00000   0.00000   0.00000   1.48710
    Y2        0.00000  -0.00070   0.00000   0.00000   0.00000   0.00000
    Z2        0.00000  -0.00021   0.00000   0.00000   0.00000   0.00000
    R1        1.82563  -0.00046   0.00009  -0.00066  -0.00056   1.82507
    R2        1.82563  -0.00046   0.00009  -0.00066  -0.00056   1.82507
    A1        1.68449   0.00019  -0.00523   0.01084   0.00561   1.69010
    A2        1.68447   0.00019  -0.00521   0.01083   0.00562   1.69009
    D1       -2.51402   0.00069   0.16555   0.04908   0.21464  -2.29938
         Item               Value     Threshold  Converged?
 Maximum Force            0.000686     0.000450     NO 
 RMS     Force            0.000439     0.000300     NO 
 Maximum Displacement     0.233722     0.001800     NO 
 RMS     Displacement     0.085143     0.001200     NO 
 Predicted change in Energy=-4.914850D-05
 Lowest energy point so far.  Saving SCF results.
 GradGradGradGradGradGradGradGradGradGradGradGradGradGradGradGradGradGrad

 Leave Link  103 at Mon Apr 21 21:33:24 2025, MaxMem=   536870912 cpu:               0.4 elap:               0.1
 (Enter /home/szhao/Apps/g16/l202.exe)
                          Input orientation:                          
 ---------------------------------------------------------------------
 Center     Atomic      Atomic             Coordinates (Angstroms)
 Number     Number       Type             X           Y           Z
 ---------------------------------------------------------------------
      1          8           0       -0.786938    0.000000    0.000000
      2          8           0        0.786938    0.000000    0.000000
      3          1           0       -0.901887   -0.948878   -0.138421
      4          1           0        0.901873    0.528496    0.800140
 ---------------------------------------------------------------------
                    Distance matrix (angstroms):
                    1          2          3          4
     1  O    0.000000
     2  O    1.573876   0.000000
     3  H    0.965786   1.942076   0.000000
     4  H    1.942064   0.965786   2.513381   0.000000
 Symmetry turned off by external request.
 Stoichiometry    H2O2
 Framework group  C1[X(H2O2)]
 Deg. of freedom     6
 Full point group                 C1      NOp   1
 Rotational constants (GHZ):         295.7590979          23.1108915          21.9790845
 Leave Link  202 at Mon Apr 21 21:33:24 2025, MaxMem=   536870912 cpu:               0.1 elap:               0.1
 (Enter /home/szhao/Apps/g16/l301.exe)
 Standard basis: 6-311+G(d,p) (5D, 7F)
 Ernie: Thresh=  0.10000D-02 Tol=  0.10000D-05 Strict=F.
    56 basis functions,    88 primitive gaussians,    58 cartesian basis functions
     9 alpha electrons        9 beta electrons
       nuclear repulsion energy        34.8554553807 Hartrees.
 IExCor= 4336 DFT=T Ex+Corr=M062X ExCW=0 ScaHFX=  0.540000
 ScaDFX=  1.000000  1.000000  1.000000  1.000000 ScalE2=  1.000000  1.000000
 IRadAn=      7 IRanWt=     -1 IRanGd=            0 ICorTp=0 IEmpDi=  4
 NAtoms=    4 NActive=    4 NUniq=    4 SFac= 1.00D+00 NAtFMM=   60 NAOKFM=F Big=F
 Integral buffers will be    131072 words long.
 Raffenetti 2 integral format.
 Two-electron integral symmetry is turned off.
 Leave Link  301 at Mon Apr 21 21:33:24 2025, MaxMem=   536870912 cpu:               0.5 elap:               0.1
 (Enter /home/szhao/Apps/g16/l302.exe)
 NPDir=0 NMtPBC=     1 NCelOv=     1 NCel=       1 NClECP=     1 NCelD=      1
         NCelK=      1 NCelE2=     1 NClLst=     1 CellRange=     0.0.
 One-electron integrals computed using PRISM.
 NBasis=    56 RedAO= T EigKep=  1.93D-03  NBF=    56
 NBsUse=    56 1.00D-06 EigRej= -1.00D+00 NBFU=    56
 Precomputing XC quadrature grid using
 IXCGrd= 4 IRadAn=           7 IRanWt=          -1 IRanGd=           0 AccXCQ= 0.00D+00.
 Generated NRdTot=       0 NPtTot=           0 NUsed=           0 NTot=          32
 NSgBfM=    58    58    58    58    58 MxSgAt=     4 MxSgA2=     4.
 Leave Link  302 at Mon Apr 21 21:33:25 2025, MaxMem=   536870912 cpu:               1.3 elap:               0.2
 (Enter /home/szhao/Apps/g16/l303.exe)
 DipDrv:  MaxL=1.
 Leave Link  303 at Mon Apr 21 21:33:25 2025, MaxMem=   536870912 cpu:               0.5 elap:               0.1
 (Enter /home/szhao/Apps/g16/l401.exe)
 Initial guess from the checkpoint file:  "opt.chk"
 B after Tr=     0.000000   -0.010776    0.016962
         Rot=    0.999921    0.012201   -0.001616    0.002476 Ang=   1.44 deg.
 Guess basis will be translated and rotated to current coordinates.
 JPrj=2 DoOrth=T DoCkMO=T.
 Initial guess <Sx>= 0.0000 <Sy>= 0.0000 <Sz>= 0.0000 <S**2>=-0.0000 S=-0.0000
[...]
 E= -151.525354488864     Delta-E=       -0.000000000004 Rises=F Damp=F
 DIIS: error= 8.87D-08 at cycle   8 NSaved=   8.
 NSaved= 8 IEnMin= 8 EnMin= -151.525354488864     IErMin= 8 ErrMin= 8.87D-08
 ErrMax= 8.87D-08  0.00D+00 EMaxC= 1.00D-01 BMatC= 5.16D-13 BMatP= 9.98D-12
 IDIUse=1 WtCom= 1.00D+00 WtEn= 0.00D+00
 Coeff-Com:  0.208D-03-0.256D-02 0.354D-02 0.201D-01 0.264D-01-0.351D+00
 Coeff-Com: -0.532D-01 0.136D+01
 Coeff:      0.208D-03-0.256D-02 0.354D-02 0.201D-01 0.264D-01-0.351D+00
 Coeff:     -0.532D-01 0.136D+01
 Gap=     0.375 Goal=   None    Shift=    0.000
 Gap=     0.375 Goal=   None    Shift=    0.000
 RMSDP=2.15D-08 MaxDP=1.44D-07 DE=-3.69D-12 OVMax= 1.11D-06

 Cycle   9  Pass 1  IDiag  1:
 E= -151.525354488865     Delta-E=       -0.000000000001 Rises=F Damp=F
 DIIS: error= 1.54D-08 at cycle   9 NSaved=   9.
 NSaved= 9 IEnMin= 9 EnMin= -151.525354488865     IErMin= 9 ErrMin= 1.54D-08
 ErrMax= 1.54D-08  0.00D+00 EMaxC= 1.00D-01 BMatC= 2.76D-14 BMatP= 5.16D-13
 IDIUse=1 WtCom= 1.00D+00 WtEn= 0.00D+00
 Coeff-Com:  0.103D-03-0.119D-02 0.617D-03 0.626D-02 0.162D-01-0.106D+00
 Coeff-Com: -0.469D-01 0.150D+00 0.981D+00
 Coeff:      0.103D-03-0.119D-02 0.617D-03 0.626D-02 0.162D-01-0.106D+00
 Coeff:     -0.469D-01 0.150D+00 0.981D+00
 Gap=     0.375 Goal=   None    Shift=    0.000
 Gap=     0.375 Goal=   None    Shift=    0.000
 RMSDP=4.37D-09 MaxDP=3.14D-08 DE=-8.53D-13 OVMax= 2.36D-07

 SCF Done:  E(UM062X) =  -151.525354489     A.U. after    9 cycles
            NFock=  9  Conv=0.44D-08     -V/T= 2.0036
 <Sx>= 0.0000 <Sy>= 0.0000 <Sz>= 0.0000 <S**2>=-0.0000 S=-0.0000
 <L.S>=  0.00000000000    
 KE= 1.509768710505D+02 PE=-4.283508051785D+02 EE= 9.099055715184D+01
 Annihilation of the first spin contaminant:
 S**2 before annihilation    -0.0000,   after     0.0000
 Leave Link  502 at Mon Apr 21 21:33:37 2025, MaxMem=   536870912 cpu:              28.7 elap:               3.8
 (Enter /home/szhao/Apps/g16/l701.exe)
 ... and contract with generalized density number  0.
 Compute integral first derivatives.
 Leave Link  701 at Mon Apr 21 21:33:37 2025, MaxMem=   536870912 cpu:               1.2 elap:               0.2
 (Enter /home/szhao/Apps/g16/l702.exe)
 L702 exits ... SP integral derivatives will be done elsewhere.
 Leave Link  702 at Mon Apr 21 21:33:37 2025, MaxMem=   536870912 cpu:               0.4 elap:               0.1
 (Enter /home/szhao/Apps/g16/l703.exe)
 Integral derivatives from FoFJK, PRISM(SPDF).
 Compute integral first derivatives, UseDBF=F ICtDFT=           0.
 Calling FoFJK, ICntrl=      2127 FMM=F ISym2X=0 I1Cent= 0 IOpClX= 1 NMat=1 NMatS=1 NMatT=0.
 FoFJK:  IHMeth= 1 ICntrl=    2127 DoSepK=F KAlg= 0 I1Cent=           0 FoldK=F
 IRaf=         0 NMat=       1 IRICut=       1 DoRegI=T DoRafI=F ISym2E= 0 IDoP0=0 IntGTp=1.
 FoFCou: FMM=F IPFlag=           0 FMFlag=      100000 FMFlg1=         800
         NFxFlg=           0 DoJE=F BraDBF=F KetDBF=F FulRan=T
         wScrn=  0.000000 ICntrl=      2127 IOpCl=  1 I1Cent=           0 NGrid=           0
         NMat0=    1 NMatS0=      1 NMatT0=    0 NMatD0=    1 NMtDS0=    0 NMtDT0=    0
 Symmetry not used in FoFCou.
 Leave Link  703 at Mon Apr 21 21:33:38 2025, MaxMem=   536870912 cpu:               6.2 elap:               0.8
 (Enter /home/szhao/Apps/g16/l716.exe)
 Dipole        =-1.19955979D-05-3.10007243D-01 4.87470209D-01
 -------------------------------------------------------------------
 Center     Atomic                   Forces (Hartrees/Bohr)
 Number     Number              X              Y              Z
 -------------------------------------------------------------------
      1        8          -0.000000000   -0.000000000   -0.000000000
      2        8          -0.000000000   -0.000000000   -0.000000000
      3        1          -0.000007351   -0.000000688    0.000003764
      4        1           0.000007101    0.000001317   -0.000000679
 -------------------------------------------------------------------
 Cartesian Forces:  Max     0.000007351 RMS     0.000003179
 Leave Link  716 at Mon Apr 21 21:33:39 2025, MaxMem=   536870912 cpu:               0.6 elap:               0.2
 (Enter /home/szhao/Apps/g16/l103.exe)

 GradGradGradGradGradGradGradGradGradGradGradGradGradGradGradGradGradGrad
 Berny optimization.
 Using GEDIIS/GDIIS optimizer.
 FormGI is forming the generalized inverse of G from B-inverse, IUseBI=4.
 Internal  Forces:  Max     0.000013294 RMS     0.000007370
 Search for a local minimum.
 Step number   5 out of a maximum of   21
 All quantities printed in internal units (Hartrees-Bohrs-Radians)
 RMS Force = .83422D-05 SwitMx=.10000D-02 MixMth= 2
 Mixed Optimization -- En-DIIS/RFO-DIIS
 Swapping is turned off.
 Update second derivatives using D2CorX and points    1    2    3    4    5
 DE= -2.38D-07 DEPred=-2.61D-07 R= 9.11D-01
 Trust test= 9.11D-01 RLast= 3.72D-03 DXMaxT set to 6.44D-01
 The second derivative matrix:
                          X1        Y1        Z1        X2        Y2
           X1           0.53481
           Y1          -0.02459   0.51803
           Z1          -0.01791   0.01264   0.51095
           X2          -0.03491   0.02465   0.01797   0.53500
           Y2           0.02675  -0.01922  -0.01518  -0.02683   0.52188
           Z2           0.01418  -0.01058  -0.00676  -0.01422   0.01075
           R1           0.00544  -0.01706  -0.00520  -0.00540   0.01284
           R2           0.00541  -0.01719  -0.00520  -0.00536   0.01291
           A1          -0.06095   0.04277   0.03128   0.06112  -0.04663
           A2          -0.06084   0.04253   0.03122   0.06101  -0.04645
           D1           0.00144  -0.00117   0.00166  -0.00143  -0.00079
                          Z2        R1        R2        A1        A2
           Z2           0.50642
           R1           0.01271   0.54586
           R2           0.01282  -0.00007   0.54583
           A1          -0.02462  -0.00205  -0.00203   0.18693
           A2          -0.02443  -0.00212  -0.00211   0.02672   0.18651
           D1           0.00144  -0.00031  -0.00031  -0.00255  -0.00254
                          D1
           D1           0.00340
 ITU=  0  1  0  1  0
     Eigenvalues ---    0.00333   0.16000   0.21345   0.54582   0.54591
     Eigenvalues --- 1000.000001000.000001000.000001000.000001000.00000
     Eigenvalues --- 1000.00000
 En-DIIS/RFO-DIIS/Sim-DIIS IScMMF=       -3 using points:     5    4    3
 RFO step:  Lambda=-1.43188986D-09.
 NNeg= 0 NGDIIS= 3 SimSw=  2.50D-01 Rises=F DC= -2.38D-07 SmlDif=  1.00D-05
 NRisDI= 0 DoIntr=F SqrtH=F CThrHd= 10.0 CDAdj=  3.0
 RMS Error=  0.2229095144D-03 NUsed= 3 OKEnD=F EnDIS=F
 InvSVX:  RCond= 3.82D-07 Info=           0 Equed=N FErr=  2.74D-15 BErr=  1.10D-16
 DidBck=F Rises=F RFO-DIIS coefs:    0.94884    0.05384   -0.00268
 Iteration  1 RMS(Cart)=  0.00030508 RMS(Int)=  0.00000007
 Iteration  2 RMS(Cart)=  0.00000007 RMS(Int)=  0.00000000
 ITry= 1 IFail=0 DXMaxC= 8.60D-04 DCOld= 1.00D+10 DXMaxT= 6.44D-01 DXLimC= 3.00D+00 Rises=F
 Variable       Old X    -DE/DX   Delta X   Delta X   Delta X     New X
                                 (Linear)    (Quad)   (Total)
    X1       -1.48710  -0.00001   0.00000   0.00000   0.00000  -1.48710
    Y1        0.00000   0.00001   0.00000   0.00000   0.00000   0.00000
    Z1        0.00000   0.00001   0.00000   0.00000   0.00000   0.00000
    X2        1.48710   0.00001   0.00000   0.00000   0.00000   1.48710
    Y2        0.00000  -0.00001   0.00000   0.00000   0.00000   0.00000
    Z2        0.00000  -0.00000   0.00000   0.00000   0.00000   0.00000
    R1        1.82498   0.00000   0.00000  -0.00000   0.00000   1.82498
    R2        1.82497   0.00000   0.00000  -0.00000   0.00000   1.82498
    A1        1.68897   0.00001   0.00007   0.00000   0.00007   1.68904
    A2        1.68895   0.00001   0.00007  -0.00000   0.00007   1.68902
    D1       -2.30273   0.00000   0.00075  -0.00000   0.00075  -2.30198
         Item               Value     Threshold  Converged?
 Maximum Force            0.000013     0.000450     YES
 RMS     Force            0.000008     0.000300     YES
 Maximum Displacement     0.000860     0.001800     YES
 RMS     Displacement     0.000305     0.001200     YES
 Predicted change in Energy=-1.695577D-09
 Optimization completed.
    -- Stationary point found.
                           ----------------------------
                           !   Optimized Parameters   !
                           ! (Angstroms and Degrees)  !
 --------------------------                            --------------------------
 ! Name  Definition              Value          Derivative Info.                !
 --------------------------------------------------------------------------------
 ! X1    R(1,-1)                -0.7869         -DE/DX =    0.0                 !
 ! Y1    R(1,-2)                 0.0            -DE/DX =    0.0                 !
 ! Z1    R(1,-3)                 0.0            -DE/DX =    0.0                 !
 ! X2    R(2,-1)                 0.7869         -DE/DX =    0.0                 !
 ! Y2    R(2,-2)                 0.0            -DE/DX =    0.0                 !
 ! Z2    R(2,-3)                 0.0            -DE/DX =    0.0                 !
 ! R1    R(1,3)                  0.9657         -DE/DX =    0.0                 !
 ! R2    R(2,4)                  0.9657         -DE/DX =    0.0                 !
 ! A1    A(2,1,3)               96.7707         -DE/DX =    0.0                 !
 ! A2    A(1,2,4)               96.7695         -DE/DX =    0.0                 !
 ! D1    D(3,1,2,4)           -131.9366         -DE/DX =    0.0                 !
 --------------------------------------------------------------------------------
 Lowest energy point so far.  Saving SCF results.
 Largest change from initial coordinates is atom    3       0.106 Angstoms.
 GradGradGradGradGradGradGradGradGradGradGradGradGradGradGradGradGradGrad

 Leave Link  103 at Mon Apr 21 21:33:39 2025, MaxMem=   536870912 cpu:               0.5 elap:               0.1
 (Enter /home/szhao/Apps/g16/l202.exe)
                          Input orientation:                          
 ---------------------------------------------------------------------
 Center     Atomic      Atomic             Coordinates (Angstroms)
 Number     Number       Type             X           Y           Z
 ---------------------------------------------------------------------
      1          8           0       -0.786938    0.000000    0.000000
      2          8           0        0.786938    0.000000    0.000000
      3          1           0       -0.900794   -0.948657   -0.140468
      4          1           0        0.900774    0.529503    0.799569
 ---------------------------------------------------------------------
                    Distance matrix (angstroms):
                    1          2          3          4
     1  O    0.000000
     2  O    1.573876   0.000000
     3  H    0.965735   1.941165   0.000000
     4  H    1.941148   0.965734   2.512822   0.000000
 Symmetry turned off by external request.
 Stoichiometry    H2O2
 Framework group  C1[X(H2O2)]
 Deg. of freedom     6
 Full point group                 C1      NOp   1
 Rotational constants (GHZ):         295.6735327          23.1174093          21.9804370
 Leave Link  202 at Mon Apr 21 21:33:39 2025, MaxMem=   536870912 cpu:               0.1 elap:               0.1
 (Enter /home/szhao/Apps/g16/l601.exe)
 Copying SCF densities to generalized density rwf, IOpCl= 1 IROHF=0.

 **********************************************************************

            Population analysis using the SCF density.

 **********************************************************************

 Alpha  occ. eigenvalues --  -19.70004 -19.69992  -1.22232  -1.04625  -0.59107
 Alpha  occ. eigenvalues --   -0.58383  -0.49693  -0.44132  -0.38367
 Alpha virt. eigenvalues --   -0.00871   0.05890   0.10653   0.15890   0.16339
 Alpha virt. eigenvalues --    0.18290   0.20624   0.20909   0.22093   0.26466
 Alpha virt. eigenvalues --    0.33448   0.50274   0.52765   0.96264   1.00055
 Alpha virt. eigenvalues --    1.01605   1.01822   1.09402   1.13470   1.32427
 Alpha virt. eigenvalues --    1.33776   1.42059   1.44723   1.56313   1.62529
 Alpha virt. eigenvalues --    2.01746   2.06778   2.46711   2.50474   2.61535
 Alpha virt. eigenvalues --    2.74196   2.91980   3.12990   3.16424   3.17556
 Alpha virt. eigenvalues --    3.27917   3.58063   3.80361   3.89078   4.90803
 Alpha virt. eigenvalues --    5.00782   5.04353   5.29593   5.50105   5.56189
 Alpha virt. eigenvalues --   49.86308  49.91814
  Beta  occ. eigenvalues --  -19.70004 -19.69992  -1.22232  -1.04625  -0.59107
  Beta  occ. eigenvalues --   -0.58383  -0.49693  -0.44132  -0.38367
  Beta virt. eigenvalues --   -0.00871   0.05890   0.10653   0.15890   0.16339
  Beta virt. eigenvalues --    0.18290   0.20624   0.20909   0.22093   0.26466
  Beta virt. eigenvalues --    0.33448   0.50274   0.52765   0.96264   1.00055
  Beta virt. eigenvalues --    1.01605   1.01822   1.09402   1.13470   1.32427
  Beta virt. eigenvalues --    1.33776   1.42059   1.44723   1.56313   1.62529
  Beta virt. eigenvalues --    2.01746   2.06778   2.46711   2.50474   2.61535
  Beta virt. eigenvalues --    2.74196   2.91980   3.12990   3.16424   3.17556
  Beta virt. eigenvalues --    3.27917   3.58063   3.80361   3.89078   4.90803
  Beta virt. eigenvalues --    5.00782   5.04353   5.29593   5.50105   5.56189
  Beta virt. eigenvalues --   49.86308  49.91814
          Condensed to atoms (all electrons):
               1          2          3          4
     1  O    7.910649   0.113091   0.267361  -0.017539
     2  O    0.113091   7.910642  -0.017537   0.267363
     3  H    0.267361  -0.017537   0.474700   0.001916
     4  H   -0.017539   0.267363   0.001916   0.474700
          Atomic-Atomic Spin Densities.
               1          2          3          4
     1  O   -0.000000  -0.000000   0.000000   0.000000
     2  O   -0.000000   0.000000   0.000000  -0.000000
     3  H    0.000000   0.000000  -0.000000  -0.000000
     4  H    0.000000  -0.000000  -0.000000   0.000000
 Mulliken charges and spin densities:
               1          2
     1  O   -0.273562  -0.000000
     2  O   -0.273558   0.000000
     3  H    0.273561   0.000000
     4  H    0.273560  -0.000000
 Sum of Mulliken charges =  -0.00000   0.00000
 Mulliken charges and spin densities with hydrogens summed into heavy atoms:
               1          2
     1  O   -0.000001  -0.000000
     2  O    0.000001   0.000000
 Electronic spatial extent (au):  <R**2>=             72.5274
 Charge=              0.0000 electrons
 Dipole moment (field-independent basis, Debye):
    X=             -0.0000    Y=             -0.7880    Z=              1.2390  Tot=              1.4684
 Quadrupole moment (field-independent basis, Debye-Ang):
   XX=            -11.7731   YY=            -10.0617   ZZ=            -11.4957
   XY=              2.9206   XZ=              1.8573   YZ=              1.5312
 Traceless Quadrupole moment (field-independent basis, Debye-Ang):
   XX=             -0.6630   YY=              1.0485   ZZ=             -0.3855
   XY=              2.9206   XZ=              1.8573   YZ=              1.5312
 Octapole moment (field-independent basis, Debye-Ang**2):
  XXX=             -0.0001  YYY=             -0.9356  ZZZ=              0.1977  XYY=             -1.5108
  XXY=             -0.5923  XXZ=              0.9312  XZZ=              1.5108  YZZ=              0.8647
  YYZ=             -0.0861  XYZ=              0.7074
 Hexadecapole moment (field-independent basis, Debye-Ang**3):
 XXXX=            -52.1904 YYYY=            -10.4470 ZZZZ=            -11.0360 XXXY=              1.3978
 XXXZ=              0.8889 YYYX=              0.6295 YYYZ=              0.2653 ZZZX=              0.1705
 ZZZY=              0.3635 XXYY=             -9.9009 XXZZ=            -10.9468 YYZZ=             -3.6351
 XXYZ=              1.1167 YYXZ=              0.3907 ZZXY=              0.2530
 N-N= 3.485802248724D+01 E-N=-4.283508051812D+02  KE= 1.509768710505D+02
                          Isotropic Fermi Contact Couplings
        Atom                 a.u.       MegaHertz       Gauss      10(-4) cm-1
     1  O(17)             -0.00000       0.00000       0.00000       0.00000
     2  O(17)             -0.00000       0.00000       0.00000       0.00000
     3  H(1)               0.00000       0.00000       0.00000       0.00000
     4  H(1)               0.00000       0.00000       0.00000       0.00000
 --------------------------------------------------------
       Center         ----  Spin Dipole Couplings  ----
                      3XX-RR        3YY-RR        3ZZ-RR
 --------------------------------------------------------
     1   Atom        0.000000      0.000000      0.000000
     2   Atom        0.000000      0.000000      0.000000
     3   Atom        0.000000      0.000000      0.000000
     4   Atom        0.000000      0.000000      0.000000
 --------------------------------------------------------
                        XY            XZ            YZ
 --------------------------------------------------------
     1   Atom        0.000000      0.000000      0.000000
     2   Atom        0.000000      0.000000      0.000000
     3   Atom        0.000000      0.000000      0.000000
     4   Atom        0.000000      0.000000      0.000000
 --------------------------------------------------------


 ---------------------------------------------------------------------------------
              Anisotropic Spin Dipole Couplings in Principal Axis System
 ---------------------------------------------------------------------------------

       Atom             a.u.   MegaHertz   Gauss  10(-4) cm-1        Axes

              Baa     0.0000    -0.000    -0.000    -0.000  1.0000  0.0000  0.0000
     1 O(17)  Bbb     0.0000    -0.000    -0.000    -0.000 -0.0000  1.0000  0.0000
              Bcc     0.0000    -0.000    -0.000    -0.000  0.0000  0.0000  1.0000
 
              Baa     0.0000    -0.000    -0.000    -0.000  1.0000  0.0000  0.0000
     2 O(17)  Bbb     0.0000    -0.000    -0.000    -0.000 -0.0000  1.0000  0.0000
              Bcc     0.0000    -0.000    -0.000    -0.000  0.0000  0.0000  1.0000
 
              Baa     0.0000     0.000     0.000     0.000  1.0000  0.0000  0.0000
     3 H(1)   Bbb     0.0000     0.000     0.000     0.000 -0.0000  1.0000  0.0000
              Bcc     0.0000     0.000     0.000     0.000  0.0000  0.0000  1.0000
 
              Baa     0.0000     0.000     0.000     0.000  1.0000  0.0000  0.0000
     4 H(1)   Bbb     0.0000     0.000     0.000     0.000 -0.0000  1.0000  0.0000
              Bcc     0.0000     0.000     0.000     0.000  0.0000  0.0000  1.0000
 

 ---------------------------------------------------------------------------------

 No NMR shielding tensors so no spin-rotation constants.
 Leave Link  601 at Mon Apr 21 21:33:39 2025, MaxMem=   536870912 cpu:               1.2 elap:               0.2
 (Enter /home/szhao/Apps/g16/l9999.exe)
 1\1\GINC-NODE06\FOpt\UM062X\6-311+G(d,p)\H2O2\SZHAO\21-Apr-2025\0\\#p 
 opt UM062X/6-311+G** nosymm int=superfine\\Title Card Required\\0,1\O,
 -0.7869378,0.,0.\O,0.7869378,0.,0.\H,-0.9007941091,-0.948656896,-0.140
 468127\H,0.9007737695,0.529503115,0.7995690802\\Version=ES64L-G16RevA.
 03\HF=-151.5253545\S2=0.\S2-1=0.\S2A=0.\RMSD=4.373e-09\RMSF=3.179e-06\
 Dipole=-0.000012,-0.3100072,0.4874702\Quadrupole=-0.4929031,0.7795069,
 -0.2866038,2.1713895,1.3808786,1.1384075\PG=C01 [X(H2O2)]\\@


 EXPERIENCE IS A WONDERFUL THING.  IT ENABLES
 YOU TO RECOGNIZE A MISTAKE WHEN YOU MAKE IT AGAIN.
           - BACK OF A SUGAR PACKET
 Job cpu time:       0 days  0 hours  3 minutes 42.9 seconds.
 Elapsed time:       0 days  0 hours  0 minutes 31.4 seconds.
 File lengths (MBytes):  RWF=     17 Int=      0 D2E=      0 Chk=      2 Scr=      2
 Normal termination of Gaussian 16 at Mon Apr 21 21:33:40 2025.
