Title Card Required                                                     
Force     UM062X                                                      6-311+G(d,p)        
Number of atoms                            I                6
Info1-9                                    I   N=           9
          15          15           0           0           0         100
           5          18        -502
Full Title                                 C   N=           2
Title Card Required     
Route                                      C   N=           4
#p UM062X/6-311+G** force int=superfine         
Charge                                     I                0
Multiplicity                               I                1
Number of electrons                        I               16
Number of alpha electrons                  I                8
Number of beta electrons                   I                8
Number of basis functions                  I               68
Number of independent functions            I               68
Number of point charges in /Mol/           I                0
Number of translation vectors              I                0
Atomic numbers                             I   N=           6
           6           6           1           1           1           1
Nuclear charges                            R   N=           6
  6.00000000E+00  6.00000000E+00  1.00000000E+00  1.00000000E+00  1.00000000E+00
  1.00000000E+00
Current cartesian coordinates              R   N=          18
 -3.71723804E-21  1.94160289E+00  0.00000000E+00 -2.37771581E-16 -1.94160289E+00
  4.93038066E-32  1.84165149E+00  2.81074084E+00 -4.93038066E-32 -1.84159669E+00
  2.81057077E+00  0.00000000E+00 -1.84165149E+00 -2.81074084E+00  4.93038066E-32
  1.84159669E+00 -2.81057077E+00  4.93038066E-32
Number of symbols in /Mol/                 I                0
Force Field                                I                0
Atom Types                                 C   N=           6
                                                            
            
Int Atom Types                             I   N=           6
           0           0           0           0           0           0
MM charges                                 R   N=           6
  0.00000000E+00  0.00000000E+00  0.00000000E+00  0.00000000E+00  0.00000000E+00
  0.00000000E+00
Integer atomic weights                     I   N=           6
          12          12           1           1           1           1
Real atomic weights                        R   N=           6
  1.20000000E+01  1.20000000E+01  1.00782504E+00  1.00782504E+00  1.00782504E+00
  1.00782504E+00
Atom fragment info                         I   N=           6
           0           0           0           0           0           0
Atom residue num                           I   N=           6
           0           0           0           0           0           0
Nuclear spins                              I   N=           6
           0           0           1           1           1           1
Nuclear ZEff                               R   N=           6
 -3.60000000E+00 -3.60000000E+00 -1.00000000E+00 -1.00000000E+00 -1.00000000E+00
 -1.00000000E+00
Nuclear ZNuc                               R   N=           6
  6.00000000E+00  6.00000000E+00  1.00000000E+00  1.00000000E+00  1.00000000E+00
  1.00000000E+00
Nuclear QMom                               R   N=           6
  0.00000000E+00  0.00000000E+00  0.00000000E+00  0.00000000E+00  0.00000000E+00
  0.00000000E+00
Nuclear GFac                               R   N=           6
  0.00000000E+00  0.00000000E+00  2.79284600E+00  2.79284600E+00  2.79284600E+00
  2.79284600E+00
MicOpt                                     I   N=           6
          -1          -1          -1          -1          -1          -1
Number of residues                         I                0
Number of secondary structures             I                0
SymInf integers                            I   N=          26
           2           4           1           1           1          -1
          -1           1           1           1          -1          -1
          -1          -1           0           0           0           0
           0           0           0           0           0           0
           0           0
RotTr to input orientation                 R   N=          12
 -7.97596914E-17 -1.00000000E+00 -1.80876675E-21 -1.00000000E+00  7.97603295E-17
 -1.22464680E-16  1.22464680E-16  1.80876675E-21 -1.00000000E+00 -5.55111512E-17
  0.00000000E+00  0.00000000E+00
Number of contracted shells                I               28
Number of primitive shells                 I               50
Pure/Cartesian d shells                    I                0
Pure/Cartesian f shells                    I                0
Highest angular momentum                   I                2
Largest degree of contraction              I                6
Shell types                                I   N=          28
           0          -1          -1          -1          -1          -2
           0          -1          -1          -1          -1          -2
           0           0           0           1           0           0
           0           1           0           0           0           1
           0           0           0           1
Number of primitives per shell             I   N=          28
           6           3           1           1           1           1
           6           3           1           1           1           1
           3           1           1           1           3           1
           1           1           3           1           1           1
           3           1           1           1
Shell to atom map                          I   N=          28
           1           1           1           1           1           1
           2           2           2           2           2           2
           3           3           3           3           4           4
           4           4           5           5           5           5
           6           6           6           6
Primitive exponents                        R   N=          50
  4.56324000E+03  6.82024000E+02  1.54973000E+02  4.44553000E+01  1.30290000E+01
  1.82773000E+00  2.09642000E+01  4.80331000E+00  1.45933000E+00  4.83456000E-01
  1.45585000E-01  4.38000000E-02  6.26000000E-01  4.56324000E+03  6.82024000E+02
  1.54973000E+02  4.44553000E+01  1.30290000E+01  1.82773000E+00  2.09642000E+01
  4.80331000E+00  1.45933000E+00  4.83456000E-01  1.45585000E-01  4.38000000E-02
  6.26000000E-01  3.38650000E+01  5.09479000E+00  1.15879000E+00  3.25840000E-01
  1.02741000E-01  7.50000000E-01  3.38650000E+01  5.09479000E+00  1.15879000E+00
  3.25840000E-01  1.02741000E-01  7.50000000E-01  3.38650000E+01  5.09479000E+00
  1.15879000E+00  3.25840000E-01  1.02741000E-01  7.50000000E-01  3.38650000E+01
  5.09479000E+00  1.15879000E+00  3.25840000E-01  1.02741000E-01  7.50000000E-01
Contraction coefficients                   R   N=          50
  1.96665025E-03  1.52306019E-02  7.61269097E-02  2.60801033E-01  6.16462078E-01
  2.21006028E-01  1.14660081E-01  9.19999648E-01 -3.03068213E-03  1.00000000E+00
  1.00000000E+00  1.00000000E+00  1.00000000E+00  1.96665025E-03  1.52306019E-02
  7.61269097E-02  2.60801033E-01  6.16462078E-01  2.21006028E-01  1.14660081E-01
  9.19999648E-01 -3.03068213E-03  1.00000000E+00  1.00000000E+00  1.00000000E+00
  1.00000000E+00  2.54938145E-02  1.90373109E-01  8.52161486E-01  1.00000000E+00
  1.00000000E+00  1.00000000E+00  2.54938145E-02  1.90373109E-01  8.52161486E-01
  1.00000000E+00  1.00000000E+00  1.00000000E+00  2.54938145E-02  1.90373109E-01
  8.52161486E-01  1.00000000E+00  1.00000000E+00  1.00000000E+00  2.54938145E-02
  1.90373109E-01  8.52161486E-01  1.00000000E+00  1.00000000E+00  1.00000000E+00
P(S=P) Contraction coefficients            R   N=          50
  0.00000000E+00  0.00000000E+00  0.00000000E+00  0.00000000E+00  0.00000000E+00
  0.00000000E+00  4.02486927E-02  2.37593957E-01  8.15853851E-01  1.00000000E+00
  1.00000000E+00  1.00000000E+00  0.00000000E+00  0.00000000E+00  0.00000000E+00
  0.00000000E+00  0.00000000E+00  0.00000000E+00  0.00000000E+00  4.02486927E-02
  2.37593957E-01  8.15853851E-01  1.00000000E+00  1.00000000E+00  1.00000000E+00
  0.00000000E+00  0.00000000E+00  0.00000000E+00  0.00000000E+00  0.00000000E+00
  0.00000000E+00  0.00000000E+00  0.00000000E+00  0.00000000E+00  0.00000000E+00
  0.00000000E+00  0.00000000E+00  0.00000000E+00  0.00000000E+00  0.00000000E+00
  0.00000000E+00  0.00000000E+00  0.00000000E+00  0.00000000E+00  0.00000000E+00
  0.00000000E+00  0.00000000E+00  0.00000000E+00  0.00000000E+00  0.00000000E+00
Coordinates of each shell                  R   N=          84
 -2.47815869E-21  1.94160289E+00 -2.39321033E-32 -2.47815869E-21  1.94160289E+00
 -2.39321033E-32 -2.47815869E-21  1.94160289E+00 -2.39321033E-32 -2.47815869E-21
  1.94160289E+00 -2.39321033E-32 -2.47815869E-21  1.94160289E+00 -2.39321033E-32
 -2.47815869E-21  1.94160289E+00 -2.39321033E-32 -2.37772820E-16 -1.94160289E+00
  7.17963099E-32 -2.37772820E-16 -1.94160289E+00  7.17963099E-32 -2.37772820E-16
 -1.94160289E+00  7.17963099E-32 -2.37772820E-16 -1.94160289E+00  7.17963099E-32
 -2.37772820E-16 -1.94160289E+00  7.17963099E-32 -2.37772820E-16 -1.94160289E+00
  7.17963099E-32  1.84165149E+00  2.81074084E+00 -3.46454021E-32  1.84165149E+00
  2.81074084E+00 -3.46454021E-32  1.84165149E+00  2.81074084E+00 -3.46454021E-32
  1.84165149E+00  2.81074084E+00 -3.46454021E-32 -1.84159669E+00  2.81057077E+00
 -3.46426130E-32 -1.84159669E+00  2.81057077E+00 -3.46426130E-32 -1.84159669E+00
  2.81057077E+00 -3.46426130E-32 -1.84159669E+00  2.81057077E+00 -3.46426130E-32
 -1.84165149E+00 -2.81074084E+00  1.03933435E-31 -1.84165149E+00 -2.81074084E+00
  1.03933435E-31 -1.84165149E+00 -2.81074084E+00  1.03933435E-31 -1.84165149E+00
 -2.81074084E+00  1.03933435E-31  1.84159669E+00 -2.81057077E+00  1.03930610E-31
  1.84159669E+00 -2.81057077E+00  1.03930610E-31  1.84159669E+00 -2.81057077E+00
  1.03930610E-31  1.84159669E+00 -2.81057077E+00  1.03930610E-31
Num ILSW                                   I              100
ILSW                                       I   N=         100
           1           0           0           0           2           0
           0           0           0           0        4336          -1
           7           0           0           0           2           0
           0           0           0           0           1           0
           1           0           0           0           0           0
           0           0      100000           0          -1           0
           0           0           0           0           0           0
           0           0           0           1           0           0
           0 -2000000000           1           0           0           0
           0           0           4          52           0           0
           0           0          55           0           0           0
           0           0           0           6           0           1
           0           0           0           0           0           0
           0           0           0           0           0           0
           0           0           0           0           0           0
           0           0           0           0           0           0
           0           0           0           0
Num RLSW                                   I               52
RLSW                                       R   N=          52
  1.00000000E+00  1.00000000E+00  1.00000000E+00  1.00000000E+00  5.40000000E-01
  0.00000000E+00  0.00000000E+00  1.00000000E+00  0.00000000E+00  0.00000000E+00
  0.00000000E+00  0.00000000E+00  1.00000000E+00  0.00000000E+00  0.00000000E+00
  0.00000000E+00  0.00000000E+00  1.00000000E+00  0.00000000E+00  0.00000000E+00
  0.00000000E+00  0.00000000E+00  1.00000000E+00  0.00000000E+00  0.00000000E+00
  0.00000000E+00  0.00000000E+00  1.00000000E+00  0.00000000E+00  0.00000000E+00
  0.00000000E+00  0.00000000E+00  1.00000000E+00  0.00000000E+00  0.00000000E+00
  0.00000000E+00  0.00000000E+00  0.00000000E+00  1.00000000E+00  1.00000000E+00
  0.00000000E+00  1.00000000E+00  0.00000000E+00  0.00000000E+00  0.00000000E+00
  0.00000000E+00  0.00000000E+00  0.00000000E+00  0.00000000E+00  0.00000000E+00
  0.00000000E+00  0.00000000E+00
MxBond                                     I                2
NBond                                      I   N=           6
           2           2           1           1           1           1
IBond                                      I   N=          12
           3           4           5           6           1           0
           1           0           2           0           2           0
RBond                                      R   N=          12
  1.00000000E+00  1.00000000E+00  1.00000000E+00  1.00000000E+00  1.00000000E+00
  0.00000000E+00  1.00000000E+00  0.00000000E+00  1.00000000E+00  0.00000000E+00
  1.00000000E+00  0.00000000E+00
Virial Ratio                               R      2.012123296234893E+00
SCF Energy                                 R     -7.836195282578606E+01
Total Energy                               R     -7.836195282578606E+01
S**2                                       R      6.217248937900877E-15
S**2 after annihilation                    R      1.172395514004176E-13
RMS Force                                  R      5.270477960430579E-02
RMS Density                                R      4.670715797884040E-09
Job Status                                 I                1
Nuclear derivative order                   I                1
External E-field                           R   N=          35
  0.00000000E+00  0.00000000E+00  0.00000000E+00  0.00000000E+00  0.00000000E+00
  0.00000000E+00  0.00000000E+00  0.00000000E+00  0.00000000E+00  0.00000000E+00
  0.00000000E+00  0.00000000E+00  0.00000000E+00  0.00000000E+00  0.00000000E+00
  0.00000000E+00  0.00000000E+00  0.00000000E+00  0.00000000E+00  0.00000000E+00
  0.00000000E+00  0.00000000E+00  0.00000000E+00  0.00000000E+00  0.00000000E+00
  0.00000000E+00  0.00000000E+00  0.00000000E+00  0.00000000E+00  0.00000000E+00
  0.00000000E+00  0.00000000E+00  0.00000000E+00  0.00000000E+00  0.00000000E+00
IOpCl                                      I                1
IROHF                                      I                0
Alpha Orbital Energies                     R   N=          68
 -1.06126785E+01 -1.06125498E+01 -7.73093236E-01 -7.17039275E-01 -5.30245921E-01
 -5.01118718E-01 -3.73506030E-01 -2.58854550E-01 -6.94735348E-02  1.28855927E-02
  3.36034406E-02  5.38690291E-02  7.29794338E-02  8.62597717E-02  9.14549655E-02
  9.90845528E-02  1.13662050E-01  1.52718199E-01  1.64451263E-01  2.04935443E-01
  2.13056944E-01  2.80445140E-01  3.95720079E-01  4.35350853E-01  4.48416788E-01
  5.85486836E-01  6.18532241E-01  6.37534375E-01  6.50337857E-01  6.74405641E-01
  7.02845903E-01  7.60830134E-01  7.65123537E-01  8.23390312E-01  1.07888226E+00
  1.09521026E+00  1.16075498E+00  1.19398816E+00  1.40065624E+00  1.42188738E+00
  1.45893244E+00  1.51387908E+00  1.52477918E+00  1.68674285E+00  1.73723827E+00
  1.78513672E+00  1.83011335E+00  1.87299333E+00  1.93609521E+00  2.00254209E+00
  2.02988376E+00  2.05874531E+00  2.35911896E+00  2.53194382E+00  2.57719205E+00
  2.59777674E+00  2.62438216E+00  2.64104223E+00  2.64537340E+00  2.70548606E+00
  2.76233244E+00  2.76981693E+00  2.78925923E+00  3.36949905E+00  3.71414734E+00
  3.75253644E+00  2.38218487E+01  2.38322521E+01
Beta Orbital Energies                      R   N=          68
 -1.06126785E+01 -1.06125498E+01 -7.73093236E-01 -7.17039275E-01 -5.30245921E-01
 -5.01118718E-01 -3.73506030E-01 -2.58854550E-01 -6.94735348E-02  1.28855927E-02
  3.36034406E-02  5.38690291E-02  7.29794338E-02  8.62597717E-02  9.14549655E-02
  9.90845528E-02  1.13662050E-01  1.52718199E-01  1.64451263E-01  2.04935443E-01
  2.13056944E-01  2.80445140E-01  3.95720079E-01  4.35350853E-01  4.48416788E-01
  5.85486836E-01  6.18532241E-01  6.37534375E-01  6.50337857E-01  6.74405641E-01
  7.02845903E-01  7.60830134E-01  7.65123537E-01  8.23390312E-01  1.07888226E+00
  1.09521026E+00  1.16075498E+00  1.19398816E+00  1.40065624E+00  1.42188738E+00
  1.45893244E+00  1.51387908E+00  1.52477918E+00  1.68674285E+00  1.73723827E+00
  1.78513672E+00  1.83011335E+00  1.87299333E+00  1.93609521E+00  2.00254209E+00
  2.02988376E+00  2.05874531E+00  2.35911896E+00  2.53194382E+00  2.57719205E+00
  2.59777674E+00  2.62438216E+00  2.64104223E+00  2.64537340E+00  2.70548606E+00
  2.76233244E+00  2.76981693E+00  2.78925923E+00  3.36949905E+00  3.71414734E+00
  3.75253644E+00  2.38218487E+01  2.38322521E+01
Alpha MO coefficients                      R   N=        4624
  3.98973238E-01  3.28082448E-01  8.35129675E-08 -3.62222354E-04  0.00000000E+00
  8.10793518E-03 -7.67499918E-07  1.34226279E-03  0.00000000E+00 -1.93985103E-03
 -6.20382742E-08  1.63585926E-06  0.00000000E+00 -5.54519048E-04  2.05092637E-07
 -3.93005604E-04  0.00000000E+00 -8.95187427E-04  0.00000000E+00  0.00000000E+00
  9.80776968E-04 -1.64371727E-07  3.98973238E-01  3.28082448E-01 -8.35129675E-08
  3.62222354E-04  0.00000000E+00  8.10793518E-03  7.67499918E-07 -1.34226279E-03
  0.00000000E+00 -1.93985103E-03  6.20382742E-08 -1.63585926E-06  0.00000000E+00
 -5.54519048E-04 -2.05092637E-07  3.93005604E-04  0.00000000E+00 -8.95187427E-04
  0.00000000E+00  0.00000000E+00  9.80776968E-04 -1.64371727E-07  1.17552693E-04
 -2.37036953E-03  1.49879242E-03  1.31842320E-03  6.93038789E-04  0.00000000E+00
  1.17400266E-04 -2.37153900E-03  1.49947081E-03 -1.31894499E-03  6.93188895E-04
  0.00000000E+00  1.17552693E-04 -2.37036953E-03  1.49879242E-03 -1.31842320E-03
 -6.93038789E-04  0.00000000E+00  1.17400266E-04 -2.37153900E-03  1.49947081E-03
  1.31894499E-03 -6.93188895E-04  0.00000000E+00  3.98988544E-01  3.28112114E-01
  7.82091222E-08 -4.35132877E-04  0.00000000E+00  8.23194080E-03 -7.55336248E-07
  1.77287799E-03  0.00000000E+00 -3.17898585E-03  1.04700431E-07  3.96723180E-04
  0.00000000E+00  7.03592043E-04  1.17483850E-07 -9.02296865E-04  0.00000000E+00
 -8.00138486E-04  0.00000000E+00  0.00000000E+00  1.18901251E-03 -1.77209711E-07
 -3.98988544E-01 -3.28112114E-01  7.82091222E-08 -4.35132877E-04  0.00000000E+00
 -8.23194080E-03 -7.55336248E-07  1.77287799E-03  0.00000000E+00  3.17898585E-03
  1.04700431E-07  3.96723180E-04  0.00000000E+00 -7.03592043E-04  1.17483850E-07
 -9.02296865E-04  0.00000000E+00  8.00138486E-04  0.00000000E+00  0.00000000E+00
 -1.18901251E-03  1.77209711E-07  7.86657104E-05 -2.27337159E-03  1.70045354E-03
  1.35070653E-03  6.51273734E-04  0.00000000E+00  7.84817129E-05 -2.27436371E-03
  1.70119174E-03 -1.35122565E-03  6.51397642E-04  0.00000000E+00 -7.86657104E-05
  2.27337159E-03 -1.70045354E-03  1.35070653E-03  6.51273734E-04  0.00000000E+00
 -7.84817129E-05  2.27436371E-03 -1.70119174E-03 -1.35122565E-03  6.51397642E-04
  0.00000000E+00 -7.80484809E-02 -1.25720219E-01 -7.70804490E-06  1.19920228E-02
  0.00000000E+00  3.37296296E-01 -7.57612017E-06  1.09356182E-02  0.00000000E+00
  2.32541201E-01 -2.28562315E-06  2.30944220E-03  0.00000000E+00  3.10477052E-03
 -1.01170239E-07  3.79464932E-03  0.00000000E+00 -8.59642524E-03  0.00000000E+00
  0.00000000E+00  1.18357244E-03 -1.49250899E-07 -7.80484809E-02 -1.25720219E-01
  7.70804490E-06 -1.19920228E-02  0.00000000E+00  3.37296296E-01  7.57612017E-06
 -1.09356182E-02  0.00000000E+00  2.32541201E-01  2.28562315E-06 -2.30944220E-03
  0.00000000E+00  3.10477052E-03  1.01170239E-07 -3.79464932E-03  0.00000000E+00
 -8.59642524E-03  0.00000000E+00  0.00000000E+00  1.18357244E-03 -1.49250899E-07
  7.32632741E-02  8.44680484E-02  4.56611837E-03 -1.12595169E-02 -4.35800542E-03
  0.00000000E+00  7.32760422E-02  8.44798472E-02  4.56649959E-03  1.12614391E-02
 -4.35812801E-03  0.00000000E+00  7.32632741E-02  8.44680484E-02  4.56611837E-03
  1.12595169E-02  4.35800542E-03  0.00000000E+00  7.32760422E-02  8.44798472E-02
  4.56649959E-03 -1.12614391E-02  4.35812801E-03  0.00000000E+00 -7.48270567E-02
 -1.20874834E-01 -1.09409085E-05  4.80497616E-02  0.00000000E+00  3.29216699E-01
 -1.21224442E-05  7.03551080E-02  0.00000000E+00  2.27591418E-01 -4.59355559E-06
  3.36780873E-02  0.00000000E+00 -2.22122015E-02 -2.33616926E-08  1.10046240E-02
  0.00000000E+00 -6.83224729E-03  0.00000000E+00  0.00000000E+00  9.48292800E-03
 -1.08982672E-07  7.48270567E-02  1.20874834E-01 -1.09409085E-05  4.80497616E-02
  0.00000000E+00 -3.29216699E-01 -1.21224442E-05  7.03551080E-02  0.00000000E+00
 -2.27591418E-01 -4.59355559E-06  3.36780873E-02  0.00000000E+00  2.22122015E-02
 -2.33616926E-08  1.10046240E-02  0.00000000E+00  6.83224729E-03  0.00000000E+00
  0.00000000E+00 -9.48292800E-03  1.08982672E-07  8.50239223E-02  1.01932988E-01
  1.19781842E-02 -1.22441214E-02 -2.96421052E-03  0.00000000E+00  8.50396095E-02
  1.01948004E-01  1.19795332E-02  1.22461503E-02 -2.96429399E-03  0.00000000E+00
 -8.50239223E-02 -1.01932988E-01 -1.19781842E-02 -1.22441214E-02 -2.96421052E-03
  0.00000000E+00 -8.50396095E-02 -1.01948004E-01 -1.19795332E-02  1.22461503E-02
 -2.96429399E-03  0.00000000E+00 -3.24791177E-06 -5.45424875E-06  1.48949920E-01
  4.55568697E-06  0.00000000E+00  1.59508755E-05  2.06614122E-01  7.76923147E-06
  0.00000000E+00  2.06009446E-05  1.19127886E-01  4.68159183E-06  0.00000000E+00
 -4.54757700E-06  3.82639726E-03  2.93970814E-06  0.00000000E+00 -1.77237964E-07
  0.00000000E+00  0.00000000E+00 -8.53798553E-07  1.10313439E-02  3.24791177E-06
  5.45424875E-06  1.48949920E-01  4.55568697E-06  0.00000000E+00 -1.59508755E-05
  2.06614122E-01  7.76923147E-06  0.00000000E+00 -2.06009446E-05  1.19127886E-01
  4.68159183E-06  0.00000000E+00  4.54757700E-06  3.82639726E-03  2.93970814E-06
  0.00000000E+00  1.77237964E-07  0.00000000E+00  0.00000000E+00  8.53798553E-07
 -1.10313439E-02  1.06415472E-01  1.47359356E-01  4.31809875E-02 -9.95955350E-03
 -7.32704687E-03  0.00000000E+00 -1.06410727E-01 -1.47346233E-01 -4.31769968E-02
 -9.95864895E-03  7.32615033E-03  0.00000000E+00 -1.06415472E-01 -1.47359356E-01
 -4.31809875E-02 -9.95955350E-03 -7.32704687E-03  0.00000000E+00  1.06410727E-01
  1.47346233E-01  4.31769968E-02 -9.95864895E-03  7.32615033E-03  0.00000000E+00
 -2.24728978E-06 -3.85784426E-06  1.52352719E-01  1.97834535E-06  0.00000000E+00
  1.16837492E-05  2.08683008E-01  4.12688481E-06  0.00000000E+00  1.86323965E-05
  1.24312588E-01  2.41165676E-06  0.00000000E+00  1.95237738E-06  1.03423527E-02
  7.29665571E-07  0.00000000E+00 -9.82679858E-08  0.00000000E+00  0.00000000E+00
 -1.05772081E-06  1.89160919E-02 -2.24728978E-06 -3.85784426E-06 -1.52352719E-01
 -1.97834535E-06  0.00000000E+00  1.16837492E-05 -2.08683008E-01 -4.12688481E-06
  0.00000000E+00  1.86323965E-05 -1.24312588E-01 -2.41165676E-06  0.00000000E+00
  1.95237738E-06 -1.03423527E-02 -7.29665571E-07  0.00000000E+00 -9.82679858E-08
  0.00000000E+00  0.00000000E+00 -1.05772081E-06  1.89160919E-02  1.12208681E-01
  1.60572432E-01  5.11634629E-02 -1.01073004E-02 -7.64938678E-03  0.00000000E+00
 -1.12207239E-01 -1.60563884E-01 -5.11612435E-02 -1.01072106E-02  7.64861095E-03
  0.00000000E+00  1.12208681E-01  1.60572432E-01  5.11634629E-02  1.01073004E-02
  7.64938678E-03  0.00000000E+00 -1.12207239E-01 -1.60563884E-01 -5.11612435E-02
  1.01072106E-02 -7.64861095E-03  0.00000000E+00  1.40463828E-02  2.33153924E-02
 -6.28494749E-06  1.71279693E-01  0.00000000E+00 -6.29108921E-02 -7.36032217E-06
  2.64074947E-01  0.00000000E+00 -1.11821131E-01 -5.31720324E-06  2.12889646E-01
  0.00000000E+00 -6.15408059E-03  3.98742364E-07  1.91852128E-02  0.00000000E+00
 -6.89751707E-04  0.00000000E+00  0.00000000E+00  1.28935690E-02 -3.63955094E-07
  1.40463828E-02  2.33153924E-02  6.28494749E-06 -1.71279693E-01  0.00000000E+00
 -6.29108921E-02  7.36032217E-06 -2.64074947E-01  0.00000000E+00 -1.11821131E-01
  5.31720324E-06 -2.12889646E-01  0.00000000E+00 -6.15408059E-03 -3.98742364E-07
 -1.91852128E-02  0.00000000E+00 -6.89751707E-04  0.00000000E+00  0.00000000E+00
  1.28935690E-02 -3.63955094E-07  5.44774632E-02  8.53988513E-02  4.43242699E-02
 -7.80619889E-03  7.80764654E-03  0.00000000E+00  5.44780344E-02  8.53971433E-02
  4.43238858E-02  7.80601686E-03  7.80868403E-03  0.00000000E+00  5.44774632E-02
  8.53988513E-02  4.43242699E-02  7.80619889E-03 -7.80764654E-03  0.00000000E+00
  5.44780344E-02  8.53971433E-02  4.43238858E-02 -7.80601686E-03 -7.80868403E-03
  0.00000000E+00  0.00000000E+00  0.00000000E+00  0.00000000E+00  0.00000000E+00
  1.71635037E-01  0.00000000E+00  0.00000000E+00  0.00000000E+00  2.67096970E-01
  0.00000000E+00  0.00000000E+00  0.00000000E+00  2.98863244E-01  0.00000000E+00
  0.00000000E+00  0.00000000E+00  6.21094697E-02  0.00000000E+00 -3.72660644E-07
 -5.57100497E-03  0.00000000E+00  0.00000000E+00  0.00000000E+00  0.00000000E+00
  0.00000000E+00  0.00000000E+00  1.71635037E-01  0.00000000E+00  0.00000000E+00
  0.00000000E+00  2.67096970E-01  0.00000000E+00  0.00000000E+00  0.00000000E+00
  2.98863244E-01  0.00000000E+00  0.00000000E+00  0.00000000E+00  6.21094697E-02
  0.00000000E+00  3.72660644E-07  5.57100497E-03  0.00000000E+00  0.00000000E+00
  0.00000000E+00  0.00000000E+00  0.00000000E+00  0.00000000E+00  0.00000000E+00
  1.45820995E-02  0.00000000E+00  0.00000000E+00  0.00000000E+00  0.00000000E+00
  0.00000000E+00  1.45829656E-02  0.00000000E+00  0.00000000E+00  0.00000000E+00
  0.00000000E+00  0.00000000E+00  1.45820995E-02  0.00000000E+00  0.00000000E+00
  0.00000000E+00  0.00000000E+00  0.00000000E+00  1.45829656E-02  0.00000000E+00
  0.00000000E+00  0.00000000E+00  0.00000000E+00  1.85038296E-01  0.00000000E+00
  0.00000000E+00  0.00000000E+00  2.82561479E-01  0.00000000E+00  0.00000000E+00
  0.00000000E+00  3.61294843E-01  0.00000000E+00  0.00000000E+00  0.00000000E+00
  2.51171137E-01  0.00000000E+00 -3.74645405E-07  1.73587241E-02  0.00000000E+00
  0.00000000E+00  0.00000000E+00  0.00000000E+00  0.00000000E+00  0.00000000E+00
 -1.85038296E-01  0.00000000E+00  0.00000000E+00  0.00000000E+00 -2.82561479E-01
  0.00000000E+00  0.00000000E+00  0.00000000E+00 -3.61294843E-01  0.00000000E+00
  0.00000000E+00  0.00000000E+00 -2.51171137E-01  0.00000000E+00 -3.74645405E-07
  1.73587241E-02  0.00000000E+00  0.00000000E+00  0.00000000E+00  0.00000000E+00
  0.00000000E+00  0.00000000E+00  0.00000000E+00  1.89857193E-02  0.00000000E+00
  0.00000000E+00  0.00000000E+00  0.00000000E+00  0.00000000E+00  1.89862414E-02
  0.00000000E+00  0.00000000E+00  0.00000000E+00  0.00000000E+00  0.00000000E+00
 -1.89857193E-02  0.00000000E+00  0.00000000E+00  0.00000000E+00  0.00000000E+00
  0.00000000E+00 -1.89862414E-02 -4.26082451E-02 -7.14963963E-02  6.44293313E-06
 -1.01005911E-01  0.00000000E+00  2.10658475E-01  6.48483253E-06 -1.53014913E-01
  0.00000000E+00  4.60396532E-01  2.31710064E-05 -2.06845205E-01  0.00000000E+00
  1.90667953E+00  1.79264468E-05 -1.40489348E+00  0.00000000E+00  6.58165832E-03
  0.00000000E+00  0.00000000E+00  1.95776905E-02 -1.15811459E-06  4.26082451E-02
  7.14963963E-02  6.44293313E-06 -1.01005911E-01  0.00000000E+00 -2.10658475E-01
  6.48483253E-06 -1.53014913E-01  0.00000000E+00 -4.60396532E-01  2.31710064E-05
 -2.06845205E-01  0.00000000E+00 -1.90667953E+00  1.79264468E-05 -1.40489348E+00
  0.00000000E+00 -6.58165832E-03  0.00000000E+00  0.00000000E+00 -1.95776905E-02
  1.15811459E-06 -1.17884959E-02 -6.91774389E-02  1.10111198E-02  2.62550784E-03
 -1.43591461E-02  0.00000000E+00 -1.17828694E-02 -6.91664608E-02  1.10592779E-02
 -2.62606269E-03 -1.43575904E-02  0.00000000E+00  1.17884959E-02  6.91774389E-02
 -1.10111198E-02  2.62550784E-03 -1.43591461E-02  0.00000000E+00  1.17828694E-02
  6.91664608E-02 -1.10592779E-02 -2.62606269E-03 -1.43575904E-02  0.00000000E+00
  2.20313045E-02  3.70847276E-02 -2.90303240E-06 -3.26293782E-02  0.00000000E+00
 -9.79353416E-02  1.68507128E-06 -4.94503048E-02  0.00000000E+00 -3.96902793E-01
 -3.14211483E-06 -1.06493957E-01  0.00000000E+00  1.17537125E+00  2.54533676E-05
  4.95080145E-01  0.00000000E+00  1.43557886E-02  0.00000000E+00  0.00000000E+00
 -1.02580653E-02  6.45335696E-07  2.20313045E-02  3.70847276E-02  2.90303240E-06
  3.26293782E-02  0.00000000E+00 -9.79353416E-02 -1.68507128E-06  4.94503048E-02
  0.00000000E+00 -3.96902793E-01  3.14211483E-06  1.06493957E-01  0.00000000E+00
  1.17537125E+00 -2.54533676E-05 -4.95080145E-01  0.00000000E+00  1.43557886E-02
  0.00000000E+00  0.00000000E+00 -1.02580653E-02  6.45335696E-07 -1.66086529E-02
  8.84917906E-02 -3.18582200E-01  1.12603769E-03 -1.73704937E-04  0.00000000E+00
 -1.66085321E-02  8.85023005E-02 -3.18576514E-01 -1.12247143E-03 -1.76157201E-04
  0.00000000E+00 -1.66086529E-02  8.84917906E-02 -3.18582200E-01 -1.12603769E-03
  1.73704937E-04  0.00000000E+00 -1.66085321E-02  8.85023005E-02 -3.18576514E-01
  1.12247143E-03  1.76157201E-04  0.00000000E+00  1.03663440E-06  1.44042852E-06
 -5.21735694E-02 -1.37871453E-06  0.00000000E+00  2.52641622E-07 -9.02314339E-02
  5.71825875E-07  0.00000000E+00 -3.74071903E-05 -1.68458731E-01 -2.01881787E-05
  0.00000000E+00 -3.04899497E-04  8.68764725E-01  1.29146783E-04  0.00000000E+00
 -1.40185739E-06  0.00000000E+00  0.00000000E+00  1.96071458E-06 -1.78662386E-02
 -1.03663440E-06 -1.44042852E-06 -5.21735694E-02 -1.37871453E-06  0.00000000E+00
 -2.52641622E-07 -9.02314339E-02  5.71825875E-07  0.00000000E+00  3.74071903E-05
 -1.68458731E-01 -2.01881787E-05  0.00000000E+00  3.04899497E-04  8.68764725E-01
  1.29146783E-04  0.00000000E+00  1.40185739E-06  0.00000000E+00  0.00000000E+00
 -1.96071458E-06  1.78662386E-02 -2.55446934E-02  7.89342298E-02 -4.36902554E-01
  2.70762194E-03 -1.11349382E-04  0.00000000E+00  2.55488063E-02 -7.89386600E-02
  4.36996444E-01  2.70543469E-03  1.12330456E-04  0.00000000E+00  2.55446934E-02