Title Card Required                                                     
Freq      UM062X                                                      6-31+G(d,p)         
Number of atoms                            I                4
Info1-9                                    I   N=           9
          13          13           0           0           0         100
           6          18        -502
Full Title                                 C   N=           2
Title Card Required     
Route                                      C   N=           4
#p UM062X/6-31+G** freq=raman int=superfine     
Charge                                     I                1
Multiplicity                               I                2
Number of electrons                        I               13
Number of alpha electrons                  I                7
Number of beta electrons                   I                6
Number of basis functions                  I               48
Number of independent functions            I               48
Number of point charges in /Mol/           I                0
Number of translation vectors              I                0
Atomic numbers                             I   N=           4
           6           6           1           1
Nuclear charges                            R   N=           4
  6.00000000E+00  6.00000000E+00  1.00000000E+00  1.00000000E+00
Current cartesian coordinates              R   N=          12
  0.00000000E+00  0.00000000E+00 -1.17416621E+00  0.00000000E+00  0.00000000E+00
  1.17416810E+00  0.00000000E+00  0.00000000E+00 -3.21709054E+00  0.00000000E+00
  0.00000000E+00  3.21707164E+00
Number of symbols in /Mol/                 I                0
Force Field                                I                0
Atom Types                                 C   N=           4
                                                
Int Atom Types                             I   N=           4
           0           0           0           0
MM charges                                 R   N=           4
  0.00000000E+00  0.00000000E+00  0.00000000E+00  0.00000000E+00
Integer atomic weights                     I   N=           4
          12          12           1           1
Real atomic weights                        R   N=           4
  1.20000000E+01  1.20000000E+01  1.00782504E+00  1.00782504E+00
Atom fragment info                         I   N=           4
           0           0           0           0
Atom residue num                           I   N=           4
           0           0           0           0
Nuclear spins                              I   N=           4
           0           0           1           1
Nuclear ZEff                               R   N=           4
 -3.60000000E+00 -3.60000000E+00 -1.00000000E+00 -1.00000000E+00
Nuclear ZNuc                               R   N=           4
  6.00000000E+00  6.00000000E+00  1.00000000E+00  1.00000000E+00
Nuclear QMom                               R   N=           4
  0.00000000E+00  0.00000000E+00  0.00000000E+00  0.00000000E+00
Nuclear GFac                               R   N=           4
  0.00000000E+00  0.00000000E+00  2.79284600E+00  2.79284600E+00
MicOpt                                     I   N=           4
          -1          -1          -1          -1
Number of residues                         I                0
Number of secondary structures             I                0
SymInf integers                            I   N=          26
           1           4           1           1           1          -1
          -1           1          -1           1           1           1
          -1           1           0           0           0           0
           0           0           0           0           0           0
           0           0
RotTr to input orientation                 R   N=          12
  1.00000000E+00  0.00000000E+00  0.00000000E+00  0.00000000E+00  1.00000000E+00
  0.00000000E+00  0.00000000E+00  0.00000000E+00  1.00000000E+00  0.00000000E+00
  0.00000000E+00 -5.39921750E-07
Number of contracted shells                I               16
Number of primitive shells                 I               34
Pure/Cartesian d shells                    I                1
Pure/Cartesian f shells                    I                0
Highest angular momentum                   I                2
Largest degree of contraction              I                6
Shell types                                I   N=          16
           0          -1          -1          -1           2           0
          -1          -1          -1           2           0           0
           1           0           0           1
Number of primitives per shell             I   N=          16
           6           3           1           1           1           6
           3           1           1           1           3           1
           1           3           1           1
Shell to atom map                          I   N=          16
           1           1           1           1           1           2
           2           2           2           2           3           3
           3           4           4           4
Primitive exponents                        R   N=          34
  3.04752488E+03  4.57369518E+02  1.03948685E+02  2.92101553E+01  9.28666296E+00
  3.16392696E+00  7.86827235E+00  1.88128854E+00  5.44249258E-01  1.68714478E-01
  4.38000000E-02  8.00000000E-01  3.04752488E+03  4.57369518E+02  1.03948685E+02
  2.92101553E+01  9.28666296E+00  3.16392696E+00  7.86827235E+00  1.88128854E+00
  5.44249258E-01  1.68714478E-01  4.38000000E-02  8.00000000E-01  1.87311370E+01
  2.82539436E+00  6.40121692E-01  1.61277759E-01  1.10000000E+00  1.87311370E+01
  2.82539436E+00  6.40121692E-01  1.61277759E-01  1.10000000E+00
Contraction coefficients                   R   N=          34
  1.83473713E-03  1.40373228E-02  6.88426223E-02  2.32184443E-01  4.67941348E-01
  3.62311985E-01 -1.19332420E-01 -1.60854152E-01  1.14345644E+00  1.00000000E+00
  1.00000000E+00  1.00000000E+00  1.83473713E-03  1.40373228E-02  6.88426223E-02
  2.32184443E-01  4.67941348E-01  3.62311985E-01 -1.19332420E-01 -1.60854152E-01
  1.14345644E+00  1.00000000E+00  1.00000000E+00  1.00000000E+00  3.34946043E-02
  2.34726953E-01  8.13757326E-01  1.00000000E+00  1.00000000E+00  3.34946043E-02
  2.34726953E-01  8.13757326E-01  1.00000000E+00  1.00000000E+00
P(S=P) Contraction coefficients            R   N=          34
  0.00000000E+00  0.00000000E+00  0.00000000E+00  0.00000000E+00  0.00000000E+00
  0.00000000E+00  6.89990666E-02  3.16423961E-01  7.44308291E-01  1.00000000E+00
  1.00000000E+00  0.00000000E+00  0.00000000E+00  0.00000000E+00  0.00000000E+00
  0.00000000E+00  0.00000000E+00  0.00000000E+00  6.89990666E-02  3.16423961E-01
  7.44308291E-01  1.00000000E+00  1.00000000E+00  0.00000000E+00  0.00000000E+00
  0.00000000E+00  0.00000000E+00  0.00000000E+00  0.00000000E+00  0.00000000E+00
  0.00000000E+00  0.00000000E+00  0.00000000E+00  0.00000000E+00
Coordinates of each shell                  R   N=          48
  0.00000000E+00  0.00000000E+00 -1.17416567E+00  0.00000000E+00  0.00000000E+00
 -1.17416567E+00  0.00000000E+00  0.00000000E+00 -1.17416567E+00  0.00000000E+00
  0.00000000E+00 -1.17416567E+00  0.00000000E+00  0.00000000E+00 -1.17416567E+00
  0.00000000E+00  0.00000000E+00  1.17416864E+00  0.00000000E+00  0.00000000E+00
  1.17416864E+00  0.00000000E+00  0.00000000E+00  1.17416864E+00  0.00000000E+00
  0.00000000E+00  1.17416864E+00  0.00000000E+00  0.00000000E+00  1.17416864E+00
  0.00000000E+00  0.00000000E+00 -3.21709000E+00  0.00000000E+00  0.00000000E+00
 -3.21709000E+00  0.00000000E+00  0.00000000E+00 -3.21709000E+00  0.00000000E+00
  0.00000000E+00  3.21707218E+00  0.00000000E+00  0.00000000E+00  3.21707218E+00
  0.00000000E+00  0.00000000E+00  3.21707218E+00
Num ILSW                                   I              100
ILSW                                       I   N=         100
           1           1           0           0           2           0
           0           0           0           0        4336          -1
           7           0           0           0           2           0
           0           0           0           0           1           0
           1           0           0           0           0           0
           0           0      100000           0          -1           0
           0           0           0           0           0           0
           0           0           0           1           0           0
           0 -2000000000           1           0           0           0
           0           0           4          52           0           0
           0           0          55           0           0           0
           0           0           0           4           0           1
           0           0           0           0           0           0
           0           0           0           0           0           0
           0           0           0           0           0           0
           0           0           0           0           0           0
           0           0           0           0
Num RLSW                                   I               52
RLSW                                       R   N=          52
  1.00000000E+00  1.00000000E+00  1.00000000E+00  1.00000000E+00  5.40000000E-01
  0.00000000E+00  0.00000000E+00  1.00000000E+00  0.00000000E+00  0.00000000E+00
  0.00000000E+00  0.00000000E+00  1.00000000E+00  0.00000000E+00  0.00000000E+00
  0.00000000E+00  0.00000000E+00  1.00000000E+00  0.00000000E+00  0.00000000E+00
  0.00000000E+00  0.00000000E+00  1.00000000E+00  0.00000000E+00  0.00000000E+00
  0.00000000E+00  0.00000000E+00  1.00000000E+00  0.00000000E+00  0.00000000E+00
  0.00000000E+00  0.00000000E+00  1.00000000E+00  0.00000000E+00  0.00000000E+00
  0.00000000E+00  0.00000000E+00  0.00000000E+00  1.00000000E+00  1.00000000E+00
  0.00000000E+00  1.00000000E+00  0.00000000E+00  0.00000000E+00  0.00000000E+00
  0.00000000E+00  0.00000000E+00  0.00000000E+00  0.00000000E+00  0.00000000E+00
  0.00000000E+00  0.00000000E+00
MxBond                                     I                2
NBond                                      I   N=           4
           2           2           1           1
IBond                                      I   N=           8
           2           3           1           4           1           0
           2           0
RBond                                      R   N=           8
  3.00000000E+00  1.00000000E+00  3.00000000E+00  1.00000000E+00  1.00000000E+00
  0.00000000E+00  1.00000000E+00  0.00000000E+00
Virial Ratio                               R      2.008492798416682E+00
SCF Energy                                 R     -7.688547536483590E+01
Total Energy                               R     -7.688547536483590E+01
S**2                                       R      7.520720964924754E-01
S**2 after annihilation                    R      7.500030283917448E-01
RMS Force                                  R      3.947660774048148E-03
RMS Density                                R      2.029131394529568E-09
NImag                                      I                0
Job Status                                 I                1
Nuclear derivative order                   I                2
External E-field                           R   N=          35
  0.00000000E+00  0.00000000E+00  0.00000000E+00  0.00000000E+00  0.00000000E+00
  0.00000000E+00  0.00000000E+00  0.00000000E+00  0.00000000E+00  0.00000000E+00
  0.00000000E+00  0.00000000E+00  0.00000000E+00  0.00000000E+00  0.00000000E+00
  0.00000000E+00  0.00000000E+00  0.00000000E+00  0.00000000E+00  0.00000000E+00
  0.00000000E+00  0.00000000E+00  0.00000000E+00  0.00000000E+00  0.00000000E+00
  0.00000000E+00  0.00000000E+00  0.00000000E+00  0.00000000E+00  0.00000000E+00
  0.00000000E+00  0.00000000E+00  0.00000000E+00  0.00000000E+00  0.00000000E+00
IOpCl                                      I                1
IROHF                                      I                0
Alpha Orbital Energies                     R   N=          48
 -1.09544018E+01 -1.09522027E+01 -1.22759918E+00 -9.70618655E-01 -8.92978585E-01
 -7.28604626E-01 -7.01582500E-01 -2.72048920E-01 -2.51708174E-01 -1.53477737E-01
 -1.42850461E-01 -1.13398707E-01 -1.03472241E-01 -9.92063973E-02 -5.52271809E-02
 -4.67320967E-02 -4.09351374E-02  2.57546655E-02  6.65770003E-02  2.91544281E-01
  3.98268530E-01  4.18025158E-01  4.18070989E-01  4.78694636E-01  4.92250206E-01
  6.51798961E-01  6.79443063E-01  8.38399477E-01  9.32201505E-01  1.05097130E+00
  1.07157046E+00  1.20693337E+00  1.20834507E+00  1.22506556E+00  1.57448510E+00
  1.57554747E+00  1.66083439E+00  1.67214432E+00  1.99557391E+00  2.07353463E+00
  2.08320219E+00  2.41719897E+00  2.62085203E+00  2.64374538E+00  3.09797806E+00
  3.45890405E+00  4.13010998E+00  4.92760383E+00
Beta Orbital Energies                      R   N=          48
 -1.09516193E+01 -1.09496614E+01 -1.18028794E+00 -9.55096117E-01 -8.87734495E-01
 -6.76117855E-01 -4.60830583E-01 -2.34542274E-01 -2.05789011E-01 -1.53618058E-01
 -1.44428405E-01 -1.14994335E-01 -1.03091408E-01 -1.02137854E-01 -4.93304005E-02
 -4.12918503E-02 -3.18104852E-02  2.47680260E-02  7.50343020E-02  3.05490494E-01
  4.05887337E-01  4.19289436E-01  4.27696006E-01  4.88695333E-01  4.94268942E-01
  6.60773261E-01  6.76526198E-01  8.64871682E-01  9.73594268E-01  1.10418603E+00
  1.11109666E+00  1.21539314E+00  1.25037329E+00  1.28220733E+00  1.60933813E+00
  1.64257582E+00  1.70772889E+00  1.71641707E+00  2.03708953E+00  2.11190670E+00
  2.11561669E+00  2.45151002E+00  2.65903388E+00  2.66995716E+00  3.13684453E+00
  3.51603242E+00  4.18520758E+00  5.04062225E+00
Alpha MO coefficients                      R   N=        2304
  7.02588542E-01  2.87853063E-02  0.00000000E+00  0.00000000E+00  1.24055897E-04
 -4.86685276E-03  0.00000000E+00  0.00000000E+00  8.01454855E-05  6.99683303E-04
  0.00000000E+00  0.00000000E+00  1.18322414E-03 -5.55263201E-03 -5.44448105E-03
 -4.88648613E-03  0.00000000E+00  0.00000000E+00  0.00000000E+00  7.02347177E-01
  2.87751421E-02  0.00000000E+00  0.00000000E+00 -1.23659842E-04 -4.86112923E-03
  0.00000000E+00  0.00000000E+00 -8.27190549E-05  6.90616796E-04  0.00000000E+00
  0.00000000E+00 -1.18106434E-03 -5.55080968E-03 -5.44270372E-03 -4.88517853E-03
  0.00000000E+00  0.00000000E+00  0.00000000E+00 -3.69006131E-04  8.94256558E-04
  0.00000000E+00  0.00000000E+00 -2.46662167E-04 -3.68794234E-04  8.94784053E-04
  0.00000000E+00  0.00000000E+00  2.46504085E-04 -7.03031563E-01 -2.96703144E-02
  0.00000000E+00  0.00000000E+00 -1.14637189E-03  1.64944914E-02  0.00000000E+00
  0.00000000E+00  7.26890898E-03 -2.65143766E-02  0.00000000E+00  0.00000000E+00
 -6.32461893E-03  5.33041280E-03  5.19945159E-03  3.74117979E-03  0.00000000E+00
  0.00000000E+00  0.00000000E+00  7.03272688E-01  2.96802138E-02  0.00000000E+00
  0.00000000E+00 -1.14639338E-03 -1.64961422E-02  0.00000000E+00  0.00000000E+00
  7.26888775E-03  2.65146131E-02  0.00000000E+00  0.00000000E+00 -6.32502991E-03
 -5.33232540E-03 -5.20132709E-03 -3.74284315E-03  0.00000000E+00  0.00000000E+00
  0.00000000E+00  6.57090872E-04  1.39749545E-03  0.00000000E+00  0.00000000E+00
  4.57491396E-04 -6.57239794E-04 -1.39720147E-03  0.00000000E+00  0.00000000E+00
  4.57574539E-04 -1.70582178E-01  3.49418271E-01  0.00000000E+00  0.00000000E+00
  1.75110910E-01  2.39808806E-01  0.00000000E+00  0.00000000E+00 -9.34463763E-03
 -4.63964179E-03  0.00000000E+00  0.00000000E+00 -1.22672201E-02 -2.01523416E-02
 -1.12805135E-02  1.01324940E-02  0.00000000E+00  0.00000000E+00  0.00000000E+00
 -1.70582789E-01  3.49419264E-01  0.00000000E+00  0.00000000E+00 -1.75109716E-01
  2.39810013E-01  0.00000000E+00  0.00000000E+00  9.34495467E-03 -4.63838628E-03
  0.00000000E+00  0.00000000E+00  1.22669376E-02 -2.01523670E-02 -1.12805073E-02
  1.01323246E-02  0.00000000E+00  0.00000000E+00  0.00000000E+00  5.89920942E-02
 -1.88209878E-02  0.00000000E+00  0.00000000E+00  6.80041444E-03  5.89937798E-02
 -1.88214797E-02  0.00000000E+00  0.00000000E+00 -6.80052672E-03  1.20852107E-01
 -2.65372216E-01  0.00000000E+00  0.00000000E+00  2.16668023E-01 -2.26480993E-01
  0.00000000E+00  0.00000000E+00  9.68464769E-02  2.97031050E-01  0.00000000E+00
  0.00000000E+00  7.26497983E-02  1.06121567E-02  4.64573716E-03 -6.37823397E-04
  0.00000000E+00  0.00000000E+00  0.00000000E+00 -1.20852352E-01  2.65373028E-01
  0.00000000E+00  0.00000000E+00  2.16686765E-01  2.26482080E-01  0.00000000E+00
  0.00000000E+00  9.68489107E-02 -2.97031203E-01  0.00000000E+00  0.00000000E+00
  7.26497263E-02 -1.06120382E-02 -4.64564150E-03  6.37780385E-04  0.00000000E+00
  0.00000000E+00  0.00000000E+00 -2.05197752E-01 -5.49473033E-02  0.00000000E+00
  0.00000000E+00 -1.46364895E-02  2.05208376E-01  5.49513407E-02  0.00000000E+00
  0.00000000E+00 -1.46370901E-02  1.82530682E-02 -4.75971423E-02  0.00000000E+00
  0.00000000E+00  4.02705255E-01 -9.46552852E-02  0.00000000E+00  0.00000000E+00
  9.32880204E-02  3.19627184E-03  0.00000000E+00  0.00000000E+00 -1.36278463E-03
 -2.29823218E-03 -2.74047332E-03 -7.56133869E-04  0.00000000E+00  0.00000000E+00
  0.00000000E+00  1.82479450E-02 -4.75854210E-02  0.00000000E+00  0.00000000E+00
 -4.02696346E-01 -9.46496166E-02  0.00000000E+00  0.00000000E+00 -9.32766841E-02
  3.17643358E-03  0.00000000E+00  0.00000000E+00  1.36783124E-03 -2.29855630E-03
 -2.74052326E-03 -7.55984150E-04  0.00000000E+00  0.00000000E+00  0.00000000E+00
 -2.17345428E-01 -1.05380004E-01  0.00000000E+00  0.00000000E+00 -1.26805238E-02
 -2.17337623E-01 -1.05379267E-01  0.00000000E+00  0.00000000E+00  1.26799524E-02
  0.00000000E+00  0.00000000E+00  0.00000000E+00  4.56565255E-01  0.00000000E+00
  0.00000000E+00  0.00000000E+00  2.17230287E-01  0.00000000E+00  0.00000000E+00
  0.00000000E+00  4.15675151E-03  0.00000000E+00  0.00000000E+00  0.00000000E+00
  0.00000000E+00  0.00000000E+00  0.00000000E+00  3.03893452E-02  0.00000000E+00
  0.00000000E+00  0.00000000E+00  4.56565568E-01  0.00000000E+00  0.00000000E+00
  0.00000000E+00  2.17230464E-01  0.00000000E+00  0.00000000E+00  0.00000000E+00
  4.15659496E-03  0.00000000E+00  0.00000000E+00  0.00000000E+00  0.00000000E+00
  0.00000000E+00  0.00000000E+00 -3.03892318E-02  0.00000000E+00  0.00000000E+00
  0.00000000E+00  7.49117120E-03  0.00000000E+00  0.00000000E+00  0.00000000E+00
  0.00000000E+00  7.49133453E-03  0.00000000E+00  0.00000000E+00  0.00000000E+00
  4.55239227E-01  0.00000000E+00  0.00000000E+00  0.00000000E+00  2.16850271E-01
  0.00000000E+00  0.00000000E+00  0.00000000E+00  7.78675517E-03  0.00000000E+00
  0.00000000E+00  0.00000000E+00  0.00000000E+00  0.00000000E+00  0.00000000E+00
  2.90108375E-02  0.00000000E+00  0.00000000E+00  0.00000000E+00  4.55239488E-01
  0.00000000E+00  0.00000000E+00  0.00000000E+00  2.16850421E-01  0.00000000E+00
  0.00000000E+00  0.00000000E+00  7.78660725E-03  0.00000000E+00  0.00000000E+00
  0.00000000E+00  0.00000000E+00  0.00000000E+00  0.00000000E+00 -2.90107375E-02
  0.00000000E+00  0.00000000E+00  0.00000000E+00  8.39935713E-03  0.00000000E+00
  0.00000000E+00  0.00000000E+00  0.00000000E+00  8.39953323E-03  0.00000000E+00
  0.00000000E+00  0.00000000E+00  0.00000000E+00  0.00000000E+00  4.75058599E-01
  0.00000000E+00  0.00000000E+00  0.00000000E+00  5.12530749E-01  0.00000000E+00
  0.00000000E+00  0.00000000E+00  2.87262648E-01  0.00000000E+00  0.00000000E+00
  0.00000000E+00  0.00000000E+00  0.00000000E+00  0.00000000E+00 -2.69906101E-02
  0.00000000E+00  0.00000000E+00  0.00000000E+00 -4.75058505E-01  0.00000000E+00
  0.00000000E+00  0.00000000E+00 -5.12530583E-01  0.00000000E+00  0.00000000E+00
  0.00000000E+00 -2.87262203E-01  0.00000000E+00  0.00000000E+00  0.00000000E+00
  0.00000000E+00  0.00000000E+00  0.00000000E+00 -2.69907346E-02  0.00000000E+00
  0.00000000E+00  0.00000000E+00  1.95330482E-02  0.00000000E+00  0.00000000E+00
  0.00000000E+00  0.00000000E+00 -1.95331528E-02  0.00000000E+00  0.00000000E+00
  0.00000000E+00  4.60547261E-01  0.00000000E+00  0.00000000E+00  0.00000000E+00
  5.16782059E-01  0.00000000E+00  0.00000000E+00  0.00000000E+00  3.44547864E-01
  0.00000000E+00  0.00000000E+00  0.00000000E+00  0.00000000E+00  0.00000000E+00
  0.00000000E+00 -2.86595361E-02  0.00000000E+00  0.00000000E+00  0.00000000E+00
 -4.60547198E-01  0.00000000E+00  0.00000000E+00  0.00000000E+00 -5.16781935E-01
  0.00000000E+00  0.00000000E+00  0.00000000E+00 -3.44547367E-01  0.00000000E+00
  0.00000000E+00  0.00000000E+00  0.00000000E+00  0.00000000E+00  0.00000000E+00
 -2.86596397E-02  0.00000000E+00  0.00000000E+00  0.00000000E+00  2.06188303E-02
  0.00000000E+00  0.00000000E+00  0.00000000E+00  0.00000000E+00 -2.06189351E-02
  0.00000000E+00  0.00000000E+00  8.79708512E-02 -2.04971146E-01  0.00000000E+00
  0.00000000E+00  4.49279376E-02 -8.32226438E-01  0.00000000E+00  0.00000000E+00
  2.01510794E-03 -9.90396494E+00  0.00000000E+00  0.00000000E+00 -2.92337235E+00
 -4.84983547E-03 -1.10884634E-02  4.18067244E-02  0.00000000E+00  0.00000000E+00
  0.00000000E+00 -8.79669447E-02  2.04963477E-01  0.00000000E+00  0.00000000E+00
  4.49058857E-02  8.32187136E-01  0.00000000E+00  0.00000000E+00  1.99670227E-03
  9.90401165E+00  0.00000000E+00  0.00000000E+00 -2.92329708E+00  4.84954844E-03
  1.10879238E-02 -4.18050218E-02  0.00000000E+00  0.00000000E+00  0.00000000E+00
  1.25437653E-01  4.52179304E-01  0.00000000E+00  0.00000000E+00 -1.76873840E-02
 -1.25428727E-01 -4.52149786E-01  0.00000000E+00  0.00000000E+00 -1.76859982E-02
  4.18971640E-02 -1.22872181E-01  0.00000000E+00  0.00000000E+00  7.25098718E-02
 -3.39077874E-01  0.00000000E+00  0.00000000E+00  7.00421929E-02  8.13578171E-01
  0.00000000E+00  0.00000000E+00 -4.54671783E-01  1.30876430E-02  1.32667739E-02
 -5.35754253E-03  0.00000000E+00  0.00000000E+00  0.00000000E+00  4.19024384E-02
 -1.22884658E-01  0.00000000E+00  0.00000000E+00 -7.25132661E-02 -3.39131285E-01
  0.00000000E+00  0.00000000E+00 -7.00368466E-02  8.12916602E-01  0.00000000E+00
  0.00000000E+00  4.54872122E-01  1.30874515E-02  1.32662319E-02 -5.35506615E-03
  0.00000000E+00  0.00000000E+00  0.00000000E+00 -3.09007417E-02 -1.16607143E-01
  0.00000000E+00  0.00000000E+00 -1.20957084E-02 -3.08947408E-02 -1.16584641E-01
  0.00000000E+00  0.00000000E+00  1.20969418E-02  2.89713939E-03  4.31534276E-02
  0.00000000E+00  0.00000000E+00  2.15064839E-01 -1.78874496E-01  0.00000000E+00
  0.00000000E+00  1.97023122E-01 -1.06594913E-01  0.00000000E+00  0.00000000E+00
 -1.04084523E+00 -2.09790615E-02 -2.49376754E-02  3.37354763E-02  0.00000000E+00
  0.00000000E+00  0.00000000E+00  2.89995132E-03  4.31463111E-02  0.00000000E+00
  0.00000000E+00 -2.15068002E-01 -1.78908180E-01  0.00000000E+00  0.00000000E+00
 -1.97021182E-01 -1.07288558E-01  0.00000000E+00  0.00000000E+00  1.04106739E+00
 -2.09789167E-02 -2.49376826E-02  3.37364817E-02  0.00000000E+00  0.00000000E+00
  0.00000000E+00  1.20547613E-01  5.40366639E-01  0.00000000E+00  0.00000000E+00
 -1.26255301E-02  1.20546529E-01  5.40367930E-01  0.00000000E+00  0.00000000E+00
  1.26267751E-02  0.00000000E+00  0.00000000E+00  0.00000000E+00 -1.39084783E-01
  0.00000000E+00  0.00000000E+00  0.00000000E+00 -1.57660358E-01  0.00000000E+00
  0.00000000E+00  0.00000000E+00  5.84407618E-01  0.00000000E+00  0.00000000E+00
  0.00000000E+00  0.00000000E+00  0.00000000E+00  0.00000000E+00 -1.66641336E-02
  0.00000000E+00  0.00000000E+00  0.00000000E+00 -1.39083555E-01  0.00000000E+00
  0.00000000E+00  0.00000000E+00 -1.57659063E-01  0.00000000E+00  0.00000000E+00
  0.00000000E+00  5.84400384E-01  0.00000000E+00  0.00000000E+00  0.00000000E+00
  0.00000000E+00  0.00000000E+00  0.00000000E+00  1.66641074E-02  0.00000000E+00
  0.00000000E+00  0.00000000E+00  5.43819916E-03  0.00000000E+00  0.00000000E+00
  0.00000000E+00  0.00000000E+00  5.43809166E-03  0.00000000E+00  0.00000000E+00
  0.00000000E+00 -1.42951256E-01  0.00000000E+00  0.00000000E+00  0.00000000E+00
 -1.58437408E-01  0.00000000E+00  0.00000000E+00  0.00000000E+00  5.84124390E-01
  0.00000000E+00  0.00000000E+00  0.00000000E+00  0.00000000E+00  0.00000000E+00
  0.00000000E+00 -1.61654947E-02  0.00000000E+00  0.00000000E+00  0.00000000E+00
 -1.42949995E-01  0.00000000E+00  0.00000000E+00  0.00000000E+00 -1.58435926E-01
  0.00000000E+00  0.00000000E+00  0.00000000E+00  5.84117207E-01  0.00000000E+00
  0.00000000E+00  0.00000000E+00  0.00000000E+00  0.00000000E+00  0.00000000E+00
  1.61654773E-02  0.00000000E+00  0.00000000E+00  0.00000000E+00  5.11471712E-03
  0.00000000E+00  0.00000000E+00  0.00000000E+00  0.00000000E+00  5.11461018E-03
  0.00000000E+00  0.00000000E+00 -6.91471684E-02  1.40097025E-01  0.00000000E+00
  0.00000000E+00  8.72992489E-02  7.53784192E-01  0.00000000E+00  0.00000000E+00
 -1.24277454E-01  3.36685805E+00  0.00000000E+00  0.00000000E+00  1.86635902E-01
  1.90334143E-02  2.66698313E-02 -6.14472809E-02  0.00000000E+00  0.00000000E+00
  0.00000000E+00  6.91461913E-02 -1.40093764E-01  0.00000000E+00  0.00000000E+00
  8.72980022E-02 -7.53784481E-01  0.00000000E+00  0.00000000E+00 -1.24283293E-01
 -3.36684656E+00  0.00000000E+00  0.00000000E+00  1.86712883E-01 -1.90340653E-02
 -2.66705579E-02  6.14479291E-02  0.00000000E+00  0.00000000E+00  0.00000000E+00
 -2.11616741E-01 -1.08758531E+00  0.00000000E+00  0.00000000E+00  1.99441069E-03
  2.11615579E-01  1.08758625E+00  0.00000000E+00  0.00000000E+00  1.99513255E-03
  0.00000000E+00  0.00000000E+00  0.00000000E+00  1.96665076E-01  0.00000000E+00
  0.00000000E+00  0.00000000E+00  3.15976143E-01  0.00000000E+00  0.00000000E+00
  0.00000000E+00 -2.23333673E+00  0.00000000E+00  0.00000000E+00  0.00000000E+00
  0.00000000E+00  0.00000000E+00  0.00000000E+00 -2.53477647E-03  0.00000000E+00
  0.00000000E+00  0.00000000E+00 -1.96665447E-01  0.00000000E+00  0.00000000E+00
  0.00000000E+00 -3.15976683E-01  0.00000000E+00  0.00000000E+00  0.00000000E+00
  2.23333877E+00  0.00000000E+00  0.00000000E+00  0.00000000E+00  0.00000000E+00
  0.00000000E+00  0.00000000E+00 -2.53483274E-03  0.00000000E+00  0.00000000E+00
  0.00000000E+00 -3.46989963E-03  0.00000000E+00  0.00000000E+00  0.00000000E+00
  0.00000000E+00  3.46974676E-03  0.00000000E+00  0.00000000E+00  0.00000000E+00
  2.09010162E-01  0.00000000E+00  0.00000000E+00  0.00000000E+00  3.33691500E-01
  0.00000000E+00  0.00000000E+00  0.00000000E+00 -2.22553019E+00  0.00000000E+00
  0.00000000E+00  0.00000000E+00  0.00000000E+00  0.00000000E+00  0.00000000E+00
 -4.75018684E-03  0.00000000E+00  0.00000000E+00  0.00000000E+00 -2.09010578E-01
  0.00000000E+00  0.00000000E+00  0.00000000E+00 -3.33691995E-01  0.00000000E+00
  0.00000000E+00  0.00000000E+00  2.22553221E+00  0.00000000E+00  0.00000000E+00
  0.00000000E+00  0.00000000E+00  0.00000000E+00  0.00000000E+00 -4.75023998E-03
  0.00000000E+00  0.00000000E+00  0.00000000E+00 -2.23840813E-03  0.00000000E+00
  0.00000000E+00  0.00000000E+00  0.00000000E+00  2.23824534E-03  0.00000000E+00
  0.00000000E+00 -6.13487320E-02  1.17454669E-01  0.00000000E+00  0.00000000E+00
 -4.27951830E-02  8.82438935E-01  0.00000000E+00  0.00000000E+00 -1.32206230E-01
 -4.65251371E+01  0.00000000E+00  0.00000000E+00 -1.18869811E+01 -7.82235040E-03
 -5.02160880E-03 -2.24908482E-02  0.00000000E+00  0.00000000E+00  0.00000000E+00
  6.13467064E-02 -1.17452653E-01  0.00000000E+00  0.00000000E+00 -4.27862203E-02
 -8.82400708E-01  0.00000000E+00  0.00000000E+00 -1.32192860E-01  4.65251474E+01
  0.00000000E+00  0.00000000E+00 -1.18869224E+01  7.82233354E-03  5.02170901E-03
  2.24899591E-02  0.00000000E+00  0.00000000E+00  0.00000000E+00 -5.33686625E-02
 -2.81764627E-01  0.00000000E+00  0.00000000E+00  6.40145569E-03  5.33632463E-02
  2.81722048E-01  0.00000000E+00  0.00000000E+00  6.40149233E-03 -6.03224791E-02
  4.61780617E-02  0.00000000E+00  0.00000000E+00 -2.84406157E-01  1.38837338E+00
  0.00000000E+00  0.00000000E+00 -5.31041832E-01  3.57688362E-01  0.00000000E+00
  0.00000000E+00 -1.70307230E+00  2.29703051E-03  6.45317433E-03 -3.47916459E-02
  0.00000000E+00  0.00000000E+00  0.00000000E+00 -6.03273367E-02  4.61877662E-02
  0.00000000E+00  0.00000000E+00  2.84402200E-01  1.38844955E+00  0.00000000E+00
  0.00000000E+00  5.31065673E-01  3.56458047E-01  0.00000000E+00  0.00000000E+00
  1.70339800E+00  2.29749367E-03  6.45404636E-03 -3.47952276E-02  0.00000000E+00
  0.00000000E+00  0.00000000E+00 -1.45100581E-01 -1.62293159E+00  0.00000000E+00
  0.00000000E+00  1.14914958E-02 -1.45106365E-01 -1.62300181E+00  0.00000000E+00
  0.00000000E+00 -1.14922319E-02 -8.62412658E-02 -2.65040753E-02  0.00000000E+00
  0.00000000E+00  3.82456762E-01  5.50211501E+00  0.00000000E+00  0.00000000E+00
  5.29130233E+00  2.57228763E+00  0.00000000E+00  0.00000000E+00  1.19201497E+00
  1.36647360E-02  2.38433843E-02 -8.72444810E-02  0.00000000E+00  0.00000000E+00
  0.00000000E+00  8.62411660E-02  2.65088392E-02  0.00000000E+00  0.00000000E+00
  3.82457345E-01 -5.50207002E+00  0.00000000E+00  0.00000000E+00  5.29132659E+00
 -2.57228158E+00  0.00000000E+00  0.00000000E+00  1.19201046E+00 -1.36649699E-02
 -2.38436733E-02  8.72453261E-02  0.00000000E+00  0.00000000E+00  0.00000000E+00
 -2.18624745E-01  3.33240253E+00  0.00000000E+00  0.00000000E+00 -6.50761042E-04
  2.18628098E-01 -3.33246081E+00  0.00000000E+00  0.00000000E+00 -6.50085029E-04
  0.00000000E+00  0.00000000E+00  0.00000000E+00 -7.02931095E-01  0.00000000E+00
  0.00000000E+00  0.00000000E+00  8.66934108E-01  0.00000000E+00  0.00000000E+00
  0.00000000E+00 -3.48372093E-01  0.00000000E+00  0.00000000E+00  0.00000000E+00
  0.00000000E+00  0.00000000E+00  0.00000000E+00 -7.04752820E-02  0.00000000E+00
  0.00000000E+00  0.00000000E+00 -7.02927670E-01  0.00000000E+00  0.00000000E+00
  0.00000000E+00  8.66928111E-01  0.00000000E+00  0.00000000E+00  0.00000000E+00