 Entering Gaussian System, Link 0=g16
 Initial command:
 /home/szhao/Apps/g16/l1.exe "/home/szhao/tmp/Gau-83470.inp" -scrdir="/home/szhao/tmp/"
 Default is to use a total of  16 processors:
                               16 via shared-memory
                                1 via Linda
 Entering Link 1 = /home/szhao/Apps/g16/l1.exe PID=     83471.
  
 Copyright (c) 1988,1990,1992,1993,1995,1998,2003,2009,2016,
            Gaussian, Inc.  All Rights Reserved.
  
 This is part of the Gaussian(R) 16 program.  It is based on
 the Gaussian(R) 09 system (copyright 2009, Gaussian, Inc.),
 the Gaussian(R) 03 system (copyright 2003, Gaussian, Inc.),
 the Gaussian(R) 98 system (copyright 1998, Gaussian, Inc.),
 the Gaussian(R) 94 system (copyright 1995, Gaussian, Inc.),
 the Gaussian 92(TM) system (copyright 1992, Gaussian, Inc.),
 the Gaussian 90(TM) system (copyright 1990, Gaussian, Inc.),
 the Gaussian 88(TM) system (copyright 1988, Gaussian, Inc.),
 the Gaussian 86(TM) system (copyright 1986, Carnegie Mellon
 University), and the Gaussian 82(TM) system (copyright 1983,
 Carnegie Mellon University). Gaussian is a federally registered
 trademark of Gaussian, Inc.
  
 This software contains proprietary and confidential information,
 including trade secrets, belonging to Gaussian, Inc.
  
 This software is provided under written license and may be
 used, copied, transmitted, or stored only in accord with that
 written license.
  
 The following legend is applicable only to US Government
 contracts under FAR:
  
                    RESTRICTED RIGHTS LEGEND
  
 Use, reproduction and disclosure by the US Government is
 subject to restrictions as set forth in subparagraphs (a)
 and (c) of the Commercial Computer Software - Restricted
 Rights clause in FAR 52.227-19.
  
 Gaussian, Inc.
 340 Quinnipiac St., Bldg. 40, Wallingford CT 06492
  
  
 ---------------------------------------------------------------
 Warning -- This program may not be used in any manner that
 competes with the business of Gaussian, Inc. or will provide
 assistance to any competitor of Gaussian, Inc.  The licensee
 of this program is prohibited from giving any competitor of
 Gaussian, Inc. access to this program.  By using this program,
 the user acknowledges that Gaussian, Inc. is engaged in the
 business of creating and licensing software in the field of
 computational chemistry and represents and warrants to the
 licensee that it is not a competitor of Gaussian, Inc. and that
 it will not use this program in any manner prohibited above.
 ---------------------------------------------------------------
  

 Cite this work as:
 Gaussian 16, Revision A.03,
 M. J. Frisch, G. W. Trucks, H. B. Schlegel, G. E. Scuseria, 
 M. A. Robb, J. R. Cheeseman, G. Scalmani, V. Barone, 
 G. A. Petersson, H. Nakatsuji, X. Li, M. Caricato, A. V. Marenich, 
 J. Bloino, B. G. Janesko, R. Gomperts, B. Mennucci, H. P. Hratchian, 
 J. V. Ortiz, A. F. Izmaylov, J. L. Sonnenberg, D. Williams-Young, 
 F. Ding, F. Lipparini, F. Egidi, J. Goings, B. Peng, A. Petrone, 
 T. Henderson, D. Ranasinghe, V. G. Zakrzewski, J. Gao, N. Rega, 
 G. Zheng, W. Liang, M. Hada, M. Ehara, K. Toyota, R. Fukuda, 
 J. Hasegawa, M. Ishida, T. Nakajima, Y. Honda, O. Kitao, H. Nakai, 
 T. Vreven, K. Throssell, J. A. Montgomery, Jr., J. E. Peralta, 
 F. Ogliaro, M. J. Bearpark, J. J. Heyd, E. N. Brothers, K. N. Kudin, 
 V. N. Staroverov, T. A. Keith, R. Kobayashi, J. Normand, 
 K. Raghavachari, A. P. Rendell, J. C. Burant, S. S. Iyengar, 
 J. Tomasi, M. Cossi, J. M. Millam, M. Klene, C. Adamo, R. Cammi, 
 J. W. Ochterski, R. L. Martin, K. Morokuma, O. Farkas, 
 J. B. Foresman, and D. J. Fox, Gaussian, Inc., Wallingford CT, 2016.
 
 ******************************************
 Gaussian 16:  ES64L-G16RevA.03 25-Dec-2016
                21-Apr-2025 
 ******************************************
 %chk=force.chk
 %mem=4GB
 %nprocshared=8
 Will use up to    8 processors via shared memory.
 ---------------------------------------------------
 #p UM062X/6-311+G** force int=superfine pop=saveNBO
 ---------------------------------------------------
 1/10=7,30=1,38=1/1,3;
 2/12=2,17=6,18=5,40=1/2;
 3/5=4,6=6,7=111,11=2,25=1,30=1,71=1,74=-55,75=-7,116=2/1,2,3;
 4//1;
 5/5=2,38=5/2;
 6/7=2,8=2,9=2,10=2,28=1,40=1,73=1/1,7;
 7/29=1/1,2,3,16;
 1/10=7,30=1/3;
 99//99;
 Leave Link    1 at Mon Apr 21 19:40:58 2025, MaxMem=   536870912 cpu:               4.6 elap:               0.6
 (Enter /home/szhao/Apps/g16/l101.exe)
 -------------------
 Title Card Required
 -------------------
 Symbolic Z-matrix:
 Charge =  0 Multiplicity = 1
 C                    -1.7893    0.        0. 
 S                     1.7893    0.        0. 
 
 ITRead=  0  0
 MicOpt= -1 -1
 NAtoms=      2 NQM=        2 NQMF=       0 NMMI=      0 NMMIF=      0
                NMic=       0 NMicF=      0.
                    Isotopes and Nuclear Properties:
 (Nuclear quadrupole moments (NQMom) in fm**2, nuclear magnetic moments (NMagM)
  in nuclear magnetons)

  Atom         1           2
 IAtWgt=          12          32
 AtmWgt=  12.0000000  31.9720718
 NucSpn=           0           0
 AtZEff=  -0.0000000  -0.0000000
 NQMom=    0.0000000   0.0000000
 NMagM=    0.0000000   0.0000000
 AtZNuc=   6.0000000  16.0000000
 Leave Link  101 at Mon Apr 21 19:40:59 2025, MaxMem=   536870912 cpu:               2.6 elap:               0.3
 (Enter /home/szhao/Apps/g16/l103.exe)

 GradGradGradGradGradGradGradGradGradGradGradGradGradGradGradGradGradGrad
 Berny optimization.
 Initialization pass.
 Trust Radius=3.00D-01 FncErr=1.00D-07 GrdErr=1.00D-07 EigMax=2.50D+02 EigMin=1.00D-04
 Number of steps in this run=      2 maximum allowed number of steps=      2.
 GradGradGradGradGradGradGradGradGradGradGradGradGradGradGradGradGradGrad

 Leave Link  103 at Mon Apr 21 19:41:00 2025, MaxMem=   536870912 cpu:               0.4 elap:               0.1
 (Enter /home/szhao/Apps/g16/l202.exe)
                          Input orientation:                          
 ---------------------------------------------------------------------
 Center     Atomic      Atomic             Coordinates (Angstroms)
 Number     Number       Type             X           Y           Z
 ---------------------------------------------------------------------
      1          6           0       -1.789296    0.000000    0.000000
      2         16           0        1.789296    0.000000    0.000000
 ---------------------------------------------------------------------
 Stoichiometry    CS
 Framework group  C*V[C*(CS)]
 Deg. of freedom     1
 Full point group                 C*V     NOp   4
 Largest Abelian subgroup         C2V     NOp   4
 Largest concise Abelian subgroup C1      NOp   1
                         Standard orientation:                         
 ---------------------------------------------------------------------
 Center     Atomic      Atomic             Coordinates (Angstroms)
 Number     Number       Type             X           Y           Z
 ---------------------------------------------------------------------
      1          6           0        0.000000    0.000000   -2.602612
      2         16           0        0.000000    0.000000    0.975980
 ---------------------------------------------------------------------
 Rotational constants (GHZ):           0.0000000           4.5229077           4.5229077
 Leave Link  202 at Mon Apr 21 19:41:00 2025, MaxMem=   536870912 cpu:               0.2 elap:               0.1
 (Enter /home/szhao/Apps/g16/l301.exe)
 Standard basis: 6-311+G(d,p) (5D, 7F)
 Ernie: Thresh=  0.10000D-02 Tol=  0.10000D-05 Strict=F.
 There are    28 symmetry adapted cartesian basis functions of A1  symmetry.
 There are     2 symmetry adapted cartesian basis functions of A2  symmetry.
 There are    12 symmetry adapted cartesian basis functions of B1  symmetry.
 There are    12 symmetry adapted cartesian basis functions of B2  symmetry.
 There are    26 symmetry adapted basis functions of A1  symmetry.
 There are     2 symmetry adapted basis functions of A2  symmetry.
 There are    12 symmetry adapted basis functions of B1  symmetry.
 There are    12 symmetry adapted basis functions of B2  symmetry.
    52 basis functions,    86 primitive gaussians,    54 cartesian basis functions
    11 alpha electrons       11 beta electrons
       nuclear repulsion energy        14.1958100416 Hartrees.
 IExCor= 4336 DFT=T Ex+Corr=M062X ExCW=0 ScaHFX=  0.540000
 ScaDFX=  1.000000  1.000000  1.000000  1.000000 ScalE2=  1.000000  1.000000
 IRadAn=      7 IRanWt=     -1 IRanGd=            0 ICorTp=0 IEmpDi=  4
 NAtoms=    2 NActive=    2 NUniq=    2 SFac= 1.00D+00 NAtFMM=   60 NAOKFM=F Big=F
 Integral buffers will be    131072 words long.
 Raffenetti 2 integral format.
 Two-electron integral symmetry is turned on.
 Leave Link  301 at Mon Apr 21 19:41:00 2025, MaxMem=   536870912 cpu:               0.8 elap:               0.2
 (Enter /home/szhao/Apps/g16/l302.exe)
 NPDir=0 NMtPBC=     1 NCelOv=     1 NCel=       1 NClECP=     1 NCelD=      1
         NCelK=      1 NCelE2=     1 NClLst=     1 CellRange=     0.0.
 One-electron integrals computed using PRISM.
 One-electron integral symmetry used in STVInt
 NBasis=    52 RedAO= T EigKep=  2.24D-02  NBF=    26     2    12    12
 NBsUse=    52 1.00D-06 EigRej= -1.00D+00 NBFU=    26     2    12    12
 Precomputing XC quadrature grid using
 IXCGrd= 4 IRadAn=           7 IRanWt=          -1 IRanGd=           0 AccXCQ= 0.00D+00.
 Generated NRdTot=       0 NPtTot=           0 NUsed=           0 NTot=          32
 NSgBfM=    52    52    52    52    52 MxSgAt=     2 MxSgA2=     2.
 Leave Link  302 at Mon Apr 21 19:41:01 2025, MaxMem=   536870912 cpu:               1.8 elap:               0.3
 (Enter /home/szhao/Apps/g16/l303.exe)
 DipDrv:  MaxL=1.
 Leave Link  303 at Mon Apr 21 19:41:02 2025, MaxMem=   536870912 cpu:               0.8 elap:               0.2
 (Enter /home/szhao/Apps/g16/l401.exe)
 ExpMin= 4.05D-02 ExpMax= 9.34D+04 ExpMxC= 3.17D+03 IAcc=3 IRadAn=         7 AccDes= 0.00D+00
 Harris functional with IExCor= 1009 and IRadAn=       7 diagonalized for initial guess.
 HarFok:  IExCor= 1009 AccDes= 0.00D+00 IRadAn=         7 IDoV= 1 UseB2=F ITyADJ=14
 ICtDFT=  3500011 ScaDFX=  1.000000  1.000000  1.000000  1.000000
 FoFCou: FMM=F IPFlag=           0 FMFlag=      100000 FMFlg1=           0
         NFxFlg=           0 DoJE=T BraDBF=F KetDBF=T FulRan=T
         wScrn=  0.000000 ICntrl=       500 IOpCl=  0 I1Cent=   200000004 NGrid=           0
         NMat0=    1 NMatS0=      1 NMatT0=    0 NMatD0=    1 NMtDS0=    0 NMtDT0=    0
 Petite list used in FoFCou.
 Harris En= -435.732451029477    
 JPrj=0 DoOrth=F DoCkMO=F.
 Initial guess orbital symmetries:
 Alpha Orbitals:
       Occupied  (SG) (SG) (SG) (SG) (PI) (PI) (SG) (SG) (SG) (PI)
                 (PI)
       Virtual   (PI) (PI) (SG) (SG) (SG) (PI) (PI) (SG) (PI) (PI)
                 (SG) (PI) (PI) (SG) (SG) (PI) (PI) (SG) (SG) (DLTA)
                 (DLTA) (PI) (PI) (SG) (DLTA) (DLTA) (PI) (PI)
                 (SG) (PI) (PI) (SG) (PI) (PI) (SG) (SG) (PI) (PI)
                 (SG) (SG) (SG)
 Beta  Orbitals:
       Occupied  (SG) (SG) (SG) (SG) (PI) (PI) (SG) (SG) (SG) (PI)
                 (PI)
       Virtual   (PI) (PI) (SG) (SG) (SG) (PI) (PI) (SG) (PI) (PI)
                 (SG) (PI) (PI) (SG) (SG) (PI) (PI) (SG) (SG) (DLTA)
                 (DLTA) (PI) (PI) (SG) (DLTA) (DLTA) (PI) (PI)
                 (SG) (PI) (PI) (SG) (PI) (PI) (SG) (SG) (PI) (PI)
                 (SG) (SG) (SG)
 The electronic state of the initial guess is 1-SG.
 Initial guess <Sx>= 0.0000 <Sy>= 0.0000 <Sz>= 0.0000 <S**2>=-0.0000 S=-0.0000
 Leave Link  401 at Mon Apr 21 19:41:02 2025, MaxMem=   536870912 cpu:               1.9 elap:               0.6
 (Enter /home/szhao/Apps/g16/l502.exe)
 Keep R1 and R2 ints in memory in symmetry-blocked form, NReq=7997257.
 FoFCou: FMM=F IPFlag=           0 FMFlag=           0 FMFlg1=           0
         NFxFlg=           0 DoJE=F BraDBF=F KetDBF=F FulRan=T
         wScrn=  0.000000 ICntrl=       600 IOpCl=  0 I1Cent=           0 NGrid=           0
         NMat0=    1 NMatS0=   1378 NMatT0=    0 NMatD0=    1 NMtDS0=    0 NMtDT0=    0
 Petite list used in FoFCou.
 UHF open shell SCF:
 Using DIIS extrapolation, IDIIS=  1040.
 NGot=   536870912 LenX=   536333382 LenY=   536330025
 Requested convergence on RMS density matrix=1.00D-08 within 128 cycles.
 Requested convergence on MAX density matrix=1.00D-06.
 Requested convergence on             energy=1.00D-06.
 No special actions if energy rises.

 Cycle   1  Pass 1  IDiag  1:
 E= -434.933243705585    
 DIIS: error= 4.97D-02 at cycle   1 NSaved=   1.
 NSaved= 1 IEnMin= 1 EnMin= -434.933243705585     IErMin= 1 ErrMin= 4.97D-02
 ErrMax= 4.97D-02  0.00D+00 EMaxC= 1.00D-01 BMatC= 8.36D-01 BMatP= 8.36D-01
 IDIUse=3 WtCom= 5.03D-01 WtEn= 4.97D-01
 Coeff-Com:  0.100D+01
 Coeff-En:   0.100D+01
 Coeff:      0.100D+01
 Gap=    -0.856 Goal=   None    Shift=    0.000
 Gap=    -0.856 Goal=   None    Shift=    0.000
 GapD=   -0.856 DampG=0.250 DampE=0.500 DampFc=0.2500 IDamp=-1.
 Damping current iteration by 2.50D-01
 RMSDP=2.93D-02 MaxDP=3.98D-01              OVMax= 9.98D-01

 Cycle   2  Pass 1  IDiag  1:
 E= -435.526209727635     Delta-E=       -0.592966022051 Rises=F Damp=T
 DIIS: error= 2.06D-02 at cycle   2 NSaved=   2.
 NSaved= 2 IEnMin= 2 EnMin= -435.526209727635     IErMin= 2 ErrMin= 2.06D-02
 ErrMax= 2.06D-02  0.00D+00 EMaxC= 1.00D-01 BMatC= 1.44D-01 BMatP= 8.36D-01
 IDIUse=3 WtCom= 7.94D-01 WtEn= 2.06D-01
 Coeff-Com:  0.108D+00 0.892D+00
 Coeff-En:   0.136D+00 0.864D+00
 Coeff:      0.114D+00 0.886D+00
 Gap=     0.217 Goal=   None    Shift=    0.000
 Gap=     0.217 Goal=   None    Shift=    0.000
 RMSDP=1.80D-02 MaxDP=2.72D-01 DE=-5.93D-01 OVMax= 5.07D-01

 Cycle   3  Pass 1  IDiag  1:
 E= -431.809508463938     Delta-E=        3.716701263698 Rises=F Damp=F
 DIIS: error= 1.57D-01 at cycle   3 NSaved=   3.
 NSaved= 3 IEnMin= 2 EnMin= -435.526209727635     IErMin= 2 ErrMin= 2.06D-02
 ErrMax= 1.57D-01  0.00D+00 EMaxC= 1.00D-01 BMatC= 7.06D+00 BMatP= 1.44D-01
 IDIUse=2 WtCom= 0.00D+00 WtEn= 1.00D+00
 Coeff-En:   0.698D+00 0.000D+00 0.302D+00
 Coeff:      0.698D+00 0.000D+00 0.302D+00
 Gap=     0.001 Goal=   None    Shift=    0.000
 Gap=     0.001 Goal=   None    Shift=    0.000
 RMSDP=1.57D-02 MaxDP=2.07D-01 DE= 3.72D+00 OVMax= 6.92D-01

 Cycle   4  Pass 1  IDiag  1:
 E= -435.689465433192     Delta-E=       -3.879956969254 Rises=F Damp=F
 DIIS: error= 5.71D-02 at cycle   4 NSaved=   4.
 NSaved= 4 IEnMin= 4 EnMin= -435.689465433192     IErMin= 2 ErrMin= 2.06D-02
 ErrMax= 5.71D-02  0.00D+00 EMaxC= 1.00D-01 BMatC= 3.23D-01 BMatP= 1.44D-01
 IDIUse=2 WtCom= 0.00D+00 WtEn= 1.00D+00
 Coeff-En:   0.200D+00 0.000D+00 0.000D+00 0.800D+00
 Coeff:      0.200D+00 0.000D+00 0.000D+00 0.800D+00
 Gap=     0.090 Goal=   None    Shift=    0.000
 Gap=     0.090 Goal=   None    Shift=    0.000
 RMSDP=7.46D-03 MaxDP=1.01D-01 DE=-3.88D+00 OVMax= 3.16D-01

 Cycle   5  Pass 1  IDiag  1:
 E= -435.514104486273     Delta-E=        0.175360946919 Rises=F Damp=F
 DIIS: error= 6.41D-02 at cycle   5 NSaved=   5.
 NSaved= 5 IEnMin= 4 EnMin= -435.689465433192     IErMin= 2 ErrMin= 2.06D-02
 ErrMax= 6.41D-02  0.00D+00 EMaxC= 1.00D-01 BMatC= 5.95D-01 BMatP= 1.44D-01
 IDIUse=2 WtCom= 0.00D+00 WtEn= 1.00D+00
 Coeff-En:   0.000D+00 0.000D+00 0.000D+00 0.652D+00 0.348D+00
 Coeff:      0.000D+00 0.000D+00 0.000D+00 0.652D+00 0.348D+00
 Gap=     0.087 Goal=   None    Shift=    0.000
 Gap=     0.087 Goal=   None    Shift=    0.000
 RMSDP=3.79D-03 MaxDP=5.33D-02 DE= 1.75D-01 OVMax= 1.56D-01

 Cycle   6  Pass 1  IDiag  1:
 E= -435.754771574247     Delta-E=       -0.240667087974 Rises=F Damp=F
 DIIS: error= 2.13D-02 at cycle   6 NSaved=   6.
 NSaved= 6 IEnMin= 6 EnMin= -435.754771574247     IErMin= 2 ErrMin= 2.06D-02
 ErrMax= 2.13D-02  0.00D+00 EMaxC= 1.00D-01 BMatC= 6.04D-02 BMatP= 1.44D-01
 IDIUse=3 WtCom= 7.87D-01 WtEn= 2.13D-01
 Coeff-Com:  0.877D-02-0.366D-01 0.117D-01 0.179D+00-0.167D+00 0.100D+01
 Coeff-En:   0.000D+00 0.000D+00 0.000D+00 0.300D+00 0.000D+00 0.700D+00
 Coeff:      0.690D-02-0.288D-01 0.922D-02 0.204D+00-0.132D+00 0.940D+00
 Gap=     0.095 Goal=   None    Shift=    0.000
 Gap=     0.095 Goal=   None    Shift=    0.000
 RMSDP=1.18D-03 MaxDP=2.39D-02 DE=-2.41D-01 OVMax= 7.18D-02

 Cycle   7  Pass 1  IDiag  1:
 E= -435.768766297423     Delta-E=       -0.013994723175 Rises=F Damp=F
 DIIS: error= 1.30D-02 at cycle   7 NSaved=   7.
 NSaved= 7 IEnMin= 7 EnMin= -435.768766297423     IErMin= 7 ErrMin= 1.30D-02
 ErrMax= 1.30D-02  0.00D+00 EMaxC= 1.00D-01 BMatC= 2.91D-02 BMatP= 6.04D-02
 IDIUse=3 WtCom= 8.70D-01 WtEn= 1.30D-01
 Coeff-Com:  0.245D-01-0.533D-01 0.167D-01 0.855D-01-0.234D+00 0.654D+00
 Coeff-Com:  0.507D+00
 Coeff-En:   0.000D+00 0.000D+00 0.000D+00 0.179D+00 0.000D+00 0.000D+00
 Coeff-En:   0.821D+00
 Coeff:      0.213D-01-0.464D-01 0.146D-01 0.976D-01-0.204D+00 0.569D+00
 Coeff:      0.547D+00
 Gap=     0.101 Goal=   None    Shift=    0.000
 Gap=     0.101 Goal=   None    Shift=    0.000
 RMSDP=1.06D-03 MaxDP=1.27D-02 DE=-1.40D-02 OVMax= 4.19D-02

 Cycle   8  Pass 1  IDiag  1:
 E= -435.766260895244     Delta-E=        0.002505402179 Rises=F Damp=F
 DIIS: error= 1.63D-02 at cycle   8 NSaved=   8.
 NSaved= 8 IEnMin= 7 EnMin= -435.768766297423     IErMin= 7 ErrMin= 1.30D-02
 ErrMax= 1.63D-02  0.00D+00 EMaxC= 1.00D-01 BMatC= 4.82D-02 BMatP= 2.91D-02
 IDIUse=2 WtCom= 0.00D+00 WtEn= 1.00D+00
 Coeff-En:   0.000D+00 0.000D+00 0.000D+00 0.220D+00 0.000D+00 0.000D+00
 Coeff-En:   0.000D+00 0.780D+00
 Coeff:      0.000D+00 0.000D+00 0.000D+00 0.220D+00 0.000D+00 0.000D+00
 Coeff:      0.000D+00 0.780D+00
 Gap=     0.070 Goal=   None    Shift=    0.000
 Gap=     0.070 Goal=   None    Shift=    0.000
 RMSDP=4.84D-03 MaxDP=7.33D-02 DE= 2.51D-03 OVMax= 2.14D-01

 Cycle   9  Pass 1  IDiag  1:
 E= -435.610035429232     Delta-E=        0.156225466012 Rises=F Damp=F
 DIIS: error= 8.10D-02 at cycle   9 NSaved=   9.
 NSaved= 9 IEnMin= 7 EnMin= -435.768766297423     IErMin= 7 ErrMin= 1.30D-02
 ErrMax= 8.10D-02  0.00D+00 EMaxC= 1.00D-01 BMatC= 6.40D-01 BMatP= 2.91D-02
 IDIUse=2 WtCom= 0.00D+00 WtEn= 1.00D+00
 Coeff-En:   0.000D+00 0.000D+00 0.000D+00 0.000D+00 0.000D+00 0.000D+00
 Coeff-En:   0.000D+00 0.792D+00 0.208D+00
 Coeff:      0.000D+00 0.000D+00 0.000D+00 0.000D+00 0.000D+00 0.000D+00
 Coeff:      0.000D+00 0.792D+00 0.208D+00
 Gap=     0.086 Goal=   None    Shift=    0.000
 Gap=     0.086 Goal=   None    Shift=    0.000
 RMSDP=3.37D-03 MaxDP=4.90D-02 DE= 1.56D-01 OVMax= 1.59D-01

 Cycle  10  Pass 1  IDiag  1:
 E= -435.782469842622     Delta-E=       -0.172434413390 Rises=F Damp=F
 DIIS: error= 1.81D-02 at cycle  10 NSaved=  10.
 NSaved=10 IEnMin=10 EnMin= -435.782469842622     IErMin= 7 ErrMin= 1.30D-02
 ErrMax= 1.81D-02  0.00D+00 EMaxC= 1.00D-01 BMatC= 3.01D-02 BMatP= 2.91D-02
 IDIUse=3 WtCom= 8.70D-01 WtEn= 1.30D-01
 Coeff-Com:  0.434D-01-0.403D-01 0.814D-02 0.551D-01-0.259D+00 0.215D+00
 Coeff-Com:  0.349D+01-0.215D+01 0.330D-01-0.400D+00
 Coeff-En:   0.000D+00 0.000D+00 0.000D+00 0.000D+00 0.000D+00 0.000D+00
 Coeff-En:   0.000D+00 0.287D+00 0.000D+00 0.713D+00
 Coeff:      0.378D-01-0.351D-01 0.709D-02 0.479D-01-0.226D+00 0.187D+00
 Coeff:      0.304D+01-0.183D+01 0.287D-01-0.255D+00
 Gap=     0.096 Goal=   None    Shift=    0.000
 Gap=     0.096 Goal=   None    Shift=    0.000
 RMSDP=4.93D-03 MaxDP=1.05D-01 DE=-1.72D-01 OVMax= 3.07D-01

 Cycle  11  Pass 1  IDiag  1:
 E= -435.759001885699     Delta-E=        0.023467956923 Rises=F Damp=F
 DIIS: error= 1.85D-02 at cycle  11 NSaved=  11.
 NSaved=11 IEnMin=10 EnMin= -435.782469842622     IErMin= 7 ErrMin= 1.30D-02
 ErrMax= 1.85D-02  0.00D+00 EMaxC= 1.00D-01 BMatC= 4.58D-02 BMatP= 2.91D-02
 IDIUse=2 WtCom= 0.00D+00 WtEn= 1.00D+00
 Rare condition: small coef for last iteration:  0.000D+00
 Coeff-En:   0.000D+00 0.000D+00 0.000D+00 0.865D-01 0.000D+00 0.000D+00
 Coeff-En:   0.181D+00 0.212D+00 0.106D+00 0.000D+00 0.414D+00
 Coeff:      0.000D+00 0.000D+00 0.000D+00 0.865D-01 0.000D+00 0.000D+00
 Coeff:      0.181D+00 0.212D+00 0.106D+00 0.000D+00 0.414D+00
 Gap=     0.079 Goal=   None    Shift=    0.000
 Gap=     0.079 Goal=   None    Shift=    0.000
 RMSDP=4.24D-03 MaxDP=8.95D-02 DE= 2.35D-02 OVMax= 2.60D-01

 Cycle  12  Pass 1  IDiag  1:
 E= -435.700623600808     Delta-E=        0.058378284891 Rises=F Damp=F
 DIIS: error= 5.45D-02 at cycle  12 NSaved=  12.
 NSaved=12 IEnMin=10 EnMin= -435.782469842622     IErMin= 7 ErrMin= 1.30D-02
 ErrMax= 5.45D-02  0.00D+00 EMaxC= 1.00D-01 BMatC= 2.94D-01 BMatP= 2.91D-02
 IDIUse=2 WtCom= 0.00D+00 WtEn= 1.00D+00
 EnCoef did   100 forward-backward iterations
 Coeff-En:   0.000D+00 0.000D+00 0.000D+00 0.118D-02 0.000D+00 0.000D+00
 Coeff-En:   0.292D-02 0.709D+00 0.193D-03 0.000D+00 0.557D-02 0.281D+00
 Coeff:      0.000D+00 0.000D+00 0.000D+00 0.118D-02 0.000D+00 0.000D+00
 Coeff:      0.292D-02 0.709D+00 0.193D-03 0.000D+00 0.557D-02 0.281D+00
 Gap=     0.088 Goal=   None    Shift=    0.000
 Gap=     0.088 Goal=   None    Shift=    0.000
 RMSDP=2.91D-03 MaxDP=4.10D-02 DE= 5.84D-02 OVMax= 1.36D-01

 Cycle  13  Pass 1  IDiag  1:
 E= -435.786408762165     Delta-E=       -0.085785161357 Rises=F Damp=F
 DIIS: error= 1.35D-02 at cycle  13 NSaved=  13.
 NSaved=13 IEnMin=13 EnMin= -435.786408762165     IErMin= 7 ErrMin= 1.30D-02
 ErrMax= 1.35D-02  0.00D+00 EMaxC= 1.00D-01 BMatC= 1.57D-02 BMatP= 2.91D-02
 IDIUse=3 WtCom= 8.70D-01 WtEn= 1.30D-01
 Coeff-Com:  0.955D-03-0.101D-01-0.234D-02 0.509D-01-0.210D+00 0.324D+00
 Coeff-Com:  0.311D+00-0.100D+01 0.452D-01-0.325D+01 0.173D+01 0.612D+00
 Coeff-Com:  0.240D+01
 Coeff-En:   0.000D+00 0.000D+00 0.000D+00 0.000D+00 0.000D+00 0.000D+00
 Coeff-En:   0.000D+00 0.141D+00 0.000D+00 0.000D+00 0.000D+00 0.000D+00
 Coeff-En:   0.859D+00
 Coeff:      0.831D-03-0.881D-02-0.203D-02 0.443D-01-0.183D+00 0.282D+00
 Coeff:      0.271D+00-0.852D+00 0.394D-01-0.283D+01 0.151D+01 0.533D+00
 Coeff:      0.220D+01
 Gap=     0.086 Goal=   None    Shift=    0.000
 Gap=     0.086 Goal=   None    Shift=    0.000
 RMSDP=7.31D-03 MaxDP=1.35D-01 DE=-8.58D-02 OVMax= 4.00D-01

 Cycle  14  Pass 1  IDiag  1:
 E= -435.768206967641     Delta-E=        0.018201794524 Rises=F Damp=F
 DIIS: error= 2.35D-03 at cycle  14 NSaved=  14.
 NSaved=14 IEnMin=13 EnMin= -435.786408762165     IErMin=14 ErrMin= 2.35D-03
 ErrMax= 2.35D-03  0.00D+00 EMaxC= 1.00D-01 BMatC= 1.05D-03 BMatP= 1.57D-02
 IDIUse=3 WtCom= 9.77D-01 WtEn= 2.35D-02
 Rare condition: small coef for last iteration:  0.000D+00
 Coeff-Com:  0.920D-03-0.103D-01-0.189D-02 0.427D-01-0.189D+00 0.355D+00
 Coeff-Com:  0.490D+00-0.943D+00 0.134D-01-0.263D+01 0.136D+01 0.588D+00
 Coeff-Com:  0.179D+01 0.129D+00
 Coeff-En:   0.000D+00 0.000D+00 0.000D+00 0.000D+00 0.000D+00 0.000D+00
 Coeff-En:   0.000D+00 0.000D+00 0.000D+00 0.000D+00 0.000D+00 0.000D+00
 Coeff-En:   0.000D+00 0.100D+01
 Coeff:      0.920D-03-0.103D-01-0.189D-02 0.427D-01-0.189D+00 0.355D+00
 Coeff:      0.490D+00-0.943D+00 0.134D-01-0.263D+01 0.136D+01 0.588D+00
 Coeff:      0.179D+01 0.129D+00
 Gap=     0.090 Goal=   None    Shift=    0.000
 Gap=     0.090 Goal=   None    Shift=    0.000
 RMSDP=1.64D-03 MaxDP=2.46D-02 DE= 1.82D-02 OVMax= 7.22D-02

 Cycle  15  Pass 1  IDiag  1:
 E= -435.757776574956     Delta-E=        0.010430392685 Rises=F Damp=F
 DIIS: error= 2.01D-02 at cycle  15 NSaved=  15.
 NSaved=15 IEnMin=13 EnMin= -435.786408762165     IErMin=14 ErrMin= 2.35D-03
 ErrMax= 2.01D-02  0.00D+00 EMaxC= 1.00D-01 BMatC= 3.73D-02 BMatP= 1.05D-03
 IDIUse=2 WtCom= 0.00D+00 WtEn= 1.00D+00
 Coeff-En:   0.000D+00 0.000D+00 0.000D+00 0.000D+00 0.000D+00 0.000D+00
 Coeff-En:   0.000D+00 0.000D+00 0.000D+00 0.000D+00 0.000D+00 0.000D+00
 Coeff-En:   0.000D+00 0.986D+00 0.139D-01
 Coeff:      0.000D+00 0.000D+00 0.000D+00 0.000D+00 0.000D+00 0.000D+00
 Coeff:      0.000D+00 0.000D+00 0.000D+00 0.000D+00 0.000D+00 0.000D+00
 Coeff:      0.000D+00 0.986D+00 0.139D-01
 Gap=     0.081 Goal=   None    Shift=    0.000
 Gap=     0.081 Goal=   None    Shift=    0.000
 RMSDP=1.56D-03 MaxDP=2.78D-02 DE= 1.04D-02 OVMax= 9.66D-02

 Cycle  16  Pass 1  IDiag  1:
 E= -435.735327057660     Delta-E=        0.022449517296 Rises=F Damp=F
 DIIS: error= 3.63D-02 at cycle  16 NSaved=  16.
 NSaved=16 IEnMin=13 EnMin= -435.786408762165     IErMin=14 ErrMin= 2.35D-03
 ErrMax= 3.63D-02  0.00D+00 EMaxC= 1.00D-01 BMatC= 1.25D-01 BMatP= 1.05D-03
 IDIUse=2 WtCom= 0.00D+00 WtEn= 1.00D+00
 Coeff-En:   0.000D+00 0.000D+00 0.000D+00 0.000D+00 0.000D+00 0.000D+00
 Coeff-En:   0.000D+00 0.000D+00 0.000D+00 0.000D+00 0.000D+00 0.000D+00
 Coeff-En:   0.000D+00 0.958D+00 0.000D+00 0.424D-01
 Coeff:      0.000D+00 0.000D+00 0.000D+00 0.000D+00 0.000D+00 0.000D+00
 Coeff:      0.000D+00 0.000D+00 0.000D+00 0.000D+00 0.000D+00 0.000D+00
 Coeff:      0.000D+00 0.958D+00 0.000D+00 0.424D-01
 Gap=     0.083 Goal=   None    Shift=    0.000
 Gap=     0.083 Goal=   None    Shift=    0.000
 RMSDP=9.14D-04 MaxDP=1.39D-02 DE= 2.24D-02 OVMax= 3.99D-02

 Cycle  17  Pass 1  IDiag  1:
 E= -435.762763281984     Delta-E=       -0.027436224324 Rises=F Damp=F
 DIIS: error= 1.51D-02 at cycle  17 NSaved=  17.
 NSaved=17 IEnMin=13 EnMin= -435.786408762165     IErMin=14 ErrMin= 2.35D-03
 ErrMax= 1.51D-02  0.00D+00 EMaxC= 1.00D-01 BMatC= 2.12D-02 BMatP= 1.05D-03
 IDIUse=2 WtCom= 0.00D+00 WtEn= 1.00D+00
 Coeff-En:   0.000D+00 0.000D+00 0.000D+00 0.000D+00 0.000D+00 0.000D+00
 Coeff-En:   0.000D+00 0.000D+00 0.000D+00 0.000D+00 0.000D+00 0.000D+00
 Coeff-En:   0.000D+00 0.862D+00 0.000D+00 0.000D+00 0.138D+00
 Coeff:      0.000D+00 0.000D+00 0.000D+00 0.000D+00 0.000D+00 0.000D+00
 Coeff:      0.000D+00 0.000D+00 0.000D+00 0.000D+00 0.000D+00 0.000D+00
 Coeff:      0.000D+00 0.862D+00 0.000D+00 0.000D+00 0.138D+00
 Gap=     0.085 Goal=   None    Shift=    0.000
 Gap=     0.085 Goal=   None    Shift=    0.000
 RMSDP=5.36D-04 MaxDP=8.13D-03 DE=-2.74D-02 OVMax= 2.36D-02

 Cycle  18  Pass 1  IDiag  1:
 E= -435.768393857748     Delta-E=       -0.005630575765 Rises=F Damp=F
 DIIS: error= 3.33D-03 at cycle  18 NSaved=  18.
 NSaved=18 IEnMin=13 EnMin= -435.786408762165     IErMin=14 ErrMin= 2.35D-03
 ErrMax= 3.33D-03  0.00D+00 EMaxC= 1.00D-01 BMatC= 9.27D-04 BMatP= 1.05D-03
 IDIUse=3 WtCom= 9.77D-01 WtEn= 2.35D-02
 Coeff-Com:  0.108D-02-0.629D-03-0.797D-03-0.952D-03-0.770D-02-0.687D-01
 Coeff-Com:  0.801D+00-0.837D+00 0.708D-01-0.191D+00 0.437D+00-0.131D+00
 Coeff-Com:  0.811D-01 0.820D-01-0.839D-01 0.656D-01 0.327D+00 0.456D+00
 Coeff-En:   0.000D+00 0.000D+00 0.000D+00 0.000D+00 0.000D+00 0.000D+00
 Coeff-En:   0.000D+00 0.000D+00 0.000D+00 0.000D+00 0.000D+00 0.000D+00
 Coeff-En:   0.000D+00 0.368D+00 0.000D+00 0.000D+00 0.000D+00 0.632D+00
 Coeff:      0.106D-02-0.614D-03-0.778D-03-0.930D-03-0.752D-02-0.670D-01
 Coeff:      0.782D+00-0.817D+00 0.691D-01-0.186D+00 0.427D+00-0.128D+00
 Coeff:      0.792D-01 0.887D-01-0.819D-01 0.640D-01 0.319D+00 0.460D+00
 Gap=     0.086 Goal=   None    Shift=    0.000
 Gap=     0.086 Goal=   None    Shift=    0.000
 RMSDP=9.32D-04 MaxDP=1.21D-02 DE=-5.63D-03 OVMax= 4.29D-02

 Cycle  19  Pass 1  IDiag  1:
 E= -435.766811421842     Delta-E=        0.001582435907 Rises=F Damp=F
 DIIS: error= 7.50D-03 at cycle  19 NSaved=  19.
 NSaved=19 IEnMin=13 EnMin= -435.786408762165     IErMin=14 ErrMin= 2.35D-03
 ErrMax= 7.50D-03  0.00D+00 EMaxC= 1.00D-01 BMatC= 5.15D-03 BMatP= 9.27D-04
 IDIUse=3 WtCom= 9.77D-01 WtEn= 2.35D-02
 Rare condition: small coef for last iteration:  0.000D+00
 Coeff-Com:  0.150D-03-0.331D-04-0.133D-02-0.522D-03-0.139D-02-0.421D-01
 Coeff-Com:  0.446D+00-0.516D+00 0.504D-01 0.645D+00 0.355D+00-0.218D+00
 Coeff-Com: -0.657D+00 0.719D-01-0.290D+00 0.478D+00-0.667D+00 0.763D+00
 Coeff-Com:  0.583D+00
 Coeff-En:   0.000D+00 0.000D+00 0.000D+00 0.000D+00 0.000D+00 0.000D+00
 Coeff-En:   0.000D+00 0.000D+00 0.000D+00 0.000D+00 0.000D+00 0.000D+00
 Coeff-En:   0.000D+00 0.835D+00 0.000D+00 0.000D+00 0.000D+00 0.000D+00
 Coeff-En:   0.165D+00
 Coeff:      0.150D-03-0.331D-04-0.133D-02-0.522D-03-0.139D-02-0.421D-01
 Coeff:      0.446D+00-0.516D+00 0.504D-01 0.645D+00 0.355D+00-0.218D+00
 Coeff:     -0.657D+00 0.719D-01-0.290D+00 0.478D+00-0.667D+00 0.763D+00
 Coeff:      0.583D+00
 Gap=     0.086 Goal=   None    Shift=    0.000
 Gap=     0.086 Goal=   None    Shift=    0.000
 RMSDP=1.25D-04 MaxDP=1.58D-03 DE= 1.58D-03 OVMax= 5.12D-03

 Cycle  20  Pass 1  IDiag  1:
 E= -435.767581562694     Delta-E=       -0.000770140853 Rises=F Damp=F
 DIIS: error= 5.24D-03 at cycle  20 NSaved=  20.
 NSaved=20 IEnMin=13 EnMin= -435.786408762165     IErMin=14 ErrMin= 2.35D-03
 ErrMax= 5.24D-03  0.00D+00 EMaxC= 1.00D-01 BMatC= 2.48D-03 BMatP= 9.27D-04
 IDIUse=3 WtCom= 9.77D-01 WtEn= 2.35D-02
 EnCoef did   100 forward-backward iterations
 Rare condition: small coef for last iteration:  0.000D+00
 Coeff-Com:  0.216D-03-0.827D-04-0.129D-02-0.360D-03-0.149D-02-0.452D-01
 Coeff-Com:  0.449D+00-0.518D+00 0.464D-01 0.647D+00 0.362D+00-0.209D+00
 Coeff-Com: -0.665D+00 0.486D-01-0.299D+00 0.471D+00-0.680D+00 0.810D+00
 Coeff-Com:  0.760D+00-0.174D+00
 Coeff-En:   0.000D+00 0.000D+00 0.000D+00 0.000D+00 0.000D+00 0.000D+00
 Coeff-En:   0.000D+00 0.000D+00 0.000D+00 0.000D+00 0.000D+00 0.000D+00
 Coeff-En:   0.000D+00 0.780D+00 0.000D+00 0.000D+00 0.000D+00 0.000D+00
 Coeff-En:   0.000D+00 0.220D+00
 Coeff:      0.216D-03-0.827D-04-0.129D-02-0.360D-03-0.149D-02-0.452D-01
 Coeff:      0.449D+00-0.518D+00 0.464D-01 0.647D+00 0.362D+00-0.209D+00
 Coeff:     -0.665D+00 0.486D-01-0.299D+00 0.471D+00-0.680D+00 0.810D+00
 Coeff:      0.760D+00-0.174D+00
 Gap=     0.086 Goal=   None    Shift=    0.000
 Gap=     0.086 Goal=   None    Shift=    0.000
 RMSDP=9.13D-06 MaxDP=1.97D-04 DE=-7.70D-04 OVMax= 5.77D-04

 Cycle  21  Pass 1  IDiag  1:
 E= -435.767557699076     Delta-E=        0.000023863618 Rises=F Damp=F
 DIIS: error= 5.33D-03 at cycle  21 NSaved=  20.
 NSaved=20 IEnMin=12 EnMin= -435.786408762165     IErMin=13 ErrMin= 2.35D-03
 ErrMax= 5.33D-03  0.00D+00 EMaxC= 1.00D-01 BMatC= 2.57D-03 BMatP= 9.27D-04
 IDIUse=3 WtCom= 9.77D-01 WtEn= 2.35D-02
 Large coefficients: NSaved= 20 BigCof=   63.62 CofMax=   10.00 Det=-7.35D-11
 Inversion failed.  Reducing to 19 matrices.
 Large coefficients: NSaved= 19 BigCof=   60.94 CofMax=   10.00 Det=-7.41D-11
 Inversion failed.  Reducing to 18 matrices.
 Large coefficients: NSaved= 18 BigCof=   63.46 CofMax=   10.00 Det=-7.90D-11
 Inversion failed.  Reducing to 17 matrices.
 Large coefficients: NSaved= 17 BigCof=   61.86 CofMax=   10.00 Det=-8.12D-11
 Inversion failed.  Reducing to 16 matrices.
 Large coefficients: NSaved= 16 BigCof=   61.26 CofMax=   10.00 Det=-8.18D-11
 Inversion failed.  Reducing to 15 matrices.
 Large coefficients: NSaved= 15 BigCof=   62.60 CofMax=   10.00 Det=-8.47D-11
 Inversion failed.  Reducing to 14 matrices.
 Large coefficients: NSaved= 14 BigCof=   63.03 CofMax=   10.00 Det=-8.80D-11
 Inversion failed.  Reducing to 13 matrices.
 Large coefficients: NSaved= 13 BigCof=   63.94 CofMax=   10.00 Det=-9.59D-11
 Inversion failed.  Reducing to 12 matrices.
 Large coefficients: NSaved= 12 BigCof=   65.55 CofMax=   10.00 Det=-9.61D-11
 Inversion failed.  Reducing to 11 matrices.
 Large coefficients: NSaved= 11 BigCof=   63.60 CofMax=   10.00 Det=-2.24D-10
 Inversion failed.  Reducing to 10 matrices.
 Large coefficients: NSaved= 10 BigCof=   51.97 CofMax=   10.00 Det=-3.59D-10
 Inversion failed.  Reducing to  9 matrices.
 Large coefficients: NSaved=  9 BigCof=   31.25 CofMax=   10.00 Det=-4.85D-10
 Inversion failed.  Reducing to  8 matrices.
 Large coefficients: NSaved=  8 BigCof=   41.75 CofMax=   10.00 Det=-5.24D-10
 Inversion failed.  Reducing to  7 matrices.
 Large coefficients: NSaved=  7 BigCof=   39.62 CofMax=   10.00 Det=-6.55D-09
 Inversion failed.  Reducing to  6 matrices.
 Large coefficients: NSaved=  6 BigCof=   55.03 CofMax=   10.00 Det=-8.48D-09
 Inversion failed.  Reducing to  5 matrices.
 Large coefficients: NSaved=  5 BigCof=   56.63 CofMax=   10.00 Det=-4.20D-08
 Inversion failed.  Reducing to  4 matrices.
 Large coefficients: NSaved=  4 BigCof=   56.49 CofMax=   10.00 Det=-6.22D-08
 Inversion failed.  Reducing to  3 matrices.
 Large coefficients: NSaved=  3 BigCof=   58.03 CofMax=   10.00 Det=-1.71D-07
 Inversion failed.  Reducing to  2 matrices.
 Large coefficients: NSaved=  2 BigCof=   57.39 CofMax=   10.00 Det=-7.77D-07
 Coeff-Com:  0.574D+02-0.564D+02
 Coeff-En:   0.000D+00 0.100D+01
 Coeff:      0.560D+02-0.550D+02
 Gap=     0.085 Goal=   None    Shift=    0.000
 Gap=     0.085 Goal=   None    Shift=    0.000
 RMSDP=5.65D-04 MaxDP=1.26D-02 DE= 2.39D-05 OVMax= 3.56D-02

 Cycle  22  Pass 1  IDiag  1:
 E= -435.768086257811     Delta-E=       -0.000528558735 Rises=F Damp=F
 DIIS: error= 2.53D-03 at cycle  22 NSaved=   3.
 NSaved= 3 IEnMin= 3 EnMin= -435.768086257811     IErMin= 3 ErrMin= 2.53D-03
 ErrMax= 2.53D-03  0.00D+00 EMaxC= 1.00D-01 BMatC= 5.95D-04 BMatP= 2.48D-03
 IDIUse=3 WtCom= 9.77D-01 WtEn= 2.35D-02
 Large coefficients: NSaved=  3 BigCof=   18.30 CofMax=   10.00 Det=-4.82D-09
 Inversion failed.  Reducing to  2 matrices.
 Coeff-Com:  0.324D+00 0.676D+00
 Coeff-En:   0.286D+00 0.714D+00
 Coeff:      0.324D+00 0.676D+00
 Gap=     0.085 Goal=   None    Shift=    0.000
 Gap=     0.085 Goal=   None    Shift=    0.000
 RMSDP=2.13D-04 MaxDP=4.25D-03 DE=-5.29D-04 OVMax= 1.37D-02

 Cycle  23  Pass 1  IDiag  1:
 E= -435.768265105618     Delta-E=       -0.000178847807 Rises=F Damp=F
 DIIS: error= 2.72D-04 at cycle  23 NSaved=   3.
 NSaved= 3 IEnMin= 3 EnMin= -435.768265105618     IErMin= 3 ErrMin= 2.72D-04
 ErrMax= 2.72D-04  0.00D+00 EMaxC= 1.00D-01 BMatC= 6.07D-06 BMatP= 5.95D-04
 IDIUse=3 WtCom= 9.97D-01 WtEn= 2.72D-03
 Coeff-Com:  0.455D-01 0.169D+00 0.785D+00
 Coeff-En:   0.000D+00 0.000D+00 0.100D+01
 Coeff:      0.454D-01 0.169D+00 0.786D+00
 Gap=     0.085 Goal=   None    Shift=    0.000
 Gap=     0.085 Goal=   None    Shift=    0.000
 RMSDP=2.34D-05 MaxDP=3.19D-04 DE=-1.79D-04 OVMax= 9.54D-04

 Cycle  24  Pass 1  IDiag  1:
 E= -435.768267986580     Delta-E=       -0.000002880962 Rises=F Damp=F
 DIIS: error= 7.09D-05 at cycle  24 NSaved=   4.
 NSaved= 4 IEnMin= 4 EnMin= -435.768267986580     IErMin= 4 ErrMin= 7.09D-05
 ErrMax= 7.09D-05  0.00D+00 EMaxC= 1.00D-01 BMatC= 7.73D-07 BMatP= 6.07D-06
 IDIUse=1 WtCom= 1.00D+00 WtEn= 0.00D+00
 Coeff-Com:  0.200D-01 0.720D-01 0.424D+00 0.484D+00
 Coeff:      0.200D-01 0.720D-01 0.424D+00 0.484D+00
 Gap=     0.085 Goal=   None    Shift=    0.000
 Gap=     0.085 Goal=   None    Shift=    0.000
 RMSDP=2.22D-05 MaxDP=3.35D-04 DE=-2.88D-06 OVMax= 1.16D-03

 Cycle  25  Pass 1  IDiag  1:
 E= -435.768269700992     Delta-E=       -0.000001714412 Rises=F Damp=F
 DIIS: error= 9.72D-05 at cycle  25 NSaved=   5.
 NSaved= 5 IEnMin= 5 EnMin= -435.768269700992     IErMin= 4 ErrMin= 7.09D-05
 ErrMax= 9.72D-05  0.00D+00 EMaxC= 1.00D-01 BMatC= 1.61D-06 BMatP= 7.73D-07
 IDIUse=1 WtCom= 1.00D+00 WtEn= 0.00D+00
 Coeff-Com: -0.414D-01 0.967D-01 0.812D+00 0.558D+01-0.545D+01
 Coeff:     -0.414D-01 0.967D-01 0.812D+00 0.558D+01-0.545D+01
 Gap=     0.085 Goal=   None    Shift=    0.000
 Gap=     0.085 Goal=   None    Shift=    0.000
 RMSDP=1.75D-04 MaxDP=2.91D-03 DE=-1.71D-06 OVMax= 9.70D-03

 Cycle  26  Pass 1  IDiag  1:
 E= -435.768260050468     Delta-E=        0.000009650524 Rises=F Damp=F
 DIIS: error= 1.98D-05 at cycle  26 NSaved=   6.
 NSaved= 6 IEnMin= 5 EnMin= -435.768269700992     IErMin= 6 ErrMin= 1.98D-05
 ErrMax= 1.98D-05  0.00D+00 EMaxC= 1.00D-01 BMatC= 6.10D-08 BMatP= 7.73D-07
 IDIUse=1 WtCom= 1.00D+00 WtEn= 0.00D+00
 Coeff-Com: -0.182D-02-0.135D-01-0.856D-01-0.221D+00-0.546D-01 0.138D+01
 Coeff:     -0.182D-02-0.135D-01-0.856D-01-0.221D+00-0.546D-01 0.138D+01
 Gap=     0.085 Goal=   None    Shift=    0.000
 Gap=     0.085 Goal=   None    Shift=    0.000
 RMSDP=5.44D-05 MaxDP=9.25D-04 DE= 9.65D-06 OVMax= 3.01D-03

 Cycle  27  Pass 1  IDiag  1:
 E= -435.768259364114     Delta-E=        0.000000686353 Rises=F Damp=F
 DIIS: error= 1.06D-05 at cycle  27 NSaved=   7.
 NSaved= 7 IEnMin= 5 EnMin= -435.768269700992     IErMin= 7 ErrMin= 1.06D-05
 ErrMax= 1.06D-05  0.00D+00 EMaxC= 1.00D-01 BMatC= 8.87D-09 BMatP= 6.10D-08
 IDIUse=1 WtCom= 1.00D+00 WtEn= 0.00D+00
 Coeff-Com:  0.129D-02-0.370D-02-0.586D-01-0.265D+00 0.224D+00 0.123D+00
 Coeff-Com:  0.978D+00
 Coeff:      0.129D-02-0.370D-02-0.586D-01-0.265D+00 0.224D+00 0.123D+00
 Coeff:      0.978D+00
 Gap=     0.085 Goal=   None    Shift=    0.000
 Gap=     0.085 Goal=   None    Shift=    0.000
 RMSDP=7.42D-06 MaxDP=1.35D-04 DE= 6.86D-07 OVMax= 4.28D-04

 Cycle  28  Pass 1  IDiag  1:
 E= -435.768259355296     Delta-E=        0.000000008818 Rises=F Damp=F
 DIIS: error= 1.20D-06 at cycle  28 NSaved=   8.
 NSaved= 8 IEnMin= 5 EnMin= -435.768269700992     IErMin= 8 ErrMin= 1.20D-06
 ErrMax= 1.20D-06  0.00D+00 EMaxC= 1.00D-01 BMatC= 1.34D-10 BMatP= 8.87D-09
 IDIUse=1 WtCom= 1.00D+00 WtEn= 0.00D+00
 Coeff-Com:  0.624D-04 0.196D-02 0.689D-02 0.284D-01-0.207D-01-0.570D-01
 Coeff-Com:  0.376D-01 0.100D+01
 Coeff:      0.624D-04 0.196D-02 0.689D-02 0.284D-01-0.207D-01-0.570D-01
 Coeff:      0.376D-01 0.100D+01
 Gap=     0.085 Goal=   None    Shift=    0.000
 Gap=     0.085 Goal=   None    Shift=    0.000
 RMSDP=6.00D-07 MaxDP=1.05D-05 DE= 8.82D-09 OVMax= 3.45D-05

 Cycle  29  Pass 1  IDiag  1:
 E= -435.768259355282     Delta-E=        0.000000000014 Rises=F Damp=F
 DIIS: error= 3.94D-07 at cycle  29 NSaved=   9.
 NSaved= 9 IEnMin= 5 EnMin= -435.768269700992     IErMin= 9 ErrMin= 3.94D-07
 ErrMax= 3.94D-07  0.00D+00 EMaxC= 1.00D-01 BMatC= 1.17D-11 BMatP= 1.34D-10
 IDIUse=1 WtCom= 1.00D+00 WtEn= 0.00D+00
 Coeff-Com: -0.275D-04 0.349D-03 0.199D-02 0.419D-02-0.285D-02-0.903D-02
 Coeff-Com: -0.129D-01 0.139D+00 0.880D+00
 Coeff:     -0.275D-04 0.349D-03 0.199D-02 0.419D-02-0.285D-02-0.903D-02
 Coeff:     -0.129D-01 0.139D+00 0.880D+00
 Gap=     0.085 Goal=   None    Shift=    0.000
 Gap=     0.085 Goal=   None    Shift=    0.000
 RMSDP=4.99D-08 MaxDP=9.76D-07 DE= 1.45D-11 OVMax= 2.98D-06

 Cycle  30  Pass 1  IDiag  1:
 E= -435.768259355288     Delta-E=       -0.000000000006 Rises=F Damp=F
 DIIS: error= 2.03D-07 at cycle  30 NSaved=  10.
 NSaved=10 IEnMin= 5 EnMin= -435.768269700992     IErMin=10 ErrMin= 2.03D-07
 ErrMax= 2.03D-07  0.00D+00 EMaxC= 1.00D-01 BMatC= 1.89D-12 BMatP= 1.17D-11
 IDIUse=1 WtCom= 1.00D+00 WtEn= 0.00D+00
 Coeff-Com: -0.353D-04 0.404D-03 0.239D-02 0.501D-02-0.346D-02-0.104D-01
 Coeff-Com: -0.166D-01 0.160D+00 0.107D+01-0.206D+00
 Coeff:     -0.353D-04 0.404D-03 0.239D-02 0.501D-02-0.346D-02-0.104D-01
 Coeff:     -0.166D-01 0.160D+00 0.107D+01-0.206D+00
 Gap=     0.085 Goal=   None    Shift=    0.000
 Gap=     0.085 Goal=   None    Shift=    0.000
 RMSDP=2.21D-08 MaxDP=3.96D-07 DE=-6.42D-12 OVMax= 1.16D-06

 Cycle  31  Pass 1  IDiag  1:
 E= -435.768259355285     Delta-E=        0.000000000003 Rises=F Damp=F
 DIIS: error= 1.39D-07 at cycle  31 NSaved=  11.
 NSaved=11 IEnMin= 5 EnMin= -435.768269700992     IErMin=11 ErrMin= 1.39D-07
 ErrMax= 1.39D-07  0.00D+00 EMaxC= 1.00D-01 BMatC= 8.21D-13 BMatP= 1.89D-12
 IDIUse=1 WtCom= 1.00D+00 WtEn= 0.00D+00
 Coeff-Com:  0.869D-05-0.389D-04-0.393D-03-0.185D-02 0.178D-02 0.121D-02
 Coeff-Com:  0.353D-02-0.320D-01 0.764D-02-0.145D+01 0.247D+01
 Coeff:      0.869D-05-0.389D-04-0.393D-03-0.185D-02 0.178D-02 0.121D-02
 Coeff:      0.353D-02-0.320D-01 0.764D-02-0.145D+01 0.247D+01
 Gap=     0.085 Goal=   None    Shift=    0.000
 Gap=     0.085 Goal=   None    Shift=    0.000
 RMSDP=4.11D-08 MaxDP=7.45D-07 DE= 2.96D-12 OVMax= 2.19D-06

 Cycle  32  Pass 1  IDiag  1:
 E= -435.768259355284     Delta-E=        0.000000000001 Rises=F Damp=F
 DIIS: error= 9.99D-09 at cycle  32 NSaved=  12.
 NSaved=12 IEnMin= 5 EnMin= -435.768269700992     IErMin=12 ErrMin= 9.99D-09
 ErrMax= 9.99D-09  0.00D+00 EMaxC= 1.00D-01 BMatC= 4.15D-15 BMatP= 8.21D-13
 IDIUse=1 WtCom= 1.00D+00 WtEn= 0.00D+00
 Coeff-Com:  0.178D-05-0.125D-04-0.673D-04-0.161D-03 0.155D-03 0.176D-03
 Coeff-Com:  0.830D-03-0.556D-02-0.380D-01-0.373D-01 0.793D-01 0.100D+01
 Coeff:      0.178D-05-0.125D-04-0.673D-04-0.161D-03 0.155D-03 0.176D-03
 Coeff:      0.830D-03-0.556D-02-0.380D-01-0.373D-01 0.793D-01 0.100D+01
 Gap=     0.085 Goal=   None    Shift=    0.000
 Gap=     0.085 Goal=   None    Shift=    0.000
 RMSDP=4.90D-09 MaxDP=7.92D-08 DE= 1.36D-12 OVMax= 2.65D-07

 SCF Done:  E(UM062X) =  -435.768259355     A.U. after   32 cycles
            NFock= 32  Conv=0.49D-08     -V/T= 2.0019
 <Sx>= 0.0000 <Sy>= 0.0000 <Sz>= 0.0000 <S**2>= 0.0000 S= 0.0000
 <L.S>=  0.00000000000    
 KE= 4.349481111284D+02 PE=-1.063018686192D+03 EE= 1.781065056667D+02
 Annihilation of the first spin contaminant:
 S**2 before annihilation     0.0000,   after     0.0000
 Leave Link  502 at Mon Apr 21 19:41:06 2025, MaxMem=   536870912 cpu:              28.5 elap:               3.8
 (Enter /home/szhao/Apps/g16/l601.exe)
 Copying SCF densities to generalized density rwf, IOpCl= 1 IROHF=0.

 **********************************************************************

            Population analysis using the SCF density.

 **********************************************************************

 Orbital symmetries:
 Alpha Orbitals:
       Occupied  (SG) (SG) (SG) (PI) (PI) (SG) (SG) (SG) (SG) (PI)
                 (PI)
       Virtual   (PI) (PI) (SG) (SG) (SG) (PI) (PI) (PI) (PI) (SG)
                 (SG) (PI) (PI) (SG) (SG) (PI) (PI) (SG) (SG) (DLTA)
                 (DLTA) (PI) (PI) (SG) (PI) (PI) (DLTA) (DLTA)
                 (SG) (PI) (PI) (SG) (PI) (PI) (SG) (SG) (PI) (PI)
                 (SG) (SG) (SG)
 Beta  Orbitals:
       Occupied  (SG) (SG) (SG) (PI) (PI) (SG) (SG) (SG) (SG) (PI)
                 (PI)
       Virtual   (PI) (PI) (SG) (SG) (SG) (PI) (PI) (PI) (PI) (SG)
                 (SG) (PI) (PI) (SG) (SG) (PI) (PI) (SG) (SG) (DLTA)
                 (DLTA) (PI) (PI) (SG) (PI) (PI) (DLTA) (DLTA)
                 (SG) (PI) (PI) (SG) (PI) (PI) (SG) (SG) (PI) (PI)
                 (SG) (SG) (SG)
 The electronic state is 1-SG.
 Alpha  occ. eigenvalues --  -89.93945 -10.82271  -8.29755  -6.21605  -6.21605
 Alpha  occ. eigenvalues --   -6.21369  -0.73567  -0.70725  -0.30609  -0.28715
 Alpha  occ. eigenvalues --   -0.28715
 Alpha virt. eigenvalues --   -0.20235  -0.20235  -0.17677   0.02737   0.05583
 Alpha virt. eigenvalues --    0.05874   0.05874   0.08479   0.08479   0.08601
 Alpha virt. eigenvalues --    0.13839   0.35967   0.35967   0.36226   0.51568
 Alpha virt. eigenvalues --    0.52065   0.52065   0.60256   0.70523   0.82501
 Alpha virt. eigenvalues --    0.82502   0.83192   0.83192   0.84496   1.25300
 Alpha virt. eigenvalues --    1.25300   1.25562   1.25562   1.26216   1.67257
 Alpha virt. eigenvalues --    1.67257   1.70030   2.57243   2.57243   2.58172
 Alpha virt. eigenvalues --    7.74363  17.44461  17.44461  17.45970  23.10483
 Alpha virt. eigenvalues --  188.98749
  Beta  occ. eigenvalues --  -89.93945 -10.82271  -8.29755  -6.21605  -6.21605
  Beta  occ. eigenvalues --   -6.21369  -0.73567  -0.70725  -0.30609  -0.28715
  Beta  occ. eigenvalues --   -0.28715
  Beta virt. eigenvalues --   -0.20235  -0.20235  -0.17677   0.02737   0.05583
  Beta virt. eigenvalues --    0.05874   0.05874   0.08479   0.08479   0.08601
  Beta virt. eigenvalues --    0.13839   0.35967   0.35967   0.36226   0.51568
  Beta virt. eigenvalues --    0.52065   0.52065   0.60256   0.70523   0.82501
  Beta virt. eigenvalues --    0.82502   0.83192   0.83192   0.84496   1.25300
  Beta virt. eigenvalues --    1.25300   1.25562   1.25562   1.26216   1.67257
  Beta virt. eigenvalues --    1.67257   1.70030   2.57243   2.57243   2.58172
  Beta virt. eigenvalues --    7.74363  17.44461  17.44461  17.45970  23.10483
  Beta virt. eigenvalues --  188.98749
          Condensed to atoms (all electrons):
               1          2
     1  C    5.651270   0.134025
     2  S    0.134025  16.080680
          Atomic-Atomic Spin Densities.
               1          2
     1  C   -0.000000   0.000000
     2  S    0.000000   0.000000
 Mulliken charges and spin densities:
               1          2
     1  C    0.214705  -0.000000
     2  S   -0.214705   0.000000
 Sum of Mulliken charges =  -0.00000   0.00000
 Mulliken charges and spin densities with hydrogens summed into heavy atoms:
               1          2
     1  C    0.214705  -0.000000
     2  S   -0.214705   0.000000
 Electronic spatial extent (au):  <R**2>=            239.8246
 Charge=             -0.0000 electrons
 Dipole moment (field-independent basis, Debye):
    X=              0.0000    Y=              0.0000    Z=             -3.6188  Tot=              3.6188
 Quadrupole moment (field-independent basis, Debye-Ang):
   XX=            -20.8816   YY=            -20.8816   ZZ=            -12.3958
   XY=              0.0000   XZ=              0.0000   YZ=              0.0000
 Traceless Quadrupole moment (field-independent basis, Debye-Ang):
   XX=             -2.8286   YY=             -2.8286   ZZ=              5.6572
   XY=              0.0000   XZ=              0.0000   YZ=              0.0000
 Octapole moment (field-independent basis, Debye-Ang**2):
  XXX=              0.0000  YYY=              0.0000  ZZZ=            -22.2974  XYY=              0.0000
  XXY=              0.0000  XXZ=              3.0403  XZZ=              0.0000  YZZ=              0.0000
  YYZ=              3.0403  XYZ=              0.0000
 Hexadecapole moment (field-independent basis, Debye-Ang**3):
 XXXX=            -32.3849 YYYY=            -32.3849 ZZZZ=           -278.6455 XXXY=              0.0000
 XXXZ=              0.0000 YYYX=              0.0000 YYYZ=              0.0000 ZZZX=              0.0000
 ZZZY=              0.0000 XXYY=            -10.7950 XXZZ=            -65.7200 YYZZ=            -65.7200
 XXYZ=              0.0000 YYXZ=              0.0000 ZZXY=              0.0000
 N-N= 1.419581004158D+01 E-N=-1.063018685942D+03  KE= 4.349481111284D+02
 Symmetry A1   KE= 3.581400853543D+02
 Symmetry A2   KE= 7.246521822483D-49
 Symmetry B1   KE= 3.840401288775D+01
 Symmetry B2   KE= 3.840401288632D+01
 Symmetry A1   SP= 2.296246613345D-14
 Symmetry A2   SP=-3.832127060985D-51
 Symmetry B1   SP=-1.382067420161D-14
 Symmetry B2   SP= 1.199366498186D-15
                          Isotropic Fermi Contact Couplings
        Atom                 a.u.       MegaHertz       Gauss      10(-4) cm-1
     1  C(13)             -0.00000      -0.00000      -0.00000      -0.00000
     2  S(33)             -0.00000      -0.00000      -0.00000      -0.00000
 --------------------------------------------------------
       Center         ----  Spin Dipole Couplings  ----
                      3XX-RR        3YY-RR        3ZZ-RR
 --------------------------------------------------------
     1   Atom       -0.000001      0.000001      0.000000
     2   Atom        0.000002     -0.000002     -0.000000
 --------------------------------------------------------
                        XY            XZ            YZ
 --------------------------------------------------------
     1   Atom        0.000000      0.000000      0.000000
     2   Atom        0.000000      0.000000      0.000000
 --------------------------------------------------------


 ---------------------------------------------------------------------------------
              Anisotropic Spin Dipole Couplings in Principal Axis System
 ---------------------------------------------------------------------------------

       Atom             a.u.   MegaHertz   Gauss  10(-4) cm-1        Axes

              Baa    -0.0000    -0.000    -0.000    -0.000  1.0000  0.0000  0.0000
     1 C(13)  Bbb     0.0000     0.000     0.000     0.000  0.0000  0.0000  1.0000
              Bcc     0.0000     0.000     0.000     0.000 -0.0000  1.0000  0.0000
 
              Baa    -0.0000    -0.000    -0.000    -0.000 -0.0000  1.0000  0.0000
     2 S(33)  Bbb    -0.0000    -0.000    -0.000    -0.000  0.0000  0.0000  1.0000
              Bcc     0.0000     0.000     0.000     0.000  1.0000  0.0000  0.0000
 

 ---------------------------------------------------------------------------------

 No NMR shielding tensors so no spin-rotation constants.
 Leave Link  601 at Mon Apr 21 19:41:07 2025, MaxMem=   536870912 cpu:               2.4 elap:               0.4
 (Enter /home/szhao/Apps/g16/l607.exe)
 ******************************Gaussian NBO Version 3.1******************************
             N A T U R A L   A T O M I C   O R B I T A L   A N D
          N A T U R A L   B O N D   O R B I T A L   A N A L Y S I S
 ******************************Gaussian NBO Version 3.1******************************
       /RESON  / : Allow strongly delocalized NBO set

 Analyzing the SCF density

 Job title: Title Card Required                                             

 Storage needed:      8530 in NPA,     11006 in NBO ( 536870884 available)
 GSVD:  LWork=         400 too small for GESVD, short by        3920 words or        3920 for optimal perf.


 NATURAL POPULATIONS:  Natural atomic orbital occupancies 
                                                          
   NAO  Atom  No  lang   Type(AO)    Occupancy
 --------------------------------------------
     1    C    1  S      Cor( 1S)     2.00000
     2    C    1  S      Val( 2S)     1.99741
     3    C    1  S      Ryd( 3S)     0.00049
     4    C    1  S      Ryd( 4S)     0.00000
     5    C    1  S      Ryd( 5S)     0.00000
     6    C    1  px     Val( 2p)     0.69114
     7    C    1  px     Ryd( 3p)     0.00002
     8    C    1  px     Ryd( 4p)     0.00000
     9    C    1  px     Ryd( 5p)     0.00000
    10    C    1  py     Val( 2p)     0.69114
    11    C    1  py     Ryd( 3p)     0.00002
    12    C    1  py     Ryd( 4p)     0.00000
    13    C    1  py     Ryd( 5p)     0.00000
    14    C    1  pz     Val( 2p)     0.37226
    15    C    1  pz     Ryd( 3p)     0.00025
    16    C    1  pz     Ryd( 4p)     0.00002
    17    C    1  pz     Ryd( 5p)     0.00000
    18    C    1  dxy    Ryd( 3d)     0.00000
    19    C    1  dxz    Ryd( 3d)     0.00001
    20    C    1  dyz    Ryd( 3d)     0.00001
    21    C    1  dx2y2  Ryd( 3d)     0.00000
    22    C    1  dz2    Ryd( 3d)     0.00004
 
    23    S    2  S      Cor( 1S)     2.00000
    24    S    2  S      Cor( 2S)     2.00000
    25    S    2  S      Val( 3S)     1.99570
    26    S    2  S      Ryd( 4S)     0.00022
    27    S    2  S      Ryd( 5S)     0.00000
    28    S    2  S      Ryd( 7S)     0.00000
    29    S    2  S      Ryd( 6S)     0.00000
    30    S    2  px     Cor( 2p)     2.00000
    31    S    2  px     Val( 3p)     1.30875
    32    S    2  px     Ryd( 4p)     0.00004
    33    S    2  px     Ryd( 6p)     0.00000
    34    S    2  px     Ryd( 5p)     0.00000
    35    S    2  px     Ryd( 7p)     0.00000
    36    S    2  py     Cor( 2p)     2.00000
    37    S    2  py     Val( 3p)     1.30875
    38    S    2  py     Ryd( 4p)     0.00004
    39    S    2  py     Ryd( 6p)     0.00000
    40    S    2  py     Ryd( 5p)     0.00000
    41    S    2  py     Ryd( 7p)     0.00000
    42    S    2  pz     Cor( 2p)     2.00000
    43    S    2  pz     Val( 3p)     1.63337
    44    S    2  pz     Ryd( 4p)     0.00014
    45    S    2  pz     Ryd( 5p)     0.00002
    46    S    2  pz     Ryd( 6p)     0.00000
    47    S    2  pz     Ryd( 7p)     0.00000
    48    S    2  dxy    Ryd( 3d)     0.00000
    49    S    2  dxz    Ryd( 3d)     0.00004
    50    S    2  dyz    Ryd( 3d)     0.00004
    51    S    2  dx2y2  Ryd( 3d)     0.00000
    52    S    2  dz2    Ryd( 3d)     0.00009


 Summary of Natural Population Analysis:                  
                                                          
                                       Natural Population 
                Natural  -----------------------------------------------
    Atom  No    Charge         Core      Valence    Rydberg      Total
 -----------------------------------------------------------------------
      C    1    0.24719      2.00000     3.75195    0.00085     5.75281
      S    2   -0.24719      9.99999     6.24657    0.00063    16.24719
 =======================================================================
   * Total *   -0.00000     11.99999     9.99852    0.00148    22.00000

                                 Natural Population      
 --------------------------------------------------------
   Core                      11.99999 (100.0000% of  12)
   Valence                    9.99852 ( 99.9852% of  10)
   Natural Minimal Basis     21.99852 ( 99.9933% of  22)
   Natural Rydberg Basis      0.00148 (  0.0067% of  22)
 --------------------------------------------------------

    Atom  No          Natural Electron Configuration
 ----------------------------------------------------------------------------
      C    1      [core]2S( 2.00)2p( 1.75)
      S    2      [core]3S( 2.00)3p( 4.25)


 ***************************************************
 *******         Alpha spin orbitals         *******
 ***************************************************


 NATURAL POPULATIONS:  Natural atomic orbital occupancies 
                                                          
   NAO  Atom  No  lang   Type(AO)    Occupancy      Energy
 ----------------------------------------------------------
     1    C    1  S      Cor( 1S)     1.00000     -10.81468
     2    C    1  S      Val( 2S)     0.99870      -0.71514
     3    C    1  S      Ryd( 3S)     0.00025       0.15111
     4    C    1  S      Ryd( 4S)     0.00000       0.74344
     5    C    1  S      Ryd( 5S)     0.00000      22.96139
     6    C    1  px     Val( 2p)     0.34557      -0.23118
     7    C    1  px     Ryd( 3p)     0.00001       0.08286
     8    C    1  px     Ryd( 4p)     0.00000       0.56677
     9    C    1  px     Ryd( 5p)     0.00000       2.50827
    10    C    1  py     Val( 2p)     0.34557      -0.23118
    11    C    1  py     Ryd( 3p)     0.00001       0.08286
    12    C    1  py     Ryd( 4p)     0.00000       0.56677
    13    C    1  py     Ryd( 5p)     0.00000       2.50827
    14    C    1  pz     Val( 2p)     0.18613      -0.20164
    15    C    1  pz     Ryd( 3p)     0.00012       0.08919
    16    C    1  pz     Ryd( 4p)     0.00001       0.57353
    17    C    1  pz     Ryd( 5p)     0.00000       2.50745
    18    C    1  dxy    Ryd( 3d)     0.00000       1.25562
    19    C    1  dxz    Ryd( 3d)     0.00000       1.25325
    20    C    1  dyz    Ryd( 3d)     0.00000       1.25325
    21    C    1  dx2y2  Ryd( 3d)     0.00000       1.25562
    22    C    1  dz2    Ryd( 3d)     0.00002       1.25958
 
    23    S    2  S      Cor( 1S)     1.00000     -89.59335
    24    S    2  S      Cor( 2S)     1.00000      -8.53812
    25    S    2  S      Val( 3S)     0.99785      -0.83822
    26    S    2  S      Ryd( 4S)     0.00011       0.18434
    27    S    2  S      Ryd( 5S)     0.00000       0.89629
    28    S    2  S      Ryd( 7S)     0.00000     185.70885
    29    S    2  S      Ryd( 6S)     0.00000      10.67015
    30    S    2  px     Cor( 2p)     1.00000      -6.21604
    31    S    2  px     Val( 3p)     0.65438      -0.25765
    32    S    2  px     Ryd( 4p)     0.00002       0.13861
    33    S    2  px     Ryd( 5p)     0.00000       0.44380
    34    S    2  px     Ryd( 6p)     0.00000       1.81862
    35    S    2  px     Ryd( 7p)     0.00000      17.15386
    36    S    2  py     Cor( 2p)     1.00000      -6.21604
    37    S    2  py     Val( 3p)     0.65438      -0.25765
    38    S    2  py     Ryd( 4p)     0.00002       0.13861
    39    S    2  py     Ryd( 5p)     0.00000       0.44380
    40    S    2  py     Ryd( 6p)     0.00000       1.81862
    41    S    2  py     Ryd( 7p)     0.00000      17.15386
    42    S    2  pz     Cor( 2p)     1.00000      -6.21368
    43    S    2  pz     Val( 3p)     0.81668      -0.28318
    44    S    2  pz     Ryd( 4p)     0.00007       0.13252
    45    S    2  pz     Ryd( 5p)     0.00001       0.47486
    46    S    2  pz     Ryd( 6p)     0.00000       1.82541
    47    S    2  pz     Ryd( 7p)     0.00000      17.16291
    48    S    2  dxy    Ryd( 3d)     0.00000       0.82502
    49    S    2  dxz    Ryd( 3d)     0.00002       0.83166
    50    S    2  dyz    Ryd( 3d)     0.00002       0.83166
    51    S    2  dx2y2  Ryd( 3d)     0.00000       0.82501
    52    S    2  dz2    Ryd( 3d)     0.00004       0.83596

 WARNING:  Population inversion found on atom  S    2


 Summary of Natural Population Analysis:                  
                                                          
                                       Natural Population 
                Natural  -----------------------------------------------
    Atom  No    Charge         Core      Valence    Rydberg      Total
 -----------------------------------------------------------------------
      C    1    0.12360      1.00000     1.87598    0.00043     2.87640
      S    2   -0.12360      5.00000     3.12329    0.00031     8.12360
 =======================================================================
   * Total *   -0.00000      6.00000     4.99926    0.00074    11.00000

                                 Natural Population      
 --------------------------------------------------------
   Core                       6.00000 (100.0000% of   6)
   Valence                    4.99926 ( 99.9852% of   5)
   Natural Minimal Basis     10.99926 ( 99.9933% of  11)
   Natural Rydberg Basis      0.00074 (  0.0067% of  11)
 --------------------------------------------------------

    Atom  No          Natural Electron Configuration
 ----------------------------------------------------------------------------
      C    1      [core]2S( 1.00)2p( 0.88)
      S    2      [core]3S( 1.00)3p( 2.13)


 NATURAL BOND ORBITAL ANALYSIS, alpha spin orbitals:

                       Occupancies       Lewis Structure    Low   High
           Occ.    -------------------  -----------------   occ   occ
  Cycle   Thresh.   Lewis   Non-Lewis     CR  BD  3C  LP    (L)   (NL)   Dev
 =============================================================================
   1(1)    0.90    10.99993   0.00007      6   3   0   2     0      0    0.00
 -----------------------------------------------------------------------------

 Structure accepted: No low occupancy Lewis orbitals

 --------------------------------------------------------
   Core                      6.00000 (100.000% of   6)
   Valence Lewis             4.99993 ( 99.999% of   5)
  ==================       ============================
   Total Lewis              10.99993 ( 99.999% of  11)
  -----------------------------------------------------
   Valence non-Lewis         0.00000 (  0.000% of  11)
   Rydberg non-Lewis         0.00007 (  0.001% of  11)
  ==================       ============================
   Total non-Lewis           0.00007 (  0.001% of  11)
 --------------------------------------------------------


       (Occupancy)   Bond orbital/ Coefficients/ Hybrids
 ---------------------------------------------------------------------------------
     1. (1.00000) BD ( 1) C   1 - S   2  
                ( 34.56%)   0.5879* C   1 s(  0.00%)p 1.00(100.00%)d 0.00(  0.00%)
                                            0.0000  0.0000  0.0000  0.0000  0.0000
                                            1.0000 -0.0052  0.0001 -0.0000  0.0000
                                            0.0000  0.0000  0.0000  0.0000  0.0000
                                            0.0000  0.0000  0.0000  0.0035  0.0000
                                            0.0000  0.0000
                ( 65.44%)   0.8090* S   2 s(  0.00%)p 1.00(100.00%)d 0.00(  0.00%)
                                            0.0000  0.0000  0.0000  0.0000  0.0000
                                            0.0000  0.0000 -0.0000  1.0000 -0.0056
                                            0.0001 -0.0001 -0.0000  0.0000  0.0000
                                            0.0000  0.0000  0.0000  0.0000  0.0000
                                            0.0000  0.0000  0.0000  0.0000  0.0000
                                            0.0000 -0.0054  0.0000  0.0000  0.0000
     2. (1.00000) BD ( 2) C   1 - S   2  
                ( 34.56%)   0.5879* C   1 s(  0.00%)p 1.00(100.00%)d 0.00(  0.00%)
                                            0.0000  0.0000  0.0000  0.0000  0.0000
                                            0.0000  0.0000  0.0000  0.0000  1.0000
                                           -0.0052  0.0001 -0.0000  0.0000  0.0000
                                            0.0000  0.0000  0.0000  0.0000  0.0035
                                            0.0000  0.0000
                ( 65.44%)   0.8090* S   2 s(  0.00%)p 1.00(100.00%)d 0.00(  0.00%)
                                            0.0000  0.0000  0.0000  0.0000  0.0000
                                            0.0000  0.0000  0.0000  0.0000  0.0000
                                            0.0000  0.0000  0.0000  0.0000  1.0000
                                           -0.0056  0.0001 -0.0001 -0.0000  0.0000
                                            0.0000  0.0000  0.0000  0.0000  0.0000
                                            0.0000  0.0000 -0.0054  0.0000  0.0000
     3. (1.00000) BD ( 3) C   1 - S   2  
                ( 18.52%)   0.4303* C   1 s(  0.29%)p99.99( 99.71%)d 0.02(  0.01%)
                                           -0.0000 -0.0394 -0.0362 -0.0003  0.0000
                                            0.0000  0.0000  0.0000  0.0000  0.0000
                                            0.0000  0.0000  0.0000 -0.9983 -0.0195
                                            0.0011 -0.0001  0.0000  0.0000  0.0000
                                           -0.0000 -0.0080
                ( 81.48%)   0.9027* S   2 s(  1.14%)p87.06( 98.86%)d 0.00(  0.00%)
                                            0.0000  0.0000 -0.1060 -0.0114 -0.0000
                                           -0.0000 -0.0000  0.0000  0.0000  0.0000
                                            0.0000  0.0000  0.0000  0.0000  0.0000
                                            0.0000  0.0000  0.0000  0.0000 -0.0000
                                            0.9942  0.0092  0.0001  0.0000 -0.0000
                                            0.0000  0.0000  0.0000 -0.0000 -0.0063
     4. (1.00000) CR ( 1) C   1           s(100.00%)
                                            1.0000 -0.0000  0.0000  0.0000 -0.0000
                                            0.0000  0.0000  0.0000  0.0000  0.0000
                                            0.0000  0.0000  0.0000  0.0000 -0.0000
                                            0.0000 -0.0000  0.0000  0.0000  0.0000
                                            0.0000 -0.0000
     5. (1.00000) CR ( 1) S   2           s(100.00%)
                                            1.0000 -0.0000  0.0000 -0.0000 -0.0000
                                           -0.0000 -0.0000  0.0000  0.0000  0.0000
                                            0.0000  0.0000  0.0000  0.0000  0.0000
                                            0.0000  0.0000  0.0000  0.0000  0.0000
                                            0.0000 -0.0000 -0.0000  0.0000  0.0000
                                            0.0000  0.0000  0.0000  0.0000 -0.0000
     6. (1.00000) CR ( 2) S   2           s(100.00%)
                                           -0.0000  1.0000  0.0000 -0.0000 -0.0000
                                           -0.0000 -0.0000  0.0000  0.0000  0.0000
                                            0.0000  0.0000  0.0000  0.0000  0.0000
                                            0.0000  0.0000  0.0000  0.0000  0.0000
                                            0.0000 -0.0000 -0.0000  0.0000  0.0000
                                            0.0000  0.0000  0.0000  0.0000 -0.0000
     7. (1.00000) CR ( 3) S   2           s(  0.00%)p 1.00(100.00%)
                                            0.0000  0.0000  0.0000  0.0000  0.0000
                                            0.0000  0.0000  1.0000  0.0000  0.0000
                                            0.0000  0.0000  0.0000  0.0000  0.0000
                                            0.0000  0.0000  0.0000  0.0000  0.0000
                                            0.0000  0.0000  0.0000  0.0000  0.0000
                                            0.0000  0.0000  0.0000  0.0000  0.0000
     8. (1.00000) CR ( 4) S   2           s(  0.00%)p 1.00(100.00%)
                                            0.0000  0.0000  0.0000  0.0000  0.0000
                                            0.0000  0.0000  0.0000  0.0000  0.0000
                                            0.0000  0.0000  0.0000  1.0000  0.0000
                                            0.0000  0.0000  0.0000  0.0000  0.0000
                                            0.0000  0.0000  0.0000  0.0000  0.0000
                                            0.0000  0.0000  0.0000  0.0000  0.0000
     9. (1.00000) CR ( 5) S   2           s(  0.00%)p 1.00(100.00%)
                                            0.0000  0.0000 -0.0000  0.0000  0.0000
                                            0.0000  0.0000  0.0000  0.0000  0.0000
                                            0.0000  0.0000  0.0000  0.0000  0.0000
                                            0.0000  0.0000  0.0000  0.0000  1.0000
                                           -0.0000  0.0000  0.0000 -0.0000 -0.0000
                                            0.0000  0.0000  0.0000 -0.0000  0.0000
    10. (0.99999) LP ( 1) C   1           s( 99.84%)p 0.00(  0.16%)d 0.00(  0.00%)
                                            0.0000  0.9992 -0.0003 -0.0000  0.0000
                                            0.0000  0.0000  0.0000  0.0000  0.0000
                                            0.0000  0.0000  0.0000 -0.0395  0.0002
                                           -0.0030  0.0003  0.0000  0.0000  0.0000
                                           -0.0000  0.0025
    11. (0.99994) LP ( 1) S   2           s( 98.88%)p 0.01(  1.12%)d 0.00(  0.00%)
                                           -0.0000 -0.0000  0.9944 -0.0010 -0.0000
                                           -0.0000 -0.0000  0.0000  0.0000  0.0000
                                            0.0000  0.0000  0.0000  0.0000  0.0000
                                            0.0000  0.0000  0.0000  0.0000  0.0000
                                            0.1059 -0.0008 -0.0023  0.0007  0.0003
                                            0.0000  0.0000  0.0000  0.0000 -0.0033
    12. (0.00006) RY*( 1) C   1           s(  6.34%)p14.74( 93.52%)d 0.02(  0.14%)
    13. (0.00000) RY*( 2) C   1           s( 96.86%)p 0.03(  3.14%)
    14. (0.00000) RY*( 3) C   1           s(100.00%)p 0.00(  0.00%)
    15. (0.00000) RY*( 4) C   1           s(  0.00%)p 1.00(100.00%)
    16. (0.00000) RY*( 5) C   1           s(  0.00%)p 1.00(100.00%)
    17. (0.00000) RY*( 6) C   1           s(  0.00%)p 1.00(100.00%)
    18. (0.00000) RY*( 7) C   1           s(  0.00%)p 1.00(100.00%)
    19. (0.00000) RY*( 8) C   1           s(  0.00%)p 1.00(100.00%)
    20. (0.00000) RY*( 9) C   1           s(  0.00%)p 1.00(100.00%)
    21. (0.00000) RY*(10) C   1           s( 96.61%)p 0.04(  3.39%)d 0.00(  0.00%)
    22. (0.00000) RY*(11) C   1           s(  0.05%)p99.99( 99.95%)
    23. (0.00000) RY*(12) C   1           s(  0.00%)p 1.00(100.00%)
    24. (0.00000) RY*(13) C   1           s(  0.00%)p 0.00(  0.00%)d 1.00(100.00%)
    25. (0.00000) RY*(14) C   1           s(  0.00%)p 0.00(  0.00%)d 1.00(100.00%)
    26. (0.00000) RY*(15) C   1           s(  0.00%)p 0.00(  0.00%)d 1.00(100.00%)
    27. (0.00000) RY*(16) C   1           s(  0.00%)p 0.00(  0.00%)d 1.00(100.00%)
    28. (0.00000) RY*(17) C   1           s(  0.01%)p 1.00(  0.13%)d99.99( 99.86%)
    29. (0.00000) RY*( 1) S   2           s( 99.99%)p 0.00(  0.01%)
    30. (0.00000) RY*( 2) S   2           s(100.00%)
    31. (0.00000) RY*( 3) S   2           s(100.00%)
    32. (0.00000) RY*( 4) S   2           s(100.00%)
    33. (0.00000) RY*( 5) S   2           s(  0.00%)p 1.00(100.00%)
    34. (0.00000) RY*( 6) S   2           s(  0.00%)p 1.00(100.00%)
    35. (0.00000) RY*( 7) S   2           s(  0.00%)p 1.00(100.00%)
    36. (0.00000) RY*( 8) S   2           s(  0.00%)p 1.00(100.00%)
    37. (0.00000) RY*( 9) S   2           s(  0.00%)p 1.00(100.00%)
    38. (0.00000) RY*(10) S   2           s(  0.00%)p 1.00(100.00%)
    39. (0.00000) RY*(11) S   2           s(  0.00%)p 1.00(100.00%)
    40. (0.00000) RY*(12) S   2           s(  0.00%)p 1.00(100.00%)
    41. (0.00000) RY*(13) S   2           s(  0.00%)p 1.00(100.00%)
    42. (0.00000) RY*(14) S   2           s(  0.00%)p 1.00(100.00%)
    43. (0.00000) RY*(15) S   2           s(  0.00%)p 1.00(100.00%)
    44. (0.00000) RY*(16) S   2           s(  0.00%)p 1.00(100.00%)
    45. (0.00000) RY*(17) S   2           s(  0.00%)p 0.00(  0.00%)d 1.00(100.00%)
    46. (0.00000) RY*(18) S   2           s(  0.00%)p 0.00(  0.00%)d 1.00(100.00%)
    47. (0.00000) RY*(19) S   2           s(  0.00%)p 0.00(  0.00%)d 1.00(100.00%)
    48. (0.00000) RY*(20) S   2           s(  0.00%)p 0.00(  0.00%)d 1.00(100.00%)
    49. (0.00000) RY*(21) S   2           s(  0.00%)p 0.00(  0.00%)d 1.00( 99.99%)
    50. (0.00000) BD*( 1) C   1 - S   2  
                ( 65.44%)   0.8090* C   1 s(  0.00%)p 1.00(100.00%)d 0.00(  0.00%)
                ( 34.56%)  -0.5879* S   2 s(  0.00%)p 1.00(100.00%)d 0.00(  0.00%)
    51. (0.00000) BD*( 2) C   1 - S   2  
                ( 65.44%)   0.8090* C   1 s(  0.00%)p 1.00(100.00%)d 0.00(  0.00%)
                ( 34.56%)  -0.5879* S   2 s(  0.00%)p 1.00(100.00%)d 0.00(  0.00%)
    52. (0.00000) BD*( 3) C   1 - S   2  
                ( 81.48%)   0.9027* C   1 s(  0.29%)p99.99( 99.71%)d 0.02(  0.01%)
                ( 18.52%)  -0.4303* S   2 s(  1.14%)p87.06( 98.86%)d 0.00(  0.00%)


 NHO Directionality and "Bond Bending" (deviations from line of nuclear centers)

         [Thresholds for printing:  angular deviation  >  1.0 degree]
                                    hybrid p-character > 25.0%
                                    orbital occupancy  >  0.10e

                                Line of Centers        Hybrid 1              Hybrid 2
                                ---------------  -------------------   ------------------
                NBO               Theta   Phi    Theta   Phi    Dev    Theta   Phi    Dev
 ========================================================================================
     1. BD (   1) C   1 - S   2     0.0    0.0    90.0    0.0  90.0     90.0    0.0  90.0
     2. BD (   2) C   1 - S   2     0.0    0.0    90.0   90.0  90.0     90.0   90.0  90.0


 Second Order Perturbation Theory Analysis of Fock Matrix in NBO Basis

     Threshold for printing:   0.25 kcal/mol
                                                                              E(2)  E(j)-E(i) F(i,j)
         Donor NBO (i)                     Acceptor NBO (j)                 kcal/mol   a.u.    a.u. 
 ===================================================================================================

 within unit  1
       None above threshold


 Natural Bond Orbitals (Summary):

                                                            Principal Delocalizations
           NBO                        Occupancy    Energy   (geminal,vicinal,remote)
 ====================================================================================
 Molecular unit  1  (CS)
     1. BD (   1) C   1 - S   2          1.00000    -0.28716   
     2. BD (   2) C   1 - S   2          1.00000    -0.28716   
     3. BD (   3) C   1 - S   2          1.00000    -0.31483   
     4. CR (   1) C   1                  1.00000   -10.81468   
     5. CR (   1) S   2                  1.00000   -89.59335   
     6. CR (   2) S   2                  1.00000    -8.53812   
     7. CR (   3) S   2                  1.00000    -6.21604   
     8. CR (   4) S   2                  1.00000    -6.21604   
     9. CR (   5) S   2                  1.00000    -6.21368   
    10. LP (   1) C   1                  0.99999    -0.71516   
    11. LP (   1) S   2                  0.99994    -0.83248   
    12. RY*(   1) C   1                  0.00006     0.10231   
    13. RY*(   2) C   1                  0.00000     0.73355   
    14. RY*(   3) C   1                  0.00000    22.96144   
    15. RY*(   4) C   1                  0.00000     0.08281   
    16. RY*(   5) C   1                  0.00000     0.56677   
    17. RY*(   6) C   1                  0.00000     2.50827   
    18. RY*(   7) C   1                  0.00000     0.08281   
    19. RY*(   8) C   1                  0.00000     0.56677   
    20. RY*(   9) C   1                  0.00000     2.50827   
    21. RY*(  10) C   1                  0.00000     0.13860   
    22. RY*(  11) C   1                  0.00000     0.58629   
    23. RY*(  12) C   1                  0.00000     2.50600   
    24. RY*(  13) C   1                  0.00000     1.25562   
    25. RY*(  14) C   1                  0.00000     1.25322   
    26. RY*(  15) C   1                  0.00000     1.25322   
    27. RY*(  16) C   1                  0.00000     1.25562   
    28. RY*(  17) C   1                  0.00000     1.25726   
    29. RY*(   1) S   2                  0.00000     0.18439   
    30. RY*(   2) S   2                  0.00000     0.89629   
    31. RY*(   3) S   2                  0.00000   185.70885   
    32. RY*(   4) S   2                  0.00000    10.67015   
    33. RY*(   5) S   2                  0.00000     0.13854   
    34. RY*(   6) S   2                  0.00000     0.44380   
    35. RY*(   7) S   2                  0.00000     1.81862   
    36. RY*(   8) S   2                  0.00000    17.15386   
    37. RY*(   9) S   2                  0.00000     0.13854   
    38. RY*(  10) S   2                  0.00000     0.44380   
    39. RY*(  11) S   2                  0.00000     1.81862   
    40. RY*(  12) S   2                  0.00000    17.15386   
    41. RY*(  13) S   2                  0.00000     0.13260   
    42. RY*(  14) S   2                  0.00000     0.47486   
    43. RY*(  15) S   2                  0.00000     1.82541   
    44. RY*(  16) S   2                  0.00000    17.16290   
    45. RY*(  17) S   2                  0.00000     0.82502   
    46. RY*(  18) S   2                  0.00000     0.83165   
    47. RY*(  19) S   2                  0.00000     0.83165   
    48. RY*(  20) S   2                  0.00000     0.82501   
    49. RY*(  21) S   2                  0.00000     0.83595   
    50. BD*(   1) C   1 - S   2          0.00000    -0.20151   
    51. BD*(   2) C   1 - S   2          0.00000    -0.20151   
    52. BD*(   3) C   1 - S   2          0.00000    -0.17559   
       -------------------------------
              Total Lewis   10.99993  ( 99.9994%)
        Valence non-Lewis    0.00000  (  0.0000%)
        Rydberg non-Lewis    0.00007  (  0.0006%)
       -------------------------------
            Total unit  1   11.00000  (100.0000%)
           Charge unit  1    0.00000
 Sorting of NBOs:                    5    4    6    7    8    9   11   10    3    1
 Sorting of NBOs:                    2   51   50   52   15   18   12   41   37   33
 Sorting of NBOs:                   21   29   38   34   42   19   16   22   13   48
 Sorting of NBOs:                   45   46   47   49   30   26   25   24   27   28
 Sorting of NBOs:                   35   39   43   23   20   17   32   36   40   44
 Sorting of NBOs:                   14   31
 Reordering of NBOs for storage:     5    4    6    7    8    9   11   10    3    1
 Reordering of NBOs for storage:     2   51   50   52   15   18   12   41   37   33
 Reordering of NBOs for storage:    21   29   38   34   42   19   16   22   13   48
 Reordering of NBOs for storage:    45   46   47   49   30   26   25   24   27   28
 Reordering of NBOs for storage:    35   39   43   23   20   17   32   36   40   44
 Reordering of NBOs for storage:    14   31
 Labels of output orbitals:  CR  CR  CR  CR  CR  CR  LP  LP  BD  BD  BD  BD* BD* BD* RY* RY* RY* RY* RY* RY* 
 Labels of output orbitals:  RY* RY* RY* RY* RY* RY* RY* RY* RY* RY* RY* RY* RY* RY* RY* RY* RY* RY* RY* RY* 
 Labels of output orbitals:  RY* RY* RY* RY* RY* RY* RY* RY* RY* RY* RY* RY* 
 GSVD:  LWork=       -2009 too small for GESVD, short by        9020 words or        9020 for optimal perf.


 ***************************************************
 *******         Beta  spin orbitals         *******
 ***************************************************


 NATURAL POPULATIONS:  Natural atomic orbital occupancies 
                                                          
   NAO  Atom  No  lang   Type(AO)    Occupancy      Energy
 ----------------------------------------------------------
     1    C    1  S      Cor( 1S)     1.00000     -10.81468
     2    C    1  S      Val( 2S)     0.99870      -0.71514
     3    C    1  S      Ryd( 3S)     0.00025       0.15111
     4    C    1  S      Ryd( 4S)     0.00000       0.74344
     5    C    1  S      Ryd( 5S)     0.00000      22.96139
     6    C    1  px     Val( 2p)     0.34557      -0.23118
     7    C    1  px     Ryd( 3p)     0.00001       0.08286
     8    C    1  px     Ryd( 4p)     0.00000       0.56677
     9    C    1  px     Ryd( 5p)     0.00000       2.50827
    10    C    1  py     Val( 2p)     0.34557      -0.23118
    11    C    1  py     Ryd( 3p)     0.00001       0.08286
    12    C    1  py     Ryd( 4p)     0.00000       0.56677
    13    C    1  py     Ryd( 5p)     0.00000       2.50827
    14    C    1  pz     Val( 2p)     0.18613      -0.20164
    15    C    1  pz     Ryd( 3p)     0.00012       0.08919
    16    C    1  pz     Ryd( 4p)     0.00001       0.57353
    17    C    1  pz     Ryd( 5p)     0.00000       2.50745
    18    C    1  dxy    Ryd( 3d)     0.00000       1.25562
    19    C    1  dxz    Ryd( 3d)     0.00000       1.25325
    20    C    1  dyz    Ryd( 3d)     0.00000       1.25325
    21    C    1  dx2y2  Ryd( 3d)     0.00000       1.25562
    22    C    1  dz2    Ryd( 3d)     0.00002       1.25958
 
    23    S    2  S      Cor( 1S)     1.00000     -89.59335
    24    S    2  S      Cor( 2S)     1.00000      -8.53812
    25    S    2  S      Val( 3S)     0.99785      -0.83822
    26    S    2  S      Ryd( 4S)     0.00011       0.18434
    27    S    2  S      Ryd( 5S)     0.00000       0.89629
    28    S    2  S      Ryd( 7S)     0.00000     185.70885
    29    S    2  S      Ryd( 6S)     0.00000      10.67015
    30    S    2  px     Cor( 2p)     1.00000      -6.21604
    31    S    2  px     Val( 3p)     0.65438      -0.25765
    32    S    2  px     Ryd( 4p)     0.00002       0.13861
    33    S    2  px     Ryd( 5p)     0.00000       0.44380
    34    S    2  px     Ryd( 6p)     0.00000       1.81862
    35    S    2  px     Ryd( 7p)     0.00000      17.15386
    36    S    2  py     Cor( 2p)     1.00000      -6.21604
    37    S    2  py     Val( 3p)     0.65438      -0.25765
    38    S    2  py     Ryd( 4p)     0.00002       0.13861
    39    S    2  py     Ryd( 5p)     0.00000       0.44380
    40    S    2  py     Ryd( 6p)     0.00000       1.81862
    41    S    2  py     Ryd( 7p)     0.00000      17.15386
    42    S    2  pz     Cor( 2p)     1.00000      -6.21368
    43    S    2  pz     Val( 3p)     0.81668      -0.28318
    44    S    2  pz     Ryd( 4p)     0.00007       0.13252
    45    S    2  pz     Ryd( 5p)     0.00001       0.47486
    46    S    2  pz     Ryd( 6p)     0.00000       1.82541
    47    S    2  pz     Ryd( 7p)     0.00000      17.16291
    48    S    2  dxy    Ryd( 3d)     0.00000       0.82502
    49    S    2  dxz    Ryd( 3d)     0.00002       0.83166
    50    S    2  dyz    Ryd( 3d)     0.00002       0.83166
[...]
                                            0.0000  0.0000  0.0000  0.0000 -0.0000
                                            0.0000 -0.0000  0.0000  0.0000  0.0000
                                           -0.0000 -0.0000
     5. (1.00000) CR ( 1) S   2           s(100.00%)
                                            1.0000 -0.0000  0.0000 -0.0000 -0.0000
                                           -0.0000 -0.0000  0.0000  0.0000  0.0000
                                            0.0000  0.0000  0.0000  0.0000  0.0000
                                            0.0000  0.0000  0.0000  0.0000  0.0000
                                            0.0000 -0.0000 -0.0000  0.0000  0.0000
                                            0.0000  0.0000  0.0000 -0.0000 -0.0000
     6. (1.00000) CR ( 2) S   2           s(100.00%)
                                           -0.0000  1.0000  0.0000 -0.0000 -0.0000
                                           -0.0000 -0.0000  0.0000  0.0000  0.0000
                                            0.0000  0.0000  0.0000  0.0000  0.0000
                                            0.0000  0.0000  0.0000  0.0000  0.0000
                                            0.0000 -0.0000 -0.0000  0.0000  0.0000
                                            0.0000  0.0000  0.0000 -0.0000 -0.0000
     7. (1.00000) CR ( 3) S   2           s(  0.00%)p 1.00(100.00%)
                                            0.0000  0.0000  0.0000  0.0000  0.0000
                                            0.0000  0.0000  1.0000  0.0000  0.0000
                                            0.0000  0.0000  0.0000  0.0000  0.0000
                                            0.0000  0.0000  0.0000  0.0000  0.0000
                                            0.0000  0.0000  0.0000  0.0000  0.0000
                                            0.0000  0.0000  0.0000  0.0000  0.0000
     8. (1.00000) CR ( 4) S   2           s(  0.00%)p 1.00(100.00%)
                                            0.0000  0.0000  0.0000  0.0000  0.0000
                                            0.0000  0.0000  0.0000  0.0000  0.0000
                                            0.0000  0.0000  0.0000  1.0000  0.0000
                                            0.0000  0.0000  0.0000  0.0000  0.0000
                                            0.0000  0.0000  0.0000  0.0000  0.0000
                                            0.0000  0.0000  0.0000  0.0000  0.0000
     9. (1.00000) CR ( 5) S   2           s(  0.00%)p 1.00(100.00%)
                                            0.0000  0.0000 -0.0000  0.0000  0.0000
                                            0.0000  0.0000  0.0000  0.0000  0.0000
                                            0.0000  0.0000  0.0000  0.0000  0.0000
                                            0.0000  0.0000  0.0000  0.0000  1.0000
                                           -0.0000  0.0000  0.0000 -0.0000 -0.0000
                                            0.0000  0.0000  0.0000  0.0000  0.0000
    10. (0.99999) LP ( 1) C   1           s( 99.84%)p 0.00(  0.16%)d 0.00(  0.00%)
                                            0.0000  0.9992 -0.0003 -0.0000  0.0000
                                            0.0000  0.0000  0.0000  0.0000  0.0000
                                            0.0000  0.0000  0.0000 -0.0395  0.0002
                                           -0.0030  0.0003  0.0000  0.0000  0.0000
                                            0.0000  0.0025
    11. (0.99994) LP ( 1) S   2           s( 98.88%)p 0.01(  1.12%)d 0.00(  0.00%)
                                           -0.0000 -0.0000  0.9944 -0.0010 -0.0000
                                           -0.0000 -0.0000  0.0000  0.0000  0.0000
                                            0.0000  0.0000  0.0000  0.0000  0.0000
                                            0.0000  0.0000  0.0000  0.0000  0.0000
                                            0.1059 -0.0008 -0.0023  0.0007  0.0003
                                            0.0000  0.0000  0.0000 -0.0000 -0.0033
    12. (0.00006) RY*( 1) C   1           s(  6.34%)p14.74( 93.52%)d 0.02(  0.14%)
    13. (0.00000) RY*( 2) C   1           s( 96.86%)p 0.03(  3.14%)
    14. (0.00000) RY*( 3) C   1           s(100.00%)p 0.00(  0.00%)
    15. (0.00000) RY*( 4) C   1           s(  0.00%)p 1.00(100.00%)
    16. (0.00000) RY*( 5) C   1           s(  0.00%)p 1.00(100.00%)
    17. (0.00000) RY*( 6) C   1           s(  0.00%)p 1.00(100.00%)
    18. (0.00000) RY*( 7) C   1           s(  0.00%)p 1.00(100.00%)
    19. (0.00000) RY*( 8) C   1           s(  0.00%)p 1.00(100.00%)
    20. (0.00000) RY*( 9) C   1           s(  0.00%)p 1.00(100.00%)
    21. (0.00000) RY*(10) C   1           s( 96.61%)p 0.04(  3.39%)d 0.00(  0.00%)
    22. (0.00000) RY*(11) C   1           s(  0.05%)p99.99( 99.95%)
    23. (0.00000) RY*(12) C   1           s(  0.00%)p 1.00(100.00%)
    24. (0.00000) RY*(13) C   1           s(  0.00%)p 0.00(  0.00%)d 1.00(100.00%)
    25. (0.00000) RY*(14) C   1           s(  0.00%)p 0.00(  0.00%)d 1.00(100.00%)
    26. (0.00000) RY*(15) C   1           s(  0.00%)p 0.00(  0.00%)d 1.00(100.00%)
    27. (0.00000) RY*(16) C   1           s(  0.00%)p 0.00(  0.00%)d 1.00(100.00%)
    28. (0.00000) RY*(17) C   1           s(  0.01%)p 1.00(  0.13%)d99.99( 99.86%)
    29. (0.00000) RY*( 1) S   2           s( 99.99%)p 0.00(  0.01%)
    30. (0.00000) RY*( 2) S   2           s(100.00%)
    31. (0.00000) RY*( 3) S   2           s(100.00%)
    32. (0.00000) RY*( 4) S   2           s(100.00%)
    33. (0.00000) RY*( 5) S   2           s(  0.00%)p 1.00(100.00%)
    34. (0.00000) RY*( 6) S   2           s(  0.00%)p 1.00(100.00%)
    35. (0.00000) RY*( 7) S   2           s(  0.00%)p 1.00(100.00%)
    36. (0.00000) RY*( 8) S   2           s(  0.00%)p 1.00(100.00%)
    37. (0.00000) RY*( 9) S   2           s(  0.00%)p 1.00(100.00%)
    38. (0.00000) RY*(10) S   2           s(  0.00%)p 1.00(100.00%)
    39. (0.00000) RY*(11) S   2           s(  0.00%)p 1.00(100.00%)
    40. (0.00000) RY*(12) S   2           s(  0.00%)p 1.00(100.00%)
    41. (0.00000) RY*(13) S   2           s(  0.00%)p 1.00(100.00%)
    42. (0.00000) RY*(14) S   2           s(  0.00%)p 1.00(100.00%)
    43. (0.00000) RY*(15) S   2           s(  0.00%)p 1.00(100.00%)
    44. (0.00000) RY*(16) S   2           s(  0.00%)p 1.00(100.00%)
    45. (0.00000) RY*(17) S   2           s(  0.00%)p 0.00(  0.00%)d 1.00(100.00%)
    46. (0.00000) RY*(18) S   2           s(  0.00%)p 0.00(  0.00%)d 1.00(100.00%)
    47. (0.00000) RY*(19) S   2           s(  0.00%)p 0.00(  0.00%)d 1.00(100.00%)
    48. (0.00000) RY*(20) S   2           s(  0.00%)p 0.00(  0.00%)d 1.00(100.00%)
    49. (0.00000) RY*(21) S   2           s(  0.00%)p 0.00(  0.00%)d 1.00( 99.99%)
    50. (0.00000) BD*( 1) C   1 - S   2  
                ( 65.44%)   0.8090* C   1 s(  0.00%)p 1.00(100.00%)d 0.00(  0.00%)
                ( 34.56%)  -0.5879* S   2 s(  0.00%)p 1.00(100.00%)d 0.00(  0.00%)
    51. (0.00000) BD*( 2) C   1 - S   2  
                ( 65.44%)   0.8090* C   1 s(  0.00%)p 1.00(100.00%)d 0.00(  0.00%)
                ( 34.56%)  -0.5879* S   2 s(  0.00%)p 1.00(100.00%)d 0.00(  0.00%)
    52. (0.00000) BD*( 3) C   1 - S   2  
                ( 81.48%)   0.9027* C   1 s(  0.29%)p99.99( 99.71%)d 0.02(  0.01%)
                ( 18.52%)  -0.4303* S   2 s(  1.14%)p87.06( 98.86%)d 0.00(  0.00%)


 NHO Directionality and "Bond Bending" (deviations from line of nuclear centers)

         [Thresholds for printing:  angular deviation  >  1.0 degree]
                                    hybrid p-character > 25.0%
                                    orbital occupancy  >  0.10e

                                Line of Centers        Hybrid 1              Hybrid 2
                                ---------------  -------------------   ------------------
                NBO               Theta   Phi    Theta   Phi    Dev    Theta   Phi    Dev
 ========================================================================================
     1. BD (   1) C   1 - S   2     0.0    0.0    90.0    0.0  90.0     90.0    0.0  90.0
     2. BD (   2) C   1 - S   2     0.0    0.0    90.0   90.0  90.0     90.0   90.0  90.0


 Second Order Perturbation Theory Analysis of Fock Matrix in NBO Basis

     Threshold for printing:   0.25 kcal/mol
                                                                              E(2)  E(j)-E(i) F(i,j)
         Donor NBO (i)                     Acceptor NBO (j)                 kcal/mol   a.u.    a.u. 
 ===================================================================================================

 within unit  1
       None above threshold


 Natural Bond Orbitals (Summary):

                                                            Principal Delocalizations
           NBO                        Occupancy    Energy   (geminal,vicinal,remote)
 ====================================================================================
 Molecular unit  1  (CS)
     1. BD (   1) C   1 - S   2          1.00000    -0.28716   
     2. BD (   2) C   1 - S   2          1.00000    -0.28716   
     3. BD (   3) C   1 - S   2          1.00000    -0.31483   
     4. CR (   1) C   1                  1.00000   -10.81468   
     5. CR (   1) S   2                  1.00000   -89.59335   
     6. CR (   2) S   2                  1.00000    -8.53812   
     7. CR (   3) S   2                  1.00000    -6.21604   
     8. CR (   4) S   2                  1.00000    -6.21604   
     9. CR (   5) S   2                  1.00000    -6.21368   
    10. LP (   1) C   1                  0.99999    -0.71516   
    11. LP (   1) S   2                  0.99994    -0.83248   
    12. RY*(   1) C   1                  0.00006     0.10231   
    13. RY*(   2) C   1                  0.00000     0.73355   
    14. RY*(   3) C   1                  0.00000    22.96144   
    15. RY*(   4) C   1                  0.00000     0.08281   
    16. RY*(   5) C   1                  0.00000     0.56677   
    17. RY*(   6) C   1                  0.00000     2.50827   
    18. RY*(   7) C   1                  0.00000     0.08281   
    19. RY*(   8) C   1                  0.00000     0.56677   
    20. RY*(   9) C   1                  0.00000     2.50827   
    21. RY*(  10) C   1                  0.00000     0.13860   
    22. RY*(  11) C   1                  0.00000     0.58629   
    23. RY*(  12) C   1                  0.00000     2.50600   
    24. RY*(  13) C   1                  0.00000     1.25562   
    25. RY*(  14) C   1                  0.00000     1.25322   
    26. RY*(  15) C   1                  0.00000     1.25322   
    27. RY*(  16) C   1                  0.00000     1.25562   
    28. RY*(  17) C   1                  0.00000     1.25726   
    29. RY*(   1) S   2                  0.00000     0.18439   
    30. RY*(   2) S   2                  0.00000     0.89629   
    31. RY*(   3) S   2                  0.00000   185.70885   
    32. RY*(   4) S   2                  0.00000    10.67015   
    33. RY*(   5) S   2                  0.00000     0.13854   
    34. RY*(   6) S   2                  0.00000     0.44380   
    35. RY*(   7) S   2                  0.00000     1.81862   
    36. RY*(   8) S   2                  0.00000    17.15386   
    37. RY*(   9) S   2                  0.00000     0.13854   
    38. RY*(  10) S   2                  0.00000     0.44380   
    39. RY*(  11) S   2                  0.00000     1.81862   
    40. RY*(  12) S   2                  0.00000    17.15386   
    41. RY*(  13) S   2                  0.00000     0.13260   
    42. RY*(  14) S   2                  0.00000     0.47486   
    43. RY*(  15) S   2                  0.00000     1.82541   
    44. RY*(  16) S   2                  0.00000    17.16290   
    45. RY*(  17) S   2                  0.00000     0.82502   
    46. RY*(  18) S   2                  0.00000     0.83165   
    47. RY*(  19) S   2                  0.00000     0.83165   
    48. RY*(  20) S   2                  0.00000     0.82501   
    49. RY*(  21) S   2                  0.00000     0.83595   
    50. BD*(   1) C   1 - S   2          0.00000    -0.20151   
    51. BD*(   2) C   1 - S   2          0.00000    -0.20151   
    52. BD*(   3) C   1 - S   2          0.00000    -0.17559   
       -------------------------------
              Total Lewis   10.99993  ( 99.9994%)
        Valence non-Lewis    0.00000  (  0.0000%)
        Rydberg non-Lewis    0.00007  (  0.0006%)
       -------------------------------
            Total unit  1   11.00000  (100.0000%)
           Charge unit  1    0.00000
 Sorting of NBOs:                    5    4    6    8    7    9   11   10    3    2
 Sorting of NBOs:                    1   50   51   52   18   15   12   41   33   37
 Sorting of NBOs:                   21   29   34   38   42   16   19   22   13   48
 Sorting of NBOs:                   45   47   46   49   30   25   26   24   27   28
 Sorting of NBOs:                   39   35   43   23   17   20   32   40   36   44
 Sorting of NBOs:                   14   31
 Reordering of NBOs for storage:     5    4    6    8    7    9   11   10    3    2
 Reordering of NBOs for storage:     1   50   51   52   18   15   12   41   33   37
 Reordering of NBOs for storage:    21   29   34   38   42   16   19   22   13   48
 Reordering of NBOs for storage:    45   47   46   49   30   25   26   24   27   28
 Reordering of NBOs for storage:    39   35   43   23   17   20   32   40   36   44
 Reordering of NBOs for storage:    14   31
 Labels of output orbitals:  CR  CR  CR  CR  CR  CR  LP  LP  BD  BD  BD  BD* BD* BD* RY* RY* RY* RY* RY* RY* 
 Labels of output orbitals:  RY* RY* RY* RY* RY* RY* RY* RY* RY* RY* RY* RY* RY* RY* RY* RY* RY* RY* RY* RY* 
 Labels of output orbitals:  RY* RY* RY* RY* RY* RY* RY* RY* RY* RY* RY* RY* 
 GSVD:  LWork=       -2009 too small for GESVD, short by        9020 words or        9020 for optimal perf.
 Leave Link  607 at Mon Apr 21 19:41:08 2025, MaxMem=   536870912 cpu:               7.3 elap:               1.0
 (Enter /home/szhao/Apps/g16/l701.exe)
 ... and contract with generalized density number  0.
 Compute integral first derivatives.
 Leave Link  701 at Mon Apr 21 19:41:10 2025, MaxMem=   536870912 cpu:               1.7 elap:               0.3
 (Enter /home/szhao/Apps/g16/l702.exe)
 L702 exits ... SP integral derivatives will be done elsewhere.
 Leave Link  702 at Mon Apr 21 19:41:11 2025, MaxMem=   536870912 cpu:               0.7 elap:               0.2
 (Enter /home/szhao/Apps/g16/l703.exe)
 Integral derivatives from FoFJK, PRISM(SPDF).
 Compute integral first derivatives, UseDBF=F ICtDFT=           0.
 Calling FoFJK, ICntrl=      2127 FMM=F ISym2X=1 I1Cent= 0 IOpClX= 1 NMat=1 NMatS=1 NMatT=0.
 FoFJK:  IHMeth= 1 ICntrl=    2127 DoSepK=F KAlg= 0 I1Cent=           0 FoldK=F
 IRaf=         0 NMat=       1 IRICut=       1 DoRegI=T DoRafI=F ISym2E= 1 IDoP0=0 IntGTp=1.
 FoFCou: FMM=F IPFlag=           0 FMFlag=      100000 FMFlg1=         800
         NFxFlg=           0 DoJE=F BraDBF=F KetDBF=F FulRan=T
         wScrn=  0.000000 ICntrl=      2127 IOpCl=  1 I1Cent=           0 NGrid=           0
         NMat0=    1 NMatS0=      1 NMatT0=    0 NMatD0=    1 NMtDS0=    0 NMtDT0=    0
 Petite list used in FoFCou.
 Leave Link  703 at Mon Apr 21 19:41:11 2025, MaxMem=   536870912 cpu:               4.3 elap:               0.6
 (Enter /home/szhao/Apps/g16/l716.exe)
 Dipole        = 0.00000000D+00 0.00000000D+00-1.42375906D+00
 ***** Axes restored to original set *****
 -------------------------------------------------------------------
 Center     Atomic                   Forces (Hartrees/Bohr)
 Number     Number              X              Y              Z
 -------------------------------------------------------------------
      1        6           0.042323489   -0.000000000   -0.000000000
      2       16          -0.042323489   -0.000000000   -0.000000000
 -------------------------------------------------------------------
 Cartesian Forces:  Max     0.042323489 RMS     0.024435478
 Z-matrix is all fixed cartesians, so copy forces.
 Force constants in Cartesian coordinates: 
                1             2             3             4             5 
      1  0.100000D+01
      2  0.000000D+00  0.100000D+01
      3  0.000000D+00  0.000000D+00  0.100000D+01
      4  0.000000D+00  0.000000D+00  0.000000D+00  0.100000D+01
      5  0.000000D+00  0.000000D+00  0.000000D+00  0.000000D+00  0.100000D+01
      6  0.000000D+00  0.000000D+00  0.000000D+00  0.000000D+00  0.000000D+00
                6 
      6  0.100000D+01
 Leave Link  716 at Mon Apr 21 19:41:12 2025, MaxMem=   536870912 cpu:               0.6 elap:               0.2
 (Enter /home/szhao/Apps/g16/l103.exe)

 GradGradGradGradGradGradGradGradGradGradGradGradGradGradGradGradGradGrad
 Berny optimization.
 Search for a local minimum.
 Step number   1 out of a maximum of    2
 All quantities printed in internal units (Hartrees-Bohrs-Radians)
 Second derivative matrix not updated -- first step.
 The second derivative matrix:
                          X1        Y1        Z1        X2        Y2
           X1           1.00000
           Y1           0.00000   1.00000
           Z1           0.00000   0.00000   1.00000
           X2           0.00000   0.00000   0.00000   1.00000
           Y2           0.00000   0.00000   0.00000   0.00000   1.00000
           Z2           0.00000   0.00000   0.00000   0.00000   0.00000
                          Z2
           Z2           1.00000
 ITU=  0
     Eigenvalues ---    1.00000   1.00000   1.00000   1.00000   1.00000
     Eigenvalues ---    1.00000
 Angle between quadratic step and forces=   0.00 degrees.
 ClnCor:  largest displacement from symmetrization is 0.00D+00 for atom     0.
 Linear search not attempted -- first point.
 ClnCor:  largest displacement from symmetrization is 0.00D+00 for atom     0.
 B after Tr=     0.000000    0.000000    0.000000
         Rot=    1.000000    0.000000    0.000000    0.000000 Ang=   0.00 deg.
 Variable       Old X    -DE/DX   Delta X   Delta X   Delta X     New X
                                 (Linear)    (Quad)   (Total)
    X1       -3.38128   0.04232   0.00000   0.04232   0.04232  -3.33896
    Y1        0.00000  -0.00000   0.00000   0.00000   0.00000   0.00000
    Z1        0.00000  -0.00000   0.00000   0.00000   0.00000   0.00000
    X2        3.38128  -0.04232   0.00000  -0.04232  -0.04232   3.33896
    Y2        0.00000  -0.00000   0.00000   0.00000   0.00000   0.00000
    Z2        0.00000  -0.00000   0.00000   0.00000   0.00000   0.00000
         Item               Value     Threshold  Converged?
 Maximum Force            0.042323     0.000450     NO 
 RMS     Force            0.024435     0.000300     NO 
 Maximum Displacement     0.042323     0.001800     NO 
 RMS     Displacement     0.024435     0.001200     NO 
 Predicted change in Energy=-1.791278D-03
 GradGradGradGradGradGradGradGradGradGradGradGradGradGradGradGradGradGrad

 Leave Link  103 at Mon Apr 21 19:41:12 2025, MaxMem=   536870912 cpu:               0.4 elap:               0.1
 (Enter /home/szhao/Apps/g16/l9999.exe)
 1\1\GINC-NODE03\Force\UM062X\6-311+G(d,p)\C1S1\SZHAO\21-Apr-2025\0\\#p
  UM062X/6-311+G** force int=superfine pop=saveNBO\\Title Card Required
 \\0,1\C,-1.789296,0.,0.\S,1.789296,0.,0.\\Version=ES64L-G16RevA.03\Sta
 te=1-SG\HF=-435.7682594\S2=0.\S2-1=0.\S2A=0.\RMSD=4.905e-09\RMSF=2.444
 e-02\Dipole=-1.4237591,0.,0.\Quadrupole=4.2059589,-2.1029795,-2.102979
 5,0.,0.,0.\PG=C*V [C*(C1S1)]\\@


 YOU ARE IN A MAZE OF TWISTY LITTLE PASSAGES.
 Job cpu time:       0 days  0 hours  1 minutes  1.4 seconds.
 Elapsed time:       0 days  0 hours  0 minutes  9.2 seconds.
 File lengths (MBytes):  RWF=     17 Int=      0 D2E=      0 Chk=      2 Scr=      2
 Normal termination of Gaussian 16 at Mon Apr 21 19:41:13 2025.
