 Entering Gaussian System, Link 0=g16
 Initial command:
 /home/szhao/Apps/g16/l1.exe "/home/szhao/tmp/Gau-19685.inp" -scrdir="/home/szhao/tmp/"
 Default is to use a total of  16 processors:
                               16 via shared-memory
                                1 via Linda
 Entering Link 1 = /home/szhao/Apps/g16/l1.exe PID=     19686.
  
 Copyright (c) 1988,1990,1992,1993,1995,1998,2003,2009,2016,
            Gaussian, Inc.  All Rights Reserved.
  
 This is part of the Gaussian(R) 16 program.  It is based on
 the Gaussian(R) 09 system (copyright 2009, Gaussian, Inc.),
 the Gaussian(R) 03 system (copyright 2003, Gaussian, Inc.),
 the Gaussian(R) 98 system (copyright 1998, Gaussian, Inc.),
 the Gaussian(R) 94 system (copyright 1995, Gaussian, Inc.),
 the Gaussian 92(TM) system (copyright 1992, Gaussian, Inc.),
 the Gaussian 90(TM) system (copyright 1990, Gaussian, Inc.),
 the Gaussian 88(TM) system (copyright 1988, Gaussian, Inc.),
 the Gaussian 86(TM) system (copyright 1986, Carnegie Mellon
 University), and the Gaussian 82(TM) system (copyright 1983,
 Carnegie Mellon University). Gaussian is a federally registered
 trademark of Gaussian, Inc.
  
 This software contains proprietary and confidential information,
 including trade secrets, belonging to Gaussian, Inc.
  
 This software is provided under written license and may be
 used, copied, transmitted, or stored only in accord with that
 written license.
  
 The following legend is applicable only to US Government
 contracts under FAR:
  
                    RESTRICTED RIGHTS LEGEND
  
 Use, reproduction and disclosure by the US Government is
 subject to restrictions as set forth in subparagraphs (a)
 and (c) of the Commercial Computer Software - Restricted
 Rights clause in FAR 52.227-19.
  
 Gaussian, Inc.
 340 Quinnipiac St., Bldg. 40, Wallingford CT 06492
  
  
 ---------------------------------------------------------------
 Warning -- This program may not be used in any manner that
 competes with the business of Gaussian, Inc. or will provide
 assistance to any competitor of Gaussian, Inc.  The licensee
 of this program is prohibited from giving any competitor of
 Gaussian, Inc. access to this program.  By using this program,
 the user acknowledges that Gaussian, Inc. is engaged in the
 business of creating and licensing software in the field of
 computational chemistry and represents and warrants to the
 licensee that it is not a competitor of Gaussian, Inc. and that
 it will not use this program in any manner prohibited above.
 ---------------------------------------------------------------
  

 Cite this work as:
 Gaussian 16, Revision A.03,
 M. J. Frisch, G. W. Trucks, H. B. Schlegel, G. E. Scuseria, 
 M. A. Robb, J. R. Cheeseman, G. Scalmani, V. Barone, 
 G. A. Petersson, H. Nakatsuji, X. Li, M. Caricato, A. V. Marenich, 
 J. Bloino, B. G. Janesko, R. Gomperts, B. Mennucci, H. P. Hratchian, 
 J. V. Ortiz, A. F. Izmaylov, J. L. Sonnenberg, D. Williams-Young, 
 F. Ding, F. Lipparini, F. Egidi, J. Goings, B. Peng, A. Petrone, 
 T. Henderson, D. Ranasinghe, V. G. Zakrzewski, J. Gao, N. Rega, 
 G. Zheng, W. Liang, M. Hada, M. Ehara, K. Toyota, R. Fukuda, 
 J. Hasegawa, M. Ishida, T. Nakajima, Y. Honda, O. Kitao, H. Nakai, 
 T. Vreven, K. Throssell, J. A. Montgomery, Jr., J. E. Peralta, 
 F. Ogliaro, M. J. Bearpark, J. J. Heyd, E. N. Brothers, K. N. Kudin, 
 V. N. Staroverov, T. A. Keith, R. Kobayashi, J. Normand, 
 K. Raghavachari, A. P. Rendell, J. C. Burant, S. S. Iyengar, 
 J. Tomasi, M. Cossi, J. M. Millam, M. Klene, C. Adamo, R. Cammi, 
 J. W. Ochterski, R. L. Martin, K. Morokuma, O. Farkas, 
 J. B. Foresman, and D. J. Fox, Gaussian, Inc., Wallingford CT, 2016.
 
 ******************************************
 Gaussian 16:  ES64L-G16RevA.03 25-Dec-2016
                21-Apr-2025 
 ******************************************
 %chk=opt.chk
 %mem=4GB
 %nprocshared=8
 Will use up to    8 processors via shared memory.
 --------------------------------------------
 #p opt UM062X/6-311+G** nosymm int=superfine
 --------------------------------------------
 1/18=20,19=15,26=5,38=1/1,3;
 2/9=110,12=2,15=1,17=6,18=5,40=1/2;
 3/5=4,6=6,7=111,11=2,25=1,30=1,71=1,74=-55,75=-7,116=2/1,2,3;
 4//1;
 5/5=2,38=5/2;
 6/7=2,8=2,9=2,10=2,28=1/1;
 7/30=1/1,2,3,16;
 1/18=20,19=15,26=5/3(2);
 2/9=110,15=1/2;
 99//99;
 2/9=110,15=1/2;
 3/5=4,6=6,7=111,11=2,25=1,30=1,71=1,74=-55,75=-7,116=2/1,2,3;
 4/5=5,16=3,69=1/1;
 5/5=2,38=5/2;
 7/30=1/1,2,3,16;
 1/18=20,19=15,26=5/3(-5);
 2/9=110,15=1/2;
 6/7=2,8=2,9=2,10=2,19=2,28=1/1;
 99/9=1/99;
 Leave Link    1 at Mon Apr 21 19:03:42 2025, MaxMem=   536870912 cpu:               0.9 elap:               0.1
 (Enter /home/szhao/Apps/g16/l101.exe)
 -------------------
 Title Card Required
 -------------------
 Symbolic Z-matrix:
 Charge =  0 Multiplicity = 1
 C                    -1   -1.40626   0.        0. 
 P                    -1    1.40626   0.        0. 
 H                    0     1.58635  -1.40534   0. 
 H                    0    -1.7564    1.01301   0.20044 
 H                    0     1.58635   0.10934   1.40108 
 H                    0    -1.75641  -0.27857  -0.99437 
 H                    0    -1.84171  -0.67759   0.73247 
 
 Add virtual bond connecting atoms P2         and C1         Dist= 5.31D+00.
 ITRead=  2  2  0  0  0  0  0
 MicOpt= -2 -2 -1 -1 -1 -1 -1
 NAtoms=      7 NQM=        5 NQMF=       2 NMMI=      0 NMMIF=      0
                NMic=       0 NMicF=      0.
                    Isotopes and Nuclear Properties:
 (Nuclear quadrupole moments (NQMom) in fm**2, nuclear magnetic moments (NMagM)
  in nuclear magnetons)

  Atom         1           2           3           4           5           6           7
 IAtWgt=          12          31           1           1           1           1           1
 AtmWgt=  12.0000000  30.9737634   1.0078250   1.0078250   1.0078250   1.0078250   1.0078250
 NucSpn=           0           1           1           1           1           1           1
 AtZEff=  -0.0000000  -0.0000000  -0.0000000  -0.0000000  -0.0000000  -0.0000000  -0.0000000
 NQMom=    0.0000000   0.0000000   0.0000000   0.0000000   0.0000000   0.0000000   0.0000000
 NMagM=    0.0000000   1.1316000   2.7928460   2.7928460   2.7928460   2.7928460   2.7928460
 AtZNuc=   6.0000000  15.0000000   1.0000000   1.0000000   1.0000000   1.0000000   1.0000000
 Leave Link  101 at Mon Apr 21 19:03:42 2025, MaxMem=   536870912 cpu:               2.9 elap:               0.4
 (Enter /home/szhao/Apps/g16/l103.exe)

 GradGradGradGradGradGradGradGradGradGradGradGradGradGradGradGradGradGrad
 Berny optimization.
 Initialization pass.
                           ----------------------------
                           !    Initial Parameters    !
                           ! (Angstroms and Degrees)  !
 --------------------------                            --------------------------
 ! Name  Definition              Value          Derivative Info.                !
 --------------------------------------------------------------------------------
 ! X1    R(1,-1)                -1.4063         Frozen                          !
 ! Y1    R(1,-2)                 0.0            Frozen                          !
 ! Z1    R(1,-3)                 0.0            Frozen                          !
 ! X2    R(2,-1)                 1.4063         Frozen                          !
 ! Y2    R(2,-2)                 0.0            Frozen                          !
 ! Z2    R(2,-3)                 0.0            Frozen                          !
 ! R1    R(1,4)                  1.0904         estimate D2E/DX2                !
 ! R2    R(1,6)                  1.0904         estimate D2E/DX2                !
 ! R3    R(1,7)                  1.0887         estimate D2E/DX2                !
 ! R4    R(2,3)                  1.4168         estimate D2E/DX2                !
 ! R5    R(2,5)                  1.4168         estimate D2E/DX2                !
 ! A1    A(2,1,4)              108.7301         estimate D2E/DX2                !
 ! A2    A(2,1,6)              108.7303         estimate D2E/DX2                !
 ! A3    A(2,1,7)              113.5765         estimate D2E/DX2                !
 ! A4    A(4,1,6)              107.5695         estimate D2E/DX2                !
 ! A5    A(4,1,7)              109.0326         estimate D2E/DX2                !
 ! A6    A(6,1,7)              109.0325         estimate D2E/DX2                !
 ! A7    A(1,2,3)               97.3022         estimate D2E/DX2                !
 ! A8    A(1,2,5)               97.3022         estimate D2E/DX2                !
 ! A9    A(3,2,5)               93.4621         estimate D2E/DX2                !
 ! D1    D(4,1,2,3)            168.8076         estimate D2E/DX2                !
 ! D2    D(4,1,2,5)             74.3454         estimate D2E/DX2                !
 ! D3    D(6,1,2,3)            -74.3502         estimate D2E/DX2                !
 ! D4    D(6,1,2,5)           -168.8124         estimate D2E/DX2                !
 ! D5    D(7,1,2,3)             47.2287         estimate D2E/DX2                !
 ! D6    D(7,1,2,5)            -47.2335         estimate D2E/DX2                !
 --------------------------------------------------------------------------------
 Trust Radius=3.00D-01 FncErr=1.00D-07 GrdErr=1.00D-07 EigMax=2.50D+02 EigMin=1.00D-04
 Number of steps in this run=     36 maximum allowed number of steps=    100.
 GradGradGradGradGradGradGradGradGradGradGradGradGradGradGradGradGradGrad

 Leave Link  103 at Mon Apr 21 19:03:43 2025, MaxMem=   536870912 cpu:               0.2 elap:               0.2
 (Enter /home/szhao/Apps/g16/l202.exe)
                          Input orientation:                          
 ---------------------------------------------------------------------
 Center     Atomic      Atomic             Coordinates (Angstroms)
 Number     Number       Type             X           Y           Z
 ---------------------------------------------------------------------
      1          6           0       -1.406264    0.000000    0.000000
      2         15           0        1.406264    0.000000    0.000000
      3          1           0        1.586347   -1.405338    0.000000
      4          1           0       -1.756403    1.013014    0.200443
      5          1           0        1.586347    0.109336    1.401080
      6          1           0       -1.756406   -0.278565   -0.994372
      7          1           0       -1.841711   -0.677591    0.732467
 ---------------------------------------------------------------------
                    Distance matrix (angstroms):
                    1          2          3          4          5
     1  C    0.000000
     2  P    2.812527   0.000000
     3  H    3.306159   1.416829   0.000000
     4  H    1.090400   3.326986   4.130687   0.000000
     5  H    3.306160   1.416831   2.063313   3.664988   0.000000
     6  H    1.090401   3.326988   3.665022   1.759477   4.130696
     7  H    1.088692   3.397790   3.580182   1.774393   3.580207
                    6          7
     6  H    0.000000
     7  H    1.774393   0.000000
 Symmetry turned off by external request.
 Stoichiometry    CH5P
 Framework group  C1[X(CH5P)]
 Deg. of freedom    15
 Full point group                 C1      NOp   1
 Rotational constants (GHZ):          72.1264130           5.5802156           5.5554516
 Leave Link  202 at Mon Apr 21 19:03:43 2025, MaxMem=   536870912 cpu:               0.2 elap:               0.1
 (Enter /home/szhao/Apps/g16/l301.exe)
 Standard basis: 6-311+G(d,p) (5D, 7F)
 Ernie: Thresh=  0.10000D-02 Tol=  0.10000D-05 Strict=F.
    82 basis functions,   126 primitive gaussians,    84 cartesian basis functions
    13 alpha electrons       13 beta electrons
       nuclear repulsion energy        47.9011796351 Hartrees.
 IExCor= 4336 DFT=T Ex+Corr=M062X ExCW=0 ScaHFX=  0.540000
 ScaDFX=  1.000000  1.000000  1.000000  1.000000 ScalE2=  1.000000  1.000000
 IRadAn=      7 IRanWt=     -1 IRanGd=            0 ICorTp=0 IEmpDi=  4
 NAtoms=    7 NActive=    7 NUniq=    7 SFac= 1.00D+00 NAtFMM=   60 NAOKFM=F Big=F
 Integral buffers will be    131072 words long.
 Raffenetti 2 integral format.
 Two-electron integral symmetry is turned off.
 Leave Link  301 at Mon Apr 21 19:03:43 2025, MaxMem=   536870912 cpu:               0.5 elap:               0.1
 (Enter /home/szhao/Apps/g16/l302.exe)
 NPDir=0 NMtPBC=     1 NCelOv=     1 NCel=       1 NClECP=     1 NCelD=      1
         NCelK=      1 NCelE2=     1 NClLst=     1 CellRange=     0.0.
 One-electron integrals computed using PRISM.
 NBasis=    82 RedAO= T EigKep=  3.10D-03  NBF=    82
 NBsUse=    82 1.00D-06 EigRej= -1.00D+00 NBFU=    82
 Precomputing XC quadrature grid using
 IXCGrd= 4 IRadAn=           7 IRanWt=          -1 IRanGd=           0 AccXCQ= 0.00D+00.
 Generated NRdTot=       0 NPtTot=           0 NUsed=           0 NTot=          32
 NSgBfM=    84    84    84    84    84 MxSgAt=     7 MxSgA2=     7.
 Leave Link  302 at Mon Apr 21 19:03:44 2025, MaxMem=   536870912 cpu:               1.8 elap:               0.3
 (Enter /home/szhao/Apps/g16/l303.exe)
 DipDrv:  MaxL=1.
 Leave Link  303 at Mon Apr 21 19:03:44 2025, MaxMem=   536870912 cpu:               1.1 elap:               0.2
 (Enter /home/szhao/Apps/g16/l401.exe)
 ExpMin= 3.48D-02 ExpMax= 7.75D+04 ExpMxC= 2.65D+03 IAcc=3 IRadAn=         7 AccDes= 0.00D+00
 Harris functional with IExCor= 1009 and IRadAn=       7 diagonalized for initial guess.
 HarFok:  IExCor= 1009 AccDes= 0.00D+00 IRadAn=         7 IDoV= 1 UseB2=F ITyADJ=14
 ICtDFT=  3500011 ScaDFX=  1.000000  1.000000  1.000000  1.000000
 FoFCou: FMM=F IPFlag=           0 FMFlag=      100000 FMFlg1=           0
         NFxFlg=           0 DoJE=T BraDBF=F KetDBF=T FulRan=T
         wScrn=  0.000000 ICntrl=       500 IOpCl=  0 I1Cent=   200000004 NGrid=           0
         NMat0=    1 NMatS0=      1 NMatT0=    0 NMatD0=    1 NMtDS0=    0 NMtDT0=    0
 Symmetry not used in FoFCou.
 Harris En= -382.212443736357    
 JPrj=0 DoOrth=F DoCkMO=F.
 Initial guess <Sx>= 0.0000 <Sy>= 0.0000 <Sz>= 0.0000 <S**2>= 0.0000 S= 0.0000
 Leave Link  401 at Mon Apr 21 19:03:45 2025, MaxMem=   536870912 cpu:               3.7 elap:               0.5
 (Enter /home/szhao/Apps/g16/l502.exe)
 Keep R1 and R2 ints in memory in canonical form, NReq=18891869.
 FoFCou: FMM=F IPFlag=           0 FMFlag=           0 FMFlg1=           0
         NFxFlg=           0 DoJE=F BraDBF=F KetDBF=F FulRan=T
         wScrn=  0.000000 ICntrl=       600 IOpCl=  0 I1Cent=           0 NGrid=           0
         NMat0=    1 NMatS0=   3403 NMatT0=    0 NMatD0=    1 NMtDS0=    0 NMtDT0=    0
 Symmetry not used in FoFCou.
 Two-electron integral symmetry not used.
 UHF open shell SCF:
 Using DIIS extrapolation, IDIIS=  1040.
 NGot=   536870912 LenX=   525271507 LenY=   525264010
 Requested convergence on RMS density matrix=1.00D-08 within 128 cycles.
 Requested convergence on MAX density matrix=1.00D-06.
 Requested convergence on             energy=1.00D-06.
 No special actions if energy rises.

 Cycle   1  Pass 1  IDiag  1:
 E= -382.139035188605    
 DIIS: error= 4.26D-02 at cycle   1 NSaved=   1.
 NSaved= 1 IEnMin= 1 EnMin= -382.139035188605     IErMin= 1 ErrMin= 4.26D-02
 ErrMax= 4.26D-02  0.00D+00 EMaxC= 1.00D-01 BMatC= 6.88D-01 BMatP= 6.88D-01
 IDIUse=3 WtCom= 5.74D-01 WtEn= 4.26D-01
 Coeff-Com:  0.100D+01
 Coeff-En:   0.100D+01
 Coeff:      0.100D+01
 Gap=     0.217 Goal=   None    Shift=    0.000
 Gap=     0.217 Goal=   None    Shift=    0.000
 GapD=    0.217 DampG=1.000 DampE=0.500 DampFc=0.5000 IDamp=-1.
 Damping current iteration by 5.00D-01
 RMSDP=8.20D-03 MaxDP=2.42D-01              OVMax= 6.49D-01

 Cycle   2  Pass 1  IDiag  1:
 E= -382.204823110545     Delta-E=       -0.065787921941 Rises=F Damp=T
 DIIS: error= 9.80D-03 at cycle   2 NSaved=   2.
 NSaved= 2 IEnMin= 2 EnMin= -382.204823110545     IErMin= 2 ErrMin= 9.80D-03
 ErrMax= 9.80D-03  0.00D+00 EMaxC= 1.00D-01 BMatC= 6.49D-02 BMatP= 6.88D-01
 IDIUse=3 WtCom= 9.02D-01 WtEn= 9.80D-02
 Coeff-Com:  0.139D+00 0.861D+00
 Coeff-En:   0.306D+00 0.694D+00
 Coeff:      0.155D+00 0.845D+00
 Gap=     0.446 Goal=   None    Shift=    0.000
 Gap=     0.446 Goal=   None    Shift=    0.000
 RMSDP=2.54D-03 MaxDP=5.73D-02 DE=-6.58D-02 OVMax= 4.22D-01

 Cycle   3  Pass 1  IDiag  1:
 E= -382.321086330862     Delta-E=       -0.116263220317 Rises=F Damp=F
 DIIS: error= 5.19D-03 at cycle   3 NSaved=   3.
 NSaved= 3 IEnMin= 3 EnMin= -382.321086330862     IErMin= 3 ErrMin= 5.19D-03
 ErrMax= 5.19D-03  0.00D+00 EMaxC= 1.00D-01 BMatC= 8.56D-03 BMatP= 6.49D-02
 IDIUse=3 WtCom= 9.48D-01 WtEn= 5.19D-02
 Coeff-Com: -0.299D-01 0.206D+00 0.824D+00
 Coeff-En:   0.000D+00 0.000D+00 0.100D+01
 Coeff:     -0.284D-01 0.195D+00 0.833D+00
 Gap=     0.215 Goal=   None    Shift=    0.000
 Gap=     0.215 Goal=   None    Shift=    0.000
 RMSDP=1.03D-03 MaxDP=2.72D-02 DE=-1.16D-01 OVMax= 7.35D-02

 Cycle   4  Pass 1  IDiag  1:
 E= -382.324742601546     Delta-E=       -0.003656270684 Rises=F Damp=F
 DIIS: error= 2.12D-03 at cycle   4 NSaved=   4.
 NSaved= 4 IEnMin= 4 EnMin= -382.324742601546     IErMin= 4 ErrMin= 2.12D-03
 ErrMax= 2.12D-03  0.00D+00 EMaxC= 1.00D-01 BMatC= 2.10D-03 BMatP= 8.56D-03
 IDIUse=3 WtCom= 9.79D-01 WtEn= 2.12D-02
 Coeff-Com:  0.969D-02-0.234D-01 0.259D+00 0.754D+00
 Coeff-En:   0.000D+00 0.000D+00 0.798D-01 0.920D+00
 Coeff:      0.948D-02-0.229D-01 0.255D+00 0.758D+00
 Gap=     0.222 Goal=   None    Shift=    0.000
 Gap=     0.222 Goal=   None    Shift=    0.000
 RMSDP=2.90D-04 MaxDP=7.93D-03 DE=-3.66D-03 OVMax= 1.26D-02

 Cycle   5  Pass 1  IDiag  1:
 E= -382.325455665813     Delta-E=       -0.000713064267 Rises=F Damp=F
 DIIS: error= 5.19D-04 at cycle   5 NSaved=   5.
 NSaved= 5 IEnMin= 5 EnMin= -382.325455665813     IErMin= 5 ErrMin= 5.19D-04
 ErrMax= 5.19D-04  0.00D+00 EMaxC= 1.00D-01 BMatC= 8.42D-05 BMatP= 2.10D-03
 IDIUse=3 WtCom= 9.95D-01 WtEn= 5.19D-03
 Coeff-Com:  0.609D-02-0.233D-01 0.179D-01 0.752D-01 0.924D+00
 Coeff-En:   0.000D+00 0.000D+00 0.000D+00 0.000D+00 0.100D+01
 Coeff:      0.606D-02-0.232D-01 0.178D-01 0.748D-01 0.924D+00
 Gap=     0.222 Goal=   None    Shift=    0.000
 Gap=     0.222 Goal=   None    Shift=    0.000
 RMSDP=7.87D-05 MaxDP=1.39D-03 DE=-7.13D-04 OVMax= 3.10D-03

 Cycle   6  Pass 1  IDiag  1:
 E= -382.325486940048     Delta-E=       -0.000031274235 Rises=F Damp=F
 DIIS: error= 7.21D-05 at cycle   6 NSaved=   6.
 NSaved= 6 IEnMin= 6 EnMin= -382.325486940048     IErMin= 6 ErrMin= 7.21D-05
 ErrMax= 7.21D-05  0.00D+00 EMaxC= 1.00D-01 BMatC= 4.14D-06 BMatP= 8.42D-05
 IDIUse=1 WtCom= 1.00D+00 WtEn= 0.00D+00
 Coeff-Com:  0.836D-04-0.563D-04-0.110D-01-0.671D-01 0.129D+00 0.949D+00
 Coeff:      0.836D-04-0.563D-04-0.110D-01-0.671D-01 0.129D+00 0.949D+00
 Gap=     0.222 Goal=   None    Shift=    0.000
 Gap=     0.222 Goal=   None    Shift=    0.000
 RMSDP=2.77D-05 MaxDP=5.63D-04 DE=-3.13D-05 OVMax= 1.47D-03

 Cycle   7  Pass 1  IDiag  1:
 E= -382.325489281280     Delta-E=       -0.000002341233 Rises=F Damp=F
 DIIS: error= 1.78D-05 at cycle   7 NSaved=   7.
 NSaved= 7 IEnMin= 7 EnMin= -382.325489281280     IErMin= 7 ErrMin= 1.78D-05
 ErrMax= 1.78D-05  0.00D+00 EMaxC= 1.00D-01 BMatC= 1.68D-07 BMatP= 4.14D-06
 IDIUse=1 WtCom= 1.00D+00 WtEn= 0.00D+00
 Coeff-Com: -0.432D-03 0.140D-02-0.122D-03-0.294D-02-0.613D-01-0.510D-01
 Coeff-Com:  0.111D+01
 Coeff:     -0.432D-03 0.140D-02-0.122D-03-0.294D-02-0.613D-01-0.510D-01
 Coeff:      0.111D+01
 Gap=     0.222 Goal=   None    Shift=    0.000
 Gap=     0.222 Goal=   None    Shift=    0.000
 RMSDP=8.83D-06 MaxDP=1.53D-04 DE=-2.34D-06 OVMax= 4.80D-04

 Cycle   8  Pass 1  IDiag  1:
 E= -382.325489474132     Delta-E=       -0.000000192851 Rises=F Damp=F
 DIIS: error= 4.77D-06 at cycle   8 NSaved=   8.
 NSaved= 8 IEnMin= 8 EnMin= -382.325489474132     IErMin= 8 ErrMin= 4.77D-06
 ErrMax= 4.77D-06  0.00D+00 EMaxC= 1.00D-01 BMatC= 8.99D-09 BMatP= 1.68D-07
 IDIUse=1 WtCom= 1.00D+00 WtEn= 0.00D+00
 Coeff-Com: -0.280D-04 0.120D-03 0.724D-03 0.425D-02-0.135D-01-0.740D-01
 Coeff-Com:  0.111D+00 0.971D+00
 Coeff:     -0.280D-04 0.120D-03 0.724D-03 0.425D-02-0.135D-01-0.740D-01
 Coeff:      0.111D+00 0.971D+00
 Gap=     0.222 Goal=   None    Shift=    0.000
 Gap=     0.222 Goal=   None    Shift=    0.000
 RMSDP=2.17D-06 MaxDP=3.48D-05 DE=-1.93D-07 OVMax= 1.32D-04

 Cycle   9  Pass 1  IDiag  1:
 E= -382.325489485131     Delta-E=       -0.000000011000 Rises=F Damp=F
 DIIS: error= 1.26D-06 at cycle   9 NSaved=   9.
 NSaved= 9 IEnMin= 9 EnMin= -382.325489485131     IErMin= 9 ErrMin= 1.26D-06
 ErrMax= 1.26D-06  0.00D+00 EMaxC= 1.00D-01 BMatC= 7.99D-10 BMatP= 8.99D-09
 IDIUse=1 WtCom= 1.00D+00 WtEn= 0.00D+00
 Coeff-Com:  0.595D-05-0.163D-04-0.280D-04 0.213D-04 0.172D-02 0.683D-02
 Coeff-Com: -0.717D-01 0.364D-01 0.103D+01
 Coeff:      0.595D-05-0.163D-04-0.280D-04 0.213D-04 0.172D-02 0.683D-02
 Coeff:     -0.717D-01 0.364D-01 0.103D+01
 Gap=     0.222 Goal=   None    Shift=    0.000
 Gap=     0.222 Goal=   None    Shift=    0.000
 RMSDP=4.07D-07 MaxDP=4.83D-06 DE=-1.10D-08 OVMax= 2.17D-05

 Cycle  10  Pass 1  IDiag  1:
 E= -382.325489485639     Delta-E=       -0.000000000508 Rises=F Damp=F
 DIIS: error= 2.35D-07 at cycle  10 NSaved=  10.
 NSaved=10 IEnMin=10 EnMin= -382.325489485639     IErMin=10 ErrMin= 2.35D-07
 ErrMax= 2.35D-07  0.00D+00 EMaxC= 1.00D-01 BMatC= 2.05D-11 BMatP= 7.99D-10
 IDIUse=1 WtCom= 1.00D+00 WtEn= 0.00D+00
 Coeff-Com: -0.809D-06-0.243D-05-0.219D-04-0.949D-04 0.601D-03 0.193D-02
 Coeff-Com: -0.635D-02-0.173D-01 0.179D-01 0.100D+01
 Coeff:     -0.809D-06-0.243D-05-0.219D-04-0.949D-04 0.601D-03 0.193D-02
 Coeff:     -0.635D-02-0.173D-01 0.179D-01 0.100D+01
 Gap=     0.222 Goal=   None    Shift=    0.000
 Gap=     0.222 Goal=   None    Shift=    0.000
 RMSDP=6.79D-08 MaxDP=9.73D-07 DE=-5.08D-10 OVMax= 1.91D-06

 Cycle  11  Pass 1  IDiag  1:
 E= -382.325489485649     Delta-E=       -0.000000000010 Rises=F Damp=F
 DIIS: error= 4.45D-08 at cycle  11 NSaved=  11.
 NSaved=11 IEnMin=11 EnMin= -382.325489485649     IErMin=11 ErrMin= 4.45D-08
 ErrMax= 4.45D-08  0.00D+00 EMaxC= 1.00D-01 BMatC= 7.38D-13 BMatP= 2.05D-11
 IDIUse=1 WtCom= 1.00D+00 WtEn= 0.00D+00
 Coeff-Com: -0.865D-06 0.159D-05-0.950D-06-0.753D-05-0.238D-04-0.147D-03
 Coeff-Com:  0.187D-02-0.236D-02-0.364D-01 0.813D-01 0.956D+00
 Coeff:     -0.865D-06 0.159D-05-0.950D-06-0.753D-05-0.238D-04-0.147D-03
 Coeff:      0.187D-02-0.236D-02-0.364D-01 0.813D-01 0.956D+00
 Gap=     0.222 Goal=   None    Shift=    0.000
 Gap=     0.222 Goal=   None    Shift=    0.000
 RMSDP=1.26D-08 MaxDP=2.00D-07 DE=-1.03D-11 OVMax= 4.05D-07

 Cycle  12  Pass 1  IDiag  1:
 E= -382.325489485650     Delta-E=       -0.000000000001 Rises=F Damp=F
 DIIS: error= 6.09D-09 at cycle  12 NSaved=  12.
 NSaved=12 IEnMin=12 EnMin= -382.325489485650     IErMin=12 ErrMin= 6.09D-09
 ErrMax= 6.09D-09  0.00D+00 EMaxC= 1.00D-01 BMatC= 1.66D-14 BMatP= 7.38D-13
 IDIUse=1 WtCom= 1.00D+00 WtEn= 0.00D+00
 Coeff-Com:  0.282D-07 0.888D-07-0.284D-06 0.105D-05-0.171D-04-0.153D-04
 Coeff-Com:  0.143D-03 0.421D-03 0.456D-04-0.353D-01 0.667D-02 0.103D+01
 Coeff:      0.282D-07 0.888D-07-0.284D-06 0.105D-05-0.171D-04-0.153D-04
 Coeff:      0.143D-03 0.421D-03 0.456D-04-0.353D-01 0.667D-02 0.103D+01
 Gap=     0.222 Goal=   None    Shift=    0.000
 Gap=     0.222 Goal=   None    Shift=    0.000
 RMSDP=2.54D-09 MaxDP=3.82D-08 DE=-6.25D-13 OVMax= 6.19D-08

 SCF Done:  E(UM062X) =  -382.325489486     A.U. after   12 cycles
            NFock= 12  Conv=0.25D-08     -V/T= 2.0025
 <Sx>= 0.0000 <Sy>= 0.0000 <Sz>= 0.0000 <S**2>=-0.0000 S=-0.0000
 <L.S>=  0.00000000000    
 KE= 3.813708353529D+02 PE=-1.002294698426D+03 EE= 1.906971939522D+02
 Annihilation of the first spin contaminant:
 S**2 before annihilation    -0.0000,   after     0.0000
 Leave Link  502 at Mon Apr 21 19:03:56 2025, MaxMem=   536870912 cpu:              85.2 elap:              11.3
 (Enter /home/szhao/Apps/g16/l601.exe)
 Copying SCF densities to generalized density rwf, IOpCl= 1 IROHF=0.

 **********************************************************************

            Population analysis using the SCF density.

 **********************************************************************

 Alpha  occ. eigenvalues --  -78.04255 -10.56814  -6.86540  -4.98089  -4.98001
 Alpha  occ. eigenvalues --   -4.97798  -0.77046  -0.70126  -0.46851  -0.46617
 Alpha  occ. eigenvalues --   -0.44455  -0.35602  -0.28948
 Alpha virt. eigenvalues --   -0.06755   0.01791   0.04071   0.04078   0.04826
 Alpha virt. eigenvalues --    0.06455   0.06612   0.07476   0.07697   0.13391
 Alpha virt. eigenvalues --    0.16520   0.18657   0.19360   0.26019   0.30027
 Alpha virt. eigenvalues --    0.30273   0.32953   0.38487   0.43456   0.44739
 Alpha virt. eigenvalues --    0.45425   0.53241   0.62839   0.63224   0.64243
 Alpha virt. eigenvalues --    0.64802   0.70351   0.71046   0.76968   0.84517
 Alpha virt. eigenvalues --    0.94596   0.96661   1.07715   1.08197   1.36754
 Alpha virt. eigenvalues --    1.38476   1.44914   1.49637   1.50381   1.51690
 Alpha virt. eigenvalues --    1.56626   1.57123   1.63026   1.68522   1.70654
 Alpha virt. eigenvalues --    1.71834   1.72823   2.01934   2.04782   2.12572
 Alpha virt. eigenvalues --    2.19366   2.19852   2.40842   2.48846   2.49400
 Alpha virt. eigenvalues --    2.55388   2.55541   2.58428   2.66295   2.75699
 Alpha virt. eigenvalues --    3.03472   3.75414   3.77541   7.05723  14.01962
 Alpha virt. eigenvalues --   14.04250  14.04786  23.96445 163.33946
  Beta  occ. eigenvalues --  -78.04255 -10.56814  -6.86540  -4.98089  -4.98001
  Beta  occ. eigenvalues --   -4.97798  -0.77046  -0.70126  -0.46851  -0.46617
  Beta  occ. eigenvalues --   -0.44455  -0.35602  -0.28948
  Beta virt. eigenvalues --   -0.06755   0.01791   0.04071   0.04078   0.04826
  Beta virt. eigenvalues --    0.06455   0.06612   0.07476   0.07697   0.13391
  Beta virt. eigenvalues --    0.16520   0.18657   0.19360   0.26019   0.30027
  Beta virt. eigenvalues --    0.30273   0.32953   0.38487   0.43456   0.44739
  Beta virt. eigenvalues --    0.45425   0.53241   0.62839   0.63224   0.64243
  Beta virt. eigenvalues --    0.64802   0.70351   0.71046   0.76968   0.84517
  Beta virt. eigenvalues --    0.94596   0.96661   1.07715   1.08197   1.36754
  Beta virt. eigenvalues --    1.38476   1.44914   1.49637   1.50381   1.51690
  Beta virt. eigenvalues --    1.56626   1.57123   1.63026   1.68522   1.70654
  Beta virt. eigenvalues --    1.71834   1.72823   2.01934   2.04782   2.12572
  Beta virt. eigenvalues --    2.19366   2.19852   2.40842   2.48846   2.49400
  Beta virt. eigenvalues --    2.55388   2.55541   2.58428   2.66295   2.75699
  Beta virt. eigenvalues --    3.03472   3.75414   3.77541   7.05723  14.01962
  Beta virt. eigenvalues --   14.04250  14.04786  23.96445 163.33946
          Condensed to atoms (all electrons):
               1          2          3          4          5          6
     1  C    5.199595   0.208322  -0.013750   0.386320  -0.013750   0.386320
     2  P    0.208322  14.270187   0.274426  -0.009229   0.274430  -0.009229
     3  H   -0.013750   0.274426   0.753726   0.000420  -0.027773  -0.000011
     4  H    0.386320  -0.009229   0.000420   0.512524  -0.000011  -0.029816
     5  H   -0.013750   0.274430  -0.027773  -0.000011   0.753726   0.000420
     6  H    0.386320  -0.009229  -0.000011  -0.029816   0.000420   0.512524
     7  H    0.384623  -0.014720   0.000229  -0.028509   0.000229  -0.028509
               7
     1  C    0.384623
     2  P   -0.014720
     3  H    0.000229
     4  H   -0.028509
     5  H    0.000229
     6  H   -0.028509
     7  H    0.516857
          Atomic-Atomic Spin Densities.
               1          2          3          4          5          6
     1  C    0.000000   0.000000   0.000000  -0.000000  -0.000000  -0.000000
     2  P    0.000000  -0.000000   0.000000  -0.000000   0.000000  -0.000000
     3  H    0.000000   0.000000   0.000000   0.000000  -0.000000  -0.000000
     4  H   -0.000000  -0.000000   0.000000  -0.000000  -0.000000  -0.000000
     5  H   -0.000000   0.000000  -0.000000  -0.000000  -0.000000   0.000000
     6  H   -0.000000  -0.000000  -0.000000  -0.000000   0.000000  -0.000000
     7  H   -0.000000   0.000000  -0.000000  -0.000000  -0.000000   0.000000
               7
     1  C   -0.000000
     2  P    0.000000
     3  H   -0.000000
     4  H   -0.000000
     5  H   -0.000000
     6  H    0.000000
     7  H    0.000000
 Mulliken charges and spin densities:
               1          2
     1  C   -0.537681   0.000000
     2  P    0.005813   0.000000
     3  H    0.012733   0.000000
     4  H    0.168301  -0.000000
     5  H    0.012730  -0.000000
     6  H    0.168301  -0.000000
     7  H    0.169802  -0.000000
 Sum of Mulliken charges =  -0.00000   0.00000
 Mulliken charges and spin densities with hydrogens summed into heavy atoms:
               1          2
     1  C   -0.031277   0.000000
     2  P    0.031277  -0.000000
 Electronic spatial extent (au):  <R**2>=            274.5904
 Charge=             -0.0000 electrons
 Dipole moment (field-independent basis, Debye):
    X=             -0.3788    Y=             -0.5076    Z=              0.5488  Tot=              0.8380
 Quadrupole moment (field-independent basis, Debye-Ang):
   XX=            -20.5900   YY=            -22.5201   ZZ=            -22.6499
   XY=             -1.3204   XZ=              1.4274   YZ=              0.8314
 Traceless Quadrupole moment (field-independent basis, Debye-Ang):
   XX=              1.3300   YY=             -0.6001   ZZ=             -0.7299
   XY=             -1.3204   XZ=              1.4274   YZ=              0.8314
 Octapole moment (field-independent basis, Debye-Ang**2):
  XXX=            -29.1481  YYY=              3.2844  ZZZ=             -3.3826  XYY=             -9.9327
  XXY=             -1.6822  XXZ=              1.8185  XZZ=            -10.1379  YZZ=              0.3243
  YYZ=             -0.5187  XYZ=              1.3152
 Hexadecapole moment (field-independent basis, Debye-Ang**3):
 XXXX=           -318.1869 YYYY=            -47.7510 ZZZZ=            -48.1327 XXXY=             -0.5647
 XXXZ=              0.6103 YYYX=              2.2423 YYYZ=              1.1552 ZZZX=             -2.7610
 ZZZY=              1.2892 XXYY=            -59.4647 XXZZ=            -59.7583 YYZZ=            -16.5494
 XXYZ=              1.8808 YYXZ=             -2.1399 ZZXY=              2.2910
 N-N= 4.790117963508D+01 E-N=-1.002294698774D+03  KE= 3.813708353529D+02
                          Isotropic Fermi Contact Couplings
        Atom                 a.u.       MegaHertz       Gauss      10(-4) cm-1
     1  C(13)              0.00000       0.00000       0.00000       0.00000
     2  P(31)              0.00000       0.00000       0.00000       0.00000
     3  H(1)               0.00000       0.00000       0.00000       0.00000
     4  H(1)              -0.00000      -0.00000      -0.00000      -0.00000
     5  H(1)               0.00000       0.00000       0.00000       0.00000
     6  H(1)              -0.00000      -0.00000      -0.00000      -0.00000
     7  H(1)               0.00000       0.00000       0.00000       0.00000
 --------------------------------------------------------
       Center         ----  Spin Dipole Couplings  ----
                      3XX-RR        3YY-RR        3ZZ-RR
 --------------------------------------------------------
     1   Atom        0.000000      0.000000      0.000000
     2   Atom        0.000000      0.000000      0.000000
     3   Atom        0.000000      0.000000      0.000000
     4   Atom        0.000000      0.000000      0.000000
     5   Atom        0.000000      0.000000      0.000000
     6   Atom        0.000000      0.000000      0.000000
     7   Atom        0.000000      0.000000      0.000000
 --------------------------------------------------------
                        XY            XZ            YZ
 --------------------------------------------------------
     1   Atom        0.000000      0.000000      0.000000
     2   Atom        0.000000      0.000000      0.000000
     3   Atom        0.000000      0.000000      0.000000
     4   Atom        0.000000      0.000000      0.000000
     5   Atom        0.000000      0.000000      0.000000
     6   Atom        0.000000      0.000000      0.000000
     7   Atom        0.000000      0.000000      0.000000
 --------------------------------------------------------


 ---------------------------------------------------------------------------------
              Anisotropic Spin Dipole Couplings in Principal Axis System
 ---------------------------------------------------------------------------------

       Atom             a.u.   MegaHertz   Gauss  10(-4) cm-1        Axes

              Baa     0.0000     0.000     0.000     0.000  1.0000  0.0000  0.0000
     1 C(13)  Bbb     0.0000     0.000     0.000     0.000 -0.0000  1.0000  0.0000
              Bcc     0.0000     0.000     0.000     0.000  0.0000  0.0000  1.0000
 
              Baa     0.0000     0.000     0.000     0.000  1.0000  0.0000  0.0000
     2 P(31)  Bbb     0.0000     0.000     0.000     0.000 -0.0000  1.0000  0.0000
              Bcc     0.0000     0.000     0.000     0.000  0.0000  0.0000  1.0000
 
              Baa     0.0000     0.000     0.000     0.000  1.0000  0.0000  0.0000
     3 H(1)   Bbb     0.0000     0.000     0.000     0.000 -0.0000  1.0000  0.0000
              Bcc     0.0000     0.000     0.000     0.000  0.0000  0.0000  1.0000
 
              Baa     0.0000     0.000     0.000     0.000  1.0000  0.0000  0.0000
     4 H(1)   Bbb     0.0000     0.000     0.000     0.000 -0.0000  1.0000  0.0000
              Bcc     0.0000     0.000     0.000     0.000  0.0000  0.0000  1.0000
 
              Baa     0.0000     0.000     0.000     0.000  1.0000  0.0000  0.0000
     5 H(1)   Bbb     0.0000     0.000     0.000     0.000 -0.0000  1.0000  0.0000
              Bcc     0.0000     0.000     0.000     0.000  0.0000  0.0000  1.0000
 
              Baa     0.0000     0.000     0.000     0.000  1.0000  0.0000  0.0000
     6 H(1)   Bbb     0.0000     0.000     0.000     0.000 -0.0000  1.0000  0.0000
              Bcc     0.0000     0.000     0.000     0.000  0.0000  0.0000  1.0000
 
              Baa     0.0000     0.000     0.000     0.000  1.0000  0.0000  0.0000
     7 H(1)   Bbb     0.0000     0.000     0.000     0.000 -0.0000  1.0000  0.0000
              Bcc     0.0000     0.000     0.000     0.000  0.0000  0.0000  1.0000
 

 ---------------------------------------------------------------------------------

 No NMR shielding tensors so no spin-rotation constants.
 Leave Link  601 at Mon Apr 21 19:03:57 2025, MaxMem=   536870912 cpu:               1.6 elap:               0.3
 (Enter /home/szhao/Apps/g16/l701.exe)
 ... and contract with generalized density number  0.
 Compute integral first derivatives.
 Leave Link  701 at Mon Apr 21 19:03:57 2025, MaxMem=   536870912 cpu:               1.3 elap:               0.2
 (Enter /home/szhao/Apps/g16/l702.exe)
 L702 exits ... SP integral derivatives will be done elsewhere.
 Leave Link  702 at Mon Apr 21 19:03:57 2025, MaxMem=   536870912 cpu:               0.9 elap:               0.1
 (Enter /home/szhao/Apps/g16/l703.exe)
 Integral derivatives from FoFJK, PRISM(SPDF).
 Compute integral first derivatives, UseDBF=F ICtDFT=           0.
 Calling FoFJK, ICntrl=      2127 FMM=F ISym2X=0 I1Cent= 0 IOpClX= 1 NMat=1 NMatS=1 NMatT=0.
 FoFJK:  IHMeth= 1 ICntrl=    2127 DoSepK=F KAlg= 0 I1Cent=           0 FoldK=F
 IRaf=         0 NMat=       1 IRICut=       1 DoRegI=T DoRafI=F ISym2E= 0 IDoP0=0 IntGTp=1.
 FoFCou: FMM=F IPFlag=           0 FMFlag=      100000 FMFlg1=         800
         NFxFlg=           0 DoJE=F BraDBF=F KetDBF=F FulRan=T
         wScrn=  0.000000 ICntrl=      2127 IOpCl=  1 I1Cent=           0 NGrid=           0
         NMat0=    1 NMatS0=      1 NMatT0=    0 NMatD0=    1 NMtDS0=    0 NMtDT0=    0
 Symmetry not used in FoFCou.
 Leave Link  703 at Mon Apr 21 19:03:59 2025, MaxMem=   536870912 cpu:              11.0 elap:               1.4
 (Enter /home/szhao/Apps/g16/l716.exe)
 Dipole        =-1.49043310D-01-1.99709018D-01 2.15899762D-01
 -------------------------------------------------------------------
 Center     Atomic                   Forces (Hartrees/Bohr)
 Number     Number              X              Y              Z
 -------------------------------------------------------------------
      1        6          -0.000000000   -0.000000000   -0.000000000
      2       15          -0.000000000   -0.000000000   -0.000000000
      3        1          -0.004264954   -0.000980454    0.001544061
      4        1           0.014198166    0.002935380    0.002528045
      5        1          -0.004266479   -0.001479795    0.001094689
      6        1           0.014198881   -0.002746581   -0.002732372
      7        1           0.013151640   -0.003521972    0.003806377
 -------------------------------------------------------------------
 Cartesian Forces:  Max     0.014198881 RMS     0.005674495
 Leave Link  716 at Mon Apr 21 19:03:59 2025, MaxMem=   536870912 cpu:               0.6 elap:               0.2
 (Enter /home/szhao/Apps/g16/l103.exe)

 GradGradGradGradGradGradGradGradGradGradGradGradGradGradGradGradGradGrad
 Berny optimization.
 FormGI is forming the generalized inverse of G from B-inverse, IUseBI=4.
 Internal  Forces:  Max     0.041548688 RMS     0.011469923
 Search for a local minimum.
 Step number   1 out of a maximum of   36
 All quantities printed in internal units (Hartrees-Bohrs-Radians)
 RMS Force = .88676D-02 SwitMx=.10000D-02 MixMth= 1
 Mixed Optimization -- RFO/linear search
 Second derivative matrix not updated -- first step.
 ITU=  0
     Eigenvalues ---    0.00230   0.06270   0.06704   0.07377   0.16000
     Eigenvalues ---    0.16000   0.16000   0.16000   0.16000   0.21118
     Eigenvalues ---    0.21118   0.34766   0.34766   0.349641000.00000
     Eigenvalues --- 1000.000001000.000001000.000001000.000001000.00000
     Eigenvalues --- 1000.000001000.000001000.000001000.000001000.00000
     Eigenvalues --- 1000.00000
 RFO step:  Lambda=-9.48771556D-03 EMin= 2.30000000D-03
 Linear search not attempted -- first point.
 Iteration  1 RMS(Cart)=  0.08136693 RMS(Int)=  0.00440654
 Iteration  2 RMS(Cart)=  0.00438485 RMS(Int)=  0.00227452
 Iteration  3 RMS(Cart)=  0.00002362 RMS(Int)=  0.00227447
 Iteration  4 RMS(Cart)=  0.00000016 RMS(Int)=  0.00227447
 ITry= 1 IFail=0 DXMaxC= 1.91D-01 DCOld= 1.00D+10 DXMaxT= 3.00D-01 DXLimC= 3.00D+00 Rises=F
 Variable       Old X    -DE/DX   Delta X   Delta X   Delta X     New X
                                 (Linear)    (Quad)   (Total)
    X1       -2.65745   0.04155   0.00000   0.00000   0.00000  -2.65745
    Y1        0.00000  -0.00119   0.00000   0.00000   0.00000   0.00000
    Z1        0.00000   0.00129   0.00000   0.00000   0.00000   0.00000
    X2        2.65745  -0.00853   0.00000   0.00000   0.00000   2.65745
    Y2        0.00000  -0.00459   0.00000   0.00000   0.00000   0.00000
    Z2        0.00000   0.00496   0.00000   0.00000   0.00000   0.00000
    R1        2.06056  -0.00137   0.00000  -0.00383  -0.00383   2.05673
    R2        2.06056  -0.00137   0.00000  -0.00382  -0.00382   2.05673
    R3        2.05733  -0.00051   0.00000  -0.00141  -0.00141   2.05592
    R4        2.67742   0.00043   0.00000   0.00195   0.00195   2.67937
    R5        2.67742   0.00043   0.00000   0.00193   0.00193   2.67935
    A1        1.89770  -0.01459   0.00000  -0.08406  -0.08787   1.80983
    A2        1.89770  -0.01460   0.00000  -0.08408  -0.08788   1.80982
    A3        1.98228  -0.01386   0.00000  -0.08617  -0.09032   1.89197
    A4        1.87744   0.01538   0.00000   0.10026   0.09616   1.97360
    A5        1.90298   0.01458   0.00000   0.08186   0.07687   1.97985
    A6        1.90298   0.01458   0.00000   0.08186   0.07688   1.97985
    A7        1.69824  -0.01162   0.00000  -0.07158  -0.07179   1.62646
    A8        1.69824  -0.01162   0.00000  -0.07159  -0.07180   1.62644
    A9        1.63122   0.00028   0.00000  -0.02044  -0.02402   1.60720
    D1        2.94625  -0.00258   0.00000  -0.03344  -0.03195   2.91430
    D2        1.29757   0.00036   0.00000   0.00720   0.00631   1.30388
    D3       -1.29766  -0.00035   0.00000  -0.00675  -0.00586  -1.30351
    D4       -2.94633   0.00258   0.00000   0.03389   0.03240  -2.91393
    D5        0.82430  -0.00146   0.00000  -0.02009  -0.01890   0.80539
    D6       -0.82438   0.00147   0.00000   0.02054   0.01935  -0.80503
         Item               Value     Threshold  Converged?
 Maximum Force            0.015381     0.000450     NO 
 RMS     Force            0.008868     0.000300     NO 
 Maximum Displacement     0.191288     0.001800     NO 
 RMS     Displacement     0.083291     0.001200     NO 
 Predicted change in Energy=-4.986079D-03
 Lowest energy point so far.  Saving SCF results.
 GradGradGradGradGradGradGradGradGradGradGradGradGradGradGradGradGradGrad

 Leave Link  103 at Mon Apr 21 19:03:59 2025, MaxMem=   536870912 cpu:               0.5 elap:               0.2
 (Enter /home/szhao/Apps/g16/l202.exe)
                          Input orientation:                          
 ---------------------------------------------------------------------
 Center     Atomic      Atomic             Coordinates (Angstroms)
 Number     Number       Type             X           Y           Z
 ---------------------------------------------------------------------
      1          6           0       -1.406264    0.000000    0.000000
      2         15           0        1.406264    0.000000    0.000000
      3          1           0        1.485144   -1.415406    0.027094
      4          1           0       -1.663951    1.034604    0.218519
      5          1           0        1.485122    0.083145    1.413214
      6          1           0       -1.663941   -0.298751   -1.014354
      7          1           0       -1.749701   -0.700837    0.757959
 ---------------------------------------------------------------------
                    Distance matrix (angstroms):
                    1          2          3          4          5
     1  C    0.000000
     2  P    2.812527   0.000000
     3  H    3.219371   1.417861   0.000000
     4  H    1.088374   3.247210   3.994495   0.000000
     5  H    3.219347   1.417852   2.041318   3.499890   0.000000
     6  H    1.088377   3.247202   3.499753   1.815988   3.994437
     7  H    1.087945   3.320510   3.392491   1.819369   3.392355
                    6          7
     6  H    0.000000
     7  H    1.819373   0.000000
 Symmetry turned off by external request.
 Stoichiometry    CH5P
 Framework group  C1[X(CH5P)]
 Deg. of freedom    15
 Full point group                 C1      NOp   1
 Rotational constants (GHZ):          69.7662960           5.6743972           5.6566568
 Leave Link  202 at Mon Apr 21 19:04:00 2025, MaxMem=   536870912 cpu:               0.2 elap:               0.1
 (Enter /home/szhao/Apps/g16/l301.exe)
 Standard basis: 6-311+G(d,p) (5D, 7F)
 Ernie: Thresh=  0.10000D-02 Tol=  0.10000D-05 Strict=F.
    82 basis functions,   126 primitive gaussians,    84 cartesian basis functions
    13 alpha electrons       13 beta electrons
       nuclear repulsion energy        48.1466838577 Hartrees.
 IExCor= 4336 DFT=T Ex+Corr=M062X ExCW=0 ScaHFX=  0.540000
 ScaDFX=  1.000000  1.000000  1.000000  1.000000 ScalE2=  1.000000  1.000000
 IRadAn=      7 IRanWt=     -1 IRanGd=            0 ICorTp=0 IEmpDi=  4
 NAtoms=    7 NActive=    7 NUniq=    7 SFac= 1.00D+00 NAtFMM=   60 NAOKFM=F Big=F
 Integral buffers will be    131072 words long.
 Raffenetti 2 integral format.
 Two-electron integral symmetry is turned off.
 Leave Link  301 at Mon Apr 21 19:04:00 2025, MaxMem=   536870912 cpu:               0.6 elap:               0.1
 (Enter /home/szhao/Apps/g16/l302.exe)
 NPDir=0 NMtPBC=     1 NCelOv=     1 NCel=       1 NClECP=     1 NCelD=      1
         NCelK=      1 NCelE2=     1 NClLst=     1 CellRange=     0.0.
 One-electron integrals computed using PRISM.
 NBasis=    82 RedAO= T EigKep=  2.88D-03  NBF=    82
 NBsUse=    82 1.00D-06 EigRej= -1.00D+00 NBFU=    82
 Precomputing XC quadrature grid using
 IXCGrd= 4 IRadAn=           7 IRanWt=          -1 IRanGd=           0 AccXCQ= 0.00D+00.
 Generated NRdTot=       0 NPtTot=           0 NUsed=           0 NTot=          32
 NSgBfM=    84    84    84    84    84 MxSgAt=     7 MxSgA2=     7.
 Leave Link  302 at Mon Apr 21 19:04:00 2025, MaxMem=   536870912 cpu:               1.8 elap:               0.3
 (Enter /home/szhao/Apps/g16/l303.exe)
 DipDrv:  MaxL=1.
 Leave Link  303 at Mon Apr 21 19:04:01 2025, MaxMem=   536870912 cpu:               0.3 elap:               0.1
 (Enter /home/szhao/Apps/g16/l401.exe)
 Initial guess from the checkpoint file:  "opt.chk"
 B after Tr=     0.005901   -0.002357    0.002529
         Rot=    0.999998    0.000059    0.001331    0.001233 Ang=   0.21 deg.
 Guess basis will be translated and rotated to current coordinates.
 JPrj=2 DoOrth=T DoCkMO=T.
 Initial guess <Sx>= 0.0000 <Sy>= 0.0000 <Sz>= 0.0000 <S**2>=-0.0000 S=-0.0000
 Generating alternative initial guess.
 ExpMin= 3.48D-02 ExpMax= 7.75D+04 ExpMxC= 2.65D+03 IAcc=3 IRadAn=         5 AccDes= 0.00D+00
 Harris functional with IExCor= 1009 and IRadAn=       5 diagonalized for initial guess.
 HarFok:  IExCor= 1009 AccDes= 0.00D+00 IRadAn=         5 IDoV= 1 UseB2=F ITyADJ=14
 ICtDFT=  3500011 ScaDFX=  1.000000  1.000000  1.000000  1.000000
 FoFCou: FMM=F IPFlag=           0 FMFlag=      100000 FMFlg1=           0
         NFxFlg=           0 DoJE=T BraDBF=F KetDBF=T FulRan=T
         wScrn=  0.000000 ICntrl=       500 IOpCl=  0 I1Cent=   200000004 NGrid=           0
         NMat0=    1 NMatS0=      1 NMatT0=    0 NMatD0=    1 NMtDS0=    0 NMtDT0=    0
 Symmetry not used in FoFCou.
 Harris En= -382.215922606309    
 Leave Link  401 at Mon Apr 21 19:04:01 2025, MaxMem=   536870912 cpu:               3.3 elap:               0.5
 (Enter /home/szhao/Apps/g16/l502.exe)
 Keep R1 and R2 ints in memory in canonical form, NReq=18891869.
 FoFCou: FMM=F IPFlag=           0 FMFlag=           0 FMFlg1=           0
         NFxFlg=           0 DoJE=F BraDBF=F KetDBF=F FulRan=T
         wScrn=  0.000000 ICntrl=       600 IOpCl=  0 I1Cent=           0 NGrid=           0
         NMat0=    1 NMatS0=   3403 NMatT0=    0 NMatD0=    1 NMtDS0=    0 NMtDT0=    0
 Symmetry not used in FoFCou.
 Two-electron integral symmetry not used.
 UHF open shell SCF:
 Using DIIS extrapolation, IDIIS=  1040.
 NGot=   536870912 LenX=   525271507 LenY=   525264010
 Requested convergence on RMS density matrix=1.00D-08 within 128 cycles.
 Requested convergence on MAX density matrix=1.00D-06.
 Requested convergence on             energy=1.00D-06.
 No special actions if energy rises.

 Cycle   1  Pass 1  IDiag  1:
 E= -382.330303453602    
 DIIS: error= 5.65D-03 at cycle   1 NSaved=   1.
 NSaved= 1 IEnMin= 1 EnMin= -382.330303453602     IErMin= 1 ErrMin= 5.65D-03
 ErrMax= 5.65D-03  0.00D+00 EMaxC= 1.00D-01 BMatC= 5.38D-03 BMatP= 5.38D-03
 IDIUse=3 WtCom= 9.44D-01 WtEn= 5.65D-02
 Coeff-Com:  0.100D+01
 Coeff-En:   0.100D+01
 Coeff:      0.100D+01
 Gap=     0.459 Goal=   None    Shift=    0.000
 Gap=     0.459 Goal=   None    Shift=    0.000
 GapD=    0.459 DampG=2.000 DampE=1.000 DampFc=2.0000 IDamp=-1.
 RMSDP=7.06D-04 MaxDP=9.48D-03              OVMax= 2.89D-02

 Cycle   2  Pass 1  IDiag  1:
 E= -382.332430970399     Delta-E=       -0.002127516797 Rises=F Damp=F
 DIIS: error= 9.51D-04 at cycle   2 NSaved=   2.
 NSaved= 2 IEnMin= 2 EnMin= -382.332430970399     IErMin= 2 ErrMin= 9.51D-04
 ErrMax= 9.51D-04  0.00D+00 EMaxC= 1.00D-01 BMatC= 2.78D-04 BMatP= 5.38D-03
 IDIUse=3 WtCom= 9.90D-01 WtEn= 9.51D-03
 Coeff-Com: -0.561D-01 0.106D+01
 Coeff-En:   0.000D+00 0.100D+01
 Coeff:     -0.556D-01 0.106D+01
 Gap=     0.222 Goal=   None    Shift=    0.000
 Gap=     0.222 Goal=   None    Shift=    0.000
 RMSDP=2.52D-04 MaxDP=5.25D-03 DE=-2.13D-03 OVMax= 1.12D-02

 Cycle   3  Pass 1  IDiag  1:
 E= -382.332425957076     Delta-E=        0.000005013323 Rises=F Damp=F
 DIIS: error= 1.09D-03 at cycle   3 NSaved=   3.
 NSaved= 3 IEnMin= 2 EnMin= -382.332430970399     IErMin= 2 ErrMin= 9.51D-04
 ErrMax= 1.09D-03  0.00D+00 EMaxC= 1.00D-01 BMatC= 4.42D-04 BMatP= 2.78D-04
 IDIUse=3 WtCom= 2.32D-01 WtEn= 7.68D-01
 Coeff-Com: -0.606D-01 0.628D+00 0.432D+00
 Coeff-En:   0.000D+00 0.512D+00 0.488D+00
 Coeff:     -0.141D-01 0.539D+00 0.475D+00
 Gap=     0.222 Goal=   None    Shift=    0.000
 Gap=     0.222 Goal=   None    Shift=    0.000
 RMSDP=1.48D-04 MaxDP=4.55D-03 DE= 5.01D-06 OVMax= 1.21D-02

 Cycle   4  Pass 1  IDiag  1:
 E= -382.332567167603     Delta-E=       -0.000141210527 Rises=F Damp=F
 DIIS: error= 4.78D-04 at cycle   4 NSaved=   4.
 NSaved= 4 IEnMin= 4 EnMin= -382.332567167603     IErMin= 4 ErrMin= 4.78D-04
 ErrMax= 4.78D-04  0.00D+00 EMaxC= 1.00D-01 BMatC= 6.55D-05 BMatP= 2.78D-04
 IDIUse=3 WtCom= 9.95D-01 WtEn= 4.78D-03
 Coeff-Com: -0.160D-01 0.679D-02 0.275D+00 0.734D+00
 Coeff-En:   0.000D+00 0.000D+00 0.107D+00 0.893D+00
 Coeff:     -0.160D-01 0.676D-02 0.275D+00 0.735D+00
 Gap=     0.222 Goal=   None    Shift=    0.000
 Gap=     0.222 Goal=   None    Shift=    0.000
 RMSDP=4.33D-05 MaxDP=8.63D-04 DE=-1.41D-04 OVMax= 2.17D-03

 Cycle   5  Pass 1  IDiag  1:
 E= -382.332589914104     Delta-E=       -0.000022746501 Rises=F Damp=F
 DIIS: error= 4.52D-05 at cycle   5 NSaved=   5.
 NSaved= 5 IEnMin= 5 EnMin= -382.332589914104     IErMin= 5 ErrMin= 4.52D-05
 ErrMax= 4.52D-05  0.00D+00 EMaxC= 1.00D-01 BMatC= 9.00D-07 BMatP= 6.55D-05
 IDIUse=1 WtCom= 1.00D+00 WtEn= 0.00D+00
 Coeff-Com:  0.362D-02-0.614D-01 0.174D-01 0.880D-01 0.952D+00
 Coeff:      0.362D-02-0.614D-01 0.174D-01 0.880D-01 0.952D+00
 Gap=     0.222 Goal=   None    Shift=    0.000
 Gap=     0.222 Goal=   None    Shift=    0.000
 RMSDP=1.49D-05 MaxDP=2.62D-04 DE=-2.27D-05 OVMax= 8.05D-04

 Cycle   6  Pass 1  IDiag  1:
 E= -382.332590575921     Delta-E=       -0.000000661816 Rises=F Damp=F
 DIIS: error= 1.53D-05 at cycle   6 NSaved=   6.
 NSaved= 6 IEnMin= 6 EnMin= -382.332590575921     IErMin= 6 ErrMin= 1.53D-05
 ErrMax= 1.53D-05  0.00D+00 EMaxC= 1.00D-01 BMatC= 1.03D-07 BMatP= 9.00D-07
 IDIUse=1 WtCom= 1.00D+00 WtEn= 0.00D+00
 Coeff-Com:  0.238D-02-0.192D-01-0.165D-01-0.401D-01 0.252D+00 0.822D+00
 Coeff:      0.238D-02-0.192D-01-0.165D-01-0.401D-01 0.252D+00 0.822D+00
 Gap=     0.222 Goal=   None    Shift=    0.000
 Gap=     0.222 Goal=   None    Shift=    0.000
 RMSDP=3.60D-06 MaxDP=5.17D-05 DE=-6.62D-07 OVMax= 2.23D-04

 Cycle   7  Pass 1  IDiag  1:
 E= -382.332590630531     Delta-E=       -0.000000054611 Rises=F Damp=F
 DIIS: error= 2.80D-06 at cycle   7 NSaved=   7.
 NSaved= 7 IEnMin= 7 EnMin= -382.332590630531     IErMin= 7 ErrMin= 2.80D-06
 ErrMax= 2.80D-06  0.00D+00 EMaxC= 1.00D-01 BMatC= 3.05D-09 BMatP= 1.03D-07
 IDIUse=1 WtCom= 1.00D+00 WtEn= 0.00D+00
 Coeff-Com: -0.464D-03 0.697D-02-0.150D-02-0.605D-02-0.920D-01-0.638D-01
 Coeff-Com:  0.116D+01
 Coeff:     -0.464D-03 0.697D-02-0.150D-02-0.605D-02-0.920D-01-0.638D-01
 Coeff:      0.116D+01
 Gap=     0.222 Goal=   None    Shift=    0.000
 Gap=     0.222 Goal=   None    Shift=    0.000
 RMSDP=1.44D-06 MaxDP=1.81D-05 DE=-5.46D-08 OVMax= 8.22D-05

 Cycle   8  Pass 1  IDiag  1:
 E= -382.332590634573     Delta-E=       -0.000000004041 Rises=F Damp=F
 DIIS: error= 5.77D-07 at cycle   8 NSaved=   8.
 NSaved= 8 IEnMin= 8 EnMin= -382.332590634573     IErMin= 8 ErrMin= 5.77D-07
 ErrMax= 5.77D-07  0.00D+00 EMaxC= 1.00D-01 BMatC= 9.51D-11 BMatP= 3.05D-09
 IDIUse=1 WtCom= 1.00D+00 WtEn= 0.00D+00
 Coeff-Com: -0.644D-04 0.610D-03 0.157D-03 0.106D-02-0.989D-02-0.140D-01
 Coeff-Com:  0.180D-02 0.102D+01
 Coeff:     -0.644D-04 0.610D-03 0.157D-03 0.106D-02-0.989D-02-0.140D-01
 Coeff:      0.180D-02 0.102D+01
 Gap=     0.222 Goal=   None    Shift=    0.000
 Gap=     0.222 Goal=   None    Shift=    0.000
 RMSDP=1.61D-07 MaxDP=2.47D-06 DE=-4.04D-09 OVMax= 7.50D-06

 Cycle   9  Pass 1  IDiag  1:
 E= -382.332590634636     Delta-E=       -0.000000000063 Rises=F Damp=F
 DIIS: error= 1.15D-07 at cycle   9 NSaved=   9.
 NSaved= 9 IEnMin= 9 EnMin= -382.332590634636     IErMin= 9 ErrMin= 1.15D-07
 ErrMax= 1.15D-07  0.00D+00 EMaxC= 1.00D-01 BMatC= 4.56D-12 BMatP= 9.51D-11
 IDIUse=1 WtCom= 1.00D+00 WtEn= 0.00D+00
 Coeff-Com:  0.136D-04-0.236D-03 0.525D-04 0.470D-03 0.294D-02 0.113D-02
 Coeff-Com: -0.467D-01 0.108D+00 0.934D+00
 Coeff:      0.136D-04-0.236D-03 0.525D-04 0.470D-03 0.294D-02 0.113D-02
 Coeff:     -0.467D-01 0.108D+00 0.934D+00
 Gap=     0.222 Goal=   None    Shift=    0.000
 Gap=     0.222 Goal=   None    Shift=    0.000
 RMSDP=2.99D-08 MaxDP=4.71D-07 DE=-6.34D-11 OVMax= 1.31D-06

 Cycle  10  Pass 1  IDiag  1:
 E= -382.332590634639     Delta-E=       -0.000000000003 Rises=F Damp=F
 DIIS: error= 1.27D-08 at cycle  10 NSaved=  10.
 NSaved=10 IEnMin=10 EnMin= -382.332590634639     IErMin=10 ErrMin= 1.27D-08
 ErrMax= 1.27D-08  0.00D+00 EMaxC= 1.00D-01 BMatC= 9.47D-14 BMatP= 4.56D-12
 IDIUse=1 WtCom= 1.00D+00 WtEn= 0.00D+00
 Coeff-Com:  0.313D-05-0.342D-04-0.532D-05-0.303D-04 0.513D-03 0.330D-03
 Coeff-Com: -0.107D-02-0.409D-01 0.205D-01 0.102D+01
 Coeff:      0.313D-05-0.342D-04-0.532D-05-0.303D-04 0.513D-03 0.330D-03
 Coeff:     -0.107D-02-0.409D-01 0.205D-01 0.102D+01
 Gap=     0.222 Goal=   None    Shift=    0.000
 Gap=     0.222 Goal=   None    Shift=    0.000
 RMSDP=7.67D-09 MaxDP=1.49D-07 DE=-3.24D-12 OVMax= 3.38D-07

 SCF Done:  E(UM062X) =  -382.332590635     A.U. after   10 cycles
            NFock= 10  Conv=0.77D-08     -V/T= 2.0025
 <Sx>= 0.0000 <Sy>= 0.0000 <Sz>= 0.0000 <S**2>=-0.0000 S=-0.0000
 <L.S>=  0.00000000000    
 KE= 3.813795388520D+02 PE=-1.002843313456D+03 EE= 1.909845001120D+02
 Annihilation of the first spin contaminant:
 S**2 before annihilation    -0.0000,   after    -0.0000
 Leave Link  502 at Mon Apr 21 19:04:11 2025, MaxMem=   536870912 cpu:              73.3 elap:               9.7
 (Enter /home/szhao/Apps/g16/l701.exe)
 ... and contract with generalized density number  0.
 Compute integral first derivatives.
 Leave Link  701 at Mon Apr 21 19:04:12 2025, MaxMem=   536870912 cpu:               1.4 elap:               0.3
 (Enter /home/szhao/Apps/g16/l702.exe)
 L702 exits ... SP integral derivatives will be done elsewhere.
 Leave Link  702 at Mon Apr 21 19:04:12 2025, MaxMem=   536870912 cpu:               0.6 elap:               0.1
 (Enter /home/szhao/Apps/g16/l703.exe)
 Integral derivatives from FoFJK, PRISM(SPDF).
 Compute integral first derivatives, UseDBF=F ICtDFT=           0.
 Calling FoFJK, ICntrl=      2127 FMM=F ISym2X=0 I1Cent= 0 IOpClX= 1 NMat=1 NMatS=1 NMatT=0.
 FoFJK:  IHMeth= 1 ICntrl=    2127 DoSepK=F KAlg= 0 I1Cent=           0 FoldK=F
 IRaf=         0 NMat=       1 IRICut=       1 DoRegI=T DoRafI=F ISym2E= 0 IDoP0=0 IntGTp=1.
 FoFCou: FMM=F IPFlag=           0 FMFlag=      100000 FMFlg1=         800
         NFxFlg=           0 DoJE=F BraDBF=F KetDBF=F FulRan=T
         wScrn=  0.000000 ICntrl=      2127 IOpCl=  1 I1Cent=           0 NGrid=           0
         NMat0=    1 NMatS0=      1 NMatT0=    0 NMatD0=    1 NMtDS0=    0 NMtDT0=    0
 Symmetry not used in FoFCou.
 Leave Link  703 at Mon Apr 21 19:04:13 2025, MaxMem=   536870912 cpu:              11.0 elap:               1.5
 (Enter /home/szhao/Apps/g16/l716.exe)
 Dipole        =-2.54894149D-01-1.96450360D-01 2.12381022D-01
 -------------------------------------------------------------------
 Center     Atomic                   Forces (Hartrees/Bohr)
 Number     Number              X              Y              Z
 -------------------------------------------------------------------
      1        6          -0.000000000   -0.000000000   -0.000000000
      2       15          -0.000000000   -0.000000000   -0.000000000
      3        1          -0.001980054   -0.000364307   -0.000223612
      4        1           0.006899627   -0.001226329    0.000078489
      5        1          -0.001975899    0.000250089    0.000341584
      6        1           0.006898960    0.000019495    0.001229424
      7        1           0.007817081   -0.000096603    0.000101780
 -------------------------------------------------------------------
 Cartesian Forces:  Max     0.007817081 RMS     0.002824515
 Leave Link  716 at Mon Apr 21 19:04:14 2025, MaxMem=   536870912 cpu:               0.3 elap:               0.0
 (Enter /home/szhao/Apps/g16/l103.exe)

 GradGradGradGradGradGradGradGradGradGradGradGradGradGradGradGradGradGrad
 Berny optimization.
 Using GEDIIS/GDIIS optimizer.
 FormGI is forming the generalized inverse of G from B-inverse, IUseBI=4.
 Internal  Forces:  Max     0.021615669 RMS     0.005915144
 Search for a local minimum.
 Step number   2 out of a maximum of   36
 All quantities printed in internal units (Hartrees-Bohrs-Radians)
 RMS Force = .46077D-02 SwitMx=.10000D-02 MixMth= 1
 Mixed Optimization -- RFO/linear search
 Update second derivatives using D2CorX and points    1    2
 DE= -7.10D-03 DEPred=-4.99D-03 R= 1.42D+00
 TightC=F SS=  1.41D+00  RLast= 2.42D-01 DXNew= 5.0454D-01 7.2540D-01
 Trust test= 1.42D+00 RLast= 2.42D-01 DXMaxT set to 5.05D-01
 ITU=  1  0
 Use linear search instead of GDIIS.
     Eigenvalues ---    0.00230   0.06610   0.07629   0.07794   0.08711
     Eigenvalues ---    0.16000   0.16000   0.16000   0.16203   0.21117
     Eigenvalues ---    0.21118   0.34766   0.34840   0.351361000.00000
     Eigenvalues --- 1000.000001000.000001000.000001000.000001000.00000
     Eigenvalues --- 1000.000001000.000001000.000001000.000001000.00000
     Eigenvalues --- 1000.00000
 RFO step:  Lambda=-4.56074291D-04 EMin= 2.30000335D-03
 Quartic linear search produced a step of  0.90698.
 Iteration  1 RMS(Cart)=  0.08146528 RMS(Int)=  0.00717794
 Iteration  2 RMS(Cart)=  0.00458100 RMS(Int)=  0.00596784
 Iteration  3 RMS(Cart)=  0.00009701 RMS(Int)=  0.00596760
 Iteration  4 RMS(Cart)=  0.00000332 RMS(Int)=  0.00596760
 Iteration  5 RMS(Cart)=  0.00000011 RMS(Int)=  0.00596760
 ITry= 1 IFail=0 DXMaxC= 2.36D-01 DCOld= 1.00D+10 DXMaxT= 5.05D-01 DXLimC= 3.00D+00 Rises=F
 Variable       Old X    -DE/DX   Delta X   Delta X   Delta X     New X
                                 (Linear)    (Quad)   (Total)
    X1       -2.65745   0.02162   0.00000   0.00000   0.00000  -2.65745
    Y1        0.00000  -0.00063   0.00000   0.00000   0.00000   0.00000
    Z1        0.00000   0.00068   0.00000   0.00000   0.00000   0.00000
    X2        2.65745  -0.00396   0.00000   0.00000   0.00000   2.65745
    Y2        0.00000  -0.00079   0.00000   0.00000   0.00000   0.00000
    Z2        0.00000   0.00085   0.00000   0.00000   0.00000   0.00000
    R1        2.05673  -0.00278  -0.00347  -0.01191  -0.01539   2.04134
    R2        2.05673  -0.00278  -0.00347  -0.01192  -0.01539   2.04134
    R3        2.05592  -0.00233  -0.00128  -0.01154  -0.01282   2.04310
    R4        2.67937   0.00025   0.00177   0.00045   0.00222   2.68159
    R5        2.67935   0.00025   0.00175   0.00043   0.00218   2.68154
    A1        1.80983  -0.00760  -0.07970  -0.00144  -0.08920   1.72063
    A2        1.80982  -0.00760  -0.07971  -0.00142  -0.08919   1.72063
    A3        1.89197  -0.00948  -0.08192  -0.02686  -0.11750   1.77446
    A4        1.97360   0.00644   0.08721  -0.00173   0.07240   2.04600
    A5        1.97985   0.00704   0.06972   0.01317   0.06721   2.04706
    A6        1.97985   0.00704   0.06973   0.01315   0.06719   2.04704
    A7        1.62646  -0.00532  -0.06511   0.00304  -0.06203   1.56442
    A8        1.62644  -0.00530  -0.06512   0.00319  -0.06189   1.56455
    A9        1.60720   0.00062  -0.02178   0.03204   0.00470   1.61190
    D1        2.91430  -0.00046  -0.02897   0.01609  -0.00992   2.90438
    D2        1.30388  -0.00046   0.00572  -0.01642  -0.01144   1.29244
    D3       -1.30351   0.00046  -0.00531   0.01301   0.00844  -1.29507
    D4       -2.91393   0.00046   0.02938  -0.01950   0.00692  -2.90701
    D5        0.80539   0.00000  -0.01714   0.01454  -0.00075   0.80465
    D6       -0.80503  -0.00000   0.01755  -0.01796  -0.00227  -0.80729
         Item               Value     Threshold  Converged?
 Maximum Force            0.009479     0.000450     NO 
 RMS     Force            0.004608     0.000300     NO 
 Maximum Displacement     0.235764     0.001800     NO 
 RMS     Displacement     0.083481     0.001200     NO 
 Predicted change in Energy=-2.597557D-03
 Lowest energy point so far.  Saving SCF results.
 GradGradGradGradGradGradGradGradGradGradGradGradGradGradGradGradGradGrad

 Leave Link  103 at Mon Apr 21 19:04:14 2025, MaxMem=   536870912 cpu:               0.8 elap:               0.2
 (Enter /home/szhao/Apps/g16/l202.exe)
                          Input orientation:                          
 ---------------------------------------------------------------------
 Center     Atomic      Atomic             Coordinates (Angstroms)
 Number     Number       Type             X           Y           Z
 ---------------------------------------------------------------------
      1          6           0       -1.406264    0.000000    0.000000
      2         15           0        1.406264    0.000000    0.000000
      3          1           0        1.397222   -1.418744    0.027344
      4          1           0       -1.567509    1.042862    0.230950
      5          1           0        1.397404    0.085675    1.416392
      6          1           0       -1.567512   -0.310541   -1.021990
      7          1           0       -1.624941   -0.719308    0.776970
 ---------------------------------------------------------------------
                    Distance matrix (angstroms):
                    1          2          3          4          5
     1  C    0.000000
     2  P    2.812527   0.000000
     3  H    3.142151   1.419036   0.000000
     4  H    1.080232   3.159782   3.858833   0.000000
     5  H    3.142301   1.419008   2.047616   3.333495   0.000000
     6  H    1.080231   3.159785   3.334496   1.844332   3.859199
     7  H    1.081160   3.210808   3.191335   1.845720   3.192401
                    6          7
     6  H    0.000000
     7  H    1.845710   0.000000
 Symmetry turned off by external request.
 Stoichiometry    CH5P
 Framework group  C1[X(CH5P)]
 Deg. of freedom    15
 Full point group                 C1      NOp   1
 Rotational constants (GHZ):          68.5645961           5.7819649           5.7633132
 Leave Link  202 at Mon Apr 21 19:04:14 2025, MaxMem=   536870912 cpu:               0.2 elap:               0.1
 (Enter /home/szhao/Apps/g16/l301.exe)
 Standard basis: 6-311+G(d,p) (5D, 7F)
 Ernie: Thresh=  0.10000D-02 Tol=  0.10000D-05 Strict=F.
    82 basis functions,   126 primitive gaussians,    84 cartesian basis functions
    13 alpha electrons       13 beta electrons
       nuclear repulsion energy        48.4955097307 Hartrees.
 IExCor= 4336 DFT=T Ex+Corr=M062X ExCW=0 ScaHFX=  0.540000
 ScaDFX=  1.000000  1.000000  1.000000  1.000000 ScalE2=  1.000000  1.000000
 IRadAn=      7 IRanWt=     -1 IRanGd=            0 ICorTp=0 IEmpDi=  4
 NAtoms=    7 NActive=    7 NUniq=    7 SFac= 1.00D+00 NAtFMM=   60 NAOKFM=F Big=F
 Integral buffers will be    131072 words long.
 Raffenetti 2 integral format.
 Two-electron integral symmetry is turned off.
 Leave Link  301 at Mon Apr 21 19:04:14 2025, MaxMem=   536870912 cpu:               0.8 elap:               0.1
 (Enter /home/szhao/Apps/g16/l302.exe)
 NPDir=0 NMtPBC=     1 NCelOv=     1 NCel=       1 NClECP=     1 NCelD=      1
         NCelK=      1 NCelE2=     1 NClLst=     1 CellRange=     0.0.
 One-electron integrals computed using PRISM.
 NBasis=    82 RedAO= T EigKep=  2.76D-03  NBF=    82
 NBsUse=    82 1.00D-06 EigRej= -1.00D+00 NBFU=    82
 Precomputing XC quadrature grid using
 IXCGrd= 4 IRadAn=           7 IRanWt=          -1 IRanGd=           0 AccXCQ= 0.00D+00.
 Generated NRdTot=       0 NPtTot=           0 NUsed=           0 NTot=          32
 NSgBfM=    84    84    84    84    84 MxSgAt=     7 MxSgA2=     7.
 Leave Link  302 at Mon Apr 21 19:04:15 2025, MaxMem=   536870912 cpu:               2.2 elap:               0.3
 (Enter /home/szhao/Apps/g16/l303.exe)
 DipDrv:  MaxL=1.
 Leave Link  303 at Mon Apr 21 19:04:15 2025, MaxMem=   536870912 cpu:               0.5 elap:               0.1
 (Enter /home/szhao/Apps/g16/l401.exe)
 Initial guess from the checkpoint file:  "opt.chk"
 B after Tr=     0.010564   -0.000781    0.000965
         Rot=    1.000000    0.000093    0.000650    0.000585 Ang=   0.10 deg.
 Guess basis will be translated and rotated to current coordinates.
 JPrj=2 DoOrth=T DoCkMO=T.
 Initial guess <Sx>= 0.0000 <Sy>= 0.0000 <Sz>= 0.0000 <S**2>=-0.0000 S=-0.0000
 Generating alternative initial guess.
 ExpMin= 3.48D-02 ExpMax= 7.75D+04 ExpMxC= 2.65D+03 IAcc=3 IRadAn=         5 AccDes= 0.00D+00
 Harris functional with IExCor= 1009 and IRadAn=       5 diagonalized for initial guess.
 HarFok:  IExCor= 1009 AccDes= 0.00D+00 IRadAn=         5 IDoV= 1 UseB2=F ITyADJ=14
 ICtDFT=  3500011 ScaDFX=  1.000000  1.000000  1.000000  1.000000
 FoFCou: FMM=F IPFlag=           0 FMFlag=      100000 FMFlg1=           0
         NFxFlg=           0 DoJE=T BraDBF=F KetDBF=T FulRan=T
         wScrn=  0.000000 ICntrl=       500 IOpCl=  0 I1Cent=   200000004 NGrid=           0
         NMat0=    1 NMatS0=      1 NMatT0=    0 NMatD0=    1 NMtDS0=    0 NMtDT0=    0
 Symmetry not used in FoFCou.
 Harris En= -382.216876715661    
 Leave Link  401 at Mon Apr 21 19:04:15 2025, MaxMem=   536870912 cpu:               3.2 elap:               0.4
 (Enter /home/szhao/Apps/g16/l502.exe)
 Keep R1 and R2 ints in memory in canonical form, NReq=18891869.
 FoFCou: FMM=F IPFlag=           0 FMFlag=           0 FMFlg1=           0
         NFxFlg=           0 DoJE=F BraDBF=F KetDBF=F FulRan=T
         wScrn=  0.000000 ICntrl=       600 IOpCl=  0 I1Cent=           0 NGrid=           0
         NMat0=    1 NMatS0=   3403 NMatT0=    0 NMatD0=    1 NMtDS0=    0 NMtDT0=    0
 Symmetry not used in FoFCou.
 Two-electron integral symmetry not used.
 UHF open shell SCF:
 Using DIIS extrapolation, IDIIS=  1040.
 NGot=   536870912 LenX=   525271507 LenY=   525264010
 Requested convergence on RMS density matrix=1.00D-08 within 128 cycles.
 Requested convergence on MAX density matrix=1.00D-06.
 Requested convergence on             energy=1.00D-06.
 No special actions if energy rises.

 Cycle   1  Pass 1  IDiag  1:
 E= -382.332418153739    
 DIIS: error= 6.21D-03 at cycle   1 NSaved=   1.
 NSaved= 1 IEnMin= 1 EnMin= -382.332418153739     IErMin= 1 ErrMin= 6.21D-03
 ErrMax= 6.21D-03  0.00D+00 EMaxC= 1.00D-01 BMatC= 6.32D-03 BMatP= 6.32D-03
 IDIUse=3 WtCom= 9.38D-01 WtEn= 6.21D-02
 Coeff-Com:  0.100D+01
 Coeff-En:   0.100D+01
 Coeff:      0.100D+01
 Gap=     0.452 Goal=   None    Shift=    0.000
 Gap=     0.452 Goal=   None    Shift=    0.000
 GapD=    0.452 DampG=2.000 DampE=1.000 DampFc=2.0000 IDamp=-1.
 RMSDP=6.86D-04 MaxDP=9.11D-03              OVMax= 2.62D-02

 Cycle   2  Pass 1  IDiag  1:
 E= -382.334849703108     Delta-E=       -0.002431549369 Rises=F Damp=F
 DIIS: error= 7.70D-04 at cycle   2 NSaved=   2.
 NSaved= 2 IEnMin= 2 EnMin= -382.334849703108     IErMin= 2 ErrMin= 7.70D-04
 ErrMax= 7.70D-04  0.00D+00 EMaxC= 1.00D-01 BMatC= 1.76D-04 BMatP= 6.32D-03
 IDIUse=3 WtCom= 9.92D-01 WtEn= 7.70D-03
 Coeff-Com: -0.843D-01 0.108D+01
 Coeff-En:   0.000D+00 0.100D+01
 Coeff:     -0.836D-01 0.108D+01
 Gap=     0.219 Goal=   None    Shift=    0.000
 Gap=     0.219 Goal=   None    Shift=    0.000
 RMSDP=2.09D-04 MaxDP=3.44D-03 DE=-2.43D-03 OVMax= 7.04D-03

 Cycle   3  Pass 1  IDiag  1:
 E= -382.334946971579     Delta-E=       -0.000097268471 Rises=F Damp=F
 DIIS: error= 3.89D-04 at cycle   3 NSaved=   3.
 NSaved= 3 IEnMin= 3 EnMin= -382.334946971579     IErMin= 3 ErrMin= 3.89D-04
 ErrMax= 3.89D-04  0.00D+00 EMaxC= 1.00D-01 BMatC= 6.25D-05 BMatP= 1.76D-04
 IDIUse=3 WtCom= 9.96D-01 WtEn= 3.89D-03
 Coeff-Com: -0.437D-01 0.396D+00 0.648D+00
 Coeff-En:   0.000D+00 0.000D+00 0.100D+01
 Coeff:     -0.436D-01 0.394D+00 0.649D+00
 Gap=     0.219 Goal=   None    Shift=    0.000
 Gap=     0.219 Goal=   None    Shift=    0.000
 RMSDP=7.80D-05 MaxDP=2.37D-03 DE=-9.73D-05 OVMax= 6.36D-03

 Cycle   4  Pass 1  IDiag  1:
 E= -382.334960659670     Delta-E=       -0.000013688091 Rises=F Damp=F
 DIIS: error= 3.58D-04 at cycle   4 NSaved=   4.
 NSaved= 4 IEnMin= 4 EnMin= -382.334960659670     IErMin= 4 ErrMin= 3.58D-04
 ErrMax= 3.58D-04  0.00D+00 EMaxC= 1.00D-01 BMatC= 4.20D-05 BMatP= 6.25D-05
 IDIUse=3 WtCom= 9.96D-01 WtEn= 3.58D-03
 Coeff-Com: -0.149D-01 0.348D-01 0.449D+00 0.531D+00
 Coeff-En:   0.000D+00 0.000D+00 0.335D+00 0.665D+00
 Coeff:     -0.148D-01 0.347D-01 0.449D+00 0.532D+00
 Gap=     0.219 Goal=   None    Shift=    0.000
 Gap=     0.219 Goal=   None    Shift=    0.000
 RMSDP=3.34D-05 MaxDP=8.58D-04 DE=-1.37D-05 OVMax= 2.16D-03

 Cycle   5  Pass 1  IDiag  1:
 E= -382.334975048034     Delta-E=       -0.000014388364 Rises=F Damp=F
 DIIS: error= 3.90D-05 at cycle   5 NSaved=   5.
 NSaved= 5 IEnMin= 5 EnMin= -382.334975048034     IErMin= 5 ErrMin= 3.90D-05
 ErrMax= 3.90D-05  0.00D+00 EMaxC= 1.00D-01 BMatC= 5.41D-07 BMatP= 4.20D-05
 IDIUse=1 WtCom= 1.00D+00 WtEn= 0.00D+00
 Coeff-Com:  0.386D-02-0.528D-01 0.198D-01 0.602D-01 0.969D+00
 Coeff:      0.386D-02-0.528D-01 0.198D-01 0.602D-01 0.969D+00
 Gap=     0.219 Goal=   None    Shift=    0.000
 Gap=     0.219 Goal=   None    Shift=    0.000
 RMSDP=1.29D-05 MaxDP=2.37D-04 DE=-1.44D-05 OVMax= 6.49D-04

 Cycle   6  Pass 1  IDiag  1:
 E= -382.334975510612     Delta-E=       -0.000000462577 Rises=F Damp=F
 DIIS: error= 1.19D-05 at cycle   6 NSaved=   6.
 NSaved= 6 IEnMin= 6 EnMin= -382.334975510612     IErMin= 6 ErrMin= 1.19D-05
 ErrMax= 1.19D-05  0.00D+00 EMaxC= 1.00D-01 BMatC= 7.21D-08 BMatP= 5.41D-07
 IDIUse=1 WtCom= 1.00D+00 WtEn= 0.00D+00
 Coeff-Com:  0.200D-02-0.178D-01-0.226D-01-0.219D-01 0.261D+00 0.799D+00
 Coeff:      0.200D-02-0.178D-01-0.226D-01-0.219D-01 0.261D+00 0.799D+00
 Gap=     0.219 Goal=   None    Shift=    0.000
 Gap=     0.219 Goal=   None    Shift=    0.000
 RMSDP=2.65D-06 MaxDP=4.08D-05 DE=-4.63D-07 OVMax= 1.63D-04

 Cycle   7  Pass 1  IDiag  1:
 E= -382.334975547344     Delta-E=       -0.000000036732 Rises=F Damp=F
 DIIS: error= 2.96D-06 at cycle   7 NSaved=   7.
 NSaved= 7 IEnMin= 7 EnMin= -382.334975547344     IErMin= 7 ErrMin= 2.96D-06
 ErrMax= 2.96D-06  0.00D+00 EMaxC= 1.00D-01 BMatC= 3.06D-09 BMatP= 7.21D-08
 IDIUse=1 WtCom= 1.00D+00 WtEn= 0.00D+00
 Coeff-Com: -0.436D-03 0.625D-02-0.358D-02-0.637D-02-0.106D+00-0.505D-02
 Coeff-Com:  0.112D+01
 Coeff:     -0.436D-03 0.625D-02-0.358D-02-0.637D-02-0.106D+00-0.505D-02
 Coeff:      0.112D+01
 Gap=     0.219 Goal=   None    Shift=    0.000
 Gap=     0.219 Goal=   None    Shift=    0.000
 RMSDP=1.26D-06 MaxDP=1.50D-05 DE=-3.67D-08 OVMax= 7.84D-05

 Cycle   8  Pass 1  IDiag  1:
 E= -382.334975550972     Delta-E=       -0.000000003628 Rises=F Damp=F
 DIIS: error= 4.49D-07 at cycle   8 NSaved=   8.
 NSaved= 8 IEnMin= 8 EnMin= -382.334975550972     IErMin= 8 ErrMin= 4.49D-07
 ErrMax= 4.49D-07  0.00D+00 EMaxC= 1.00D-01 BMatC= 7.56D-11 BMatP= 3.06D-09
 IDIUse=1 WtCom= 1.00D+00 WtEn= 0.00D+00
 Coeff-Com: -0.740D-04 0.784D-03 0.485D-03 0.858D-03-0.136D-01-0.145D-01
 Coeff-Com:  0.343D-01 0.992D+00
 Coeff:     -0.740D-04 0.784D-03 0.485D-03 0.858D-03-0.136D-01-0.145D-01
 Coeff:      0.343D-01 0.992D+00
 Gap=     0.219 Goal=   None    Shift=    0.000
 Gap=     0.219 Goal=   None    Shift=    0.000
 RMSDP=1.54D-07 MaxDP=2.32D-06 DE=-3.63D-09 OVMax= 7.60D-06

 Cycle   9  Pass 1  IDiag  1:
 E= -382.334975551031     Delta-E=       -0.000000000060 Rises=F Damp=F
 DIIS: error= 1.00D-07 at cycle   9 NSaved=   9.
 NSaved= 9 IEnMin= 9 EnMin= -382.334975551031     IErMin= 9 ErrMin= 1.00D-07
 ErrMax= 1.00D-07  0.00D+00 EMaxC= 1.00D-01 BMatC= 4.89D-12 BMatP= 7.56D-11
 IDIUse=1 WtCom= 1.00D+00 WtEn= 0.00D+00
 Coeff-Com:  0.131D-04-0.214D-03 0.162D-03 0.509D-03 0.323D-02-0.240D-02
 Coeff-Com: -0.493D-01 0.950D-01 0.953D+00
 Coeff:      0.131D-04-0.214D-03 0.162D-03 0.509D-03 0.323D-02-0.240D-02
 Coeff:     -0.493D-01 0.950D-01 0.953D+00
 Gap=     0.219 Goal=   None    Shift=    0.000
 Gap=     0.219 Goal=   None    Shift=    0.000
 RMSDP=3.78D-08 MaxDP=6.55D-07 DE=-5.96D-11 OVMax= 1.46D-06

 Cycle  10  Pass 1  IDiag  1:
 E= -382.334975551035     Delta-E=       -0.000000000003 Rises=F Damp=F
 DIIS: error= 2.14D-08 at cycle  10 NSaved=  10.
 NSaved=10 IEnMin=10 EnMin= -382.334975551035     IErMin=10 ErrMin= 2.14D-08
 ErrMax= 2.14D-08  0.00D+00 EMaxC= 1.00D-01 BMatC= 1.74D-13 BMatP= 4.89D-12
 IDIUse=1 WtCom= 1.00D+00 WtEn= 0.00D+00
 Coeff-Com:  0.365D-05-0.407D-04-0.114D-04 0.111D-04 0.733D-03 0.548D-03
 Coeff-Com: -0.104D-02-0.439D-01 0.622D-02 0.104D+01
 Coeff:      0.365D-05-0.407D-04-0.114D-04 0.111D-04 0.733D-03 0.548D-03
 Coeff:     -0.104D-02-0.439D-01 0.622D-02 0.104D+01
 Gap=     0.219 Goal=   None    Shift=    0.000
 Gap=     0.219 Goal=   None    Shift=    0.000
 RMSDP=7.97D-09 MaxDP=1.47D-07 DE=-3.30D-12 OVMax= 3.91D-07

 SCF Done:  E(UM062X) =  -382.334975551     A.U. after   10 cycles
            NFock= 10  Conv=0.80D-08     -V/T= 2.0024
 <Sx>= 0.0000 <Sy>= 0.0000 <Sz>= 0.0000 <S**2>=-0.0000 S=-0.0000
 <L.S>=  0.00000000000    
 KE= 3.814162465157D+02 PE=-1.003596177138D+03 EE= 1.913494453407D+02
 Annihilation of the first spin contaminant:
 S**2 before annihilation    -0.0000,   after    -0.0000
 Leave Link  502 at Mon Apr 21 19:04:25 2025, MaxMem=   536870912 cpu:              71.2 elap:               9.4
 (Enter /home/szhao/Apps/g16/l701.exe)
 ... and contract with generalized density number  0.
 Compute integral first derivatives.
 Leave Link  701 at Mon Apr 21 19:04:25 2025, MaxMem=   536870912 cpu:               1.1 elap:               0.2
 (Enter /home/szhao/Apps/g16/l702.exe)
 L702 exits ... SP integral derivatives will be done elsewhere.
 Leave Link  702 at Mon Apr 21 19:04:25 2025, MaxMem=   536870912 cpu:               0.5 elap:               0.1
 (Enter /home/szhao/Apps/g16/l703.exe)
 Integral derivatives from FoFJK, PRISM(SPDF).
 Compute integral first derivatives, UseDBF=F ICtDFT=           0.
 Calling FoFJK, ICntrl=      2127 FMM=F ISym2X=0 I1Cent= 0 IOpClX= 1 NMat=1 NMatS=1 NMatT=0.
 FoFJK:  IHMeth= 1 ICntrl=    2127 DoSepK=F KAlg= 0 I1Cent=           0 FoldK=F
 IRaf=         0 NMat=       1 IRICut=       1 DoRegI=T DoRafI=F ISym2E= 0 IDoP0=0 IntGTp=1.
 FoFCou: FMM=F IPFlag=           0 FMFlag=      100000 FMFlg1=         800
         NFxFlg=           0 DoJE=F BraDBF=F KetDBF=F FulRan=T
         wScrn=  0.000000 ICntrl=      2127 IOpCl=  1 I1Cent=           0 NGrid=           0
         NMat0=    1 NMatS0=      1 NMatT0=    0 NMatD0=    1 NMtDS0=    0 NMtDT0=    0
 Symmetry not used in FoFCou.
 Leave Link  703 at Mon Apr 21 19:04:27 2025, MaxMem=   536870912 cpu:              11.5 elap:               1.5
 (Enter /home/szhao/Apps/g16/l716.exe)
 Dipole        =-3.28967550D-01-2.00172098D-01 2.16833313D-01
 -------------------------------------------------------------------
 Center     Atomic                   Forces (Hartrees/Bohr)
 Number     Number              X              Y              Z
 -------------------------------------------------------------------
      1        6          -0.000000000   -0.000000000   -0.000000000
      2       15          -0.000000000   -0.000000000   -0.000000000
      3        1           0.000017174    0.000188046    0.000129711
      4        1          -0.000570250    0.000725635   -0.000095795
      5        1           0.000012112   -0.000145087   -0.000175715
      6        1          -0.000568069    0.000040565   -0.000731332
      7        1           0.000679728   -0.000346781    0.000375656
 -------------------------------------------------------------------
 Cartesian Forces:  Max     0.000731332 RMS     0.000348333
 Leave Link  716 at Mon Apr 21 19:04:27 2025, MaxMem=   536870912 cpu:               0.4 elap:               0.1
 (Enter /home/szhao/Apps/g16/l103.exe)

 GradGradGradGradGradGradGradGradGradGradGradGradGradGradGradGradGradGrad
 Berny optimization.
 Using GEDIIS/GDIIS optimizer.
 FormGI is forming the generalized inverse of G from B-inverse, IUseBI=4.
 Internal  Forces:  Max     0.001495667 RMS     0.000477324
 Search for a local minimum.
 Step number   3 out of a maximum of   36
 All quantities printed in internal units (Hartrees-Bohrs-Radians)
 RMS Force = .52035D-03 SwitMx=.10000D-02 MixMth= 2
 Mixed Optimization -- En-DIIS/RFO-DIIS
 Update second derivatives using D2CorX and points    1    2    3
 DE= -2.38D-03 DEPred=-2.60D-03 R= 9.18D-01
 TightC=F SS=  1.41D+00  RLast= 2.30D-01 DXNew= 8.4853D-01 6.8866D-01
 Trust test= 9.18D-01 RLast= 2.30D-01 DXMaxT set to 6.89D-01
 ITU=  1  1  0
 Use linear search instead of GDIIS.
     Eigenvalues ---    0.00230   0.06639   0.08397   0.08872   0.09416
     Eigenvalues ---    0.16000   0.16000   0.16014   0.16526   0.21118
     Eigenvalues ---    0.21121   0.34766   0.34868   0.351611000.00000
     Eigenvalues --- 1000.000001000.000001000.000001000.000001000.00000
     Eigenvalues --- 1000.000001000.000001000.000001000.000001000.00000
     Eigenvalues --- 1000.00000
 RFO step:  Lambda=-2.92678123D-05 EMin= 2.30000065D-03
 Quartic linear search produced a step of -0.00533.
 Iteration  1 RMS(Cart)=  0.00494548 RMS(Int)=  0.00003241
 Iteration  2 RMS(Cart)=  0.00002255 RMS(Int)=  0.00002440
 Iteration  3 RMS(Cart)=  0.00000000 RMS(Int)=  0.00002440
 ITry= 1 IFail=0 DXMaxC= 1.94D-02 DCOld= 1.00D+10 DXMaxT= 6.89D-01 DXLimC= 3.00D+00 Rises=F
 Variable       Old X    -DE/DX   Delta X   Delta X   Delta X     New X
                                 (Linear)    (Quad)   (Total)
    X1       -2.65745  -0.00046   0.00000   0.00000   0.00000  -2.65745
    Y1        0.00000   0.00011   0.00000   0.00000   0.00000   0.00000
    Z1        0.00000  -0.00012   0.00000   0.00000   0.00000   0.00000
    X2        2.65745   0.00003   0.00000   0.00000   0.00000   2.65745
    Y2        0.00000   0.00036   0.00000   0.00000   0.00000   0.00000
    Z2        0.00000  -0.00038   0.00000   0.00000   0.00000   0.00000
    R1        2.04134   0.00077   0.00008   0.00208   0.00216   2.04351
    R2        2.04134   0.00077   0.00008   0.00208   0.00216   2.04351
    R3        2.04310   0.00036   0.00007   0.00095   0.00102   2.04412
    R4        2.68159  -0.00019  -0.00001  -0.00085  -0.00086   2.68073
    R5        2.68154  -0.00018  -0.00001  -0.00085  -0.00086   2.68068
    A1        1.72063   0.00088   0.00048   0.00449   0.00500   1.72563
    A2        1.72063   0.00088   0.00048   0.00447   0.00498   1.72560
    A3        1.77446  -0.00150   0.00063  -0.01045  -0.00978   1.76468
    A4        2.04600  -0.00042  -0.00039  -0.00185  -0.00220   2.04380
    A5        2.04706   0.00014  -0.00036   0.00134   0.00105   2.04811
    A6        2.04704   0.00014  -0.00036   0.00135   0.00106   2.04810
    A7        1.56442   0.00004   0.00033  -0.00036  -0.00003   1.56439
    A8        1.56455   0.00003   0.00033  -0.00045  -0.00012   1.56444
    A9        1.61190  -0.00014  -0.00003  -0.00224  -0.00225   1.60965
    D1        2.90438  -0.00008   0.00005  -0.00128  -0.00125   2.90313
    D2        1.29244   0.00006   0.00006   0.00095   0.00100   1.29344
    D3       -1.29507  -0.00006  -0.00004  -0.00089  -0.00093  -1.29600
    D4       -2.90701   0.00008  -0.00004   0.00134   0.00132  -2.90569
    D5        0.80465  -0.00007   0.00000  -0.00109  -0.00109   0.80356
    D6       -0.80729   0.00007   0.00001   0.00115   0.00116  -0.80613
         Item               Value     Threshold  Converged?
 Maximum Force            0.001496     0.000450     NO 
 RMS     Force            0.000520     0.000300     NO 
 Maximum Displacement     0.019395     0.001800     NO 
 RMS     Displacement     0.004952     0.001200     NO 
[...]
 InvSVX:  RCond= 3.34D-09 Info=           0 Equed=N FErr=  9.60D-14 BErr=  1.00D-16
 DIIS inversion failure, remove point   5.
 InvSVX:  RCond= 1.12D-08 Info=           0 Equed=N FErr=  1.58D-14 BErr=  9.78D-17
 DIIS inversion failure, remove point   4.
 InvSVX:  RCond= 6.79D-08 Info=           0 Equed=N FErr=  2.34D-15 BErr=  5.42D-17
 DIIS inversion failure, remove point   3.
 InvSVX:  RCond= 7.30D-07 Info=           0 Equed=N FErr=  9.42D-16 BErr=  7.65D-17
 RFO-DIIS uses    2 points instead of    5
 DidBck=F Rises=F RFO-DIIS coefs:    1.02459   -0.02459    0.00000    0.00000    0.00000
 Iteration  1 RMS(Cart)=  0.00004314 RMS(Int)=  0.00000000
 Iteration  2 RMS(Cart)=  0.00000000 RMS(Int)=  0.00000000
 ITry= 1 IFail=0 DXMaxC= 1.37D-04 DCOld= 1.00D+10 DXMaxT= 6.89D-01 DXLimC= 3.00D+00 Rises=F
 Variable       Old X    -DE/DX   Delta X   Delta X   Delta X     New X
                                 (Linear)    (Quad)   (Total)
    X1       -2.65745  -0.00000   0.00000   0.00000   0.00000  -2.65745
    Y1        0.00000   0.00001   0.00000   0.00000   0.00000   0.00000
    Z1        0.00000  -0.00001   0.00000   0.00000   0.00000   0.00000
    X2        2.65745  -0.00000   0.00000   0.00000   0.00000   2.65745
    Y2        0.00000  -0.00000   0.00000   0.00000   0.00000   0.00000
    Z2        0.00000   0.00000   0.00000   0.00000   0.00000   0.00000
    R1        2.04351   0.00000  -0.00000   0.00001   0.00001   2.04351
    R2        2.04350   0.00000  -0.00000   0.00001   0.00001   2.04351
    R3        2.04392   0.00000   0.00000   0.00000   0.00000   2.04393
    R4        2.68090  -0.00000   0.00000  -0.00000  -0.00000   2.68090
    R5        2.68085  -0.00000   0.00000  -0.00000  -0.00000   2.68085
    A1        1.73550   0.00000   0.00001  -0.00001   0.00000   1.73550
    A2        1.73546  -0.00000   0.00001  -0.00001  -0.00000   1.73545
    A3        1.74811   0.00001  -0.00000   0.00006   0.00005   1.74816
    A4        2.04287  -0.00000   0.00001  -0.00002  -0.00001   2.04285
    A5        2.04773  -0.00000  -0.00001   0.00000  -0.00001   2.04772
    A6        2.04772  -0.00000  -0.00001   0.00000  -0.00001   2.04771
    A7        1.56021  -0.00001  -0.00002  -0.00003  -0.00005   1.56016
    A8        1.56021  -0.00001  -0.00002  -0.00003  -0.00005   1.56016
    A9        1.60976  -0.00000   0.00000  -0.00002  -0.00002   1.60974
    D1        2.90095   0.00000  -0.00001  -0.00000  -0.00001   2.90093
    D2        1.29107   0.00000  -0.00001   0.00001   0.00000   1.29107
    D3       -1.29372  -0.00000   0.00001  -0.00003  -0.00003  -1.29374
    D4       -2.90359  -0.00000   0.00001  -0.00002  -0.00001  -2.90360
    D5        0.80360  -0.00000  -0.00000  -0.00002  -0.00002   0.80358
    D6       -0.80627   0.00000  -0.00000  -0.00000  -0.00000  -0.80628
         Item               Value     Threshold  Converged?
 Maximum Force            0.000006     0.000450     YES
 RMS     Force            0.000003     0.000300     YES
 Maximum Displacement     0.000137     0.001800     YES
 RMS     Displacement     0.000043     0.001200     YES
 Predicted change in Energy=-5.261667D-10
 Optimization completed.
    -- Stationary point found.
                           ----------------------------
                           !   Optimized Parameters   !
                           ! (Angstroms and Degrees)  !
 --------------------------                            --------------------------
 ! Name  Definition              Value          Derivative Info.                !
 --------------------------------------------------------------------------------
 ! X1    R(1,-1)                -1.4063         -DE/DX =    0.0                 !
 ! Y1    R(1,-2)                 0.0            -DE/DX =    0.0                 !
 ! Z1    R(1,-3)                 0.0            -DE/DX =    0.0                 !
 ! X2    R(2,-1)                 1.4063         -DE/DX =    0.0                 !
 ! Y2    R(2,-2)                 0.0            -DE/DX =    0.0                 !
 ! Z2    R(2,-3)                 0.0            -DE/DX =    0.0                 !
 ! R1    R(1,4)                  1.0814         -DE/DX =    0.0                 !
 ! R2    R(1,6)                  1.0814         -DE/DX =    0.0                 !
 ! R3    R(1,7)                  1.0816         -DE/DX =    0.0                 !
 ! R4    R(2,3)                  1.4187         -DE/DX =    0.0                 !
 ! R5    R(2,5)                  1.4186         -DE/DX =    0.0                 !
 ! A1    A(2,1,4)               99.4367         -DE/DX =    0.0                 !
 ! A2    A(2,1,6)               99.4343         -DE/DX =    0.0                 !
 ! A3    A(2,1,7)              100.1591         -DE/DX =    0.0                 !
 ! A4    A(4,1,6)              117.0476         -DE/DX =    0.0                 !
 ! A5    A(4,1,7)              117.3264         -DE/DX =    0.0                 !
 ! A6    A(6,1,7)              117.3257         -DE/DX =    0.0                 !
 ! A7    A(1,2,3)               89.3933         -DE/DX =    0.0                 !
 ! A8    A(1,2,5)               89.3933         -DE/DX =    0.0                 !
 ! A9    A(3,2,5)               92.2323         -DE/DX =    0.0                 !
 ! D1    D(4,1,2,3)            166.212          -DE/DX =    0.0                 !
 ! D2    D(4,1,2,5)             73.973          -DE/DX =    0.0                 !
 ! D3    D(6,1,2,3)            -74.1244         -DE/DX =    0.0                 !
 ! D4    D(6,1,2,5)           -166.3634         -DE/DX =    0.0                 !
 ! D5    D(7,1,2,3)             46.043          -DE/DX =    0.0                 !
 ! D6    D(7,1,2,5)            -46.1959         -DE/DX =    0.0                 !
 --------------------------------------------------------------------------------
 Lowest energy point so far.  Saving SCF results.
 Largest change from initial coordinates is atom    7       0.254 Angstoms.
 GradGradGradGradGradGradGradGradGradGradGradGradGradGradGradGradGradGrad

 Leave Link  103 at Mon Apr 21 19:05:17 2025, MaxMem=   536870912 cpu:               0.7 elap:               0.1
 (Enter /home/szhao/Apps/g16/l202.exe)
                          Input orientation:                          
 ---------------------------------------------------------------------
 Center     Atomic      Atomic             Coordinates (Angstroms)
 Number     Number       Type             X           Y           Z
 ---------------------------------------------------------------------
      1          6           0       -1.406264    0.000000    0.000000
      2         15           0        1.406264    0.000000    0.000000
      3          1           0        1.391240   -1.418298    0.028798
      4          1           0       -1.583563    1.040952    0.233154
      5          1           0        1.391242    0.084184    1.416065
      6          1           0       -1.583518   -0.312578   -1.019927
      7          1           0       -1.597039   -0.723275    0.781237
 ---------------------------------------------------------------------
                    Distance matrix (angstroms):
                    1          2          3          4          5
     1  C    0.000000
     2  P    2.812527   0.000000
     3  H    3.136627   1.418670   0.000000
     4  H    1.081377   3.174430   3.865117   0.000000
     5  H    3.136617   1.418645   2.044985   3.341279   0.000000
     6  H    1.081376   3.174389   3.342399   1.844519   3.865316
     7  H    1.081598   3.186422   3.158961   1.847451   3.159876
                    6          7
     6  H    0.000000
     7  H    1.847443   0.000000
 Symmetry turned off by external request.
 Stoichiometry    CH5P
 Framework group  C1[X(CH5P)]
 Deg. of freedom    15
 Full point group                 C1      NOp   1
 Rotational constants (GHZ):          68.5413068           5.7818256           5.7640069
 Leave Link  202 at Mon Apr 21 19:05:17 2025, MaxMem=   536870912 cpu:               0.3 elap:               0.1
 (Enter /home/szhao/Apps/g16/l601.exe)
 Copying SCF densities to generalized density rwf, IOpCl= 1 IROHF=0.

 **********************************************************************

            Population analysis using the SCF density.

 **********************************************************************

 Alpha  occ. eigenvalues --  -78.03180 -10.57567  -6.85506  -4.97033  -4.96982
 Alpha  occ. eigenvalues --   -4.96788  -0.77613  -0.69278  -0.49106  -0.49078
 Alpha  occ. eigenvalues --   -0.43561  -0.34834  -0.28049
 Alpha virt. eigenvalues --   -0.06153   0.01743   0.04006   0.04411   0.04744
 Alpha virt. eigenvalues --    0.06429   0.06795   0.07442   0.07568   0.12697
 Alpha virt. eigenvalues --    0.17530   0.18866   0.19153   0.25164   0.30118
 Alpha virt. eigenvalues --    0.30682   0.33266   0.39026   0.42517   0.43570
 Alpha virt. eigenvalues --    0.43872   0.52372   0.63722   0.64406   0.65141
 Alpha virt. eigenvalues --    0.66515   0.71003   0.71661   0.74366   0.83048
 Alpha virt. eigenvalues --    0.95486   0.96955   1.10347   1.10465   1.39664
 Alpha virt. eigenvalues --    1.45280   1.45395   1.45444   1.49264   1.49812
 Alpha virt. eigenvalues --    1.50083   1.53552   1.63177   1.68608   1.70332
 Alpha virt. eigenvalues --    1.83260   1.83513   1.88166   2.03623   2.10388
 Alpha virt. eigenvalues --    2.10852   2.12743   2.46043   2.48829   2.48962
 Alpha virt. eigenvalues --    2.58187   2.64004   2.64206   2.68894   2.77848
 Alpha virt. eigenvalues --    2.97070   3.75110   3.75208   7.07093  14.04007
 Alpha virt. eigenvalues --   14.05356  14.05657  23.97117 163.35736
  Beta  occ. eigenvalues --  -78.03180 -10.57567  -6.85506  -4.97033  -4.96982
  Beta  occ. eigenvalues --   -4.96788  -0.77613  -0.69278  -0.49106  -0.49078
  Beta  occ. eigenvalues --   -0.43561  -0.34834  -0.28049
  Beta virt. eigenvalues --   -0.06153   0.01743   0.04006   0.04411   0.04744
  Beta virt. eigenvalues --    0.06429   0.06795   0.07442   0.07568   0.12697
  Beta virt. eigenvalues --    0.17530   0.18866   0.19153   0.25164   0.30118
  Beta virt. eigenvalues --    0.30682   0.33266   0.39026   0.42517   0.43570
  Beta virt. eigenvalues --    0.43872   0.52372   0.63722   0.64406   0.65141
  Beta virt. eigenvalues --    0.66515   0.71003   0.71661   0.74366   0.83048
  Beta virt. eigenvalues --    0.95486   0.96955   1.10347   1.10465   1.39664
  Beta virt. eigenvalues --    1.45280   1.45395   1.45444   1.49264   1.49812
  Beta virt. eigenvalues --    1.50083   1.53552   1.63177   1.68608   1.70332
  Beta virt. eigenvalues --    1.83260   1.83513   1.88166   2.03623   2.10388
  Beta virt. eigenvalues --    2.10852   2.12743   2.46043   2.48829   2.48962
  Beta virt. eigenvalues --    2.58187   2.64004   2.64206   2.68894   2.77848
  Beta virt. eigenvalues --    2.97070   3.75110   3.75208   7.07093  14.04007
  Beta virt. eigenvalues --   14.05356  14.05657  23.97117 163.35736
          Condensed to atoms (all electrons):
               1          2          3          4          5          6
     1  C    5.249818   0.204340  -0.020031   0.380237  -0.020042   0.380232
     2  P    0.204340  14.303428   0.278840  -0.012371   0.278848  -0.012373
     3  H   -0.020031   0.278840   0.757131   0.000777  -0.029777   0.000127
     4  H    0.380237  -0.012371   0.000777   0.490054   0.000126  -0.020654
     5  H   -0.020042   0.278848  -0.029777   0.000126   0.757122   0.000778
     6  H    0.380232  -0.012373   0.000127  -0.020654   0.000778   0.490044
     7  H    0.378187  -0.017704   0.000367  -0.022116   0.000367  -0.022115
               7
     1  C    0.378187
     2  P   -0.017704
     3  H    0.000367
     4  H   -0.022116
     5  H    0.000367
     6  H   -0.022115
     7  H    0.500316
          Atomic-Atomic Spin Densities.
               1          2          3          4          5          6
     1  C    0.000000  -0.000000   0.000000   0.000000   0.000000  -0.000000
     2  P   -0.000000   0.000000  -0.000000   0.000000  -0.000000   0.000000
     3  H    0.000000  -0.000000   0.000000  -0.000000   0.000000  -0.000000
     4  H    0.000000   0.000000  -0.000000   0.000000  -0.000000  -0.000000
     5  H    0.000000  -0.000000   0.000000  -0.000000  -0.000000   0.000000
     6  H   -0.000000   0.000000  -0.000000  -0.000000   0.000000   0.000000
     7  H   -0.000000   0.000000  -0.000000   0.000000   0.000000   0.000000
               7
     1  C   -0.000000
     2  P    0.000000
     3  H   -0.000000
     4  H    0.000000
     5  H    0.000000
     6  H    0.000000
     7  H   -0.000000
 Mulliken charges and spin densities:
               1          2
     1  C   -0.552742  -0.000000
     2  P   -0.023007   0.000000
     3  H    0.012567   0.000000
     4  H    0.183947   0.000000
     5  H    0.012578  -0.000000
     6  H    0.183961   0.000000
     7  H    0.182697  -0.000000
 Sum of Mulliken charges =  -0.00000  -0.00000
 Mulliken charges and spin densities with hydrogens summed into heavy atoms:
               1          2
     1  C   -0.002137  -0.000000
     2  P    0.002137   0.000000
 Electronic spatial extent (au):  <R**2>=            265.6559
 Charge=             -0.0000 electrons
 Dipole moment (field-independent basis, Debye):
    X=             -0.8417    Y=             -0.5192    Z=              0.5624  Tot=              1.1376
 Quadrupole moment (field-independent basis, Debye-Ang):
   XX=            -22.7651   YY=            -22.1621   ZZ=            -22.2754
   XY=             -1.0897   XZ=              1.1802   YZ=              0.7094
 Traceless Quadrupole moment (field-independent basis, Debye-Ang):
   XX=             -0.3642   YY=              0.2388   ZZ=              0.1255
   XY=             -1.0897   XZ=              1.1802   YZ=              0.7094
 Octapole moment (field-independent basis, Debye-Ang**2):
  XXX=            -29.9829  YYY=              3.7138  ZZZ=             -3.7781  XYY=            -10.7649
  XXY=             -1.2136  XXZ=              1.3147  XZZ=            -10.9284  YZZ=              0.1225
  YYZ=             -0.3765  XYZ=              1.0245
 Hexadecapole moment (field-independent basis, Debye-Ang**3):
 XXXX=           -322.9529 YYYY=            -47.5981 ZZZZ=            -47.9561 XXXY=             -0.4584
 XXXZ=              0.4967 YYYX=              2.2169 YYYZ=              1.0666 ZZZX=             -2.7335
 ZZZY=              1.1805 XXYY=            -58.1142 XXZZ=            -58.3940 YYZZ=            -16.3983
 XXYZ=              1.7525 YYXZ=             -2.1230 ZZXY=              2.2679
 N-N= 4.849234175165D+01 E-N=-1.003587541485D+03  KE= 3.814132753105D+02
                          Isotropic Fermi Contact Couplings
        Atom                 a.u.       MegaHertz       Gauss      10(-4) cm-1
     1  C(13)             -0.00000      -0.00000      -0.00000      -0.00000
     2  P(31)             -0.00000      -0.00000      -0.00000      -0.00000
     3  H(1)              -0.00000      -0.00000      -0.00000      -0.00000
     4  H(1)               0.00000       0.00000       0.00000       0.00000
     5  H(1)              -0.00000      -0.00000      -0.00000      -0.00000
     6  H(1)              -0.00000      -0.00000      -0.00000      -0.00000
     7  H(1)              -0.00000      -0.00000      -0.00000      -0.00000
 --------------------------------------------------------
       Center         ----  Spin Dipole Couplings  ----
                      3XX-RR        3YY-RR        3ZZ-RR
 --------------------------------------------------------
     1   Atom        0.000000      0.000000      0.000000
     2   Atom        0.000000      0.000000      0.000000
     3   Atom        0.000000      0.000000      0.000000
     4   Atom        0.000000      0.000000      0.000000
     5   Atom        0.000000      0.000000      0.000000
     6   Atom        0.000000      0.000000      0.000000
     7   Atom        0.000000      0.000000      0.000000
 --------------------------------------------------------
                        XY            XZ            YZ
 --------------------------------------------------------
     1   Atom        0.000000      0.000000      0.000000
     2   Atom        0.000000      0.000000      0.000000
     3   Atom        0.000000      0.000000      0.000000
     4   Atom        0.000000      0.000000      0.000000
     5   Atom        0.000000      0.000000      0.000000
     6   Atom        0.000000      0.000000      0.000000
     7   Atom        0.000000      0.000000      0.000000
 --------------------------------------------------------


 ---------------------------------------------------------------------------------
              Anisotropic Spin Dipole Couplings in Principal Axis System
 ---------------------------------------------------------------------------------

       Atom             a.u.   MegaHertz   Gauss  10(-4) cm-1        Axes

              Baa     0.0000     0.000     0.000     0.000  1.0000  0.0000  0.0000
     1 C(13)  Bbb     0.0000     0.000     0.000     0.000 -0.0000  1.0000  0.0000
              Bcc     0.0000     0.000     0.000     0.000  0.0000  0.0000  1.0000
 
              Baa     0.0000     0.000     0.000     0.000  1.0000  0.0000  0.0000
     2 P(31)  Bbb     0.0000     0.000     0.000     0.000 -0.0000  1.0000  0.0000
              Bcc     0.0000     0.000     0.000     0.000  0.0000  0.0000  1.0000
 
              Baa     0.0000     0.000     0.000     0.000  1.0000  0.0000  0.0000
     3 H(1)   Bbb     0.0000     0.000     0.000     0.000 -0.0000  1.0000  0.0000
              Bcc     0.0000     0.000     0.000     0.000  0.0000  0.0000  1.0000
 
              Baa     0.0000     0.000     0.000     0.000  1.0000  0.0000  0.0000
     4 H(1)   Bbb     0.0000     0.000     0.000     0.000 -0.0000  1.0000  0.0000
              Bcc     0.0000     0.000     0.000     0.000  0.0000  0.0000  1.0000
 
              Baa     0.0000     0.000     0.000     0.000  1.0000  0.0000  0.0000
     5 H(1)   Bbb     0.0000     0.000     0.000     0.000 -0.0000  1.0000  0.0000
              Bcc     0.0000     0.000     0.000     0.000  0.0000  0.0000  1.0000
 
              Baa     0.0000     0.000     0.000     0.000  1.0000  0.0000  0.0000
     6 H(1)   Bbb     0.0000     0.000     0.000     0.000 -0.0000  1.0000  0.0000
              Bcc     0.0000     0.000     0.000     0.000  0.0000  0.0000  1.0000
 
              Baa     0.0000     0.000     0.000     0.000  1.0000  0.0000  0.0000
     7 H(1)   Bbb     0.0000     0.000     0.000     0.000 -0.0000  1.0000  0.0000
              Bcc     0.0000     0.000     0.000     0.000  0.0000  0.0000  1.0000
 

 ---------------------------------------------------------------------------------

 No NMR shielding tensors so no spin-rotation constants.
 Leave Link  601 at Mon Apr 21 19:05:17 2025, MaxMem=   536870912 cpu:               1.7 elap:               0.3
 (Enter /home/szhao/Apps/g16/l9999.exe)
 1\1\GINC-NODE05\FOpt\UM062X\6-311+G(d,p)\C1H5P1\SZHAO\21-Apr-2025\0\\#
 p opt UM062X/6-311+G** nosymm int=superfine\\Title Card Required\\0,1\
 C,-1.40626351,0.,0.\P,1.40626351,0.,0.\H,1.3912403884,-1.4182981155,0.
 0287980433\H,-1.5835630614,1.0409516833,0.2331535433\H,1.3912417829,0.
 08418402,1.4160652026\H,-1.5835180243,-0.312577646,-1.0199265414\H,-1.
 5970387425,-0.7232752804,0.781237297\\Version=ES64L-G16RevA.03\HF=-382
 .3350112\S2=0.\S2-1=0.\S2A=0.\RMSD=6.921e-09\RMSF=1.718e-06\Dipole=-0.
 3311309,-0.2042804,0.2212551\Quadrupole=-0.2707941,0.1775132,0.0932809
 ,-0.8101365,0.8774575,0.5274064\PG=C01 [X(C1H5P1)]\\@


 We find comfort among those who agree with us -- growth among those who don't.
 -- Frank A. Clark
 Job cpu time:       0 days  0 hours 10 minutes 18.2 seconds.
 Elapsed time:       0 days  0 hours  1 minutes 24.8 seconds.
 File lengths (MBytes):  RWF=     22 Int=      0 D2E=      0 Chk=      3 Scr=      2
 Normal termination of Gaussian 16 at Mon Apr 21 19:05:18 2025.
