Title Card Required                                                     
FOpt      UM062X                                                      6-311+G(d,p)        
Number of atoms                            I                4
Info1-9                                    I   N=           9
          13          13           0           0           0         110
           2          18        -502
Full Title                                 C   N=           2
Title Card Required     
Route                                      C   N=           5
#p opt UM062X/6-311+G** nosymm int=superfine SCF=NoVarAcc   
Charge                                     I                0
Multiplicity                               I                1
Number of electrons                        I               14
Number of alpha electrons                  I                7
Number of beta electrons                   I                7
Number of basis functions                  I               56
Number of independent functions            I               56
Number of point charges in /Mol/           I                0
Number of translation vectors              I                0
Atomic numbers                             I   N=           4
           6           6           1           1
Nuclear charges                            R   N=           4
  6.00000000E+00  6.00000000E+00  1.00000000E+00  1.00000000E+00
Current cartesian coordinates              R   N=          12
 -1.87699409E+01  0.00000000E+00  0.00000000E+00  1.87699409E+01  0.00000000E+00
  0.00000000E+00 -2.08848074E+01 -1.09803026E-05  1.09791101E-05  2.08848072E+01
  7.34693784E-06 -7.34827645E-06
Number of symbols in /Mol/                 I                0
Force Field                                I                0
Atom Types                                 C   N=           4
                                                
Int Atom Types                             I   N=           4
           0           0           0           0
MM charges                                 R   N=           4
  0.00000000E+00  0.00000000E+00  0.00000000E+00  0.00000000E+00
Integer atomic weights                     I   N=           4
          12          12           1           1
Real atomic weights                        R   N=           4
  1.20000000E+01  1.20000000E+01  1.00782504E+00  1.00782504E+00
Atom fragment info                         I   N=           4
           0           0           0           0
Atom residue num                           I   N=           4
           0           0           0           0
Nuclear spins                              I   N=           4
           0           0           1           1
Nuclear ZEff                               R   N=           4
 -3.60000000E+00 -3.60000000E+00 -1.00000000E+00 -1.00000000E+00
Nuclear ZNuc                               R   N=           4
  6.00000000E+00  6.00000000E+00  1.00000000E+00  1.00000000E+00
Nuclear QMom                               R   N=           4
  0.00000000E+00  0.00000000E+00  0.00000000E+00  0.00000000E+00
Nuclear GFac                               R   N=           4
  0.00000000E+00  0.00000000E+00  2.79284600E+00  2.79284600E+00
MicOpt                                     I   N=           4
          -2          -2          -1          -1
Number of residues                         I                0
Number of secondary structures             I                0
Redundant internal dimensions              I   N=           4
          12           8           4           0
Redundant internal coordinate indices      I   N=          48
           1          -1           0           0           1          -2
           0           0           1          -3           0           0
           2          -1           0           0           2          -2
           0           0           2          -3           0           0
           1           3           0           0           2           4
           0           0           2           1           3          -4
           1           2           4          -4           2           1
           3          -8           1           2           4          -8
Redundant internal coordinates             R   N=          12
 -1.87699409E+01  0.00000000E+00  0.00000000E+00  1.87699409E+01  0.00000000E+00
  0.00000000E+00  2.11486641E+00  2.11486628E+00  3.14158746E+00  3.14158918E+00
  3.14158746E+00  3.14158918E+00
ZRed-IntVec                                I   N=          12
          -1          -1          -1          -1          -1          -1
           0           0           0           0           0           0
ZRed-FPVec                                 R   N=          12
  0.00000000E+00  0.00000000E+00  0.00000000E+00  0.00000000E+00  0.00000000E+00
  0.00000000E+00  0.00000000E+00  0.00000000E+00  0.00000000E+00  0.00000000E+00
  0.00000000E+00  0.00000000E+00
ZRed-Constraint1                           R   N=          12
 -1.87699409E+01  0.00000000E+00  0.00000000E+00  1.87699409E+01  0.00000000E+00
  0.00000000E+00  2.12190166E+00  2.12189977E+00  3.14158731E+00  3.14158909E+00
  3.14158731E+00  3.14158909E+00
ZRed-Constraint2                           R   N=          12
 -1.87699409E+01  0.00000000E+00  0.00000000E+00  1.87699409E+01  0.00000000E+00
  0.00000000E+00  0.00000000E+00  0.00000000E+00  0.00000000E+00  0.00000000E+00
  0.00000000E+00  0.00000000E+00
Number of contracted shells                I               20
Number of primitive shells                 I               38
Pure/Cartesian d shells                    I                0
Pure/Cartesian f shells                    I                0
Highest angular momentum                   I                2
Largest degree of contraction              I                6
Shell types                                I   N=          20
           0          -1          -1          -1          -1          -2
           0          -1          -1          -1          -1          -2
           0           0           0           1           0           0
           0           1
Number of primitives per shell             I   N=          20
           6           3           1           1           1           1
           6           3           1           1           1           1
           3           1           1           1           3           1
           1           1
Shell to atom map                          I   N=          20
           1           1           1           1           1           1
           2           2           2           2           2           2
           3           3           3           3           4           4
           4           4
Primitive exponents                        R   N=          38
  4.56324000E+03  6.82024000E+02  1.54973000E+02  4.44553000E+01  1.30290000E+01
  1.82773000E+00  2.09642000E+01  4.80331000E+00  1.45933000E+00  4.83456000E-01
  1.45585000E-01  4.38000000E-02  6.26000000E-01  4.56324000E+03  6.82024000E+02
  1.54973000E+02  4.44553000E+01  1.30290000E+01  1.82773000E+00  2.09642000E+01
  4.80331000E+00  1.45933000E+00  4.83456000E-01  1.45585000E-01  4.38000000E-02
  6.26000000E-01  3.38650000E+01  5.09479000E+00  1.15879000E+00  3.25840000E-01
  1.02741000E-01  7.50000000E-01  3.38650000E+01  5.09479000E+00  1.15879000E+00
  3.25840000E-01  1.02741000E-01  7.50000000E-01
Contraction coefficients                   R   N=          38
  1.96665025E-03  1.52306019E-02  7.61269097E-02  2.60801033E-01  6.16462078E-01
  2.21006028E-01  1.14660081E-01  9.19999648E-01 -3.03068213E-03  1.00000000E+00
  1.00000000E+00  1.00000000E+00  1.00000000E+00  1.96665025E-03  1.52306019E-02
  7.61269097E-02  2.60801033E-01  6.16462078E-01  2.21006028E-01  1.14660081E-01
  9.19999648E-01 -3.03068213E-03  1.00000000E+00  1.00000000E+00  1.00000000E+00
  1.00000000E+00  2.54938145E-02  1.90373109E-01  8.52161486E-01  1.00000000E+00
  1.00000000E+00  1.00000000E+00  2.54938145E-02  1.90373109E-01  8.52161486E-01
  1.00000000E+00  1.00000000E+00  1.00000000E+00
P(S=P) Contraction coefficients            R   N=          38
  0.00000000E+00  0.00000000E+00  0.00000000E+00  0.00000000E+00  0.00000000E+00
  0.00000000E+00  4.02486927E-02  2.37593957E-01  8.15853851E-01  1.00000000E+00
  1.00000000E+00  1.00000000E+00  0.00000000E+00  0.00000000E+00  0.00000000E+00
  0.00000000E+00  0.00000000E+00  0.00000000E+00  0.00000000E+00  4.02486927E-02
  2.37593957E-01  8.15853851E-01  1.00000000E+00  1.00000000E+00  1.00000000E+00
  0.00000000E+00  0.00000000E+00  0.00000000E+00  0.00000000E+00  0.00000000E+00
  0.00000000E+00  0.00000000E+00  0.00000000E+00  0.00000000E+00  0.00000000E+00
  0.00000000E+00  0.00000000E+00  0.00000000E+00
Coordinates of each shell                  R   N=          60
 -1.87699409E+01  0.00000000E+00  0.00000000E+00 -1.87699409E+01  0.00000000E+00
  0.00000000E+00 -1.87699409E+01  0.00000000E+00  0.00000000E+00 -1.87699409E+01
  0.00000000E+00  0.00000000E+00 -1.87699409E+01  0.00000000E+00  0.00000000E+00
 -1.87699409E+01  0.00000000E+00  0.00000000E+00  1.87699409E+01  0.00000000E+00
  0.00000000E+00  1.87699409E+01  0.00000000E+00  0.00000000E+00  1.87699409E+01
  0.00000000E+00  0.00000000E+00  1.87699409E+01  0.00000000E+00  0.00000000E+00
  1.87699409E+01  0.00000000E+00  0.00000000E+00  1.87699409E+01  0.00000000E+00
  0.00000000E+00 -2.08848074E+01 -1.09803026E-05  1.09791101E-05 -2.08848074E+01
 -1.09803026E-05  1.09791101E-05 -2.08848074E+01 -1.09803026E-05  1.09791101E-05
 -2.08848074E+01 -1.09803026E-05  1.09791101E-05  2.08848072E+01  7.34693784E-06
 -7.34827645E-06  2.08848072E+01  7.34693784E-06 -7.34827645E-06  2.08848072E+01
  7.34693784E-06 -7.34827645E-06  2.08848072E+01  7.34693784E-06 -7.34827645E-06
Num ILSW                                   I              100
ILSW                                       I   N=         100
           1           0           0           1           2           0
           0           0           0           0        4336          -1
           7           0           0           0           2           0
           0           0           0           0           1           0
           1           1           0           0           0           0
           0           0      100000           0          -1           0
           0           0           0           0           0           0
           0           0           0           1           0           0
           0 -2000000000           1           0           0           0
           0           0           4          52           0           0
           0           0          55           0           0           0
           0           0           0           4           0           1
           0           0           0           0           0           0
           0           0           0           0           0           0
           0           0           0           0           0           0
           0           0           0           0           0           0
           0           0           0           0
Num RLSW                                   I               52
RLSW                                       R   N=          52
  1.00000000E+00  1.00000000E+00  1.00000000E+00  1.00000000E+00  5.40000000E-01
  0.00000000E+00  0.00000000E+00  1.00000000E+00  0.00000000E+00  0.00000000E+00
  0.00000000E+00  0.00000000E+00  1.00000000E+00  0.00000000E+00  0.00000000E+00
  0.00000000E+00  0.00000000E+00  1.00000000E+00  0.00000000E+00  0.00000000E+00
  0.00000000E+00  0.00000000E+00  1.00000000E+00  0.00000000E+00  0.00000000E+00
  0.00000000E+00  0.00000000E+00  1.00000000E+00  0.00000000E+00  0.00000000E+00
  0.00000000E+00  0.00000000E+00  1.00000000E+00  0.00000000E+00  0.00000000E+00
  0.00000000E+00  0.00000000E+00  0.00000000E+00  1.00000000E+00  1.00000000E+00
  0.00000000E+00  1.00000000E+00  0.00000000E+00  0.00000000E+00  0.00000000E+00
  0.00000000E+00  0.00000000E+00  0.00000000E+00  0.00000000E+00  0.00000000E+00
  0.00000000E+00  0.00000000E+00
MxBond                                     I                2
NBond                                      I   N=           4
           2           2           1           1
IBond                                      I   N=           8
           2           3           1           4           1           0
           2           0
RBond                                      R   N=           8
  1.00000000E-01  1.00000000E+00  1.00000000E-01  1.00000000E+00  1.00000000E+00
  0.00000000E+00  1.00000000E+00  0.00000000E+00
Virial Ratio                               R      2.002788403128386E+00
SCF Energy                                 R     -7.693909053429152E+01
Total Energy                               R     -7.693909053429152E+01
S**2                                       R      1.004716444838522E+00
S**2 after annihilation                    R      3.775918496776433E-02
RMS Force                                  R      5.656255121719345E-05
RMS Density                                R      3.005255913954425E-09
Job Status                                 I                1
Nuclear derivative order                   I                1
External E-field                           R   N=          35
  0.00000000E+00  0.00000000E+00  0.00000000E+00  0.00000000E+00  0.00000000E+00
  0.00000000E+00  0.00000000E+00  0.00000000E+00  0.00000000E+00  0.00000000E+00
  0.00000000E+00  0.00000000E+00  0.00000000E+00  0.00000000E+00  0.00000000E+00
  0.00000000E+00  0.00000000E+00  0.00000000E+00  0.00000000E+00  0.00000000E+00
  0.00000000E+00  0.00000000E+00  0.00000000E+00  0.00000000E+00  0.00000000E+00
  0.00000000E+00  0.00000000E+00  0.00000000E+00  0.00000000E+00  0.00000000E+00
  0.00000000E+00  0.00000000E+00  0.00000000E+00  0.00000000E+00  0.00000000E+00
IOpCl                                      I                1
IROHF                                      I                0
Alpha Orbital Energies                     R   N=          56
 -1.06398673E+01 -1.06301451E+01 -7.33183873E-01 -6.87610098E-01 -3.87433728E-01
 -3.59022068E-01 -3.11944923E-01 -9.37304538E-02 -7.31907553E-02 -4.71156347E-02
  2.84344137E-02  3.80181055E-02  8.24813558E-02  8.34167340E-02  8.50147963E-02
  8.54219372E-02  9.12119113E-02  1.07395988E-01  1.76610627E-01  1.91121331E-01
  4.53639962E-01  4.62043367E-01  5.63890839E-01  5.82018127E-01  5.83348443E-01
  5.90091804E-01  6.16321345E-01  6.49436556E-01  6.83089971E-01  7.12269995E-01
  1.12747256E+00  1.13191322E+00  1.19595313E+00  1.21352414E+00  1.32777560E+00
  1.33893758E+00  1.37855738E+00  1.37921968E+00  1.58808812E+00  1.59612450E+00
  1.85285231E+00  1.85881777E+00  1.86952025E+00  1.88560513E+00  2.39328463E+00
  2.49067692E+00  2.49403053E+00  2.56364835E+00  2.69825107E+00  2.71444018E+00
  2.73177693E+00  2.77859573E+00  3.18389376E+00  3.23783166E+00  2.35418323E+01
  2.35542258E+01
Beta Orbital Energies                      R   N=          56
 -1.06398673E+01 -1.06301451E+01 -7.33183857E-01 -6.87610115E-01 -3.87433726E-01
 -3.59022069E-01 -3.11944924E-01 -9.37304544E-02 -7.31907534E-02 -4.71156329E-02
  2.84344129E-02  3.80181070E-02  8.24813567E-02  8.34167338E-02  8.50147953E-02
  8.54219369E-02  9.12119121E-02  1.07395989E-01  1.76610610E-01  1.91121347E-01
  4.53639954E-01  4.62043370E-01  5.63890837E-01  5.82018126E-01  5.83348446E-01
  5.90091806E-01  6.16321323E-01  6.49436573E-01  6.83089960E-01  7.12270024E-01
  1.12747256E+00  1.13191321E+00  1.19595314E+00  1.21352416E+00  1.32777560E+00
  1.33893758E+00  1.37855738E+00  1.37921968E+00  1.58808809E+00  1.59612453E+00
  1.85285226E+00  1.85881773E+00  1.86952030E+00  1.88560518E+00  2.39328457E+00
  2.49067693E+00  2.49403050E+00  2.56364849E+00  2.69825106E+00  2.71444017E+00
  2.73177694E+00  2.77859573E+00  3.18389373E+00  3.23783173E+00  2.35418322E+01
  2.35542259E+01
Alpha MO coefficients                      R   N=        3136
  2.74060669E-14  2.27618148E-14  7.02805249E-16 -2.24672312E-16 -8.16007735E-18
 -8.98520235E-19 -2.56998568E-15  3.50976111E-16  1.42842895E-16  2.09184526E-15
  2.97110467E-15 -2.44785612E-16 -3.63305299E-16 -1.97849845E-16 -3.82582849E-15
  2.01526286E-16  4.63100883E-16 -4.81839632E-17  7.31080015E-17 -3.03527186E-17
  5.45846087E-16  1.57941263E-17  5.63919968E-01  4.64495436E-01  1.86509182E-03
  6.48304991E-09 -6.48438358E-09  1.01674121E-02  1.44201858E-03  5.01027252E-09
 -5.01105152E-09 -4.00432865E-03  1.02011192E-04  3.53672100E-10 -3.53796440E-10
  4.30413439E-04 -6.84688529E-04 -2.37834635E-09  2.37880030E-09 -5.34105624E-04
 -6.71079466E-09  8.20275715E-05  9.23971055E-04  6.70578183E-09 -2.12629202E-16
  5.21472111E-17 -1.88430148E-15 -1.00649654E-15 -4.03001161E-18  1.51759056E-16
  3.15395717E-04 -2.96226649E-03  2.33281430E-03  2.06696083E-03  7.18040263E-09
 -7.18172600E-09  5.63932397E-01  4.64948739E-01 -1.26793531E-03 -6.60136674E-09
  6.60075388E-09  8.82773773E-03 -1.26879279E-03 -6.57159938E-09  6.57084969E-09
 -4.12086062E-03  1.02635719E-04  5.25687484E-10 -5.25616905E-10  3.69481504E-04
  6.43751836E-04  3.34479700E-09 -3.34443820E-09 -4.67732667E-04 -7.56224764E-09
 -1.65486706E-04  8.12406420E-04  7.57503699E-09 -2.74459181E-14 -2.23996637E-14
 -7.69195582E-16 -1.43867504E-16  4.17622661E-16 -1.82783696E-15  1.16375138E-15
  1.67335738E-17 -5.36403703E-16  3.62205769E-15 -1.93365803E-15  3.80252729E-16
  8.21807430E-17  1.82559239E-15  5.12599466E-15 -3.23831311E-16  1.20218454E-16
  3.14541723E-17 -1.30146256E-16 -3.99385736E-17 -4.29612613E-17  1.07858129E-16
  6.69491077E-04 -2.48239276E-03  2.34488095E-03 -1.48805718E-03 -7.72736530E-09
  7.72652786E-09 -9.22484503E-16  3.06008206E-15 -7.26888231E-15  2.85501133E-16
 -1.71914758E-16  2.02635180E-16  2.52883446E-16  5.33170105E-16  4.92024920E-16
 -1.39501764E-16 -3.39518474E-17 -3.07052717E-15 -5.48933644E-16  3.07211840E-16
 -1.47182280E-16  7.71792431E-15  4.06706851E-15 -8.54410901E-16  1.84401321E-16
  8.12059096E-15 -1.72814495E-14  2.64565860E-16 -7.03806724E-16  1.29625401E-16
  1.72864198E-16  1.47997249E-17 -3.55064095E-16  2.08134257E-16 -1.10048404E-01
 -1.79607516E-01  7.30802673E-02  2.53854360E-07 -2.53898995E-07  5.10616091E-01
  1.12307584E-01  3.90079456E-07 -3.90148239E-07  3.63923354E-01  4.83139925E-02
  1.67705201E-07 -1.67734867E-07  1.75589864E-04  1.68595478E-03  5.84401584E-09
 -5.84516499E-09 -6.18023147E-03 -7.94759790E-08  1.48038597E-03  1.06841340E-02
  7.93927327E-08 -1.41847117E-15  6.93760173E-15 -2.30438567E-14 -2.70094845E-16
 -4.09431789E-17 -1.19648273E-17  1.38709344E-01  1.68070865E-01  1.54272107E-02
 -1.95506726E-02 -6.79175991E-08  6.79298896E-08 -1.03698067E-01 -1.65656690E-01
 -8.02771643E-02 -4.16709563E-07  4.16665239E-07  4.60709540E-01 -1.16682563E-01
 -6.05739288E-07  6.05674542E-07  3.30337758E-01 -4.93870375E-02 -2.56322823E-07
  2.56295479E-07  3.47829626E-03 -7.34863106E-04 -3.77864533E-09  3.77820071E-09
 -9.53141983E-03 -1.11409850E-07 -1.17058925E-02  1.66694559E-02  1.12268714E-07
 -6.10795865E-16  1.30963203E-16  1.19047330E-16  2.20091469E-17 -8.59012712E-17
  5.21545783E-16  3.97737341E-16 -5.60846152E-18  9.75821026E-17  1.83127941E-15
 -5.32280205E-16  9.94701474E-17 -1.33679583E-16  1.30318600E-15  2.83815637E-15
 -4.66498731E-17  4.37389455E-17  2.09516075E-17 -4.90015575E-17  5.36389973E-18
 -7.14206517E-17  7.49291480E-17  1.57293175E-01  2.09265419E-01  3.64660347E-02
  2.66196285E-02  1.38233057E-07 -1.38218077E-07  1.21105867E-16  1.83697113E-15
 -3.51111657E-15 -6.13293896E-18 -7.72341284E-17  4.70859527E-17 -4.85652742E-15
 -1.08213039E-14  1.10503169E-14 -4.79406738E-17  5.74269166E-17  6.45592883E-14
  3.28899930E-14 -1.16380776E-16  2.62445938E-17 -1.57980712E-13 -7.76994265E-14
 -9.02753102E-17  4.04096642E-16 -1.95889873E-13  4.51407364E-13 -2.78612694E-16
 -6.32717411E-16 -5.45308521E-15 -1.76285993E-17 -5.93912757E-16  9.32609528E-15
 -6.26736364E-17 -5.78100467E-02 -9.61796211E-02 -2.18318211E-01 -7.58849618E-07
  7.58992450E-07  2.82814257E-01 -3.20895904E-01 -1.11543405E-06  1.11564404E-06
  4.11974018E-01 -2.03669412E-01 -7.08208777E-07  7.08343789E-07  5.94263250E-02
 -1.24079564E-02 -4.32250311E-08  4.32331583E-08  1.87435684E-02  2.24886810E-07
  2.15126351E-04 -3.24677695E-02 -2.24855595E-07  1.21103415E-14 -1.89292650E-13
  5.42372545E-13 -3.37566299E-15 -2.80450415E-17  1.41638525E-17 -1.36555294E-01
 -2.52727177E-01 -1.65282291E-01  9.58662759E-03  3.32994961E-08 -3.33052882E-08
 -6.36315877E-02 -1.03502355E-01  2.09068775E-01  1.08526813E-06 -1.08514916E-06
  2.95083419E-01  2.97999562E-01  1.54682765E-06 -1.54665805E-06  4.49054104E-01
  2.10341815E-01  1.09183511E-06 -1.09171510E-06  7.97440687E-02  2.26085288E-02
  1.17513617E-07 -1.17500986E-07  1.60382561E-02  3.35234610E-07 -9.12952649E-03
 -2.76538575E-02 -3.34609805E-07  5.58814531E-15  5.27248342E-15  3.17059198E-14
 -6.35134929E-17 -2.56032232E-16  4.24837469E-14  1.93266937E-14  2.51828648E-16
  1.76372581E-16 -3.73137272E-13  1.86040145E-13 -5.19673775E-17 -1.15969223E-16
 -3.87783640E-13 -8.08581532E-13 -2.39042453E-17  1.17902919E-16 -1.43815841E-14
  1.31500161E-17  4.54544317E-17  2.48961960E-14  5.62935530E-18 -1.24007021E-01
 -2.40232334E-01 -1.77169459E-01 -8.31239728E-03 -4.32020542E-08  4.31974549E-08
  5.30465555E-14 -2.81853199E-13  1.01912237E-12  5.69608377E-15 -2.01450946E-17
 -1.56033236E-17  8.16857438E-19  1.28117227E-18 -1.28635447E-17 -3.58718356E-16
 -3.31940646E-16  1.11272001E-18 -3.31023104E-17  1.92615324E-15  1.79641896E-15
 -2.57799320E-17  8.62466783E-17 -6.80309350E-15 -6.15341554E-15 -1.42499654E-16
 -8.03673835E-18  1.17576420E-14  1.10848154E-14 -1.54734827E-17 -1.87490122E-17
 -4.97131970E-17 -1.04992386E-17  5.59503734E-17  1.70615616E-13  2.82479356E-14
 -4.83293738E-09  2.08893706E-01  2.07464483E-01  1.05423054E-12 -7.28828758E-09
  3.15034362E-01  3.12878949E-01 -2.44919696E-12 -7.07724196E-09  3.05859055E-01
  3.03766450E-01 -3.46741547E-12 -8.90306542E-10  3.84786229E-02  3.82153709E-02
 -1.11732840E-07  1.85695682E-02 -4.55603980E-10 -6.53744257E-08  1.86974986E-02
  6.65164272E-18  3.91735520E-17  1.02616522E-16  5.06576982E-18  1.57054024E-16
  8.29158455E-17 -4.03553794E-15  2.60879153E-14  1.10248227E-12 -3.76842561E-10
  1.62889260E-02  1.61774825E-02 -4.16022447E-18 -6.20998408E-18  2.58188292E-17
 -2.49484382E-14  2.50298492E-14 -1.40643671E-17  3.57160252E-17 -5.20824649E-14
  5.23597747E-14  2.60684551E-16 -1.18027593E-16 -6.86434478E-15  6.62583424E-15
  1.13970521E-19 -1.10441629E-16 -1.37010706E-13  1.37861423E-13 -1.80110040E-17
 -1.06607864E-15 -5.35038977E-18  1.64645187E-17  1.05079610E-15  2.12654215E-10
  3.54502556E-10  1.21296571E-06 -1.73914281E-01  1.75112347E-01 -1.06422936E-09
  1.94637333E-06 -2.79088267E-01  2.81010872E-01 -1.74422824E-09  2.08119026E-06
 -2.98379325E-01  3.00434843E-01  2.31849910E-09  1.01791343E-06 -1.45905798E-01
  1.46910969E-01 -9.52098815E-08  1.58207154E-02  1.09454803E-07  1.64137417E-07
 -1.57124787E-02  6.00284710E-18 -1.32047411E-17 -2.98041794E-16 -3.20585982E-17
 -3.15699167E-15  3.17638193E-15  2.26507572E-10  6.26229730E-10 -6.04289139E-10
  1.21487038E-07 -1.74262494E-02  1.75462994E-02 -9.21916975E-11 -1.12183110E-10
  1.62245552E-06 -1.55721689E-01  1.56793254E-01  2.69819054E-10  2.45394158E-06
 -2.35541048E-01  2.37161873E-01  1.23662582E-09  3.22100831E-06 -3.09056937E-01
  3.11183651E-01 -5.72549040E-09  2.18151178E-06 -2.09348512E-01  2.10789097E-01
  6.97123403E-08 -7.75416411E-03 -8.03204530E-08 -1.20203702E-07  7.70117052E-03
  4.38477652E-18  3.46997049E-18 -8.48746157E-17  5.38064005E-14 -5.41178037E-14
 -1.00224153E-18  1.99029131E-16  6.13699392E-14 -6.18460958E-14  5.78162847E-18
 -7.03952668E-17  1.64925917E-13 -1.66052022E-13  1.00495245E-16  9.07276518E-17
 -1.26442257E-13  1.27290740E-13  4.90601588E-17 -4.99008955E-15  7.04247350E-16
  5.64037797E-17  4.95915186E-15  2.15890369E-10  3.61669010E-10  2.97689873E-09
  1.20512902E-07 -1.15602150E-02  1.16397641E-02 -2.13429845E-17  3.21833369E-17
 -1.31166924E-16  7.08432569E-17  2.96378804E-15 -2.98686589E-15  6.49544889E-13
  9.14866888E-13 -5.06879854E-09  1.40620016E-01  1.39658982E-01 -1.74389164E-12
 -7.08469124E-09  1.96574877E-01  1.95231431E-01 -9.21773802E-12 -1.05845192E-08
  2.93532479E-01  2.91526407E-01  3.03352595E-11 -1.04632774E-08  2.90161612E-01
  2.88178567E-01  5.32544353E-08 -5.93065391E-03  2.09227901E-10  3.11765727E-08
 -5.97146477E-03 -6.39634517E-17 -1.16714614E-16 -2.61317010E-16 -2.74440895E-14
 -1.36228900E-14  5.20996866E-16  5.19234465E-16 -1.88260526E-16  1.28845653E-14
  2.22604380E-16  1.49430908E-16 -1.71897422E-13 -1.12585973E-13  1.77408641E-16
  1.26868310E-16  3.25206592E-13  2.03367333E-13 -1.66859647E-16 -1.31995562E-15
 -1.01100789E-16  1.88903322E-16 -2.52168487E-15 -8.17025127E-13 -2.07236329E-13
 -1.64444992E-11 -4.42614202E-10  1.22755589E-02  1.21916644E-02 -1.03113198E-16
 -2.96397929E-16 -3.28250277E-16  2.95910921E-16  2.11561360E-15  2.00613873E-15
  3.27949661E-02  5.22407689E-02  3.25971398E-02  1.67806444E-07 -1.67789391E-07
 -1.24071725E-01  8.44998259E-02  4.36941555E-07 -4.36895749E-07 -6.21145118E-01
  1.84192680E-03  4.62982661E-09 -4.62981325E-09  1.59493162E+00 -6.16022037E-01
 -3.19105090E-06  3.19069090E-06  4.28155132E-03  7.28534308E-08  7.93895913E-04
 -7.42675312E-03 -7.29187530E-08  2.43768588E-12  4.18487013E-12 -7.47045930E-12
 -2.19178507E-16  1.53897874E-17 -1.19487743E-11 -1.33799385E-11  2.18392101E-16
  2.59095412E-17 -3.55585255E-11 -2.54125564E-11 -1.45999666E-16 -8.05417096E-18
  1.75266856E-10  1.54110073E-10  4.55409640E-16 -3.88172329E-16  2.19979442E-12
  2.29011941E-17  2.78176527E-13 -3.81398530E-12 -4.36330160E-17 -2.87511967E-02
  5.13620267E-02 -5.24180509E-01 -1.34606070E-02 -6.99118619E-08  6.99038825E-08
 -5.40891083E-12  3.06512087E-11 -1.24224077E-10 -4.16770573E-13  1.42125100E-17
 -1.44160351E-18 -5.87153722E-12 -9.15786586E-12  7.97351959E-13 -4.74017048E-17
  1.59348130E-16  1.88387148E-11 -8.48496365E-12 -2.44709516E-17  1.81794888E-16
  1.33053452E-10  2.64651209E-11 -1.09259382E-16  5.86737447E-16 -2.13144878E-10
 -3.78840686E-11  1.04433627E-16 -9.02832418E-16  4.88494414E-13  1.38854594E-18
 -2.64249418E-13 -8.42478954E-13 -3.13400302E-19  2.90574414E-02  4.81317939E-02
 -4.93821797E-02 -1.70411544E-07  1.70439352E-07 -1.18055950E-01 -1.15819081E-01
 -4.01150187E-07  4.01219376E-07 -5.81233170E-01 -1.20023409E-01 -4.12502825E-07
  4.12566209E-07  1.55857539E+00  8.16906475E-01  2.82992185E-06 -2.83042428E-06
  1.44436012E-02  1.63677300E-07  2.93738486E-03 -2.50573757E-02 -1.63784230E-07
 -2.58014604E-13  5.51924796E-12 -9.63702963E-12  1.40662887E-12  3.01977261E-18
 -8.15752057E-18 -2.80120793E-02  1.97473262E-01 -6.60087481E-01 -4.03181279E-03
 -1.39808930E-08  1.39832284E-08  2.19650321E-02  3.47113794E-02 -7.90697624E-02
 -4.15879449E-07  4.15859114E-07 -7.32738507E-02 -5.11304992E-02 -2.71431486E-07
  2.71428207E-07 -4.99291021E-01 -3.88280368E-01 -2.03721325E-06  2.03709546E-06
  5.10230014E-01  1.18831781E+00  6.20837590E-06 -6.20790366E-06 -8.33625214E-03
 -1.59434108E-07  1.80049444E-03  1.44141172E-02  1.59319544E-07  7.58864217E-11
  1.22044799E-10  1.79059668E-10  1.18060933E-15 -1.28306779E-15 -2.69246102E-10
  6.04859735E-11  8.63128268E-16 -9.32607452E-16 -1.82425810E-09  9.71605611E-10
  5.82404207E-15 -6.33997796E-15  1.99985853E-09 -3.22785524E-09 -1.62777901E-14
  1.74817083E-14 -1.89376200E-11 -2.94952797E-16  5.93625480E-12  3.27195323E-11
  3.06086956E-16  3.50475269E-02 -1.38166103E-02  2.59997400E-01  1.11379917E-02
  5.78405139E-08 -5.78347338E-08  9.32484175E-11 -4.55993755E-11  9.60354138E-10
 -2.81436392E-11 -1.18949564E-16  1.06925483E-16 -1.64713020E-16 -2.59964543E-16
  5.67463115E-16  1.79657826E-12 -1.78345299E-12  5.41174185E-16  3.39463262E-16
  1.91758972E-12 -1.89670017E-12  3.81317840E-15  2.82295787E-15  7.33823784E-12
 -7.32283277E-12 -3.71506598E-15 -8.70591285E-15 -1.33953335E-11  1.34885803E-11
  2.27538388E-17  9.63851187E-14 -4.06672069E-17 -1.26400681E-16 -9.15803524E-14
  6.20356436E-09  9.96248360E-09 -6.65005036E-07  9.79377439E-02 -9.86132585E-02
 -2.17974828E-08 -6.40000631E-07  9.29619611E-02 -9.36029727E-02 -1.48280907E-07
 -2.81057528E-06  4.16622189E-01 -4.19495993E-01  1.64286195E-07  5.69013403E-06
 -8.59041853E-01  8.64968885E-01  4.92841669E-08 -8.49620565E-03 -5.83138117E-08
 -8.49546618E-08  8.43801156E-03 -2.58926635E-16  2.32414443E-16 -2.24513940E-15
 -8.59277161E-17 -1.50174049E-14  1.18637081E-14  8.35523578E-09 -5.34923283E-09
  7.61379943E-08  1.62824942E-09 -6.29630796E-04  6.34006420E-04  6.19828205E-11
  9.83328435E-11 -2.35899968E-10 -2.37556922E-15  2.63902995E-15 -2.12107390E-10
 -1.58419196E-10 -1.99490396E-15  2.34679464E-15 -1.37533203E-09 -1.14735062E-09
 -1.07307890E-14  1.16718117E-14  1.47702178E-09  3.43340227E-09  2.66639684E-14
 -2.81170043E-14 -2.35678798E-11 -5.17660530E-16  5.10619252E-12  4.07507647E-11
  5.35027144E-16 -2.51753749E-02 -4.05647944E-02 -6.52143378E-02 -2.01234337E-07
  2.00588211E-07  9.07933952E-02 -2.69863408E-02 -6.96384920E-08  6.91054083E-08
  5.95054744E-01 -3.46402417E-01 -1.09569720E-06  1.09291771E-06 -6.67690322E-01
  1.12202419E+00  3.67574176E-06 -3.66929959E-06  6.69672368E-03  8.51210691E-08
 -1.96967592E-03 -1.15720244E-02 -8.50703440E-08  1.00644385E-10 -1.89489159E-11
  6.32413597E-10  3.47643168E-11  1.88839160E-16 -1.87899651E-16 -3.18048781E-02
  1.42478190E-02 -2.98473868E-01  1.01189062E-02  3.49927397E-08 -3.49743170E-08
 -1.54897337E-17 -2.62264775E-17  5.66831614E-17 -6.83723881E-13 -6.79431213E-13
  6.10534081E-17  5.45737478E-17 -7.45601245E-13 -7.40818602E-13  3.05371467E-16
  3.02515592E-16 -2.73517693E-12 -2.71825233E-12 -4.57732891E-16 -7.72640729E-16
  4.21596032E-12  4.19018190E-12  5.57182943E-18  3.02308447E-14 -1.95756432E-17