Title Card Required                                                     
FOpt      UM062X                                                      6-311+G(d,p)        
Number of atoms                            I                4
Info1-9                                    I   N=           9
          13          13           0           0           0         110
           2          18        -502
Full Title                                 C   N=           2
Title Card Required     
Route                                      C   N=           4
#p opt UM062X/6-311+G** nosymm int=superfine    
Charge                                     I                1
Multiplicity                               I                2
Number of electrons                        I               13
Number of alpha electrons                  I                7
Number of beta electrons                   I                6
Number of basis functions                  I               56
Number of independent functions            I               56
Number of point charges in /Mol/           I                0
Number of translation vectors              I                0
Atomic numbers                             I   N=           4
           6           6           1           1
Nuclear charges                            R   N=           4
  6.00000000E+00  6.00000000E+00  1.00000000E+00  1.00000000E+00
Current cartesian coordinates              R   N=          12
 -1.36203390E+00  0.00000000E+00  0.00000000E+00  1.36203390E+00  0.00000000E+00
  0.00000000E+00 -3.41666961E+00  1.77686659E-05 -1.57141786E-05  3.41666696E+00
  1.81752413E-05 -1.63367076E-05
Number of symbols in /Mol/                 I                0
Force Field                                I                0
Atom Types                                 C   N=           4
                                                
Int Atom Types                             I   N=           4
           0           0           0           0
MM charges                                 R   N=           4
  0.00000000E+00  0.00000000E+00  0.00000000E+00  0.00000000E+00
Integer atomic weights                     I   N=           4
          12          12           1           1
Real atomic weights                        R   N=           4
  1.20000000E+01  1.20000000E+01  1.00782504E+00  1.00782504E+00
Atom fragment info                         I   N=           4
           0           0           0           0
Atom residue num                           I   N=           4
           0           0           0           0
Nuclear spins                              I   N=           4
           0           0           1           1
Nuclear ZEff                               R   N=           4
 -3.60000000E+00 -3.60000000E+00 -1.00000000E+00 -1.00000000E+00
Nuclear ZNuc                               R   N=           4
  6.00000000E+00  6.00000000E+00  1.00000000E+00  1.00000000E+00
Nuclear QMom                               R   N=           4
  0.00000000E+00  0.00000000E+00  0.00000000E+00  0.00000000E+00
Nuclear GFac                               R   N=           4
  0.00000000E+00  0.00000000E+00  2.79284600E+00  2.79284600E+00
MicOpt                                     I   N=           4
          -2          -2          -1          -1
Number of residues                         I                0
Number of secondary structures             I                0
Redundant internal dimensions              I   N=           4
          12           8           4           0
Redundant internal coordinate indices      I   N=          48
           1          -1           0           0           1          -2
           0           0           1          -3           0           0
           2          -1           0           0           2          -2
           0           0           2          -3           0           0
           1           3           0           0           2           4
           0           0           2           1           3          -4
           1           2           4          -4           2           1
           3          -8           1           2           4          -8
Redundant internal coordinates             R   N=          12
 -1.36203390E+00  0.00000000E+00  0.00000000E+00  1.36203390E+00  0.00000000E+00
  0.00000000E+00  2.05463571E+00  2.05463306E+00  3.14160030E+00  3.14158470E+00
  3.14160130E+00  3.14158381E+00
ZRed-IntVec                                I   N=          12
          -1          -1          -1          -1          -1          -1
           0           0           0           0           0           0
ZRed-FPVec                                 R   N=          12
  0.00000000E+00  0.00000000E+00  0.00000000E+00  0.00000000E+00  0.00000000E+00
  0.00000000E+00  0.00000000E+00  0.00000000E+00  0.00000000E+00  0.00000000E+00
  0.00000000E+00  0.00000000E+00
ZRed-Constraint1                           R   N=          12
 -1.36203390E+00  0.00000000E+00  0.00000000E+00  1.36203390E+00  0.00000000E+00
  0.00000000E+00  2.36979222E+00  2.36976811E+00  3.14159265E+00  3.14159264E+00
  3.14159265E+00  3.14159264E+00
ZRed-Constraint2                           R   N=          12
 -1.36203390E+00  0.00000000E+00  0.00000000E+00  1.36203390E+00  0.00000000E+00
  0.00000000E+00  0.00000000E+00  0.00000000E+00  0.00000000E+00  0.00000000E+00
  0.00000000E+00  0.00000000E+00
Number of contracted shells                I               20
Number of primitive shells                 I               38
Pure/Cartesian d shells                    I                0
Pure/Cartesian f shells                    I                0
Highest angular momentum                   I                2
Largest degree of contraction              I                6
Shell types                                I   N=          20
           0          -1          -1          -1          -1          -2
           0          -1          -1          -1          -1          -2
           0           0           0           1           0           0
           0           1
Number of primitives per shell             I   N=          20
           6           3           1           1           1           1
           6           3           1           1           1           1
           3           1           1           1           3           1
           1           1
Shell to atom map                          I   N=          20
           1           1           1           1           1           1
           2           2           2           2           2           2
           3           3           3           3           4           4
           4           4
Primitive exponents                        R   N=          38
  4.56324000E+03  6.82024000E+02  1.54973000E+02  4.44553000E+01  1.30290000E+01
  1.82773000E+00  2.09642000E+01  4.80331000E+00  1.45933000E+00  4.83456000E-01
  1.45585000E-01  4.38000000E-02  6.26000000E-01  4.56324000E+03  6.82024000E+02
  1.54973000E+02  4.44553000E+01  1.30290000E+01  1.82773000E+00  2.09642000E+01
  4.80331000E+00  1.45933000E+00  4.83456000E-01  1.45585000E-01  4.38000000E-02
  6.26000000E-01  3.38650000E+01  5.09479000E+00  1.15879000E+00  3.25840000E-01
  1.02741000E-01  7.50000000E-01  3.38650000E+01  5.09479000E+00  1.15879000E+00
  3.25840000E-01  1.02741000E-01  7.50000000E-01
Contraction coefficients                   R   N=          38
  1.96665025E-03  1.52306019E-02  7.61269097E-02  2.60801033E-01  6.16462078E-01
  2.21006028E-01  1.14660081E-01  9.19999648E-01 -3.03068213E-03  1.00000000E+00
  1.00000000E+00  1.00000000E+00  1.00000000E+00  1.96665025E-03  1.52306019E-02
  7.61269097E-02  2.60801033E-01  6.16462078E-01  2.21006028E-01  1.14660081E-01
  9.19999648E-01 -3.03068213E-03  1.00000000E+00  1.00000000E+00  1.00000000E+00
  1.00000000E+00  2.54938145E-02  1.90373109E-01  8.52161486E-01  1.00000000E+00
  1.00000000E+00  1.00000000E+00  2.54938145E-02  1.90373109E-01  8.52161486E-01
  1.00000000E+00  1.00000000E+00  1.00000000E+00
P(S=P) Contraction coefficients            R   N=          38
  0.00000000E+00  0.00000000E+00  0.00000000E+00  0.00000000E+00  0.00000000E+00
  0.00000000E+00  4.02486927E-02  2.37593957E-01  8.15853851E-01  1.00000000E+00
  1.00000000E+00  1.00000000E+00  0.00000000E+00  0.00000000E+00  0.00000000E+00
  0.00000000E+00  0.00000000E+00  0.00000000E+00  0.00000000E+00  4.02486927E-02
  2.37593957E-01  8.15853851E-01  1.00000000E+00  1.00000000E+00  1.00000000E+00
  0.00000000E+00  0.00000000E+00  0.00000000E+00  0.00000000E+00  0.00000000E+00
  0.00000000E+00  0.00000000E+00  0.00000000E+00  0.00000000E+00  0.00000000E+00
  0.00000000E+00  0.00000000E+00  0.00000000E+00
Coordinates of each shell                  R   N=          60
 -1.36203390E+00  0.00000000E+00  0.00000000E+00 -1.36203390E+00  0.00000000E+00
  0.00000000E+00 -1.36203390E+00  0.00000000E+00  0.00000000E+00 -1.36203390E+00
  0.00000000E+00  0.00000000E+00 -1.36203390E+00  0.00000000E+00  0.00000000E+00
 -1.36203390E+00  0.00000000E+00  0.00000000E+00  1.36203390E+00  0.00000000E+00
  0.00000000E+00  1.36203390E+00  0.00000000E+00  0.00000000E+00  1.36203390E+00
  0.00000000E+00  0.00000000E+00  1.36203390E+00  0.00000000E+00  0.00000000E+00
  1.36203390E+00  0.00000000E+00  0.00000000E+00  1.36203390E+00  0.00000000E+00
  0.00000000E+00 -3.41666961E+00  1.77686659E-05 -1.57141786E-05 -3.41666961E+00
  1.77686659E-05 -1.57141786E-05 -3.41666961E+00  1.77686659E-05 -1.57141786E-05
 -3.41666961E+00  1.77686659E-05 -1.57141786E-05  3.41666696E+00  1.81752413E-05
 -1.63367076E-05  3.41666696E+00  1.81752413E-05 -1.63367076E-05  3.41666696E+00
  1.81752413E-05 -1.63367076E-05  3.41666696E+00  1.81752413E-05 -1.63367076E-05
Num ILSW                                   I              100
ILSW                                       I   N=         100
           1           0           0           1           2           0
           0           0           0           0        4336          -1
           7           0           0           0           2           0
           0           0           0           0           1           0
           1           1           0           0           0           0
           0           0      100000           0          -1           0
           0           0           0           0           0           0
           0           0           0           1           0           0
           0 -2000000000           1           0           0           0
           0           0           4          52           0           0
           0           0          55           0           0           0
           0           0           0           4           0           1
           0           0           0           0           0           0
           0           0           0           0           0           0
           0           0           0           0           0           0
           0           0           0           0           0           0
           0           0           0           0
Num RLSW                                   I               52
RLSW                                       R   N=          52
  1.00000000E+00  1.00000000E+00  1.00000000E+00  1.00000000E+00  5.40000000E-01
  0.00000000E+00  0.00000000E+00  1.00000000E+00  0.00000000E+00  0.00000000E+00
  0.00000000E+00  0.00000000E+00  1.00000000E+00  0.00000000E+00  0.00000000E+00
  0.00000000E+00  0.00000000E+00  1.00000000E+00  0.00000000E+00  0.00000000E+00
  0.00000000E+00  0.00000000E+00  1.00000000E+00  0.00000000E+00  0.00000000E+00
  0.00000000E+00  0.00000000E+00  1.00000000E+00  0.00000000E+00  0.00000000E+00
  0.00000000E+00  0.00000000E+00  1.00000000E+00  0.00000000E+00  0.00000000E+00
  0.00000000E+00  0.00000000E+00  0.00000000E+00  1.00000000E+00  1.00000000E+00
  0.00000000E+00  1.00000000E+00  0.00000000E+00  0.00000000E+00  0.00000000E+00
  0.00000000E+00  0.00000000E+00  0.00000000E+00  0.00000000E+00  0.00000000E+00
  0.00000000E+00  0.00000000E+00
MxBond                                     I                2
NBond                                      I   N=           4
           2           2           1           1
IBond                                      I   N=           8
           2           3           1           4           1           0
           2           0
RBond                                      R   N=           8
  1.00000000E+00  1.00000000E+00  1.00000000E+00  1.00000000E+00  1.00000000E+00
  0.00000000E+00  1.00000000E+00  0.00000000E+00
Virial Ratio                               R      2.011063070205603E+00
SCF Energy                                 R     -7.685269822637096E+01
Total Energy                               R     -7.685269822637096E+01
S**2                                       R      7.522844458977120E-01
S**2 after annihilation                    R      7.500036314993389E-01
RMS Force                                  R      1.240200724884183E-06
RMS Density                                R      5.998366144987755E-09
Job Status                                 I                1
Nuclear derivative order                   I                1
External E-field                           R   N=          35
  0.00000000E+00  0.00000000E+00  0.00000000E+00  0.00000000E+00  0.00000000E+00
  0.00000000E+00  0.00000000E+00  0.00000000E+00  0.00000000E+00  0.00000000E+00
  0.00000000E+00  0.00000000E+00  0.00000000E+00  0.00000000E+00  0.00000000E+00
  0.00000000E+00  0.00000000E+00  0.00000000E+00  0.00000000E+00  0.00000000E+00
  0.00000000E+00  0.00000000E+00  0.00000000E+00  0.00000000E+00  0.00000000E+00
  0.00000000E+00  0.00000000E+00  0.00000000E+00  0.00000000E+00  0.00000000E+00
  0.00000000E+00  0.00000000E+00  0.00000000E+00  0.00000000E+00  0.00000000E+00
IOpCl                                      I                1
IROHF                                      I                0
Alpha Orbital Energies                     R   N=          56
 -1.09730441E+01 -1.09722752E+01 -1.16201518E+00 -9.82431470E-01 -8.76733460E-01
 -6.80364378E-01 -6.56719104E-01 -3.20519335E-01 -3.00330947E-01 -1.91873348E-01
 -1.43590568E-01 -1.11445239E-01 -9.69735650E-02 -9.45059727E-02 -9.36605375E-02
 -5.12621432E-02 -4.75871917E-02  2.06002055E-02  4.34028162E-02  1.14959152E-01
  2.04615552E-01  3.08886108E-01  3.21664500E-01  3.63863693E-01  3.69871711E-01
  4.57921039E-01  4.63237493E-01  4.97469812E-01  5.51231054E-01  7.12129831E-01
  7.26556538E-01  8.01094169E-01  8.97267245E-01  8.98869166E-01  1.12551995E+00
  1.13204808E+00  1.16340490E+00  1.16465768E+00  1.37436764E+00  1.45828333E+00
  1.46897637E+00  1.63901498E+00  1.98854434E+00  2.00732299E+00  2.23223835E+00
  2.38986437E+00  2.41765733E+00  2.43766366E+00  2.47620701E+00  2.52877243E+00
  2.56028092E+00  2.89942040E+00  2.92858002E+00  3.32763277E+00  2.32032451E+01
  2.39179065E+01
Beta Orbital Energies                      R   N=          56
 -1.09706672E+01 -1.09700742E+01 -1.11815518E+00 -9.65857632E-01 -8.70847687E-01
 -6.33986471E-01 -4.34367234E-01 -2.83439837E-01 -2.47281815E-01 -1.74508046E-01
 -1.54970811E-01 -1.14083217E-01 -1.00150795E-01 -9.78504448E-02 -9.33480727E-02
 -4.82696474E-02 -4.38528415E-02  1.50763730E-02  4.49746361E-02  1.20573972E-01
  2.13711881E-01  2.98401878E-01  3.21048169E-01  3.51896935E-01  3.68275183E-01
  4.37828017E-01  4.71625020E-01  5.09581147E-01  5.64120468E-01  7.45398569E-01
  7.52538829E-01  7.72462728E-01  9.33143824E-01  9.55323329E-01  1.14009105E+00
  1.15061702E+00  1.19205502E+00  1.21335812E+00  1.39142923E+00  1.47714800E+00
  1.48536986E+00  1.66116255E+00  2.01319504E+00  2.02117908E+00  2.25728472E+00
  2.42300445E+00  2.42973960E+00  2.45749429E+00  2.51604388E+00  2.56799627E+00
  2.57541255E+00  2.93194822E+00  3.01899837E+00  3.34061157E+00  2.32135454E+01
  2.39357462E+01
Alpha MO coefficients                      R   N=        3136
  3.99015752E-01  3.28193559E-01  6.64051431E-04 -1.25002270E-08  7.35139450E-09
  7.45521981E-03 -2.03309431E-03  2.47538999E-08 -2.00862859E-08 -3.24147095E-03
  4.88360679E-04 -6.53936129E-09  5.03501633E-09 -4.11282611E-04  1.53616992E-03
 -4.12612883E-09  3.77401598E-09 -4.10959719E-04  1.24009473E-08  1.79450170E-05
  6.51752624E-04 -1.38324847E-08  3.98962524E-01  3.28149835E-01 -6.64062849E-04
 -1.24941301E-08  7.07280625E-09  7.45405369E-03  2.03315984E-03  2.50792280E-08
 -2.04307529E-08 -3.24027344E-03 -4.89596365E-04 -6.61690358E-09  5.06813244E-09
 -4.10718364E-04 -1.53633033E-03 -4.56149060E-09  4.48427979E-09 -4.10747698E-04
 -1.30760231E-08  1.79421501E-05  6.51394993E-04  1.42650400E-08  1.48471475E-04
 -2.70966541E-03  2.90680668E-03 -1.60327820E-03  1.19731230E-08 -1.07911469E-08
  1.48467260E-04 -2.70899278E-03  2.90699326E-03  1.60298874E-03  1.22319515E-08
 -1.11950427E-08 -3.99084837E-01 -3.27815210E-01  8.11931140E-05  9.83496745E-09
 -4.81154428E-09 -8.84916102E-03 -3.78345813E-04 -1.67334996E-08  1.23400486E-08
  9.01209617E-03  9.33168197E-03 -3.20994830E-08  2.95316128E-08  4.68811999E-03
  1.31521232E-03 -1.23624045E-08  1.04428119E-08  1.61738144E-03 -2.57411570E-08
 -2.14852738E-05 -2.72948933E-03  2.80116281E-08  3.99138047E-01  3.27858975E-01
  8.11046820E-05 -9.86303494E-09  4.58614415E-09  8.85016967E-03 -3.78058114E-04
  1.72932048E-08 -1.30527945E-08 -9.01251306E-03  9.33162214E-03  3.23289914E-08
 -2.99415901E-08 -4.68817654E-03  1.31500856E-03  1.24502342E-08 -1.05597023E-08
 -1.61744006E-03 -2.64944661E-08  2.14876656E-05  2.72958287E-03  2.85115050E-08
 -8.56789022E-06  5.21909103E-03  1.33097290E-03  2.25003589E-03 -2.85042906E-08
  2.52254516E-08  8.58213041E-06 -5.21947553E-03 -1.33058789E-03  2.25025953E-03
  2.92816387E-08 -2.64299111E-08 -8.84102205E-02 -1.43828576E-01  5.31418985E-02
  1.38811581E-07 -1.59115155E-07  4.02743981E-01  7.46085737E-02  1.86464600E-07
 -2.28132625E-07  2.21290910E-01  1.45346682E-02  9.88082770E-08 -1.17088319E-07
 -3.70694348E-03 -2.03674613E-02  4.13959482E-08 -3.41887108E-08 -1.44000826E-02
  1.01394721E-07  2.60503143E-03  1.62246171E-02 -7.74423208E-08 -8.84102946E-02
 -1.43828698E-01 -5.31417674E-02  1.40826460E-07 -1.65387760E-07  4.02744298E-01
 -7.46084305E-02  1.89812226E-07 -2.39020874E-07  2.21291154E-01 -1.45346898E-02
  1.00852959E-07 -1.22260852E-07 -3.70689386E-03  2.03674487E-02  4.53075111E-08
 -3.97616015E-08 -1.44001007E-02 -1.04215235E-07  2.60503372E-03  1.62246409E-02
  7.95462576E-08  4.64644985E-02  5.19288109E-02 -1.96221186E-02  6.29864919E-03
 -2.01365173E-08  1.07160113E-08  4.64646948E-02  5.19289889E-02 -1.96221432E-02
 -6.29867047E-03 -2.07410298E-08  1.13608520E-08 -6.88546869E-02 -1.13600522E-01
 -9.26578392E-02  4.54232676E-07 -4.59182731E-07  3.24953448E-01 -1.25104076E-01
  5.68336960E-07 -5.90058502E-07  2.65724852E-01 -3.15116701E-02  2.61429504E-07
 -3.11533096E-07 -2.37318291E-01 -7.22235568E-02  1.44853668E-07 -1.17358530E-07
 -8.75394913E-03  2.19770730E-07  1.95863870E-03  8.60818957E-03 -1.78915329E-07
  6.88546253E-02  1.13600415E-01 -9.26586629E-02 -4.69042610E-07  4.85524427E-07
 -3.24953077E-01 -1.25105145E-01 -5.89934873E-07  6.29662270E-07 -2.65724581E-01
 -3.15119562E-02 -2.69567116E-07  3.26149276E-07  2.37318276E-01 -7.22235036E-02
 -1.45591811E-07  1.18401941E-07  8.75392698E-03  2.24835110E-07 -1.95863580E-03
 -8.60816101E-03 -1.81493923E-07  1.21448314E-01  1.54798243E-01 -5.55595560E-03
  1.99847125E-02 -1.93867327E-07  1.73820996E-07 -1.21448902E-01 -1.54798857E-01
  5.55590288E-03  1.99848029E-02  1.97717569E-07 -1.79720883E-07  5.72685804E-03
  9.03170536E-03  1.87152001E-01 -9.67161106E-07  8.78226121E-07 -2.05329249E-02
  2.63472755E-01 -1.37855588E-06  1.26852569E-06 -6.30560938E-02  1.12035479E-01
 -6.57355367E-07  5.73952711E-07 -7.77813442E-03  5.02499526E-03 -2.43971634E-08
  2.62902155E-08 -2.91263543E-03 -4.18194845E-08  1.56351494E-05  4.99254021E-03
  8.13576721E-09  5.72659806E-03  9.03126844E-03 -1.87151713E-01 -9.83781084E-07
  9.03378752E-07 -2.05316096E-02 -2.63472222E-01 -1.40008641E-06  1.30075965E-06
 -6.30548333E-02 -1.12035200E-01 -6.70642607E-07  5.94790721E-07 -7.77962907E-03
 -5.02452544E-03 -2.79808348E-08  3.17876099E-08 -2.91265726E-03  5.08830686E-08
  1.56433875E-05  4.99255041E-03 -1.23223400E-08 -1.29136304E-01 -1.77046906E-01
  2.32351502E-04 -2.35026910E-02  2.28920734E-07 -2.03812161E-07 -1.29135976E-01
 -1.77046304E-01  2.32328743E-04  2.35026256E-02  2.34778334E-07 -2.13350835E-07
  1.17732877E-07  2.05111454E-07  9.14629837E-07  1.89647783E-01  5.23553956E-02
 -6.42790828E-07  1.48748934E-06  3.13029283E-01  8.64168968E-02 -5.79068278E-07
  4.67957264E-07  2.16346830E-01  5.97261353E-02  1.24803606E-07 -1.74439393E-07
 -5.31035099E-03 -1.46601730E-03 -2.48122708E-08  7.93154046E-03 -4.41092652E-08
  5.55622921E-08  2.87305052E-02  1.23641463E-07  2.15252342E-07 -9.17002216E-07
  1.89647795E-01  5.23553983E-02 -6.74293564E-07 -1.49400642E-06  3.13029318E-01
  8.64169059E-02 -6.42014896E-07 -4.35617153E-07  2.16346830E-01  5.97261346E-02
  1.10150224E-07  1.82889105E-07 -5.31035840E-03 -1.46601932E-03 -2.69949465E-08
 -7.93153918E-03 -4.84597480E-08  5.56628194E-08 -2.87305005E-02  7.66251369E-08
 -1.66240192E-07 -4.01880728E-07  1.11423230E-07  1.28422946E-02  3.54532777E-03
  8.49196891E-08 -1.62034444E-07 -4.16493879E-07 -1.14233763E-07  1.28423233E-02
  3.54533567E-03 -1.94532521E-07 -3.30858050E-07 -1.39784943E-06 -5.20862217E-02
  1.88672686E-01  9.98959833E-07 -2.27402689E-06 -8.61334443E-02  3.12002460E-01
  1.11688714E-06 -8.60810419E-07 -5.95707833E-02  2.15784230E-01 -1.31235972E-07
  1.50233394E-07  4.44431332E-04 -1.60989877E-03 -2.25796186E-08  2.81230167E-02
  8.65496795E-09 -5.29013989E-08 -7.76381347E-03 -2.12852730E-07 -3.61950114E-07
  1.41104033E-06 -5.20862239E-02  1.88672691E-01  1.09424492E-06  2.30445462E-06
 -8.61334511E-02  3.12002481E-01  1.26633752E-06  8.18748045E-07 -5.95707823E-02
  2.15784222E-01 -1.66928798E-07 -1.48466955E-07  4.44433458E-04 -1.60990634E-03
 -2.78302660E-08 -2.81230152E-02  1.16939725E-08 -5.41050982E-08  7.76381300E-03
 -8.31341745E-08  2.34708827E-07  5.08310942E-07 -2.00046633E-07 -3.91176644E-03
  1.41696518E-02 -1.02500312E-07  2.19088858E-07  5.36161121E-07  2.10577138E-07
 -3.91177500E-03  1.41696827E-02  6.85264771E-07  1.17282121E-06 -3.54319173E-08
  2.09117728E-01  5.77302439E-02 -3.76406070E-06  1.43345897E-07  3.36904095E-01
  9.30077016E-02 -4.78764212E-06  3.37847451E-06  4.18728727E-01  1.15596694E-01
  6.71240477E-07  6.54224717E-07  1.09013271E-01  3.00948128E-02 -2.32034198E-07
 -7.62170437E-03 -1.02434249E-07  4.37381807E-07 -2.76083310E-02 -6.87820158E-07
 -1.17732125E-06 -1.61995194E-08 -2.09117711E-01 -5.77302396E-02  3.77662827E-06
  1.74169263E-07 -3.36904086E-01 -9.30077000E-02  4.83513709E-06  3.41115827E-06
 -4.18728689E-01 -1.15596684E-01 -6.60281710E-07  6.57082775E-07 -1.09013245E-01
 -3.00948057E-02  2.35846162E-07 -7.62170737E-03  1.07759636E-07 -4.38868484E-07
 -2.76083421E-02  1.40270245E-06  3.71141535E-06  4.00487271E-06  1.04663906E-07
  2.37906614E-02  6.56778956E-03 -1.41483041E-06 -3.73850465E-06 -4.02861187E-06
  1.06353890E-07 -2.37906730E-02 -6.56779278E-03 -1.17533368E-06 -2.01113512E-06
  1.32325481E-07 -5.67707789E-02  2.05642176E-01  6.46902975E-06 -3.25612407E-08
 -9.04409604E-02  3.27606560E-01  8.20354535E-06 -6.09305513E-06 -1.18006653E-01
  4.27458487E-01  9.62742264E-07 -5.24380687E-07 -3.84102189E-02  1.39134199E-01
  2.52952219E-07 -2.91193757E-02  9.04557194E-08 -7.45119700E-07  8.03887505E-03
  1.18430562E-06  2.02614556E-06  7.37696768E-08  5.67707756E-02 -2.05642164E-01
 -6.50563918E-06 -1.25137743E-07  9.04409585E-02 -3.27606554E-01 -8.36090316E-06
 -6.19664349E-06  1.18006645E-01 -4.27458459E-01 -1.00602013E-06 -5.37705948E-07
  3.84102106E-02 -1.39134170E-01 -2.50893290E-07 -2.91193827E-02 -9.41271083E-08
  7.53688109E-07  8.03887706E-03 -2.28192894E-06 -6.33693235E-06 -7.35816064E-06
 -1.58209106E-07 -6.97931476E-03  2.52813516E-02  2.31898446E-06  6.41979829E-06
  7.43593810E-06 -1.63810919E-07  6.97931821E-03 -2.52813641E-02  6.38398426E-02
  1.09583953E-01 -4.08601868E-02 -2.72238015E-06  2.59432321E-06 -3.41356189E-01
 -5.41696940E-02 -4.43447400E-06  4.17986790E-06 -1.02259046E+00 -1.25238385E-01
 -8.28002032E-06  7.90834507E-06 -3.99168981E+00 -1.32035641E+00 -2.33556566E-06
  2.49471523E-06 -2.15914746E-02 -2.35439856E-07 -2.96404220E-03  4.73159430E-02
  1.87485183E-07 -6.38397033E-02 -1.09583721E-01 -4.08609209E-02  2.73852584E-06
 -2.61856898E-06  3.41355553E-01 -5.41707858E-02  4.46360099E-06 -4.22398330E-06
  1.02258818E+00 -1.25239765E-01  8.34101995E-06 -7.99691984E-06  3.99169082E+00
 -1.32035393E+00  2.32819477E-06 -2.47868740E-06  2.15914057E-02 -2.19503594E-07
  2.96403585E-03 -4.73158024E-02  1.76579271E-07  1.02576507E-01  2.96828101E-01
  4.74586045E-01 -1.57073724E-02 -4.10226903E-07  3.93496737E-07 -1.02576050E-01
 -2.96826637E-01 -4.74583649E-01 -1.57072417E-02  4.10933726E-07 -3.94232051E-07
  2.42090794E-02  4.23026764E-02  3.33922693E-02 -2.03778660E-07  2.42658037E-07
 -1.55907927E-01  6.37460359E-02 -5.23308866E-07  5.36491668E-07 -3.19829294E-01
  6.50508169E-02 -1.54721158E-07  2.77534232E-07  9.42647660E-01 -5.36950748E-01
  2.62583686E-06 -2.74111602E-06  9.12444938E-03 -9.59714674E-08  4.13034636E-04
 -1.71860943E-02  1.10621642E-07  2.42092398E-02  4.23029572E-02 -3.33921739E-02
 -2.04754800E-07  2.44327903E-07 -1.55908852E-01 -6.37459843E-02 -5.31230945E-07
  5.47703692E-07 -3.19832428E-01 -6.50496246E-02 -1.39125363E-07  2.52167700E-07
  9.42636520E-01  5.36955259E-01  2.77878040E-06 -2.99432131E-06  9.12441660E-03
  1.01233010E-07  4.13027973E-04 -1.71860154E-02 -1.13948302E-07 -2.12822416E-02
  4.58163359E-02 -2.57825879E-01 -9.33707584E-03  1.28548109E-07 -1.17205961E-07
 -2.12820751E-02  4.58170221E-02 -2.57825463E-01  9.33708139E-03  1.32144092E-07
 -1.22940216E-07  1.35963714E-03  1.62793116E-03  9.70108874E-02 -1.02281909E-06
  7.41620206E-07  2.99827142E-02  1.46722488E-01 -1.29978151E-06  1.00085519E-06
 -2.39931225E-01  2.70466330E-01 -4.06191444E-06  3.08624469E-06 -3.00764735E-01
 -7.66003913E-01  5.03818242E-06 -3.13921103E-06 -2.03328669E-02  4.14649971E-07
 -1.79228688E-03  4.12149855E-02 -5.53486312E-07  1.35982052E-03  1.62825115E-03
 -9.70108316E-02 -1.05274630E-06  7.86464282E-07  2.99816629E-02 -1.46722447E-01
 -1.34322269E-06  1.06630774E-06 -2.39935228E-01 -2.70465487E-01 -4.19367464E-06
  3.29032732E-06 -3.00805032E-01  7.66020696E-01  5.04821526E-06 -3.14748129E-06
 -2.03328881E-02 -4.14963309E-07 -1.79229308E-03  4.12150430E-02  5.54573579E-07
  5.79674618E-02  2.03224543E-01  6.43927196E-01 -2.30445498E-02  1.45149671E-07
 -1.18655726E-07  5.79673586E-02  2.03224874E-01  6.43926564E-01  2.30446603E-02
  1.42878159E-07 -1.15346861E-07 -2.77477044E-08 -4.96887636E-08 -7.48187629E-07
 -6.83969776E-02 -1.88811304E-02  5.86132437E-08 -1.15080912E-06 -8.08484862E-02
 -2.23182910E-02  2.01338076E-07 -1.33390221E-06 -2.04592861E-01 -5.64782960E-02
 -8.17412180E-07  1.01202276E-05  6.01667145E-01  1.66091426E-01  1.56034941E-07
 -4.37680237E-03  1.85267689E-08 -3.03696068E-07 -1.58549615E-02 -3.10165929E-08
 -5.52192387E-08  7.38552252E-07 -6.83969121E-02 -1.88811123E-02  7.26370102E-08
  1.13583751E-06 -8.08483935E-02 -2.23182656E-02  3.41427426E-07  1.20820987E-06
 -2.04592691E-01 -5.64782489E-02 -3.73762469E-07 -1.01992919E-05  6.01666088E-01
  1.66091134E-01  1.59077297E-07  4.37680080E-03  1.97512481E-08 -3.08538893E-07
  1.58549558E-02 -3.85953576E-07 -8.54654664E-07 -2.33486981E-06  1.43200983E-07
  6.83876929E-03  1.88786384E-03 -3.97190956E-07 -8.49734477E-07 -2.34701138E-06
 -1.42535601E-07  6.83873814E-03  1.88785523E-03  5.01342720E-08  9.10212780E-08
  9.33611680E-07  1.87692674E-02 -6.79918205E-02 -2.77139011E-07  1.47713188E-06
  2.42440025E-02 -8.78237086E-02  6.73509883E-07  1.33017451E-06  5.55918025E-02
 -2.01381763E-01  2.63511342E-06 -1.48155973E-05 -1.65594853E-01  5.99868447E-01
 -1.49032870E-07 -1.56713562E-02 -1.67948203E-08  3.10313176E-07  4.32609981E-03
  7.82810036E-08  1.38413568E-07 -8.40746648E-07  1.87692482E-02 -6.79917511E-02
 -3.97153413E-07 -1.33196062E-06  2.42439759E-02 -8.78236125E-02 -2.17714136E-07
 -8.51675069E-07  5.55917479E-02 -2.01381565E-01  3.11654959E-06  1.37425818E-05
 -1.65594545E-01  5.99867330E-01 -1.73968633E-07  1.56713517E-02 -1.99451544E-08
  3.63662807E-07 -4.32609857E-03  3.47908476E-07  5.83817181E-07  8.43768786E-07
 -1.78870165E-07 -1.73886616E-03  6.29908262E-03  4.54718568E-07  7.18031770E-07
  1.51173675E-06  1.72306387E-07 -1.73885779E-03  6.29905227E-03  2.06248023E-02
  3.49264131E-02 -7.61128293E-02 -9.07326012E-07  7.21666904E-07 -9.08513931E-02
 -1.22510623E-01 -1.26168129E-06  1.03062255E-06 -5.06711716E-01 -7.42141036E-02
 -4.87439567E-06  4.09631996E-06  2.77038402E+00  1.75298834E+00 -1.27438239E-05
  1.34893117E-05 -2.10998362E-02  4.85850444E-08 -1.91573262E-03  4.29564793E-02
 -8.24107384E-08 -2.06247961E-02 -3.49264012E-02 -7.61124548E-02  9.39429950E-07
 -8.02658510E-07  9.08511924E-02 -1.22510045E-01  1.30202215E-06 -1.13565944E-06
  5.06713299E-01 -7.42125521E-02  5.00221549E-06 -4.38363265E-06 -2.77038437E+00
  1.75298197E+00  1.25634895E-05 -1.29290201E-05  2.10999170E-02  8.20531051E-08
  1.91574075E-03 -4.29566464E-02 -9.95501747E-08  8.43691286E-02  1.78547131E-01
  7.59434814E-01  6.73953083E-03 -3.93263375E-07  3.62893935E-07 -8.43692537E-02
 -1.78547923E-01 -7.59436732E-01  6.73938816E-03  3.93865278E-07 -3.60714845E-07
 -3.28574731E-08 -5.56210506E-08  4.27895042E-08 -7.92788697E-02 -2.18860163E-02
  1.95882711E-07  1.75817632E-07 -1.02819686E-01 -2.83847552E-02  1.45267988E-06
  3.03887346E-06 -2.96279218E-01 -8.17919967E-02  5.72628373E-05  1.89660566E-05
  1.94724766E+00  5.37564634E-01  4.86918052E-08 -2.94314670E-04  2.28926773E-08