Title Card Required                                                     
Force     UM062X                                                      6-311+G(d,p)        
Number of atoms                            I                4
Info1-9                                    I   N=           9
          13          13           0           0           0         100
           5          18        -502
Full Title                                 C   N=           2
Title Card Required     
Route                                      C   N=           4
#p UM062X/6-311+G** force int=superfine         
Charge                                     I                1
Multiplicity                               I                2
Number of electrons                        I               13
Number of alpha electrons                  I                7
Number of beta electrons                   I                6
Number of basis functions                  I               56
Number of independent functions            I               56
Number of point charges in /Mol/           I                0
Number of translation vectors              I                0
Atomic numbers                             I   N=           4
           6           6           1           1
Nuclear charges                            R   N=           4
  6.00000000E+00  6.00000000E+00  1.00000000E+00  1.00000000E+00
Current cartesian coordinates              R   N=          12
  0.00000000E+00  0.00000000E+00  1.13894171E+00  1.39480133E-16  0.00000000E+00
 -1.13894171E+00  0.00000000E+00  0.00000000E+00  3.17974388E+00  3.89406317E-16
  0.00000000E+00 -3.17974388E+00
Number of symbols in /Mol/                 I                0
Force Field                                I                0
Atom Types                                 C   N=           4
                                                
Int Atom Types                             I   N=           4
           0           0           0           0
MM charges                                 R   N=           4
  0.00000000E+00  0.00000000E+00  0.00000000E+00  0.00000000E+00
Integer atomic weights                     I   N=           4
          12          12           1           1
Real atomic weights                        R   N=           4
  1.20000000E+01  1.20000000E+01  1.00782504E+00  1.00782504E+00
Atom fragment info                         I   N=           4
           0           0           0           0
Atom residue num                           I   N=           4
           0           0           0           0
Nuclear spins                              I   N=           4
           0           0           1           1
Nuclear ZEff                               R   N=           4
 -3.60000000E+00 -3.60000000E+00 -1.00000000E+00 -1.00000000E+00
Nuclear ZNuc                               R   N=           4
  6.00000000E+00  6.00000000E+00  1.00000000E+00  1.00000000E+00
Nuclear QMom                               R   N=           4
  0.00000000E+00  0.00000000E+00  0.00000000E+00  0.00000000E+00
Nuclear GFac                               R   N=           4
  0.00000000E+00  0.00000000E+00  2.79284600E+00  2.79284600E+00
MicOpt                                     I   N=           4
          -1          -1          -1          -1
Number of residues                         I                0
Number of secondary structures             I                0
SymInf integers                            I   N=          26
           2           8           1           1           1          -1
           1          -1          -1          -1           1           1
          -1          -1          -1           1           1           1
          -1           1           1           1          -1          -1
          -1          -1
RotTr to input orientation                 R   N=          12
  0.00000000E+00  0.00000000E+00  1.00000000E+00  0.00000000E+00  1.00000000E+00
  0.00000000E+00 -1.00000000E+00 -0.00000000E+00 -0.00000000E+00  0.00000000E+00
  0.00000000E+00  0.00000000E+00
Number of contracted shells                I               20
Number of primitive shells                 I               38
Pure/Cartesian d shells                    I                0
Pure/Cartesian f shells                    I                0
Highest angular momentum                   I                2
Largest degree of contraction              I                6
Shell types                                I   N=          20
           0          -1          -1          -1          -1          -2
           0          -1          -1          -1          -1          -2
           0           0           0           1           0           0
           0           1
Number of primitives per shell             I   N=          20
           6           3           1           1           1           1
           6           3           1           1           1           1
           3           1           1           1           3           1
           1           1
Shell to atom map                          I   N=          20
           1           1           1           1           1           1
           2           2           2           2           2           2
           3           3           3           3           4           4
           4           4
Primitive exponents                        R   N=          38
  4.56324000E+03  6.82024000E+02  1.54973000E+02  4.44553000E+01  1.30290000E+01
  1.82773000E+00  2.09642000E+01  4.80331000E+00  1.45933000E+00  4.83456000E-01
  1.45585000E-01  4.38000000E-02  6.26000000E-01  4.56324000E+03  6.82024000E+02
  1.54973000E+02  4.44553000E+01  1.30290000E+01  1.82773000E+00  2.09642000E+01
  4.80331000E+00  1.45933000E+00  4.83456000E-01  1.45585000E-01  4.38000000E-02
  6.26000000E-01  3.38650000E+01  5.09479000E+00  1.15879000E+00  3.25840000E-01
  1.02741000E-01  7.50000000E-01  3.38650000E+01  5.09479000E+00  1.15879000E+00
  3.25840000E-01  1.02741000E-01  7.50000000E-01
Contraction coefficients                   R   N=          38
  1.96665025E-03  1.52306019E-02  7.61269097E-02  2.60801033E-01  6.16462078E-01
  2.21006028E-01  1.14660081E-01  9.19999648E-01 -3.03068213E-03  1.00000000E+00
  1.00000000E+00  1.00000000E+00  1.00000000E+00  1.96665025E-03  1.52306019E-02
  7.61269097E-02  2.60801033E-01  6.16462078E-01  2.21006028E-01  1.14660081E-01
  9.19999648E-01 -3.03068213E-03  1.00000000E+00  1.00000000E+00  1.00000000E+00
  1.00000000E+00  2.54938145E-02  1.90373109E-01  8.52161486E-01  1.00000000E+00
  1.00000000E+00  1.00000000E+00  2.54938145E-02  1.90373109E-01  8.52161486E-01
  1.00000000E+00  1.00000000E+00  1.00000000E+00
P(S=P) Contraction coefficients            R   N=          38
  0.00000000E+00  0.00000000E+00  0.00000000E+00  0.00000000E+00  0.00000000E+00
  0.00000000E+00  4.02486927E-02  2.37593957E-01  8.15853851E-01  1.00000000E+00
  1.00000000E+00  1.00000000E+00  0.00000000E+00  0.00000000E+00  0.00000000E+00
  0.00000000E+00  0.00000000E+00  0.00000000E+00  0.00000000E+00  4.02486927E-02
  2.37593957E-01  8.15853851E-01  1.00000000E+00  1.00000000E+00  1.00000000E+00
  0.00000000E+00  0.00000000E+00  0.00000000E+00  0.00000000E+00  0.00000000E+00
  0.00000000E+00  0.00000000E+00  0.00000000E+00  0.00000000E+00  0.00000000E+00
  0.00000000E+00  0.00000000E+00  0.00000000E+00
Coordinates of each shell                  R   N=          60
  0.00000000E+00  0.00000000E+00  1.13894171E+00  0.00000000E+00  0.00000000E+00
  1.13894171E+00  0.00000000E+00  0.00000000E+00  1.13894171E+00  0.00000000E+00
  0.00000000E+00  1.13894171E+00  0.00000000E+00  0.00000000E+00  1.13894171E+00
  0.00000000E+00  0.00000000E+00  1.13894171E+00  1.39480133E-16  0.00000000E+00
 -1.13894171E+00  1.39480133E-16  0.00000000E+00 -1.13894171E+00  1.39480133E-16
  0.00000000E+00 -1.13894171E+00  1.39480133E-16  0.00000000E+00 -1.13894171E+00
  1.39480133E-16  0.00000000E+00 -1.13894171E+00  1.39480133E-16  0.00000000E+00
 -1.13894171E+00  0.00000000E+00  0.00000000E+00  3.17974388E+00  0.00000000E+00
  0.00000000E+00  3.17974388E+00  0.00000000E+00  0.00000000E+00  3.17974388E+00
  0.00000000E+00  0.00000000E+00  3.17974388E+00  3.89406317E-16  0.00000000E+00
 -3.17974388E+00  3.89406317E-16  0.00000000E+00 -3.17974388E+00  3.89406317E-16
  0.00000000E+00 -3.17974388E+00  3.89406317E-16  0.00000000E+00 -3.17974388E+00
Num ILSW                                   I              100
ILSW                                       I   N=         100
           1           0           0           0           2           0
           0           0           0           0        4336          -1
           7           0           0           0           2           0
           0           0           0           0           1           0
           1           0           0           0           0           0
           0           0      100000           0          -1           0
           0           0           0           0           0           0
           0           0           0           1           0           0
           0 -2000000000           1           0           0           0
           0           0           4          52           0           0
           0           0          55           0           0           0
           0           0           0           4           0           1
           0           0           0           0           0           0
           0           0           0           0           0           0
           0           0           0           0           0           0
           0           0           0           0           0           0
           0           0           0           0
Num RLSW                                   I               52
RLSW                                       R   N=          52
  1.00000000E+00  1.00000000E+00  1.00000000E+00  1.00000000E+00  5.40000000E-01
  0.00000000E+00  0.00000000E+00  1.00000000E+00  0.00000000E+00  0.00000000E+00
  0.00000000E+00  0.00000000E+00  1.00000000E+00  0.00000000E+00  0.00000000E+00
  0.00000000E+00  0.00000000E+00  1.00000000E+00  0.00000000E+00  0.00000000E+00
  0.00000000E+00  0.00000000E+00  1.00000000E+00  0.00000000E+00  0.00000000E+00
  0.00000000E+00  0.00000000E+00  1.00000000E+00  0.00000000E+00  0.00000000E+00
  0.00000000E+00  0.00000000E+00  1.00000000E+00  0.00000000E+00  0.00000000E+00
  0.00000000E+00  0.00000000E+00  0.00000000E+00  1.00000000E+00  1.00000000E+00
  0.00000000E+00  1.00000000E+00  0.00000000E+00  0.00000000E+00  0.00000000E+00
  0.00000000E+00  0.00000000E+00  0.00000000E+00  0.00000000E+00  0.00000000E+00
  0.00000000E+00  0.00000000E+00
MxBond                                     I                2
NBond                                      I   N=           4
           2           2           1           1
IBond                                      I   N=           8
           2           3           1           4           1           0
           2           0
RBond                                      R   N=           8
  3.00000000E+00  1.00000000E+00  3.00000000E+00  1.00000000E+00  1.00000000E+00
  0.00000000E+00  1.00000000E+00  0.00000000E+00
Virial Ratio                               R      2.001358070345583E+00
SCF Energy                                 R     -7.689857122303654E+01
Total Energy                               R     -7.689857122303654E+01
S**2                                       R      7.521986060401780E-01
S**2 after annihilation                    R      7.500034933273144E-01
RMS Force                                  R      3.089998754149120E-02
RMS Density                                R      1.070212067127132E-09
Job Status                                 I                1
Nuclear derivative order                   I                1
External E-field                           R   N=          35
  0.00000000E+00  0.00000000E+00  0.00000000E+00  0.00000000E+00  0.00000000E+00
  0.00000000E+00  0.00000000E+00  0.00000000E+00  0.00000000E+00  0.00000000E+00
  0.00000000E+00  0.00000000E+00  0.00000000E+00  0.00000000E+00  0.00000000E+00
  0.00000000E+00  0.00000000E+00  0.00000000E+00  0.00000000E+00  0.00000000E+00
  0.00000000E+00  0.00000000E+00  0.00000000E+00  0.00000000E+00  0.00000000E+00
  0.00000000E+00  0.00000000E+00  0.00000000E+00  0.00000000E+00  0.00000000E+00
  0.00000000E+00  0.00000000E+00  0.00000000E+00  0.00000000E+00  0.00000000E+00
IOpCl                                      I                1
IROHF                                      I                0
Alpha Orbital Energies                     R   N=          56
 -1.09353719E+01 -1.09325466E+01 -1.24279403E+00 -9.68670821E-01 -8.98877951E-01
 -7.40720928E-01 -7.12693944E-01 -2.63232385E-01 -2.43298824E-01 -1.51058958E-01
 -1.45376214E-01 -1.16323117E-01 -1.04830137E-01 -1.02177254E-01 -5.58752485E-02
 -4.65191477E-02 -4.18730672E-02  2.30695465E-02  4.55959542E-02  1.66336876E-01
  1.83713292E-01  2.87864317E-01  2.98828789E-01  3.81686558E-01  3.88116001E-01
  4.76492707E-01  4.88247626E-01  5.51525403E-01  7.02234452E-01  7.73783443E-01
  7.89359686E-01  8.38860752E-01  8.40243075E-01  8.42011044E-01  1.19844011E+00
  1.20461472E+00  1.24753777E+00  1.24864930E+00  1.40697578E+00  1.54375912E+00
  1.55826217E+00  1.82782153E+00  2.15214769E+00  2.17459063E+00  2.30228305E+00
  2.34236484E+00  2.41674113E+00  2.44766726E+00  2.64373111E+00  2.65955698E+00
  2.67787582E+00  3.01777732E+00  3.03088879E+00  3.46558166E+00  2.32553457E+01
  2.47896992E+01
Beta Orbital Energies                      R   N=          56
 -1.09328059E+01 -1.09302516E+01 -1.19360185E+00 -9.52921775E-01 -8.93150188E-01
 -6.87337653E-01 -4.69663469E-01 -2.27721343E-01 -2.02224998E-01 -1.56404010E-01
 -1.43433659E-01 -1.17158453E-01 -1.07309864E-01 -1.04053175E-01 -5.03993229E-02
 -3.98229001E-02 -3.30149673E-02  2.14961563E-02  4.82871111E-02  1.71486803E-01
  1.91819009E-01  2.72237838E-01  2.97643080E-01  3.78929473E-01  3.89612749E-01
  4.66175447E-01  4.76539560E-01  5.65882853E-01  7.33425501E-01  8.06114548E-01
  8.12148595E-01  8.14838958E-01  8.80653777E-01  9.01220051E-01  1.21446241E+00
  1.22465530E+00  1.27689675E+00  1.29520977E+00  1.42098765E+00  1.56720836E+00
  1.57497042E+00  1.85946809E+00  2.18152099E+00  2.18761863E+00  2.31729162E+00
  2.36147016E+00  2.45133901E+00  2.45605591E+00  2.68225482E+00  2.68422386E+00
  2.74398686E+00  3.03819975E+00  3.11578416E+00  3.48919204E+00  2.32638405E+01
  2.48147442E+01
Alpha MO coefficients                      R   N=        3136
  3.98657637E-01  3.28019621E-01  0.00000000E+00  0.00000000E+00 -6.05672081E-04
  8.03927373E-03  0.00000000E+00  0.00000000E+00  2.26570386E-03 -2.04906914E-03
  0.00000000E+00  0.00000000E+00  3.24380130E-04 -4.72210941E-04  0.00000000E+00
  0.00000000E+00 -1.50135854E-03  1.54627139E-03  0.00000000E+00  0.00000000E+00
 -3.93793162E-05  0.00000000E+00  3.98657637E-01  3.28019621E-01  0.00000000E+00
  0.00000000E+00  6.05672081E-04  8.03927373E-03  0.00000000E+00  0.00000000E+00
 -2.26570386E-03 -2.04906914E-03  0.00000000E+00  0.00000000E+00 -3.24380130E-04
 -4.72210941E-04  0.00000000E+00  0.00000000E+00  1.50135854E-03  1.54627139E-03
  0.00000000E+00  0.00000000E+00 -3.93793162E-05  0.00000000E+00  4.75537731E-05
 -3.84339437E-03  2.51278895E-03  0.00000000E+00  0.00000000E+00  2.12904262E-03
  4.75537731E-05 -3.84339437E-03  2.51278895E-03  0.00000000E+00  0.00000000E+00
 -2.12904262E-03  3.99106097E-01  3.27234544E-01  0.00000000E+00  0.00000000E+00
  8.74644459E-05  1.48467581E-02  0.00000000E+00  0.00000000E+00 -7.37274889E-03
 -1.26785102E-02  0.00000000E+00  0.00000000E+00  1.20507824E-02 -2.64050443E-02
  0.00000000E+00  0.00000000E+00  6.56580735E-03  6.06206942E-03  0.00000000E+00
  0.00000000E+00 -5.45362866E-05  0.00000000E+00 -3.99106097E-01 -3.27234544E-01
  0.00000000E+00  0.00000000E+00  8.74644459E-05 -1.48467581E-02  0.00000000E+00
  0.00000000E+00 -7.37274889E-03  1.26785102E-02  0.00000000E+00  0.00000000E+00
  1.20507824E-02  2.64050443E-02  0.00000000E+00  0.00000000E+00  6.56580735E-03
 -6.06206942E-03  0.00000000E+00  0.00000000E+00  5.45362866E-05  0.00000000E+00
 -2.94019695E-04 -4.72342585E-03 -2.88106034E-03  0.00000000E+00  0.00000000E+00
  2.12556579E-03  2.94019695E-04  4.72342585E-03  2.88106034E-03  0.00000000E+00
  0.00000000E+00  2.12556579E-03 -9.36137308E-02 -1.51769521E-01  0.00000000E+00
  0.00000000E+00 -9.43834225E-02  3.97181941E-01  0.00000000E+00  0.00000000E+00
 -9.97464575E-02  1.86952840E-01  0.00000000E+00  0.00000000E+00 -1.55308092E-02
 -6.26621038E-03  0.00000000E+00  0.00000000E+00  2.10271268E-02  2.88183432E-02
  0.00000000E+00  0.00000000E+00 -5.86989416E-03  0.00000000E+00 -9.36137308E-02
 -1.51769521E-01  0.00000000E+00  0.00000000E+00  9.43834225E-02  3.97181941E-01
  0.00000000E+00  0.00000000E+00  9.97464575E-02  1.86952840E-01  0.00000000E+00
  0.00000000E+00  1.55308092E-02 -6.26621038E-03  0.00000000E+00  0.00000000E+00
 -2.10271268E-02  2.88183432E-02  0.00000000E+00  0.00000000E+00 -5.86989416E-03
  0.00000000E+00  2.94378383E-02  2.00958852E-02 -1.43945944E-02  0.00000000E+00
  0.00000000E+00  2.54493436E-03  2.94378383E-02  2.00958852E-02 -1.43945944E-02
  0.00000000E+00  0.00000000E+00 -2.54493436E-03  6.53674986E-02  1.08695291E-01
  0.00000000E+00  0.00000000E+00 -9.78937209E-02 -3.07991420E-01  0.00000000E+00
  0.00000000E+00 -1.31179769E-01 -3.13229617E-01  0.00000000E+00  0.00000000E+00
 -9.72629471E-03  3.55850405E-01  0.00000000E+00  0.00000000E+00 -8.86908240E-02
 -1.24289144E-02  0.00000000E+00  0.00000000E+00  4.13474509E-03  0.00000000E+00
 -6.53674986E-02 -1.08695291E-01  0.00000000E+00  0.00000000E+00 -9.78937209E-02
  3.07991420E-01  0.00000000E+00  0.00000000E+00 -1.31179769E-01  3.13229617E-01
  0.00000000E+00  0.00000000E+00 -9.72629471E-03 -3.55850405E-01  0.00000000E+00
  0.00000000E+00 -8.86908240E-02  1.24289144E-02  0.00000000E+00  0.00000000E+00
 -4.13474509E-03  0.00000000E+00 -1.25254356E-01 -1.64570477E-01 -1.58338204E-03
  0.00000000E+00  0.00000000E+00  2.10041860E-02  1.25254356E-01  1.64570477E-01
  1.58338204E-03  0.00000000E+00  0.00000000E+00  2.10041860E-02 -1.17745498E-02
 -1.90817989E-02  0.00000000E+00  0.00000000E+00  1.93292333E-01  5.82680851E-02
  0.00000000E+00  0.00000000E+00  2.40756115E-01  1.10110252E-01  0.00000000E+00
  0.00000000E+00  9.84063397E-02  9.28152411E-03  0.00000000E+00  0.00000000E+00
  1.06525841E-02 -1.03987370E-02  0.00000000E+00  0.00000000E+00 -4.97583587E-04
  0.00000000E+00 -1.17745498E-02 -1.90817989E-02  0.00000000E+00  0.00000000E+00
 -1.93292333E-01  5.82680851E-02  0.00000000E+00  0.00000000E+00 -2.40756115E-01
  1.10110252E-01  0.00000000E+00  0.00000000E+00 -9.84063397E-02  9.28152411E-03
  0.00000000E+00  0.00000000E+00 -1.06525841E-02 -1.03987370E-02  0.00000000E+00
  0.00000000E+00 -4.97583587E-04  0.00000000E+00  1.34260925E-01  1.93123064E-01
 -7.33640057E-03  0.00000000E+00  0.00000000E+00 -3.02084750E-02  1.34260925E-01
  1.93123064E-01 -7.33640057E-03  0.00000000E+00  0.00000000E+00  3.02084750E-02
  0.00000000E+00  0.00000000E+00  0.00000000E+00  2.01623350E-01  0.00000000E+00
  0.00000000E+00  0.00000000E+00  3.26469185E-01  0.00000000E+00  0.00000000E+00
  0.00000000E+00  1.90182236E-01  0.00000000E+00  0.00000000E+00  0.00000000E+00
 -7.70193459E-03  0.00000000E+00  0.00000000E+00  0.00000000E+00 -3.52728284E-02
  0.00000000E+00  0.00000000E+00  0.00000000E+00  0.00000000E+00  0.00000000E+00
  2.01623350E-01  0.00000000E+00  0.00000000E+00  0.00000000E+00  3.26469185E-01
  0.00000000E+00  0.00000000E+00  0.00000000E+00  1.90182236E-01  0.00000000E+00
  0.00000000E+00  0.00000000E+00 -7.70193459E-03  0.00000000E+00  0.00000000E+00
  0.00000000E+00  3.52728284E-02  0.00000000E+00  0.00000000E+00  0.00000000E+00
  0.00000000E+00  0.00000000E+00  0.00000000E+00  1.20420050E-02  0.00000000E+00
  0.00000000E+00  0.00000000E+00  0.00000000E+00  0.00000000E+00  1.20420050E-02
  0.00000000E+00  0.00000000E+00  0.00000000E+00  2.01219755E-01  0.00000000E+00
  0.00000000E+00  0.00000000E+00  3.24514595E-01  0.00000000E+00  0.00000000E+00
  0.00000000E+00  1.91129407E-01  0.00000000E+00  0.00000000E+00  0.00000000E+00
 -4.45568023E-03  0.00000000E+00  0.00000000E+00  0.00000000E+00 -3.35224652E-02
  0.00000000E+00  0.00000000E+00  0.00000000E+00  0.00000000E+00  0.00000000E+00
  2.01219755E-01  0.00000000E+00  0.00000000E+00  0.00000000E+00  3.24514595E-01
  0.00000000E+00  0.00000000E+00  0.00000000E+00  1.91129407E-01  0.00000000E+00
  0.00000000E+00  0.00000000E+00 -4.45568023E-03  0.00000000E+00  0.00000000E+00
  0.00000000E+00  3.35224652E-02  0.00000000E+00  0.00000000E+00  0.00000000E+00
  0.00000000E+00  0.00000000E+00  0.00000000E+00  1.34021324E-02  0.00000000E+00
  0.00000000E+00  0.00000000E+00  0.00000000E+00  0.00000000E+00  1.34021324E-02
  0.00000000E+00  0.00000000E+00  0.00000000E+00  0.00000000E+00  0.00000000E+00
  2.05319618E-01  0.00000000E+00  0.00000000E+00  0.00000000E+00  3.44925324E-01
  0.00000000E+00  0.00000000E+00  0.00000000E+00  5.33026692E-01  0.00000000E+00
  0.00000000E+00  0.00000000E+00  2.38976569E-01  0.00000000E+00  0.00000000E+00
  0.00000000E+00  3.74018389E-02  0.00000000E+00  0.00000000E+00  0.00000000E+00
  0.00000000E+00  0.00000000E+00 -2.05319618E-01  0.00000000E+00  0.00000000E+00
  0.00000000E+00 -3.44925324E-01  0.00000000E+00  0.00000000E+00  0.00000000E+00
 -5.33026692E-01  0.00000000E+00  0.00000000E+00  0.00000000E+00 -2.38976569E-01
  0.00000000E+00  0.00000000E+00  0.00000000E+00  3.74018389E-02  0.00000000E+00
  0.00000000E+00  0.00000000E+00  0.00000000E+00  0.00000000E+00  0.00000000E+00
  2.75848765E-02  0.00000000E+00  0.00000000E+00  0.00000000E+00  0.00000000E+00
  0.00000000E+00 -2.75848765E-02  0.00000000E+00  0.00000000E+00  0.00000000E+00
  1.99851243E-01  0.00000000E+00  0.00000000E+00  0.00000000E+00  3.28293413E-01
  0.00000000E+00  0.00000000E+00  0.00000000E+00  5.44848381E-01  0.00000000E+00
  0.00000000E+00  0.00000000E+00  2.98840834E-01  0.00000000E+00  0.00000000E+00
  0.00000000E+00  3.99871514E-02  0.00000000E+00  0.00000000E+00  0.00000000E+00
  0.00000000E+00  0.00000000E+00 -1.99851243E-01  0.00000000E+00  0.00000000E+00
  0.00000000E+00 -3.28293413E-01  0.00000000E+00  0.00000000E+00  0.00000000E+00
 -5.44848381E-01  0.00000000E+00  0.00000000E+00  0.00000000E+00 -2.98840834E-01
  0.00000000E+00  0.00000000E+00  0.00000000E+00  3.99871514E-02  0.00000000E+00
  0.00000000E+00  0.00000000E+00  0.00000000E+00  0.00000000E+00  0.00000000E+00
  2.90273208E-02  0.00000000E+00  0.00000000E+00  0.00000000E+00  0.00000000E+00
  0.00000000E+00 -2.90273208E-02  0.00000000E+00  0.00000000E+00 -4.49448521E-02
 -7.79021990E-02  0.00000000E+00  0.00000000E+00  2.58784437E-02  2.39579744E-01
  0.00000000E+00  0.00000000E+00  5.14036241E-02  8.85230573E-01  0.00000000E+00
  0.00000000E+00 -2.02558992E-02  9.58818867E+00  0.00000000E+00  0.00000000E+00
 -2.74411697E+00 -3.10773593E-02  0.00000000E+00  0.00000000E+00 -4.07341793E-03
  0.00000000E+00  4.49448521E-02  7.79021990E-02  0.00000000E+00  0.00000000E+00
  2.58784437E-02 -2.39579744E-01  0.00000000E+00  0.00000000E+00  5.14036241E-02
 -8.85230573E-01  0.00000000E+00  0.00000000E+00 -2.02558992E-02 -9.58818867E+00
  0.00000000E+00  0.00000000E+00 -2.74411697E+00  3.10773593E-02  0.00000000E+00
  0.00000000E+00  4.07341793E-03  0.00000000E+00 -5.63342740E-02 -2.09007264E-01
 -3.70310420E-01  0.00000000E+00  0.00000000E+00 -2.09331670E-02  5.63342740E-02
  2.09007264E-01  3.70310420E-01  0.00000000E+00  0.00000000E+00 -2.09331670E-02
  2.27736329E-02  3.97865037E-02  0.00000000E+00  0.00000000E+00 -2.88226469E-02
 -1.43042235E-01  0.00000000E+00  0.00000000E+00 -6.00963669E-02 -2.83872337E-01
  0.00000000E+00  0.00000000E+00 -5.40689517E-02  9.53543288E-01  0.00000000E+00
  0.00000000E+00  5.39018558E-01 -2.34872120E-02  0.00000000E+00  0.00000000E+00
 -1.02606789E-03  0.00000000E+00  2.27736329E-02  3.97865037E-02  0.00000000E+00
  0.00000000E+00  2.88226469E-02 -1.43042235E-01  0.00000000E+00  0.00000000E+00
  6.00963669E-02 -2.83872337E-01  0.00000000E+00  0.00000000E+00  5.40689517E-02
  9.53543288E-01  0.00000000E+00  0.00000000E+00 -5.39018558E-01 -2.34872120E-02
  0.00000000E+00  0.00000000E+00 -1.02606789E-03  0.00000000E+00 -2.89013881E-02
  2.30352763E-02 -3.12678878E-01  0.00000000E+00  0.00000000E+00  6.93883924E-03
 -2.89013881E-02  2.30352763E-02 -3.12678878E-01  0.00000000E+00  0.00000000E+00
 -6.93883924E-03 -1.12223750E-04 -9.44528624E-04  0.00000000E+00  0.00000000E+00
 -1.02540936E-01  3.21230694E-02  0.00000000E+00  0.00000000E+00 -1.37156265E-01
 -2.81718856E-01  0.00000000E+00  0.00000000E+00 -2.25578670E-01 -2.20695655E-01
  0.00000000E+00  0.00000000E+00  9.20777685E-01  5.07830329E-02  0.00000000E+00
  0.00000000E+00  3.90119919E-03  0.00000000E+00 -1.12223750E-04 -9.44528624E-04
  0.00000000E+00  0.00000000E+00  1.02540936E-01  3.21230694E-02  0.00000000E+00
  0.00000000E+00  1.37156265E-01 -2.81718856E-01  0.00000000E+00  0.00000000E+00
  2.25578670E-01 -2.20695655E-01  0.00000000E+00  0.00000000E+00 -9.20777685E-01
  5.07830329E-02  0.00000000E+00  0.00000000E+00  3.90119919E-03  0.00000000E+00
  5.88214897E-02  1.95327593E-01  6.27816076E-01  0.00000000E+00  0.00000000E+00
  2.75722772E-02  5.88214897E-02  1.95327593E-01  6.27816076E-01  0.00000000E+00
  0.00000000E+00 -2.75722772E-02  0.00000000E+00  0.00000000E+00  0.00000000E+00
 -6.67438672E-02  0.00000000E+00  0.00000000E+00  0.00000000E+00 -7.81856368E-02
  0.00000000E+00  0.00000000E+00  0.00000000E+00 -1.75865100E-01  0.00000000E+00
  0.00000000E+00  0.00000000E+00  6.04278585E-01  0.00000000E+00  0.00000000E+00
  0.00000000E+00  2.02257017E-02  0.00000000E+00  0.00000000E+00  0.00000000E+00
  0.00000000E+00  0.00000000E+00 -6.67438672E-02  0.00000000E+00  0.00000000E+00
  0.00000000E+00 -7.81856368E-02  0.00000000E+00  0.00000000E+00  0.00000000E+00
 -1.75865100E-01  0.00000000E+00  0.00000000E+00  0.00000000E+00  6.04278585E-01
  0.00000000E+00  0.00000000E+00  0.00000000E+00 -2.02257017E-02  0.00000000E+00
  0.00000000E+00  0.00000000E+00  0.00000000E+00  0.00000000E+00  0.00000000E+00
  8.61505474E-03  0.00000000E+00  0.00000000E+00  0.00000000E+00  0.00000000E+00
  0.00000000E+00  8.61505474E-03  0.00000000E+00  0.00000000E+00  0.00000000E+00
 -6.65517902E-02  0.00000000E+00  0.00000000E+00  0.00000000E+00 -8.55729180E-02
  0.00000000E+00  0.00000000E+00  0.00000000E+00 -1.72329263E-01  0.00000000E+00
  0.00000000E+00  0.00000000E+00  6.02394404E-01  0.00000000E+00  0.00000000E+00
  0.00000000E+00  1.94060972E-02  0.00000000E+00  0.00000000E+00  0.00000000E+00
  0.00000000E+00  0.00000000E+00 -6.65517902E-02  0.00000000E+00  0.00000000E+00
  0.00000000E+00 -8.55729180E-02  0.00000000E+00  0.00000000E+00  0.00000000E+00
 -1.72329263E-01  0.00000000E+00  0.00000000E+00  0.00000000E+00  6.02394404E-01
  0.00000000E+00  0.00000000E+00  0.00000000E+00 -1.94060972E-02  0.00000000E+00
  0.00000000E+00  0.00000000E+00  0.00000000E+00  0.00000000E+00  0.00000000E+00
  8.11078995E-03  0.00000000E+00  0.00000000E+00  0.00000000E+00  0.00000000E+00
  0.00000000E+00  8.11078995E-03  0.00000000E+00  0.00000000E+00 -3.40249855E-02
 -5.82300421E-02  0.00000000E+00  0.00000000E+00 -2.23118111E-02  1.57770950E-01
  0.00000000E+00  0.00000000E+00 -2.35017234E-02  5.07681105E-01  0.00000000E+00
  0.00000000E+00  3.97761082E-01  4.54699806E+00  0.00000000E+00  0.00000000E+00
 -1.29190383E-01 -6.81616423E-02  0.00000000E+00  0.00000000E+00 -5.37878226E-03
  0.00000000E+00  3.40249855E-02  5.82300421E-02  0.00000000E+00  0.00000000E+00
 -2.23118111E-02 -1.57770950E-01  0.00000000E+00  0.00000000E+00 -2.35017234E-02
 -5.07681105E-01  0.00000000E+00  0.00000000E+00  3.97761082E-01 -4.54699806E+00
  0.00000000E+00  0.00000000E+00 -1.29190383E-01  6.81616423E-02  0.00000000E+00
  0.00000000E+00  5.37878226E-03  0.00000000E+00 -1.09530771E-01 -3.19169540E-01
 -1.55757749E+00  0.00000000E+00  0.00000000E+00 -7.50087246E-03  1.09530771E-01
  3.19169540E-01  1.55757749E+00  0.00000000E+00  0.00000000E+00 -7.50087246E-03
  0.00000000E+00  0.00000000E+00  0.00000000E+00 -9.11578319E-02  0.00000000E+00
  0.00000000E+00  0.00000000E+00 -1.29424386E-01  0.00000000E+00  0.00000000E+00
  0.00000000E+00 -3.92252888E-01  0.00000000E+00  0.00000000E+00  0.00000000E+00
  2.37803132E+00  0.00000000E+00  0.00000000E+00  0.00000000E+00 -6.05480078E-03
  0.00000000E+00  0.00000000E+00  0.00000000E+00  0.00000000E+00  0.00000000E+00
  9.11578319E-02  0.00000000E+00  0.00000000E+00  0.00000000E+00  1.29424386E-01
  0.00000000E+00  0.00000000E+00  0.00000000E+00  3.92252888E-01  0.00000000E+00
  0.00000000E+00  0.00000000E+00 -2.37803132E+00  0.00000000E+00  0.00000000E+00
  0.00000000E+00 -6.05480078E-03  0.00000000E+00  0.00000000E+00  0.00000000E+00
  0.00000000E+00  0.00000000E+00  0.00000000E+00  6.62015431E-03  0.00000000E+00
  0.00000000E+00  0.00000000E+00  0.00000000E+00  0.00000000E+00 -6.62015431E-03
  0.00000000E+00  0.00000000E+00  0.00000000E+00 -9.61474076E-02  0.00000000E+00
  0.00000000E+00  0.00000000E+00 -1.39401581E-01  0.00000000E+00  0.00000000E+00
  0.00000000E+00 -4.12907906E-01  0.00000000E+00  0.00000000E+00  0.00000000E+00
  2.37185099E+00  0.00000000E+00  0.00000000E+00  0.00000000E+00 -9.21050165E-03
  0.00000000E+00  0.00000000E+00  0.00000000E+00  0.00000000E+00  0.00000000E+00
  9.61474076E-02  0.00000000E+00  0.00000000E+00  0.00000000E+00  1.39401581E-01
  0.00000000E+00  0.00000000E+00  0.00000000E+00  4.12907906E-01  0.00000000E+00
  0.00000000E+00  0.00000000E+00 -2.37185099E+00  0.00000000E+00  0.00000000E+00
  0.00000000E+00 -9.21050165E-03  0.00000000E+00  0.00000000E+00  0.00000000E+00
  0.00000000E+00  0.00000000E+00  0.00000000E+00  4.58300037E-03  0.00000000E+00