 Entering Gaussian System, Link 0=g16
 Initial command:
 /home/szhao/Apps/g16/l1.exe "/home/szhao/tmp/Gau-83320.inp" -scrdir="/home/szhao/tmp/"
 Default is to use a total of  16 processors:
                               16 via shared-memory
                                1 via Linda
 Entering Link 1 = /home/szhao/Apps/g16/l1.exe PID=     83322.
  
 Copyright (c) 1988,1990,1992,1993,1995,1998,2003,2009,2016,
            Gaussian, Inc.  All Rights Reserved.
  
 This is part of the Gaussian(R) 16 program.  It is based on
 the Gaussian(R) 09 system (copyright 2009, Gaussian, Inc.),
 the Gaussian(R) 03 system (copyright 2003, Gaussian, Inc.),
 the Gaussian(R) 98 system (copyright 1998, Gaussian, Inc.),
 the Gaussian(R) 94 system (copyright 1995, Gaussian, Inc.),
 the Gaussian 92(TM) system (copyright 1992, Gaussian, Inc.),
 the Gaussian 90(TM) system (copyright 1990, Gaussian, Inc.),
 the Gaussian 88(TM) system (copyright 1988, Gaussian, Inc.),
 the Gaussian 86(TM) system (copyright 1986, Carnegie Mellon
 University), and the Gaussian 82(TM) system (copyright 1983,
 Carnegie Mellon University). Gaussian is a federally registered
 trademark of Gaussian, Inc.
  
 This software contains proprietary and confidential information,
 including trade secrets, belonging to Gaussian, Inc.
  
 This software is provided under written license and may be
 used, copied, transmitted, or stored only in accord with that
 written license.
  
 The following legend is applicable only to US Government
 contracts under FAR:
  
                    RESTRICTED RIGHTS LEGEND
  
 Use, reproduction and disclosure by the US Government is
 subject to restrictions as set forth in subparagraphs (a)
 and (c) of the Commercial Computer Software - Restricted
 Rights clause in FAR 52.227-19.
  
 Gaussian, Inc.
 340 Quinnipiac St., Bldg. 40, Wallingford CT 06492
  
  
 ---------------------------------------------------------------
 Warning -- This program may not be used in any manner that
 competes with the business of Gaussian, Inc. or will provide
 assistance to any competitor of Gaussian, Inc.  The licensee
 of this program is prohibited from giving any competitor of
 Gaussian, Inc. access to this program.  By using this program,
 the user acknowledges that Gaussian, Inc. is engaged in the
 business of creating and licensing software in the field of
 computational chemistry and represents and warrants to the
 licensee that it is not a competitor of Gaussian, Inc. and that
 it will not use this program in any manner prohibited above.
 ---------------------------------------------------------------
  

 Cite this work as:
 Gaussian 16, Revision A.03,
 M. J. Frisch, G. W. Trucks, H. B. Schlegel, G. E. Scuseria, 
 M. A. Robb, J. R. Cheeseman, G. Scalmani, V. Barone, 
 G. A. Petersson, H. Nakatsuji, X. Li, M. Caricato, A. V. Marenich, 
 J. Bloino, B. G. Janesko, R. Gomperts, B. Mennucci, H. P. Hratchian, 
 J. V. Ortiz, A. F. Izmaylov, J. L. Sonnenberg, D. Williams-Young, 
 F. Ding, F. Lipparini, F. Egidi, J. Goings, B. Peng, A. Petrone, 
 T. Henderson, D. Ranasinghe, V. G. Zakrzewski, J. Gao, N. Rega, 
 G. Zheng, W. Liang, M. Hada, M. Ehara, K. Toyota, R. Fukuda, 
 J. Hasegawa, M. Ishida, T. Nakajima, Y. Honda, O. Kitao, H. Nakai, 
 T. Vreven, K. Throssell, J. A. Montgomery, Jr., J. E. Peralta, 
 F. Ogliaro, M. J. Bearpark, J. J. Heyd, E. N. Brothers, K. N. Kudin, 
 V. N. Staroverov, T. A. Keith, R. Kobayashi, J. Normand, 
 K. Raghavachari, A. P. Rendell, J. C. Burant, S. S. Iyengar, 
 J. Tomasi, M. Cossi, J. M. Millam, M. Klene, C. Adamo, R. Cammi, 
 J. W. Ochterski, R. L. Martin, K. Morokuma, O. Farkas, 
 J. B. Foresman, and D. J. Fox, Gaussian, Inc., Wallingford CT, 2016.
 
 ******************************************
 Gaussian 16:  ES64L-G16RevA.03 25-Dec-2016
                19-Nov-2024 
 ******************************************
 %chk=opt.chk
 %mem=4GB
 %nprocshared=8
 Will use up to    8 processors via shared memory.
 ---------------------------------------
 #p UM062X/6-311+G** force int=superfine
 ---------------------------------------
 1/10=7,30=1,38=1/1,3;
 2/12=2,17=6,18=5,40=1/2;
 3/5=4,6=6,7=111,11=2,25=1,30=1,71=1,74=-55,75=-7,116=2/1,2,3;
 4//1;
 5/5=2,38=5/2;
 6/7=2,8=2,9=2,10=2,28=1/1;
 7/29=1/1,2,3,16;
 1/10=7,30=1/3;
 99//99;
 Leave Link    1 at Tue Nov 19 11:56:56 2024, MaxMem=   536870912 cpu:               0.7 elap:               0.1
 (Enter /home/szhao/Apps/g16/l101.exe)
 -------------------
 Title Card Required
 -------------------
 Symbolic Z-matrix:
 Charge =  1 Multiplicity = 2
 C                    -1.06741   0.        0. 
 C                     1.06741   0.        0. 
 H                    -1.51544  -0.98866   0. 
 H                    -1.5154    0.98873   0. 
 H                     1.51544   0.98866   0. 
 H                     1.5154   -0.98873   0. 
 
 ITRead=  0  0  0  0  0  0
 MicOpt= -1 -1 -1 -1 -1 -1
 NAtoms=      6 NQM=        6 NQMF=       0 NMMI=      0 NMMIF=      0
                NMic=       0 NMicF=      0.
                    Isotopes and Nuclear Properties:
 (Nuclear quadrupole moments (NQMom) in fm**2, nuclear magnetic moments (NMagM)
  in nuclear magnetons)

  Atom         1           2           3           4           5           6
 IAtWgt=          12          12           1           1           1           1
 AtmWgt=  12.0000000  12.0000000   1.0078250   1.0078250   1.0078250   1.0078250
 NucSpn=           0           0           1           1           1           1
 AtZEff=  -0.0000000  -0.0000000  -0.0000000  -0.0000000  -0.0000000  -0.0000000
 NQMom=    0.0000000   0.0000000   0.0000000   0.0000000   0.0000000   0.0000000
 NMagM=    0.0000000   0.0000000   2.7928460   2.7928460   2.7928460   2.7928460
 AtZNuc=   6.0000000   6.0000000   1.0000000   1.0000000   1.0000000   1.0000000
 Leave Link  101 at Tue Nov 19 11:56:56 2024, MaxMem=   536870912 cpu:               1.5 elap:               0.2
 (Enter /home/szhao/Apps/g16/l103.exe)

 GradGradGradGradGradGradGradGradGradGradGradGradGradGradGradGradGradGrad
 Berny optimization.
 Initialization pass.
 Trust Radius=3.00D-01 FncErr=1.00D-07 GrdErr=1.00D-07 EigMax=2.50D+02 EigMin=1.00D-04
 Number of steps in this run=      2 maximum allowed number of steps=      2.
 GradGradGradGradGradGradGradGradGradGradGradGradGradGradGradGradGradGrad

 Leave Link  103 at Tue Nov 19 11:56:56 2024, MaxMem=   536870912 cpu:               0.1 elap:               0.0
 (Enter /home/szhao/Apps/g16/l202.exe)
                          Input orientation:                          
 ---------------------------------------------------------------------
 Center     Atomic      Atomic             Coordinates (Angstroms)
 Number     Number       Type             X           Y           Z
 ---------------------------------------------------------------------
      1          6           0       -1.067407    0.000000    0.000000
      2          6           0        1.067407    0.000000    0.000000
      3          1           0       -1.515437   -0.988660    0.000000
      4          1           0       -1.515395    0.988727    0.000000
      5          1           0        1.515437    0.988660    0.000000
      6          1           0        1.515395   -0.988727    0.000000
 ---------------------------------------------------------------------
                    Distance matrix (angstroms):
                    1          2          3          4          5
     1  C    0.000000
     2  C    2.134814   0.000000
     3  H    1.085440   2.765598   0.000000
     4  H    1.085483   2.765583   1.977387   0.000000
     5  H    2.765598   1.085440   3.618838   3.030832   0.000000
     6  H    2.765583   1.085483   3.030832   3.618841   1.977387
                    6
     6  H    0.000000
 Stoichiometry    C2H4(1+,2)
 Framework group  C2H[SGH(C2H4)]
 Deg. of freedom     5
 Full point group                 C2H     NOp   4
 Largest Abelian subgroup         C2H     NOp   4
 Largest concise Abelian subgroup C2      NOp   2
                         Standard orientation:                         
 ---------------------------------------------------------------------
 Center     Atomic      Atomic             Coordinates (Angstroms)
 Number     Number       Type             X           Y           Z
 ---------------------------------------------------------------------
      1          6           0       -0.000000    1.067407    0.000000
      2          6           0       -0.000000   -1.067407    0.000000
      3          1           0       -0.988660    1.515437    0.000000
      4          1           0        0.988727    1.515395    0.000000
      5          1           0        0.988660   -1.515437    0.000000
      6          1           0       -0.988727   -1.515395    0.000000
 ---------------------------------------------------------------------
 Rotational constants (GHZ):         128.2474406          13.8072613          12.4652398
 Leave Link  202 at Tue Nov 19 11:56:56 2024, MaxMem=   536870912 cpu:               0.0 elap:               0.0
 (Enter /home/szhao/Apps/g16/l301.exe)
 Standard basis: 6-311+G(d,p) (5D, 7F)
 Ernie: Thresh=  0.10000D-02 Tol=  0.10000D-05 Strict=F.
 There are    27 symmetry adapted cartesian basis functions of AG  symmetry.
 There are     8 symmetry adapted cartesian basis functions of BG  symmetry.
 There are     8 symmetry adapted cartesian basis functions of AU  symmetry.
 There are    27 symmetry adapted cartesian basis functions of BU  symmetry.
 There are    26 symmetry adapted basis functions of AG  symmetry.
 There are     8 symmetry adapted basis functions of BG  symmetry.
 There are     8 symmetry adapted basis functions of AU  symmetry.
 There are    26 symmetry adapted basis functions of BU  symmetry.
    68 basis functions,   104 primitive gaussians,    70 cartesian basis functions
     8 alpha electrons        7 beta electrons
       nuclear repulsion energy        26.3931175568 Hartrees.
 IExCor= 4336 DFT=T Ex+Corr=M062X ExCW=0 ScaHFX=  0.540000
 ScaDFX=  1.000000  1.000000  1.000000  1.000000 ScalE2=  1.000000  1.000000
 IRadAn=      7 IRanWt=     -1 IRanGd=            0 ICorTp=0 IEmpDi=  4
 NAtoms=    6 NActive=    6 NUniq=    3 SFac= 4.00D+00 NAtFMM=   60 NAOKFM=F Big=F
 Integral buffers will be    131072 words long.
 Raffenetti 2 integral format.
 Two-electron integral symmetry is turned on.
 Leave Link  301 at Tue Nov 19 11:56:56 2024, MaxMem=   536870912 cpu:               0.3 elap:               0.0
 (Enter /home/szhao/Apps/g16/l302.exe)
 NPDir=0 NMtPBC=     1 NCelOv=     1 NCel=       1 NClECP=     1 NCelD=      1
         NCelK=      1 NCelE2=     1 NClLst=     1 CellRange=     0.0.
 One-electron integrals computed using PRISM.
 One-electron integral symmetry used in STVInt
 NBasis=    68 RedAO= T EigKep=  1.83D-03  NBF=    26     8     8    26
 NBsUse=    68 1.00D-06 EigRej= -1.00D+00 NBFU=    26     8     8    26
 Precomputing XC quadrature grid using
 IXCGrd= 4 IRadAn=           7 IRanWt=          -1 IRanGd=           0 AccXCQ= 0.00D+00.
 Generated NRdTot=       0 NPtTot=           0 NUsed=           0 NTot=          32
 NSgBfM=    70    70    70    70    70 MxSgAt=     6 MxSgA2=     6.
 Leave Link  302 at Tue Nov 19 11:56:56 2024, MaxMem=   536870912 cpu:               1.0 elap:               0.1
 (Enter /home/szhao/Apps/g16/l303.exe)
 DipDrv:  MaxL=1.
 Leave Link  303 at Tue Nov 19 11:56:56 2024, MaxMem=   536870912 cpu:               0.3 elap:               0.0
 (Enter /home/szhao/Apps/g16/l401.exe)
 ExpMin= 4.38D-02 ExpMax= 4.56D+03 ExpMxC= 6.82D+02 IAcc=3 IRadAn=         7 AccDes= 0.00D+00
 Harris functional with IExCor= 1009 and IRadAn=       7 diagonalized for initial guess.
 HarFok:  IExCor= 1009 AccDes= 0.00D+00 IRadAn=         7 IDoV= 1 UseB2=F ITyADJ=14
 ICtDFT=  3500011 ScaDFX=  1.000000  1.000000  1.000000  1.000000
 FoFCou: FMM=F IPFlag=           0 FMFlag=      100000 FMFlg1=           0
         NFxFlg=           0 DoJE=T BraDBF=F KetDBF=T FulRan=T
         wScrn=  0.000000 ICntrl=       500 IOpCl=  0 I1Cent=   200000004 NGrid=           0
         NMat0=    1 NMatS0=      1 NMatT0=    0 NMatD0=    1 NMtDS0=    0 NMtDT0=    0
 Petite list used in FoFCou.
 Harris En= -78.0592174827048    
 JPrj=0 DoOrth=F DoCkMO=F.
 Initial guess orbital symmetries:
 Alpha Orbitals:
       Occupied  (AG) (BU) (AG) (BU) (BU) (AG) (AG) (AU)
       Virtual   (BG) (BU) (AG) (BU) (BU) (AG) (AU) (AG) (BU) (BG)
                 (AG) (BU) (BU) (AG) (BU) (AG) (BU) (AU) (AG) (BG)
                 (BU) (AG) (BU) (AG) (AG) (BU) (BG) (AU) (AG) (AU)
                 (AG) (BU) (BG) (BU) (AG) (AU) (BU) (BG) (BU) (AG)
                 (AG) (BU) (BG) (AU) (BU) (BU) (AG) (AG) (BU) (AG)
                 (BU) (AG) (AU) (BG) (AG) (BU) (BU) (AG) (AG) (BU)
 Beta  Orbitals:
       Occupied  (AG) (BU) (AG) (BU) (BU) (AG) (AG)
       Virtual   (AU) (BG) (BU) (AG) (BU) (BU) (AG) (AU) (AG) (BU)
                 (BG) (AG) (BU) (BU) (AG) (BU) (AG) (BU) (AU) (AG)
                 (BG) (BU) (AG) (BU) (AG) (AG) (BU) (BG) (AU) (AG)
                 (AU) (AG) (BU) (BG) (BU) (AG) (AU) (BU) (BG) (BU)
                 (AG) (AG) (BU) (BG) (AU) (BU) (BU) (AG) (AG) (BU)
                 (AG) (BU) (AG) (AU) (BG) (AG) (BU) (BU) (AG) (AG)
                 (BU)
 The electronic state of the initial guess is 2-AU.
 Initial guess <Sx>= 0.0000 <Sy>= 0.0000 <Sz>= 0.5000 <S**2>= 0.7500 S= 0.5000
 Leave Link  401 at Tue Nov 19 11:56:56 2024, MaxMem=   536870912 cpu:               1.4 elap:               0.2
 (Enter /home/szhao/Apps/g16/l502.exe)
 Keep R1 and R2 ints in memory in symmetry-blocked form, NReq=9935219.
 FoFCou: FMM=F IPFlag=           0 FMFlag=           0 FMFlg1=           0
         NFxFlg=           0 DoJE=F BraDBF=F KetDBF=F FulRan=T
         wScrn=  0.000000 ICntrl=       600 IOpCl=  0 I1Cent=           0 NGrid=           0
         NMat0=    1 NMatS0=   2346 NMatT0=    0 NMatD0=    1 NMtDS0=    0 NMtDT0=    0
 Petite list used in FoFCou.
 UHF open shell SCF:
 Using DIIS extrapolation, IDIIS=  1040.
 NGot=   536870912 LenX=   535358074 LenY=   535352733
 Requested convergence on RMS density matrix=1.00D-08 within 128 cycles.
 Requested convergence on MAX density matrix=1.00D-06.
 Requested convergence on             energy=1.00D-06.
 No special actions if energy rises.

 Cycle   1  Pass 1  IDiag  1:
 E= -78.0286340298502    
 DIIS: error= 1.76D-02 at cycle   1 NSaved=   1.
 NSaved= 1 IEnMin= 1 EnMin= -78.0286340298502     IErMin= 1 ErrMin= 1.76D-02
 ErrMax= 1.76D-02  0.00D+00 EMaxC= 1.00D-01 BMatC= 5.63D-02 BMatP= 5.63D-02
 IDIUse=3 WtCom= 8.24D-01 WtEn= 1.76D-01
 Coeff-Com:  0.100D+01
 Coeff-En:   0.100D+01
 Coeff:      0.100D+01
 Gap=     0.182 Goal=   None    Shift=    0.000
 Gap=     0.300 Goal=   None    Shift=    0.000
 GapD=    0.182 DampG=1.000 DampE=0.500 DampFc=0.5000 IDamp=-1.
 Damping current iteration by 5.00D-01
 RMSDP=1.32D-03 MaxDP=1.50D-02              OVMax= 3.65D-02

 Cycle   2  Pass 1  IDiag  1:
 E= -78.0326033896542     Delta-E=       -0.003969359804 Rises=F Damp=T
 DIIS: error= 8.85D-03 at cycle   2 NSaved=   2.
 NSaved= 2 IEnMin= 2 EnMin= -78.0326033896542     IErMin= 2 ErrMin= 8.85D-03
 ErrMax= 8.85D-03  0.00D+00 EMaxC= 1.00D-01 BMatC= 1.31D-02 BMatP= 5.63D-02
 IDIUse=3 WtCom= 9.12D-01 WtEn= 8.85D-02
 Coeff-Com: -0.868D+00 0.187D+01
 Coeff-En:   0.000D+00 0.100D+01
 Coeff:     -0.791D+00 0.179D+01
 Gap=     0.182 Goal=   None    Shift=    0.000
 Gap=     0.289 Goal=   None    Shift=    0.000
 RMSDP=6.15D-04 MaxDP=8.76D-03 DE=-3.97D-03 OVMax= 1.09D-02

 Cycle   3  Pass 1  IDiag  1:
 E= -78.0364777343776     Delta-E=       -0.003874344723 Rises=F Damp=F
 DIIS: error= 1.48D-03 at cycle   3 NSaved=   3.
 NSaved= 3 IEnMin= 3 EnMin= -78.0364777343776     IErMin= 3 ErrMin= 1.48D-03
 ErrMax= 1.48D-03  0.00D+00 EMaxC= 1.00D-01 BMatC= 1.57D-04 BMatP= 1.31D-02
 IDIUse=3 WtCom= 9.85D-01 WtEn= 1.48D-02
 Coeff-Com: -0.205D+00 0.404D+00 0.802D+00
 Coeff-En:   0.000D+00 0.000D+00 0.100D+01
 Coeff:     -0.202D+00 0.398D+00 0.805D+00
 Gap=     0.182 Goal=   None    Shift=    0.000
 Gap=     0.290 Goal=   None    Shift=    0.000
 RMSDP=7.17D-05 MaxDP=2.18D-03 DE=-3.87D-03 OVMax= 2.57D-03

 Cycle   4  Pass 1  IDiag  1:
 E= -78.0365231802102     Delta-E=       -0.000045445833 Rises=F Damp=F
 DIIS: error= 3.54D-04 at cycle   4 NSaved=   4.
 NSaved= 4 IEnMin= 4 EnMin= -78.0365231802102     IErMin= 4 ErrMin= 3.54D-04
 ErrMax= 3.54D-04  0.00D+00 EMaxC= 1.00D-01 BMatC= 9.44D-06 BMatP= 1.57D-04
 IDIUse=3 WtCom= 9.96D-01 WtEn= 3.54D-03
 Coeff-Com:  0.200D-01-0.478D-01 0.373D-01 0.990D+00
 Coeff-En:   0.000D+00 0.000D+00 0.000D+00 0.100D+01
 Coeff:      0.199D-01-0.476D-01 0.372D-01 0.990D+00
 Gap=     0.182 Goal=   None    Shift=    0.000
 Gap=     0.290 Goal=   None    Shift=    0.000
 RMSDP=2.63D-05 MaxDP=9.57D-04 DE=-4.54D-05 OVMax= 1.03D-03

 Cycle   5  Pass 1  IDiag  1:
 E= -78.0365275123467     Delta-E=       -0.000004332136 Rises=F Damp=F
 DIIS: error= 1.43D-04 at cycle   5 NSaved=   5.
 NSaved= 5 IEnMin= 5 EnMin= -78.0365275123467     IErMin= 5 ErrMin= 1.43D-04
 ErrMax= 1.43D-04  0.00D+00 EMaxC= 1.00D-01 BMatC= 1.30D-06 BMatP= 9.44D-06
 IDIUse=3 WtCom= 9.99D-01 WtEn= 1.43D-03
 Coeff-Com:  0.273D-01-0.534D-01-0.110D+00 0.465D-01 0.109D+01
 Coeff-En:   0.000D+00 0.000D+00 0.000D+00 0.000D+00 0.100D+01
 Coeff:      0.272D-01-0.534D-01-0.109D+00 0.464D-01 0.109D+01
 Gap=     0.182 Goal=   None    Shift=    0.000
 Gap=     0.290 Goal=   None    Shift=    0.000
 RMSDP=1.21D-05 MaxDP=3.07D-04 DE=-4.33D-06 OVMax= 3.69D-04

 Cycle   6  Pass 1  IDiag  1:
 E= -78.0365282309740     Delta-E=       -0.000000718627 Rises=F Damp=F
 DIIS: error= 2.96D-05 at cycle   6 NSaved=   6.
 NSaved= 6 IEnMin= 6 EnMin= -78.0365282309740     IErMin= 6 ErrMin= 2.96D-05
 ErrMax= 2.96D-05  0.00D+00 EMaxC= 1.00D-01 BMatC= 4.50D-08 BMatP= 1.30D-06
 IDIUse=1 WtCom= 1.00D+00 WtEn= 0.00D+00
 Coeff-Com: -0.664D-02 0.135D-01 0.247D-01-0.638D-01-0.258D+00 0.129D+01
 Coeff:     -0.664D-02 0.135D-01 0.247D-01-0.638D-01-0.258D+00 0.129D+01
 Gap=     0.182 Goal=   None    Shift=    0.000
 Gap=     0.290 Goal=   None    Shift=    0.000
 RMSDP=2.68D-06 MaxDP=5.64D-05 DE=-7.19D-07 OVMax= 9.03D-05

 Cycle   7  Pass 1  IDiag  1:
 E= -78.0365282592222     Delta-E=       -0.000000028248 Rises=F Damp=F
 DIIS: error= 2.91D-06 at cycle   7 NSaved=   7.
 NSaved= 7 IEnMin= 7 EnMin= -78.0365282592222     IErMin= 7 ErrMin= 2.91D-06
 ErrMax= 2.91D-06  0.00D+00 EMaxC= 1.00D-01 BMatC= 4.12D-10 BMatP= 4.50D-08
 IDIUse=1 WtCom= 1.00D+00 WtEn= 0.00D+00
 Coeff-Com:  0.443D-03-0.931D-03-0.105D-02 0.602D-02 0.165D-01-0.164D+00
 Coeff-Com:  0.114D+01
 Coeff:      0.443D-03-0.931D-03-0.105D-02 0.602D-02 0.165D-01-0.164D+00
 Coeff:      0.114D+01
 Gap=     0.182 Goal=   None    Shift=    0.000
 Gap=     0.290 Goal=   None    Shift=    0.000
 RMSDP=1.93D-07 MaxDP=3.37D-06 DE=-2.82D-08 OVMax= 8.26D-06

 Cycle   8  Pass 1  IDiag  1:
 E= -78.0365282594788     Delta-E=       -0.000000000257 Rises=F Damp=F
 DIIS: error= 3.31D-07 at cycle   8 NSaved=   8.
 NSaved= 8 IEnMin= 8 EnMin= -78.0365282594788     IErMin= 8 ErrMin= 3.31D-07
 ErrMax= 3.31D-07  0.00D+00 EMaxC= 1.00D-01 BMatC= 9.18D-12 BMatP= 4.12D-10
 IDIUse=1 WtCom= 1.00D+00 WtEn= 0.00D+00
 Coeff-Com: -0.664D-05 0.192D-04-0.191D-04-0.256D-03-0.943D-03 0.153D-01
 Coeff-Com: -0.240D+00 0.123D+01
 Coeff:     -0.664D-05 0.192D-04-0.191D-04-0.256D-03-0.943D-03 0.153D-01
 Coeff:     -0.240D+00 0.123D+01
 Gap=     0.182 Goal=   None    Shift=    0.000
 Gap=     0.290 Goal=   None    Shift=    0.000
 RMSDP=3.37D-08 MaxDP=5.58D-07 DE=-2.57D-10 OVMax= 1.93D-06

 Cycle   9  Pass 1  IDiag  1:
 E= -78.0365282594857     Delta-E=       -0.000000000007 Rises=F Damp=F
 DIIS: error= 5.75D-08 at cycle   9 NSaved=   9.
 NSaved= 9 IEnMin= 9 EnMin= -78.0365282594857     IErMin= 9 ErrMin= 5.75D-08
 ErrMax= 5.75D-08  0.00D+00 EMaxC= 1.00D-01 BMatC= 1.53D-13 BMatP= 9.18D-12
 IDIUse=1 WtCom= 1.00D+00 WtEn= 0.00D+00
 Coeff-Com: -0.623D-05 0.118D-04 0.139D-04-0.355D-04-0.446D-04-0.663D-03
 Coeff-Com:  0.338D-01-0.273D+00 0.124D+01
 Coeff:     -0.623D-05 0.118D-04 0.139D-04-0.355D-04-0.446D-04-0.663D-03
 Coeff:      0.338D-01-0.273D+00 0.124D+01
 Gap=     0.182 Goal=   None    Shift=    0.000
 Gap=     0.290 Goal=   None    Shift=    0.000
 RMSDP=4.86D-09 MaxDP=7.22D-08 DE=-6.92D-12 OVMax= 2.77D-07

 SCF Done:  E(UM062X) =  -78.0365282595     A.U. after    9 cycles
            NFock=  9  Conv=0.49D-08     -V/T= 2.0102
 <Sx>= 0.0000 <Sy>= 0.0000 <Sz>= 0.5000 <S**2>= 0.7522 S= 0.5011
 <L.S>=  0.00000000000    
 KE= 7.724679906328D+01 PE=-2.287186267831D+02 EE= 4.704218190353D+01
 Annihilation of the first spin contaminant:
 S**2 before annihilation     0.7522,   after     0.7500
 Leave Link  502 at Tue Nov 19 11:56:58 2024, MaxMem=   536870912 cpu:              13.5 elap:               1.7
 (Enter /home/szhao/Apps/g16/l601.exe)
 Copying SCF densities to generalized density rwf, IOpCl= 1 IROHF=0.

 **********************************************************************

            Population analysis using the SCF density.

 **********************************************************************

 Orbital symmetries:
 Alpha Orbitals:
       Occupied  (AG) (BU) (AG) (BU) (BU) (AG) (AG) (AU)
       Virtual   (BG) (BU) (AG) (BU) (BU) (AU) (AG) (AG) (BG) (AG)
                 (BU) (BU) (BU) (AG) (BU) (AG) (BU) (AU) (BG) (AG)
                 (BU) (AG) (BU) (AG) (AG) (BU) (BG) (AU) (AG) (AU)
                 (AG) (BG) (BU) (AG) (BU) (BU) (AU) (BG) (BU) (AG)
                 (AG) (BG) (BU) (AU) (BU) (BU) (AG) (AG) (BU) (AG)
                 (AG) (BU) (AU) (BG) (AG) (BU) (BU) (AG) (AG) (BU)
 Beta  Orbitals:
       Occupied  (AG) (BU) (AG) (BU) (BU) (AG) (AG)
       Virtual   (AU) (BG) (BU) (AG) (BU) (BU) (AU) (AG) (AG) (AG)
                 (BG) (BU) (BU) (BU) (AG) (BU) (AG) (BU) (AU) (BG)
                 (AG) (BU) (AG) (BU) (AG) (AG) (BU) (BG) (AU) (AU)
                 (AG) (AG) (BU) (BG) (AG) (BU) (BU) (AU) (BG) (BU)
                 (AG) (AG) (BG) (BU) (AU) (BU) (BU) (AG) (AG) (BU)
                 (AG) (AG) (BU) (AU) (BG) (AG) (BU) (BU) (AG) (AG)
                 (BU)
 The electronic state is 2-AU.
 Alpha  occ. eigenvalues --  -10.92323 -10.92310  -1.05868  -1.00287  -0.80427
 Alpha  occ. eigenvalues --   -0.77830  -0.65451  -0.55314
 Alpha virt. eigenvalues --   -0.37109  -0.26675  -0.14016  -0.10969  -0.10262
 Alpha virt. eigenvalues --   -0.08262  -0.07511  -0.07103  -0.04753  -0.04008
 Alpha virt. eigenvalues --   -0.03105  -0.00227   0.01997   0.09282   0.17919
 Alpha virt. eigenvalues --    0.22729   0.24199   0.32225   0.37900   0.39797
 Alpha virt. eigenvalues --    0.41159   0.44087   0.45460   0.49254   0.52822
 Alpha virt. eigenvalues --    0.55928   0.80043   0.81427   0.88447   0.88571
 Alpha virt. eigenvalues --    1.13483   1.14991   1.15059   1.24360   1.26128
 Alpha virt. eigenvalues --    1.46158   1.46951   1.49482   1.51519   1.60484
 Alpha virt. eigenvalues --    1.66594   1.73712   1.75292   1.77735   2.12026
 Alpha virt. eigenvalues --    2.26178   2.27878   2.34103   2.38021   2.38690
 Alpha virt. eigenvalues --    2.40456   2.41866   2.44996   2.46912   2.49578
 Alpha virt. eigenvalues --    2.97399   3.41329   3.44913  23.50241  23.50473
  Beta  occ. eigenvalues --  -10.92083 -10.92076  -1.02859  -0.98019  -0.79930
  Beta  occ. eigenvalues --   -0.77473  -0.63834
  Beta virt. eigenvalues --   -0.34796  -0.28195  -0.24378  -0.15274  -0.11267
  Beta virt. eigenvalues --   -0.10372  -0.07661  -0.07442  -0.07387  -0.04116
  Beta virt. eigenvalues --   -0.03860  -0.02610   0.00322   0.01118   0.10082
  Beta virt. eigenvalues --    0.17972   0.22947   0.24668   0.33693   0.36666
  Beta virt. eigenvalues --    0.40864   0.42251   0.43003   0.47014   0.50526
  Beta virt. eigenvalues --    0.53032   0.56051   0.83172   0.84291   0.91538
  Beta virt. eigenvalues --    0.92145   1.14477   1.16686   1.17076   1.27814
  Beta virt. eigenvalues --    1.28674   1.47474   1.48382   1.51031   1.55201
  Beta virt. eigenvalues --    1.61622   1.67825   1.75422   1.76602   1.79374
  Beta virt. eigenvalues --    2.15733   2.27957   2.30779   2.35372   2.40633
  Beta virt. eigenvalues --    2.42333   2.43921   2.44421   2.49219   2.51039
  Beta virt. eigenvalues --    2.51489   3.01437   3.45857   3.49475  23.51481
  Beta virt. eigenvalues --   23.51735
          Condensed to atoms (all electrons):
               1          2          3          4          5          6
     1  C    5.029658   0.327022   0.368092   0.368085  -0.012407  -0.012410
     2  C    0.327022   5.029658  -0.012407  -0.012410   0.368092   0.368085
     3  H    0.368092  -0.012407   0.366016  -0.006689   0.000328   0.000643
     4  H    0.368085  -0.012410  -0.006689   0.366021   0.000643   0.000328
     5  H   -0.012407   0.368092   0.000328   0.000643   0.366016  -0.006689
     6  H   -0.012410   0.368085   0.000643   0.000328  -0.006689   0.366021
          Atomic-Atomic Spin Densities.
               1          2          3          4          5          6
     1  C    0.495246   0.056012  -0.005625  -0.005625   0.000759   0.000760
     2  C    0.056012   0.495246   0.000759   0.000760  -0.005625  -0.005625
     3  H   -0.005625   0.000759  -0.015909   0.000129  -0.000017  -0.000100
     4  H   -0.005625   0.000760   0.000129  -0.015910  -0.000100  -0.000017
     5  H    0.000759  -0.005625  -0.000017  -0.000100  -0.015909   0.000129
     6  H    0.000760  -0.005625  -0.000100  -0.000017   0.000129  -0.015910
 Mulliken charges and spin densities:
               1          2
     1  C   -0.068040   0.541526
     2  C   -0.068040   0.541526
     3  H    0.284018  -0.020763
     4  H    0.284022  -0.020764
     5  H    0.284018  -0.020763
     6  H    0.284022  -0.020764
 Sum of Mulliken charges =   1.00000   1.00000
 Mulliken charges and spin densities with hydrogens summed into heavy atoms:
               1          2
     1  C    0.500000   0.500000
     2  C    0.500000   0.500000
 Electronic spatial extent (au):  <R**2>=            111.9290
 Charge=              1.0000 electrons
 Dipole moment (field-independent basis, Debye):
    X=             -0.0000    Y=              0.0000    Z=              0.0000  Tot=              0.0000
 Quadrupole moment (field-independent basis, Debye-Ang):
   XX=             -8.0753   YY=             -1.2794   ZZ=            -12.6200
   XY=              0.0001   XZ=              0.0000   YZ=              0.0000
 Traceless Quadrupole moment (field-independent basis, Debye-Ang):
   XX=             -0.7504   YY=              6.0455   ZZ=             -5.2951
   XY=              0.0001   XZ=              0.0000   YZ=              0.0000
 Octapole moment (field-independent basis, Debye-Ang**2):
  XXX=              0.0000  YYY=              0.0000  ZZZ=              0.0000  XYY=             -0.0000
  XXY=              0.0000  XXZ=              0.0000  XZZ=              0.0000  YZZ=             -0.0000
  YYZ=              0.0000  XYZ=              0.0000
 Hexadecapole moment (field-independent basis, Debye-Ang**3):
 XXXX=            -17.6342 YYYY=            -88.7380 ZZZZ=            -13.0333 XXXY=              0.0005
 XXXZ=              0.0000 YYYX=             -0.0009 YYYZ=              0.0000 ZZZX=              0.0000
 ZZZY=              0.0000 XXYY=             -9.5815 XXZZ=             -6.5544 YYZZ=            -20.2748
 XXYZ=              0.0000 YYXZ=              0.0000 ZZXY=             -0.0002
 N-N= 2.639311755681D+01 E-N=-2.287186269945D+02  KE= 7.724679906328D+01
 Symmetry AG   KE= 3.916565370701D+01
 Symmetry BG   KE= 8.673697975014D-33
 Symmetry AU   KE= 1.094939608535D+00
 Symmetry BU   KE= 3.698620574774D+01
 Symmetry AG   SP=-1.000749547276D-14
 Symmetry BG   SP= 2.995902611613D-33
 Symmetry AU   SP= 1.000000000000D+00
 Symmetry BU   SP=-9.282401151025D-15
                          Isotropic Fermi Contact Couplings
        Atom                 a.u.       MegaHertz       Gauss      10(-4) cm-1
     1  C(13)              0.09097     102.26256      36.48982      34.11112
     2  C(13)              0.09097     102.26256      36.48982      34.11112
     3  H(1)              -0.00801     -35.81373     -12.77923     -11.94617
     4  H(1)              -0.00801     -35.81515     -12.77974     -11.94665
     5  H(1)              -0.00801     -35.81373     -12.77923     -11.94617
     6  H(1)              -0.00801     -35.81515     -12.77974     -11.94665
 --------------------------------------------------------
       Center         ----  Spin Dipole Couplings  ----
                      3XX-RR        3YY-RR        3ZZ-RR
 --------------------------------------------------------
     1   Atom       -0.285212     -0.282921      0.568133
     2   Atom       -0.285212     -0.282921      0.568133
     3   Atom        0.021559     -0.016191     -0.005368
     4   Atom        0.021562     -0.016192     -0.005370
     5   Atom        0.021559     -0.016191     -0.005368
     6   Atom        0.021562     -0.016192     -0.005370
 --------------------------------------------------------
                        XY            XZ            YZ
 --------------------------------------------------------
     1   Atom        0.000001      0.000000      0.000000
     2   Atom        0.000001      0.000000      0.000000
     3   Atom       -0.032440      0.000000      0.000000
     4   Atom        0.032436      0.000000      0.000000
     5   Atom       -0.032440      0.000000      0.000000
     6   Atom        0.032436      0.000000      0.000000
 --------------------------------------------------------


 ---------------------------------------------------------------------------------
              Anisotropic Spin Dipole Couplings in Principal Axis System
 ---------------------------------------------------------------------------------

       Atom             a.u.   MegaHertz   Gauss  10(-4) cm-1        Axes

              Baa    -0.2852   -38.273   -13.657   -12.766  1.0000 -0.0004 -0.0000
     1 C(13)  Bbb    -0.2829   -37.965   -13.547   -12.664  0.0004  1.0000  0.0000
              Bcc     0.5681    76.238    27.204    25.430  0.0000  0.0000  1.0000
 
              Baa    -0.2852   -38.273   -13.657   -12.766  1.0000 -0.0004 -0.0000
     2 C(13)  Bbb    -0.2829   -37.965   -13.547   -12.664  0.0004  1.0000  0.0000
              Bcc     0.5681    76.238    27.204    25.430  0.0000  0.0000  1.0000
 
              Baa    -0.0348   -18.593    -6.634    -6.202  0.4985  0.8669  0.0000
     3 H(1)   Bbb    -0.0054    -2.864    -1.022    -0.955  0.0000  0.0000  1.0000
              Bcc     0.0402    21.457     7.656     7.157  0.8669 -0.4985 -0.0000
 
              Baa    -0.0348   -18.591    -6.634    -6.201 -0.4985  0.8669 -0.0000
     4 H(1)   Bbb    -0.0054    -2.865    -1.022    -0.956  0.0000  0.0000  1.0000
              Bcc     0.0402    21.456     7.656     7.157  0.8669  0.4985  0.0000
 
              Baa    -0.0348   -18.593    -6.634    -6.202  0.4985  0.8669  0.0000
     5 H(1)   Bbb    -0.0054    -2.864    -1.022    -0.955  0.0000  0.0000  1.0000
              Bcc     0.0402    21.457     7.656     7.157  0.8669 -0.4985 -0.0000
 
              Baa    -0.0348   -18.591    -6.634    -6.201 -0.4985  0.8669 -0.0000
     6 H(1)   Bbb    -0.0054    -2.865    -1.022    -0.956  0.0000  0.0000  1.0000
              Bcc     0.0402    21.456     7.656     7.157  0.8669  0.4985  0.0000
 

 ---------------------------------------------------------------------------------

 No NMR shielding tensors so no spin-rotation constants.
 Leave Link  601 at Tue Nov 19 11:56:58 2024, MaxMem=   536870912 cpu:               1.7 elap:               0.2
 (Enter /home/szhao/Apps/g16/l701.exe)
 ... and contract with generalized density number  0.
 Compute integral first derivatives.
 Leave Link  701 at Tue Nov 19 11:56:58 2024, MaxMem=   536870912 cpu:               0.7 elap:               0.1
 (Enter /home/szhao/Apps/g16/l702.exe)
 L702 exits ... SP integral derivatives will be done elsewhere.
 Leave Link  702 at Tue Nov 19 11:56:58 2024, MaxMem=   536870912 cpu:               0.3 elap:               0.0
 (Enter /home/szhao/Apps/g16/l703.exe)
 Integral derivatives from FoFJK, PRISM(SPDF).
 Compute integral first derivatives, UseDBF=F ICtDFT=           0.
 Calling FoFJK, ICntrl=      2127 FMM=F ISym2X=1 I1Cent= 0 IOpClX= 1 NMat=1 NMatS=1 NMatT=0.
 FoFJK:  IHMeth= 1 ICntrl=    2127 DoSepK=F KAlg= 0 I1Cent=           0 FoldK=F
 IRaf=         0 NMat=       1 IRICut=       1 DoRegI=T DoRafI=F ISym2E= 1 IDoP0=0 IntGTp=1.
 FoFCou: FMM=F IPFlag=           0 FMFlag=      100000 FMFlg1=         800
         NFxFlg=           0 DoJE=F BraDBF=F KetDBF=F FulRan=T
         wScrn=  0.000000 ICntrl=      2127 IOpCl=  1 I1Cent=           0 NGrid=           0
         NMat0=    1 NMatS0=      1 NMatT0=    0 NMatD0=    1 NMtDS0=    0 NMtDT0=    0
 Petite list used in FoFCou.
 Leave Link  703 at Tue Nov 19 11:56:59 2024, MaxMem=   536870912 cpu:               3.5 elap:               0.4
 (Enter /home/szhao/Apps/g16/l716.exe)
 Dipole        =-2.22044605D-16 2.22044605D-15 0.00000000D+00
 ***** Axes restored to original set *****
 -------------------------------------------------------------------
 Center     Atomic                   Forces (Hartrees/Bohr)
 Number     Number              X              Y              Z
 -------------------------------------------------------------------
      1        6           0.119623487    0.000032777   -0.000000000
      2        6          -0.119623487   -0.000032777   -0.000000000
      3        1           0.000122727    0.000315629   -0.000000000
      4        1           0.000132872   -0.000345346   -0.000000000
      5        1          -0.000122727   -0.000315629   -0.000000000
      6        1          -0.000132872    0.000345346   -0.000000000
 -------------------------------------------------------------------
 Cartesian Forces:  Max     0.119623487 RMS     0.039874848
 Z-matrix is all fixed cartesians, so copy forces.
 Force constants in Cartesian coordinates: 
                1             2             3             4             5 
      1  0.246609D+00
      2  0.285344D-04  0.586436D+00
      3  0.000000D+00  0.000000D+00  0.100000D+01
      4  0.000000D+00  0.000000D+00  0.000000D+00  0.246609D+00
      5  0.000000D+00  0.000000D+00  0.000000D+00  0.285344D-04  0.586436D+00
      6  0.000000D+00  0.000000D+00  0.000000D+00  0.000000D+00  0.000000D+00
      7 -0.123317D+00 -0.132881D+00  0.000000D+00  0.000000D+00  0.000000D+00
      8 -0.104289D+00 -0.293233D+00  0.000000D+00  0.000000D+00  0.000000D+00
      9  0.000000D+00  0.000000D+00  0.000000D+00  0.000000D+00  0.000000D+00
     10 -0.123292D+00  0.132852D+00  0.000000D+00  0.000000D+00  0.000000D+00
     11  0.104260D+00 -0.293204D+00  0.000000D+00  0.000000D+00  0.000000D+00
     12  0.000000D+00  0.000000D+00  0.000000D+00  0.000000D+00  0.000000D+00
     13  0.000000D+00  0.000000D+00  0.000000D+00 -0.123317D+00 -0.132881D+00
     14  0.000000D+00  0.000000D+00  0.000000D+00 -0.104289D+00 -0.293233D+00
     15  0.000000D+00  0.000000D+00  0.000000D+00  0.000000D+00  0.000000D+00
     16  0.000000D+00  0.000000D+00  0.000000D+00 -0.123292D+00  0.132852D+00
     17  0.000000D+00  0.000000D+00  0.000000D+00  0.104260D+00 -0.293204D+00
     18  0.000000D+00  0.000000D+00  0.000000D+00  0.000000D+00  0.000000D+00
                6             7             8             9            10 
      6  0.100000D+01
      7  0.000000D+00  0.917682D-01
      8  0.000000D+00  0.118586D+00  0.299710D+00
      9  0.000000D+00  0.000000D+00  0.000000D+00  0.100000D+01
     10  0.000000D+00  0.315492D-01 -0.142971D-01  0.000000D+00  0.917424D-01
     11  0.000000D+00  0.142948D-01 -0.647795D-02  0.000000D+00 -0.118555D+00
     12  0.000000D+00  0.000000D+00  0.000000D+00  0.000000D+00  0.000000D+00
     13  0.000000D+00  0.000000D+00  0.000000D+00  0.000000D+00  0.000000D+00
     14  0.000000D+00  0.000000D+00  0.000000D+00  0.000000D+00  0.000000D+00
     15  0.000000D+00  0.000000D+00  0.000000D+00  0.000000D+00  0.000000D+00
     16  0.000000D+00  0.000000D+00  0.000000D+00  0.000000D+00  0.000000D+00
     17  0.000000D+00  0.000000D+00  0.000000D+00  0.000000D+00  0.000000D+00
     18  0.000000D+00  0.000000D+00  0.000000D+00  0.000000D+00  0.000000D+00
               11            12            13            14            15 
     11  0.299682D+00
     12  0.000000D+00  0.100000D+01
     13  0.000000D+00  0.000000D+00  0.917682D-01
     14  0.000000D+00  0.000000D+00  0.118586D+00  0.299710D+00
     15  0.000000D+00  0.000000D+00  0.000000D+00  0.000000D+00  0.100000D+01
     16  0.000000D+00  0.000000D+00  0.315492D-01 -0.142971D-01  0.000000D+00
     17  0.000000D+00  0.000000D+00  0.142948D-01 -0.647795D-02  0.000000D+00
     18  0.000000D+00  0.000000D+00  0.000000D+00  0.000000D+00  0.000000D+00
               16            17            18 
     16  0.917424D-01
     17 -0.118555D+00  0.299682D+00
     18  0.000000D+00  0.000000D+00  0.100000D+01
 Leave Link  716 at Tue Nov 19 11:56:59 2024, MaxMem=   536870912 cpu:               0.3 elap:               0.0
 (Enter /home/szhao/Apps/g16/l103.exe)

 GradGradGradGradGradGradGradGradGradGradGradGradGradGradGradGradGradGrad
 Berny optimization.
 Search for a local minimum.
 Step number   1 out of a maximum of    2
 All quantities printed in internal units (Hartrees-Bohrs-Radians)
 Second derivative matrix not updated -- first step.
 The second derivative matrix:
                          X1        Y1        Z1        X2        Y2
           X1           0.24661
           Y1           0.00003   0.58644
           Z1           0.00000   0.00000   1.00000
           X2           0.00000   0.00000   0.00000   0.24661
           Y2           0.00000   0.00000   0.00000   0.00003   0.58644
           Z2           0.00000   0.00000   0.00000   0.00000   0.00000
           X3          -0.12332  -0.13288   0.00000   0.00000   0.00000
           Y3          -0.10429  -0.29323   0.00000   0.00000   0.00000
           Z3           0.00000   0.00000   0.00000   0.00000   0.00000
           X4          -0.12329   0.13285   0.00000   0.00000   0.00000
           Y4           0.10426  -0.29320   0.00000   0.00000   0.00000
           Z4           0.00000   0.00000   0.00000   0.00000   0.00000
           X5           0.00000   0.00000   0.00000  -0.12332  -0.13288
           Y5           0.00000   0.00000   0.00000  -0.10429  -0.29323
           Z5           0.00000   0.00000   0.00000   0.00000   0.00000
           X6           0.00000   0.00000   0.00000  -0.12329   0.13285
           Y6           0.00000   0.00000   0.00000   0.10426  -0.29320
           Z6           0.00000   0.00000   0.00000   0.00000   0.00000
                          Z2        X3        Y3        Z3        X4
           Z2           1.00000
           X3           0.00000   0.09177
           Y3           0.00000   0.11859   0.29971
           Z3           0.00000   0.00000   0.00000   1.00000
           X4           0.00000   0.03155  -0.01430   0.00000   0.09174
           Y4           0.00000   0.01429  -0.00648   0.00000  -0.11856
           Z4           0.00000   0.00000   0.00000   0.00000   0.00000
           X5           0.00000   0.00000   0.00000   0.00000   0.00000
           Y5           0.00000   0.00000   0.00000   0.00000   0.00000
           Z5           0.00000   0.00000   0.00000   0.00000   0.00000
           X6           0.00000   0.00000   0.00000   0.00000   0.00000
           Y6           0.00000   0.00000   0.00000   0.00000   0.00000
           Z6           0.00000   0.00000   0.00000   0.00000   0.00000
                          Y4        Z4        X5        Y5        Z5
           Y4           0.29968
           Z4           0.00000   1.00000
           X5           0.00000   0.00000   0.09177
           Y5           0.00000   0.00000   0.11859   0.29971
           Z5           0.00000   0.00000   0.00000   0.00000   1.00000
           X6           0.00000   0.00000   0.03155  -0.01430   0.00000
           Y6           0.00000   0.00000   0.01429  -0.00648   0.00000
           Z6           0.00000   0.00000   0.00000   0.00000   0.00000
                          X6        Y6        Z6
           X6           0.09174
           Y6          -0.11856   0.29968
           Z6           0.00000   0.00000   1.00000
 ITU=  0
     Eigenvalues ---   -0.00000  -0.00000  -0.00000   0.14162   0.15464
     Eigenvalues ---    0.46970   0.52144   0.78585   0.83497   1.00000
     Eigenvalues ---    1.00000   1.00000
 Eigenvalue     1 is  -8.88D-16 should be greater than     0.000000 Eigenvector:
                          X6        X4        Y2        Y1        X1
   1                    0.62513  -0.58350  -0.23304   0.22456  -0.21882
                          X2        X5        X3        Y4        Y3
   1                    0.21882  -0.18747   0.14584   0.05933   0.05931
 Eigenvalue     2 is  -7.77D-16 should be greater than     0.000000 Eigenvector:
                          X5        X4        X2        X1        X3
   1                    0.75416  -0.37042   0.28829  -0.28829  -0.20615
                          X6        Y2        Y3        Y4        Y1
   1                   -0.17761   0.16969  -0.09529  -0.09529  -0.05807
 Eigenvalue     3 is  -2.22D-16 should be greater than     0.000000 Eigenvector:
                          X3        X6        X4        X1        X2
   1                    0.73674  -0.42924  -0.35902   0.18888  -0.18887
                          Y1        Y5        Y6        Y3        Y4
   1                    0.17153  -0.11991  -0.11990  -0.07674  -0.07672
 Quadratic step=9.788D+02 exceeds max=3.000D-01 adjusted using Lamda=-4.212D-01.
 Angle between NR and scaled steps=  39.38 degrees.
 Angle between quadratic step and forces=  18.26 degrees.
 ClnCor:  largest displacement from symmetrization is 1.27D-14 for atom     6.
 Linear search not attempted -- first point.
 ClnCor:  largest displacement from symmetrization is 2.59D-15 for atom     4.
 B after Tr=    -0.000000   -0.000000    0.000000
         Rot=    1.000000    0.000000    0.000000    0.000001 Ang=   0.00 deg.
 Variable       Old X    -DE/DX   Delta X   Delta X   Delta X     New X
                                 (Linear)    (Quad)   (Total)
    X1       -2.01711   0.11962   0.00000   0.20174   0.20174  -1.81537
    Y1       -0.00000   0.00003   0.00000   0.00002   0.00002   0.00002
    Z1        0.00000  -0.00000   0.00000   0.00000   0.00000   0.00000
    X2        2.01711  -0.11962   0.00000  -0.20174  -0.20174   1.81537
    Y2       -0.00000  -0.00003   0.00000  -0.00002  -0.00002  -0.00002
    Z2        0.00000  -0.00000   0.00000   0.00000   0.00000   0.00000
    X3       -2.86376   0.00012   0.00000   0.04142   0.04142  -2.82235
    Y3       -1.86830   0.00032   0.00000   0.02342   0.02343  -1.84487
    Z3        0.00000  -0.00000   0.00000   0.00000   0.00000   0.00000
    X4       -2.86368   0.00013   0.00000   0.04141   0.04141  -2.82227
    Y4        1.86842  -0.00035   0.00000  -0.02345  -0.02345   1.84498
    Z4        0.00000  -0.00000   0.00000   0.00000   0.00000   0.00000
    X5        2.86376  -0.00012   0.00000  -0.04142  -0.04142   2.82235
    Y5        1.86830  -0.00032   0.00000  -0.02342  -0.02343   1.84487
    Z5        0.00000  -0.00000   0.00000   0.00000   0.00000   0.00000
    X6        2.86368  -0.00013   0.00000  -0.04141  -0.04141   2.82227
    Y6       -1.86842   0.00035   0.00000   0.02345   0.02345  -1.84498
    Z6        0.00000  -0.00000   0.00000   0.00000   0.00000   0.00000
         Item               Value     Threshold  Converged?
 Maximum Force            0.119623     0.000450     NO 
 RMS     Force            0.039875     0.000300     NO 
 Maximum Displacement     0.201736     0.001800     NO 
 RMS     Displacement     0.070888     0.001200     NO 
 Predicted change in Energy=-4.320925D-02
 GradGradGradGradGradGradGradGradGradGradGradGradGradGradGradGradGradGrad

 Leave Link  103 at Tue Nov 19 11:56:59 2024, MaxMem=   536870912 cpu:               0.1 elap:               0.0
 (Enter /home/szhao/Apps/g16/l9999.exe)
 1\1\GINC-NODE01\Force\UM062X\6-311+G(d,p)\C2H4(1+,2)\SZHAO\19-Nov-2024
 \0\\#p UM062X/6-311+G** force int=superfine\\Title Card Required\\1,2\
 C,-1.067407,0.,0.\C,1.067407,0.,0.\H,-1.515437,-0.98866,0.\H,-1.515395
 ,0.988727,0.\H,1.515437,0.98866,0.\H,1.515395,-0.988727,0.\\Version=ES
 64L-G16RevA.03\State=2-AU\HF=-78.0365283\S2=0.752158\S2-1=0.\S2A=0.750
 004\RMSD=4.864e-09\RMSF=3.987e-02\Dipole=0.,0.,0.\Quadrupole=4.4946901
 ,-0.5579061,-3.9367839,-0.000051,0.,0.\PG=C02H [SGH(C2H4)]\\@


 IF AT FIRST YOU DON'T SUCCEED, TRY, TRY AGAIN.
 THEN GIVE UP;
 THERE'S NO USE BEING A DAMN FOOL ABOUT IT.

                                 -- W. C. FIELDS
 Job cpu time:       0 days  0 hours  0 minutes 25.8 seconds.
 Elapsed time:       0 days  0 hours  0 minutes  3.3 seconds.
 File lengths (MBytes):  RWF=      6 Int=      0 D2E=      0 Chk=      1 Scr=      1
 Normal termination of Gaussian 16 at Tue Nov 19 11:56:59 2024.
