 Entering Gaussian System, Link 0=g16
 Initial command:
 /home/szhao/Apps/g16/l1.exe "/home/szhao/tmp/Gau-159719.inp" -scrdir="/home/szhao/tmp/"
 Default is to use a total of  16 processors:
                               16 via shared-memory
                                1 via Linda
 Entering Link 1 = /home/szhao/Apps/g16/l1.exe PID=    159733.
  
 Copyright (c) 1988,1990,1992,1993,1995,1998,2003,2009,2016,
            Gaussian, Inc.  All Rights Reserved.
  
 This is part of the Gaussian(R) 16 program.  It is based on
 the Gaussian(R) 09 system (copyright 2009, Gaussian, Inc.),
 the Gaussian(R) 03 system (copyright 2003, Gaussian, Inc.),
 the Gaussian(R) 98 system (copyright 1998, Gaussian, Inc.),
 the Gaussian(R) 94 system (copyright 1995, Gaussian, Inc.),
 the Gaussian 92(TM) system (copyright 1992, Gaussian, Inc.),
 the Gaussian 90(TM) system (copyright 1990, Gaussian, Inc.),
 the Gaussian 88(TM) system (copyright 1988, Gaussian, Inc.),
 the Gaussian 86(TM) system (copyright 1986, Carnegie Mellon
 University), and the Gaussian 82(TM) system (copyright 1983,
 Carnegie Mellon University). Gaussian is a federally registered
 trademark of Gaussian, Inc.
  
 This software contains proprietary and confidential information,
 including trade secrets, belonging to Gaussian, Inc.
  
 This software is provided under written license and may be
 used, copied, transmitted, or stored only in accord with that
 written license.
  
 The following legend is applicable only to US Government
 contracts under FAR:
  
                    RESTRICTED RIGHTS LEGEND
  
 Use, reproduction and disclosure by the US Government is
 subject to restrictions as set forth in subparagraphs (a)
 and (c) of the Commercial Computer Software - Restricted
 Rights clause in FAR 52.227-19.
  
 Gaussian, Inc.
 340 Quinnipiac St., Bldg. 40, Wallingford CT 06492
  
  
 ---------------------------------------------------------------
 Warning -- This program may not be used in any manner that
 competes with the business of Gaussian, Inc. or will provide
 assistance to any competitor of Gaussian, Inc.  The licensee
 of this program is prohibited from giving any competitor of
 Gaussian, Inc. access to this program.  By using this program,
 the user acknowledges that Gaussian, Inc. is engaged in the
 business of creating and licensing software in the field of
 computational chemistry and represents and warrants to the
 licensee that it is not a competitor of Gaussian, Inc. and that
 it will not use this program in any manner prohibited above.
 ---------------------------------------------------------------
  

 Cite this work as:
 Gaussian 16, Revision A.03,
 M. J. Frisch, G. W. Trucks, H. B. Schlegel, G. E. Scuseria, 
 M. A. Robb, J. R. Cheeseman, G. Scalmani, V. Barone, 
 G. A. Petersson, H. Nakatsuji, X. Li, M. Caricato, A. V. Marenich, 
 J. Bloino, B. G. Janesko, R. Gomperts, B. Mennucci, H. P. Hratchian, 
 J. V. Ortiz, A. F. Izmaylov, J. L. Sonnenberg, D. Williams-Young, 
 F. Ding, F. Lipparini, F. Egidi, J. Goings, B. Peng, A. Petrone, 
 T. Henderson, D. Ranasinghe, V. G. Zakrzewski, J. Gao, N. Rega, 
 G. Zheng, W. Liang, M. Hada, M. Ehara, K. Toyota, R. Fukuda, 
 J. Hasegawa, M. Ishida, T. Nakajima, Y. Honda, O. Kitao, H. Nakai, 
 T. Vreven, K. Throssell, J. A. Montgomery, Jr., J. E. Peralta, 
 F. Ogliaro, M. J. Bearpark, J. J. Heyd, E. N. Brothers, K. N. Kudin, 
 V. N. Staroverov, T. A. Keith, R. Kobayashi, J. Normand, 
 K. Raghavachari, A. P. Rendell, J. C. Burant, S. S. Iyengar, 
 J. Tomasi, M. Cossi, J. M. Millam, M. Klene, C. Adamo, R. Cammi, 
 J. W. Ochterski, R. L. Martin, K. Morokuma, O. Farkas, 
 J. B. Foresman, and D. J. Fox, Gaussian, Inc., Wallingford CT, 2016.
 
 ******************************************
 Gaussian 16:  ES64L-G16RevA.03 25-Dec-2016
                21-Apr-2025 
 ******************************************
 %chk=force.chk
 %mem=4GB
 %nprocshared=8
 Will use up to    8 processors via shared memory.
 ---------------------------------------------------
 #p UM062X/6-311+G** force int=superfine pop=saveNBO
 ---------------------------------------------------
 1/10=7,30=1,38=1/1,3;
 2/12=2,17=6,18=5,40=1/2;
 3/5=4,6=6,7=111,11=2,25=1,30=1,71=1,74=-55,75=-7,116=2/1,2,3;
 4//1;
 5/5=2,38=5/2;
 6/7=2,8=2,9=2,10=2,28=1,40=1,73=1/1,7;
 7/29=1/1,2,3,16;
 1/10=7,30=1/3;
 99//99;
 Leave Link    1 at Mon Apr 21 21:22:45 2025, MaxMem=   536870912 cpu:               5.2 elap:               0.6
 (Enter /home/szhao/Apps/g16/l101.exe)
 -------------------
 Title Card Required
 -------------------
 Symbolic Z-matrix:
 Charge =  0 Multiplicity = 1
 P                    -2.33849   0.        0. 
 P                     2.33849   0.        0. 
 
 ITRead=  0  0
 MicOpt= -1 -1
 NAtoms=      2 NQM=        2 NQMF=       0 NMMI=      0 NMMIF=      0
                NMic=       0 NMicF=      0.
                    Isotopes and Nuclear Properties:
 (Nuclear quadrupole moments (NQMom) in fm**2, nuclear magnetic moments (NMagM)
  in nuclear magnetons)

  Atom         1           2
 IAtWgt=          31          31
 AtmWgt=  30.9737634  30.9737634
 NucSpn=           1           1
 AtZEff=  -0.0000000  -0.0000000
 NQMom=    0.0000000   0.0000000
 NMagM=    1.1316000   1.1316000
 AtZNuc=  15.0000000  15.0000000
 Leave Link  101 at Mon Apr 21 21:22:45 2025, MaxMem=   536870912 cpu:               1.5 elap:               0.2
 (Enter /home/szhao/Apps/g16/l103.exe)

 GradGradGradGradGradGradGradGradGradGradGradGradGradGradGradGradGradGrad
 Berny optimization.
 Initialization pass.
 Trust Radius=3.00D-01 FncErr=1.00D-07 GrdErr=1.00D-07 EigMax=2.50D+02 EigMin=1.00D-04
 Number of steps in this run=      2 maximum allowed number of steps=      2.
 GradGradGradGradGradGradGradGradGradGradGradGradGradGradGradGradGradGrad

 Leave Link  103 at Mon Apr 21 21:22:46 2025, MaxMem=   536870912 cpu:               0.3 elap:               0.1
 (Enter /home/szhao/Apps/g16/l202.exe)
                          Input orientation:                          
 ---------------------------------------------------------------------
 Center     Atomic      Atomic             Coordinates (Angstroms)
 Number     Number       Type             X           Y           Z
 ---------------------------------------------------------------------
      1         15           0       -2.338495    0.000000    0.000000
      2         15           0        2.338495    0.000000    0.000000
 ---------------------------------------------------------------------
 Stoichiometry    P2
 Framework group  D*H[C*(P.P)]
 Deg. of freedom     1
 Full point group                 D*H     NOp   8
 Largest Abelian subgroup         D2H     NOp   8
 Largest concise Abelian subgroup C2      NOp   2
                         Standard orientation:                         
 ---------------------------------------------------------------------
 Center     Atomic      Atomic             Coordinates (Angstroms)
 Number     Number       Type             X           Y           Z
 ---------------------------------------------------------------------
      1         15           0        0.000000    0.000000    2.338495
      2         15           0        0.000000    0.000000   -2.338495
 ---------------------------------------------------------------------
 Rotational constants (GHZ):           0.0000000           1.4918334           1.4918334
 Leave Link  202 at Mon Apr 21 21:22:46 2025, MaxMem=   536870912 cpu:               0.1 elap:               0.2
 (Enter /home/szhao/Apps/g16/l301.exe)
 Standard basis: 6-311+G(d,p) (5D, 7F)
 Ernie: Thresh=  0.10000D-02 Tol=  0.10000D-05 Strict=F.
 There are    16 symmetry adapted cartesian basis functions of AG  symmetry.
 There are     1 symmetry adapted cartesian basis functions of B1G symmetry.
 There are     7 symmetry adapted cartesian basis functions of B2G symmetry.
 There are     7 symmetry adapted cartesian basis functions of B3G symmetry.
 There are     1 symmetry adapted cartesian basis functions of AU  symmetry.
 There are    16 symmetry adapted cartesian basis functions of B1U symmetry.
 There are     7 symmetry adapted cartesian basis functions of B2U symmetry.
 There are     7 symmetry adapted cartesian basis functions of B3U symmetry.
 There are    15 symmetry adapted basis functions of AG  symmetry.
 There are     1 symmetry adapted basis functions of B1G symmetry.
 There are     7 symmetry adapted basis functions of B2G symmetry.
 There are     7 symmetry adapted basis functions of B3G symmetry.
 There are     1 symmetry adapted basis functions of AU  symmetry.
 There are    15 symmetry adapted basis functions of B1U symmetry.
 There are     7 symmetry adapted basis functions of B2U symmetry.
 There are     7 symmetry adapted basis functions of B3U symmetry.
    60 basis functions,   100 primitive gaussians,    62 cartesian basis functions
    15 alpha electrons       15 beta electrons
       nuclear repulsion energy        25.4575854250 Hartrees.
 IExCor= 4336 DFT=T Ex+Corr=M062X ExCW=0 ScaHFX=  0.540000
 ScaDFX=  1.000000  1.000000  1.000000  1.000000 ScalE2=  1.000000  1.000000
 IRadAn=      7 IRanWt=     -1 IRanGd=            0 ICorTp=0 IEmpDi=  4
 NAtoms=    2 NActive=    2 NUniq=    1 SFac= 4.00D+00 NAtFMM=   60 NAOKFM=F Big=F
 Integral buffers will be    131072 words long.
 Raffenetti 2 integral format.
 Two-electron integral symmetry is turned on.
 Leave Link  301 at Mon Apr 21 21:22:47 2025, MaxMem=   536870912 cpu:               1.4 elap:               0.4
 (Enter /home/szhao/Apps/g16/l302.exe)
 NPDir=0 NMtPBC=     1 NCelOv=     1 NCel=       1 NClECP=     1 NCelD=      1
         NCelK=      1 NCelE2=     1 NClLst=     1 CellRange=     0.0.
 One-electron integrals computed using PRISM.
 One-electron integral symmetry used in STVInt
 NBasis=    60 RedAO= T EigKep=  2.48D-02  NBF=    15     1     7     7     1    15     7     7
 NBsUse=    60 1.00D-06 EigRej= -1.00D+00 NBFU=    15     1     7     7     1    15     7     7
 Precomputing XC quadrature grid using
 IXCGrd= 4 IRadAn=           7 IRanWt=          -1 IRanGd=           0 AccXCQ= 0.00D+00.
 Generated NRdTot=       0 NPtTot=           0 NUsed=           0 NTot=          32
 NSgBfM=    51    51    51    51    51 MxSgAt=     2 MxSgA2=     2.
 Leave Link  302 at Mon Apr 21 21:22:47 2025, MaxMem=   536870912 cpu:               1.3 elap:               0.3
 (Enter /home/szhao/Apps/g16/l303.exe)
 DipDrv:  MaxL=1.
 Leave Link  303 at Mon Apr 21 21:22:48 2025, MaxMem=   536870912 cpu:               0.7 elap:               0.1
 (Enter /home/szhao/Apps/g16/l401.exe)
 ExpMin= 3.48D-02 ExpMax= 7.75D+04 ExpMxC= 2.65D+03 IAcc=3 IRadAn=         7 AccDes= 0.00D+00
 Harris functional with IExCor= 1009 and IRadAn=       7 diagonalized for initial guess.
 HarFok:  IExCor= 1009 AccDes= 0.00D+00 IRadAn=         7 IDoV= 1 UseB2=F ITyADJ=14
 ICtDFT=  3500011 ScaDFX=  1.000000  1.000000  1.000000  1.000000
 FoFCou: FMM=F IPFlag=           0 FMFlag=      100000 FMFlg1=           0
         NFxFlg=           0 DoJE=T BraDBF=F KetDBF=T FulRan=T
         wScrn=  0.000000 ICntrl=       500 IOpCl=  0 I1Cent=   200000004 NGrid=           0
         NMat0=    1 NMatS0=      1 NMatT0=    0 NMatD0=    1 NMtDS0=    0 NMtDT0=    0
 Petite list used in FoFCou.
 Harris En= -682.048773390261    
 JPrj=0 DoOrth=F DoCkMO=F.
 Initial guess orbital symmetries:
 Alpha Orbitals:
       Occupied  (SGU) (SGG) (SGU) (SGG) (SGU) (SGG) (PIG) (PIG)
                 (PIU) (PIU) (SGG) (SGU) (SGG) (PIU) (PIU)
       Virtual   (PIG) (PIG) (SGU) (SGG) (SGU) (PIU) (PIU) (SGG)
                 (PIG) (PIG) (SGU) (SGG) (PIU) (PIU) (PIG) (PIG)
                 (SGU) (SGG) (SGU) (DLTG) (DLTU) (DLTG) (DLTU)
                 (PIU) (PIU) (PIG) (PIG) (SGG) (SGU) (PIU) (PIU)
                 (SGG) (PIG) (PIG) (SGU) (SGG) (SGU) (PIU) (PIU)
                 (SGG) (PIG) (PIG) (SGU) (SGG) (SGU)
 Beta  Orbitals:
       Occupied  (SGU) (SGG) (SGU) (SGG) (SGU) (SGG) (PIG) (PIG)
                 (PIU) (PIU) (SGG) (SGU) (SGG) (PIU) (PIU)
       Virtual   (PIG) (PIG) (SGU) (SGG) (SGU) (PIU) (PIU) (SGG)
                 (PIG) (PIG) (SGU) (SGG) (PIU) (PIU) (PIG) (PIG)
                 (SGU) (SGG) (SGU) (DLTG) (DLTU) (DLTG) (DLTU)
                 (PIU) (PIU) (PIG) (PIG) (SGG) (SGU) (PIU) (PIU)
                 (SGG) (PIG) (PIG) (SGU) (SGG) (SGU) (PIU) (PIU)
                 (SGG) (PIG) (PIG) (SGU) (SGG) (SGU)
 The electronic state of the initial guess is 1-SGG.
 Initial guess <Sx>= 0.0000 <Sy>= 0.0000 <Sz>= 0.0000 <S**2>=-0.0000 S=-0.0000
 Leave Link  401 at Mon Apr 21 21:22:48 2025, MaxMem=   536870912 cpu:               1.5 elap:               0.3
 (Enter /home/szhao/Apps/g16/l502.exe)
 Keep R1 and R2 ints in memory in symmetry-blocked form, NReq=8792365.
 FoFCou: FMM=F IPFlag=           0 FMFlag=           0 FMFlg1=           0
         NFxFlg=           0 DoJE=F BraDBF=F KetDBF=F FulRan=T
         wScrn=  0.000000 ICntrl=       600 IOpCl=  0 I1Cent=           0 NGrid=           0
         NMat0=    1 NMatS0=   1830 NMatT0=    0 NMatD0=    1 NMtDS0=    0 NMtDT0=    0
 Petite list used in FoFCou.
 UHF open shell SCF:
 Using DIIS extrapolation, IDIIS=  1040.
 NGot=   536870912 LenX=   536388430 LenY=   536384145
 Requested convergence on RMS density matrix=1.00D-08 within 128 cycles.
 Requested convergence on MAX density matrix=1.00D-06.
 Requested convergence on             energy=1.00D-06.
 No special actions if energy rises.

 Cycle   1  Pass 1  IDiag  1:
 E= -682.235088225861    
 DIIS: error= 2.49D-02 at cycle   1 NSaved=   1.
 NSaved= 1 IEnMin= 1 EnMin= -682.235088225861     IErMin= 1 ErrMin= 2.49D-02
 ErrMax= 2.49D-02  0.00D+00 EMaxC= 1.00D-01 BMatC= 2.09D-01 BMatP= 2.09D-01
 IDIUse=3 WtCom= 7.51D-01 WtEn= 2.49D-01
 Coeff-Com:  0.100D+01
 Coeff-En:   0.100D+01
 Coeff:      0.100D+01
 Gap=     0.062 Goal=   None    Shift=    0.000
 Gap=     0.062 Goal=   None    Shift=    0.000
 GapD=    0.062 DampG=0.500 DampE=0.500 DampFc=0.2500 IDamp=-1.
 Damping current iteration by 2.50D-01
 RMSDP=2.17D-03 MaxDP=4.94D-02              OVMax= 2.51D-02

 Cycle   2  Pass 1  IDiag  1:
 E= -682.237944134908     Delta-E=       -0.002855909047 Rises=F Damp=T
 DIIS: error= 1.83D-02 at cycle   2 NSaved=   2.
 NSaved= 2 IEnMin= 2 EnMin= -682.237944134908     IErMin= 2 ErrMin= 1.83D-02
 ErrMax= 1.83D-02  0.00D+00 EMaxC= 1.00D-01 BMatC= 9.83D-02 BMatP= 2.09D-01
 IDIUse=3 WtCom= 8.17D-01 WtEn= 1.83D-01
 Coeff-Com: -0.209D+01 0.309D+01
 Coeff-En:   0.000D+00 0.100D+01
 Coeff:     -0.171D+01 0.271D+01
 Gap=     0.062 Goal=   None    Shift=    0.000
 Gap=     0.062 Goal=   None    Shift=    0.000
 RMSDP=1.34D-03 MaxDP=2.85D-02 DE=-2.86D-03 OVMax= 8.07D-03

 Cycle   3  Pass 1  IDiag  1:
 E= -682.245105371000     Delta-E=       -0.007161236093 Rises=F Damp=F
 DIIS: error= 5.71D-04 at cycle   3 NSaved=   3.
 NSaved= 3 IEnMin= 3 EnMin= -682.245105371000     IErMin= 3 ErrMin= 5.71D-04
 ErrMax= 5.71D-04  0.00D+00 EMaxC= 1.00D-01 BMatC= 8.11D-05 BMatP= 9.83D-02
 IDIUse=3 WtCom= 9.94D-01 WtEn= 5.71D-03
 Coeff-Com:  0.171D+00-0.230D+00 0.106D+01
 Coeff-En:   0.000D+00 0.000D+00 0.100D+01
 Coeff:      0.170D+00-0.229D+00 0.106D+01
 Gap=     0.062 Goal=   None    Shift=    0.000
 Gap=     0.062 Goal=   None    Shift=    0.000
 RMSDP=8.99D-05 MaxDP=2.23D-03 DE=-7.16D-03 OVMax= 1.64D-03

 Cycle   4  Pass 1  IDiag  1:
 E= -682.245112548502     Delta-E=       -0.000007177501 Rises=F Damp=F
 DIIS: error= 1.07D-04 at cycle   4 NSaved=   4.
 NSaved= 4 IEnMin= 4 EnMin= -682.245112548502     IErMin= 4 ErrMin= 1.07D-04
 ErrMax= 1.07D-04  0.00D+00 EMaxC= 1.00D-01 BMatC= 3.44D-06 BMatP= 8.11D-05
 IDIUse=3 WtCom= 9.99D-01 WtEn= 1.07D-03
 Coeff-Com:  0.619D-01-0.847D-01 0.208D+00 0.815D+00
 Coeff-En:   0.000D+00 0.000D+00 0.000D+00 0.100D+01
 Coeff:      0.618D-01-0.846D-01 0.207D+00 0.815D+00
 Gap=     0.062 Goal=   None    Shift=    0.000
 Gap=     0.062 Goal=   None    Shift=    0.000
 RMSDP=2.49D-05 MaxDP=4.28D-04 DE=-7.18D-06 OVMax= 5.53D-04

 Cycle   5  Pass 1  IDiag  1:
 E= -682.245113711827     Delta-E=       -0.000001163325 Rises=F Damp=F
 DIIS: error= 1.60D-05 at cycle   5 NSaved=   5.
 NSaved= 5 IEnMin= 5 EnMin= -682.245113711827     IErMin= 5 ErrMin= 1.60D-05
 ErrMax= 1.60D-05  0.00D+00 EMaxC= 1.00D-01 BMatC= 6.29D-08 BMatP= 3.44D-06
 IDIUse=1 WtCom= 1.00D+00 WtEn= 0.00D+00
 Coeff-Com: -0.142D-01 0.192D-01-0.520D-01-0.554D-01 0.110D+01
 Coeff:     -0.142D-01 0.192D-01-0.520D-01-0.554D-01 0.110D+01
 Gap=     0.062 Goal=   None    Shift=    0.000
 Gap=     0.062 Goal=   None    Shift=    0.000
 RMSDP=5.77D-06 MaxDP=1.00D-04 DE=-1.16D-06 OVMax= 1.46D-04

 Cycle   6  Pass 1  IDiag  1:
 E= -682.245113749785     Delta-E=       -0.000000037958 Rises=F Damp=F
 DIIS: error= 2.85D-06 at cycle   6 NSaved=   6.
 NSaved= 6 IEnMin= 6 EnMin= -682.245113749785     IErMin= 6 ErrMin= 2.85D-06
 ErrMax= 2.85D-06  0.00D+00 EMaxC= 1.00D-01 BMatC= 1.26D-09 BMatP= 6.29D-08
 IDIUse=1 WtCom= 1.00D+00 WtEn= 0.00D+00
 Coeff-Com: -0.127D-02 0.174D-02-0.564D-02-0.190D-01-0.949D-02 0.103D+01
 Coeff:     -0.127D-02 0.174D-02-0.564D-02-0.190D-01-0.949D-02 0.103D+01
 Gap=     0.062 Goal=   None    Shift=    0.000
 Gap=     0.062 Goal=   None    Shift=    0.000
 RMSDP=8.59D-07 MaxDP=1.00D-05 DE=-3.80D-08 OVMax= 3.09D-05

 Cycle   7  Pass 1  IDiag  1:
 E= -682.245113750559     Delta-E=       -0.000000000773 Rises=F Damp=F
 DIIS: error= 7.31D-07 at cycle   7 NSaved=   7.
 NSaved= 7 IEnMin= 7 EnMin= -682.245113750559     IErMin= 7 ErrMin= 7.31D-07
 ErrMax= 7.31D-07  0.00D+00 EMaxC= 1.00D-01 BMatC= 8.42D-11 BMatP= 1.26D-09
 IDIUse=1 WtCom= 1.00D+00 WtEn= 0.00D+00
 Coeff-Com:  0.388D-03-0.522D-03 0.108D-02-0.265D-03-0.330D-01 0.207D+00
 Coeff-Com:  0.825D+00
 Coeff:      0.388D-03-0.522D-03 0.108D-02-0.265D-03-0.330D-01 0.207D+00
 Coeff:      0.825D+00
 Gap=     0.062 Goal=   None    Shift=    0.000
 Gap=     0.062 Goal=   None    Shift=    0.000
 RMSDP=1.39D-07 MaxDP=1.89D-06 DE=-7.73D-10 OVMax= 3.56D-06

 Cycle   8  Pass 1  IDiag  1:
 E= -682.245113750596     Delta-E=       -0.000000000037 Rises=F Damp=F
 DIIS: error= 1.20D-07 at cycle   8 NSaved=   8.
 NSaved= 8 IEnMin= 8 EnMin= -682.245113750596     IErMin= 8 ErrMin= 1.20D-07
 ErrMax= 1.20D-07  0.00D+00 EMaxC= 1.00D-01 BMatC= 2.29D-12 BMatP= 8.42D-11
 IDIUse=1 WtCom= 1.00D+00 WtEn= 0.00D+00
 Coeff-Com: -0.364D-05 0.428D-05 0.120D-03 0.406D-03 0.260D-02-0.668D-01
 Coeff-Com: -0.556D-01 0.112D+01
 Coeff:     -0.364D-05 0.428D-05 0.120D-03 0.406D-03 0.260D-02-0.668D-01
 Coeff:     -0.556D-01 0.112D+01
 Gap=     0.062 Goal=   None    Shift=    0.000
 Gap=     0.062 Goal=   None    Shift=    0.000
 RMSDP=5.20D-08 MaxDP=6.17D-07 DE=-3.71D-11 OVMax= 1.90D-06

 Cycle   9  Pass 1  IDiag  1:
 E= -682.245113750598     Delta-E=       -0.000000000002 Rises=F Damp=F
 DIIS: error= 6.85D-09 at cycle   9 NSaved=   9.
 NSaved= 9 IEnMin= 9 EnMin= -682.245113750598     IErMin= 9 ErrMin= 6.85D-09
 ErrMax= 6.85D-09  0.00D+00 EMaxC= 1.00D-01 BMatC= 1.10D-14 BMatP= 2.29D-12
 IDIUse=1 WtCom= 1.00D+00 WtEn= 0.00D+00
 Coeff-Com: -0.192D-05 0.266D-05-0.203D-04-0.442D-04-0.139D-03 0.642D-02
 Coeff-Com: -0.633D-02-0.121D+00 0.112D+01
 Coeff:     -0.192D-05 0.266D-05-0.203D-04-0.442D-04-0.139D-03 0.642D-02
 Coeff:     -0.633D-02-0.121D+00 0.112D+01
 Gap=     0.062 Goal=   None    Shift=    0.000
 Gap=     0.062 Goal=   None    Shift=    0.000
 RMSDP=3.61D-09 MaxDP=3.07D-08 DE=-2.05D-12 OVMax= 1.09D-07

 SCF Done:  E(UM062X) =  -682.245113751     A.U. after    9 cycles
            NFock=  9  Conv=0.36D-08     -V/T= 2.0015
 <Sx>= 0.0000 <Sy>= 0.0000 <Sz>= 0.0000 <S**2>=-0.0000 S=-0.0000
 <L.S>=  0.00000000000    
 KE= 6.811973401699D+02 PE=-1.674131454961D+03 EE= 2.852314156151D+02
 Annihilation of the first spin contaminant:
 S**2 before annihilation    -0.0000,   after     0.0000
 Leave Link  502 at Mon Apr 21 21:22:50 2025, MaxMem=   536870912 cpu:               7.6 elap:               1.4
 (Enter /home/szhao/Apps/g16/l601.exe)
 Copying SCF densities to generalized density rwf, IOpCl= 1 IROHF=0.

 **********************************************************************

            Population analysis using the SCF density.

 **********************************************************************

 Orbital symmetries:
 Alpha Orbitals:
       Occupied  (SGU) (SGG) (SGG) (SGU) (SGG) (SGU) (PIU) (PIU)
                 (PIG) (PIG) (SGG) (SGU) (SGG) (PIU) (PIU)
       Virtual   (PIG) (PIG) (SGU) (SGG) (SGU) (PIU) (PIU) (SGG)
                 (PIG) (PIG) (SGU) (SGG) (PIU) (PIU) (PIG) (PIG)
                 (SGU) (SGG) (SGU) (DLTG) (DLTG) (PIU) (PIU) (DLTU)
                 (DLTU) (PIG) (PIG) (SGG) (SGU) (PIU) (PIU) (SGG)
                 (PIG) (PIG) (SGU) (SGG) (SGU) (PIU) (PIU) (SGG)
                 (PIG) (PIG) (SGU) (SGG) (SGU)
 Beta  Orbitals:
       Occupied  (SGU) (SGG) (SGG) (SGU) (SGG) (SGU) (PIU) (PIU)
                 (PIG) (PIG) (SGG) (SGU) (SGG) (PIU) (PIU)
       Virtual   (PIG) (PIG) (SGU) (SGG) (SGU) (PIU) (PIU) (SGG)
                 (PIG) (PIG) (SGU) (SGG) (PIU) (PIU) (PIG) (PIG)
                 (SGU) (SGG) (SGU) (DLTG) (DLTG) (PIU) (PIU) (DLTU)
                 (DLTU) (PIG) (PIG) (SGG) (SGU) (PIU) (PIU) (SGG)
                 (PIG) (PIG) (SGU) (SGG) (SGU) (PIU) (PIU) (SGG)
                 (PIG) (PIG) (SGU) (SGG) (SGU)
 The electronic state is 1-SGG.
 Alpha  occ. eigenvalues --  -78.11528 -78.11528  -6.93247  -6.93247  -5.04542
 Alpha  occ. eigenvalues --   -5.04542  -5.04530  -5.04530  -5.04530  -5.04530
 Alpha  occ. eigenvalues --   -0.63915  -0.63350  -0.25292  -0.24403  -0.24403
 Alpha virt. eigenvalues --   -0.18184  -0.18184  -0.17111   0.02208   0.03399
 Alpha virt. eigenvalues --    0.04328   0.04328   0.06241   0.06274   0.06274
 Alpha virt. eigenvalues --    0.09891   0.28287   0.30265   0.30265   0.32268
 Alpha virt. eigenvalues --    0.32268   0.34620   0.51153   0.54342   0.68686
 Alpha virt. eigenvalues --    0.68686   0.68732   0.68732   0.68759   0.68759
 Alpha virt. eigenvalues --    0.68883   0.68883   0.68893   0.69793   1.51489
 Alpha virt. eigenvalues --    1.51489   1.51571   1.53258   1.53258   1.54389
 Alpha virt. eigenvalues --    6.69570   6.72184  13.91640  13.91640  13.91661
 Alpha virt. eigenvalues --   13.92949  13.92949  13.94369 162.92710 162.95681
  Beta  occ. eigenvalues --  -78.11528 -78.11528  -6.93247  -6.93247  -5.04542
  Beta  occ. eigenvalues --   -5.04542  -5.04530  -5.04530  -5.04530  -5.04530
  Beta  occ. eigenvalues --   -0.63915  -0.63350  -0.25292  -0.24403  -0.24403
  Beta virt. eigenvalues --   -0.18184  -0.18184  -0.17111   0.02208   0.03399
  Beta virt. eigenvalues --    0.04328   0.04328   0.06241   0.06274   0.06274
  Beta virt. eigenvalues --    0.09891   0.28287   0.30265   0.30265   0.32268
  Beta virt. eigenvalues --    0.32268   0.34620   0.51153   0.54342   0.68686
  Beta virt. eigenvalues --    0.68686   0.68732   0.68732   0.68759   0.68759
  Beta virt. eigenvalues --    0.68883   0.68883   0.68893   0.69793   1.51489
  Beta virt. eigenvalues --    1.51489   1.51571   1.53258   1.53258   1.54389
  Beta virt. eigenvalues --    6.69570   6.72184  13.91640  13.91640  13.91661
  Beta virt. eigenvalues --   13.92949  13.92949  13.94369 162.92710 162.95681
          Condensed to atoms (all electrons):
               1          2
     1  P   14.902306   0.097694
     2  P    0.097694  14.902306
          Atomic-Atomic Spin Densities.
               1          2
     1  P    0.000000   0.000000
     2  P    0.000000   0.000000
 Mulliken charges and spin densities:
               1          2
     1  P    0.000000   0.000000
     2  P    0.000000   0.000000
 Sum of Mulliken charges =   0.00000   0.00000
 Mulliken charges and spin densities with hydrogens summed into heavy atoms:
               1          2
     1  P    0.000000   0.000000
     2  P    0.000000   0.000000
 Electronic spatial extent (au):  <R**2>=            648.1893
 Charge=             -0.0000 electrons
 Dipole moment (field-independent basis, Debye):
    X=              0.0000    Y=             -0.0000    Z=              0.0000  Tot=              0.0000
 Quadrupole moment (field-independent basis, Debye-Ang):
   XX=            -29.3595   YY=            -29.3595   ZZ=            -25.1195
   XY=              0.0000   XZ=             -0.0000   YZ=              0.0000
 Traceless Quadrupole moment (field-independent basis, Debye-Ang):
   XX=             -1.4134   YY=             -1.4134   ZZ=              2.8267
   XY=              0.0000   XZ=             -0.0000   YZ=              0.0000
 Octapole moment (field-independent basis, Debye-Ang**2):
  XXX=             -0.0000  YYY=             -0.0000  ZZZ=              0.0000  XYY=             -0.0000
  XXY=             -0.0000  XXZ=             -0.0000  XZZ=             -0.0000  YZZ=              0.0000
  YYZ=             -0.0000  XYZ=              0.0000
 Hexadecapole moment (field-independent basis, Debye-Ang**3):
 XXXX=            -56.1967 YYYY=            -56.1967 ZZZZ=           -956.5425 XXXY=             -0.0000
 XXXZ=              0.0000 YYYX=             -0.0000 YYYZ=              0.0000 ZZZX=              0.0000
 ZZZY=              0.0000 XXYY=            -18.7322 XXZZ=           -173.9789 YYZZ=           -173.9789
 XXYZ=              0.0000 YYXZ=              0.0000 ZZXY=             -0.0000
 N-N= 2.545758542503D+01 E-N=-1.674131454928D+03  KE= 6.811973401699D+02
 Symmetry AG   KE= 2.797900134533D+02
 Symmetry B1G  KE= 2.900957175727D-39
 Symmetry B2G  KE= 2.970883464478D+01
 Symmetry B3G  KE= 2.970883464478D+01
 Symmetry AU   KE= 1.599717722168D-37
 Symmetry B1U  KE= 2.773661789478D+02
 Symmetry B2U  KE= 3.231173923961D+01
 Symmetry B3U  KE= 3.231173923961D+01
 Symmetry AG   SP= 6.747663990143D-15
 Symmetry B1G  SP=-3.819752206598D-52
 Symmetry B2G  SP= 4.183579423804D-15
 Symmetry B3G  SP= 2.270585791443D-15
 Symmetry AU   SP=-5.629161817570D-51
 Symmetry B1U  SP=-5.202226357373D-15
 Symmetry B2U  SP= 4.129884147540D-15
 Symmetry B3U  SP= 1.037081292798D-15
                          Isotropic Fermi Contact Couplings
        Atom                 a.u.       MegaHertz       Gauss      10(-4) cm-1
     1  P(31)              0.00000       0.00000       0.00000       0.00000
     2  P(31)              0.00000       0.00000       0.00000       0.00000
 --------------------------------------------------------
       Center         ----  Spin Dipole Couplings  ----
                      3XX-RR        3YY-RR        3ZZ-RR
 --------------------------------------------------------
     1   Atom        0.000000      0.000000      0.000000
     2   Atom        0.000000      0.000000      0.000000
 --------------------------------------------------------
                        XY            XZ            YZ
 --------------------------------------------------------
     1   Atom        0.000000      0.000000      0.000000
     2   Atom        0.000000      0.000000      0.000000
 --------------------------------------------------------


 ---------------------------------------------------------------------------------
              Anisotropic Spin Dipole Couplings in Principal Axis System
 ---------------------------------------------------------------------------------

       Atom             a.u.   MegaHertz   Gauss  10(-4) cm-1        Axes

              Baa     0.0000     0.000     0.000     0.000  1.0000  0.0000  0.0000
     1 P(31)  Bbb     0.0000     0.000     0.000     0.000 -0.0000  1.0000  0.0000
              Bcc     0.0000     0.000     0.000     0.000  0.0000  0.0000  1.0000
 
              Baa     0.0000     0.000     0.000     0.000  1.0000  0.0000  0.0000
     2 P(31)  Bbb     0.0000     0.000     0.000     0.000 -0.0000  1.0000  0.0000
              Bcc     0.0000     0.000     0.000     0.000  0.0000  0.0000  1.0000
 

 ---------------------------------------------------------------------------------

 No NMR shielding tensors so no spin-rotation constants.
 Leave Link  601 at Mon Apr 21 21:22:51 2025, MaxMem=   536870912 cpu:               1.8 elap:               0.4
 (Enter /home/szhao/Apps/g16/l607.exe)
 ******************************Gaussian NBO Version 3.1******************************
             N A T U R A L   A T O M I C   O R B I T A L   A N D
          N A T U R A L   B O N D   O R B I T A L   A N A L Y S I S
 ******************************Gaussian NBO Version 3.1******************************
       /RESON  / : Allow strongly delocalized NBO set

 Analyzing the SCF density

 Job title: Title Card Required                                             

 Storage needed:     11250 in NPA,     14614 in NBO ( 536870884 available)
 GSVD:  LWork=         720 too small for GESVD, short by        4716 words or        4716 for optimal perf.


 NATURAL POPULATIONS:  Natural atomic orbital occupancies 
                                                          
   NAO  Atom  No  lang   Type(AO)    Occupancy
 --------------------------------------------
     1    P    1  S      Cor( 1S)     2.00000
     2    P    1  S      Cor( 2S)     2.00000
     3    P    1  S      Val( 3S)     1.99818
     4    P    1  S      Ryd( 4S)     0.00055
     5    P    1  S      Ryd( 5S)     0.00000
     6    P    1  S      Ryd( 7S)     0.00000
     7    P    1  S      Ryd( 6S)     0.00000
     8    P    1  px     Cor( 2p)     2.00000
     9    P    1  px     Val( 3p)     0.99996
    10    P    1  px     Ryd( 4p)     0.00003
    11    P    1  px     Ryd( 5p)     0.00000
    12    P    1  px     Ryd( 6p)     0.00000
    13    P    1  px     Ryd( 7p)     0.00000
    14    P    1  py     Cor( 2p)     2.00000
    15    P    1  py     Val( 3p)     0.99996
    16    P    1  py     Ryd( 4p)     0.00003
    17    P    1  py     Ryd( 5p)     0.00000
    18    P    1  py     Ryd( 6p)     0.00000
    19    P    1  py     Ryd( 7p)     0.00000
    20    P    1  pz     Cor( 2p)     2.00000
    21    P    1  pz     Val( 3p)     1.00110
    22    P    1  pz     Ryd( 4p)     0.00013
    23    P    1  pz     Ryd( 5p)     0.00000
    24    P    1  pz     Ryd( 6p)     0.00000
    25    P    1  pz     Ryd( 7p)     0.00000
    26    P    1  dxy    Ryd( 3d)     0.00000
    27    P    1  dxz    Ryd( 3d)     0.00001
    28    P    1  dyz    Ryd( 3d)     0.00001
    29    P    1  dx2y2  Ryd( 3d)     0.00000
    30    P    1  dz2    Ryd( 3d)     0.00004
 
    31    P    2  S      Cor( 1S)     2.00000
    32    P    2  S      Cor( 2S)     2.00000
    33    P    2  S      Val( 3S)     1.99818
    34    P    2  S      Ryd( 4S)     0.00055
    35    P    2  S      Ryd( 5S)     0.00000
    36    P    2  S      Ryd( 7S)     0.00000
    37    P    2  S      Ryd( 6S)     0.00000
    38    P    2  px     Cor( 2p)     2.00000
    39    P    2  px     Val( 3p)     0.99996
    40    P    2  px     Ryd( 4p)     0.00003
    41    P    2  px     Ryd( 5p)     0.00000
    42    P    2  px     Ryd( 6p)     0.00000
    43    P    2  px     Ryd( 7p)     0.00000
    44    P    2  py     Cor( 2p)     2.00000
    45    P    2  py     Val( 3p)     0.99996
    46    P    2  py     Ryd( 4p)     0.00003
    47    P    2  py     Ryd( 5p)     0.00000
    48    P    2  py     Ryd( 6p)     0.00000
    49    P    2  py     Ryd( 7p)     0.00000
    50    P    2  pz     Cor( 2p)     2.00000
    51    P    2  pz     Val( 3p)     1.00110
    52    P    2  pz     Ryd( 4p)     0.00013
    53    P    2  pz     Ryd( 5p)     0.00000
    54    P    2  pz     Ryd( 6p)     0.00000
    55    P    2  pz     Ryd( 7p)     0.00000
    56    P    2  dxy    Ryd( 3d)     0.00000
    57    P    2  dxz    Ryd( 3d)     0.00001
    58    P    2  dyz    Ryd( 3d)     0.00001
    59    P    2  dx2y2  Ryd( 3d)     0.00000
    60    P    2  dz2    Ryd( 3d)     0.00004


 Summary of Natural Population Analysis:                  
                                                          
                                       Natural Population 
                Natural  -----------------------------------------------
    Atom  No    Charge         Core      Valence    Rydberg      Total
 -----------------------------------------------------------------------
      P    1   -0.00000     10.00000     4.99920    0.00080    15.00000
      P    2   -0.00000     10.00000     4.99920    0.00080    15.00000
 =======================================================================
   * Total *   -0.00000     20.00000     9.99840    0.00161    30.00000

                                 Natural Population      
 --------------------------------------------------------
   Core                      20.00000 (100.0000% of  20)
   Valence                    9.99840 ( 99.9840% of  10)
   Natural Minimal Basis     29.99839 ( 99.9946% of  30)
   Natural Rydberg Basis      0.00161 (  0.0054% of  30)
 --------------------------------------------------------

    Atom  No          Natural Electron Configuration
 ----------------------------------------------------------------------------
      P    1      [core]3S( 2.00)3p( 3.00)
      P    2      [core]3S( 2.00)3p( 3.00)


 ***************************************************
 *******         Alpha spin orbitals         *******
 ***************************************************


 NATURAL POPULATIONS:  Natural atomic orbital occupancies 
                                                          
   NAO  Atom  No  lang   Type(AO)    Occupancy      Energy
 ----------------------------------------------------------
     1    P    1  S      Cor( 1S)     1.00000     -77.84646
     2    P    1  S      Cor( 2S)     1.00000      -7.17748
     3    P    1  S      Val( 3S)     0.99909      -0.65953
     4    P    1  S      Ryd( 4S)     0.00028       0.10146
     5    P    1  S      Ryd( 5S)     0.00000       0.85199
     6    P    1  S      Ryd( 7S)     0.00000     160.86516
     7    P    1  S      Ryd( 6S)     0.00000       8.43457
     8    P    1  px     Cor( 2p)     1.00000      -5.04530
     9    P    1  px     Val( 3p)     0.49998      -0.21280
    10    P    1  px     Ryd( 4p)     0.00001       0.08740
    11    P    1  px     Ryd( 5p)     0.00000       0.33504
    12    P    1  px     Ryd( 6p)     0.00000       1.51215
    13    P    1  px     Ryd( 7p)     0.00000      13.87772
    14    P    1  py     Cor( 2p)     1.00000      -5.04530
    15    P    1  py     Val( 3p)     0.49998      -0.21280
    16    P    1  py     Ryd( 4p)     0.00001       0.08740
    17    P    1  py     Ryd( 5p)     0.00000       0.33504
    18    P    1  py     Ryd( 6p)     0.00000       1.51215
    19    P    1  py     Ryd( 7p)     0.00000      13.87772
    20    P    1  pz     Cor( 2p)     1.00000      -5.04542
    21    P    1  pz     Val( 3p)     0.50055      -0.21226
    22    P    1  pz     Ryd( 4p)     0.00006       0.08995
    23    P    1  pz     Ryd( 5p)     0.00000       0.32771
    24    P    1  pz     Ryd( 6p)     0.00000       1.51275
    25    P    1  pz     Ryd( 7p)     0.00000      13.88097
    26    P    1  dxy    Ryd( 3d)     0.00000       0.68722
    27    P    1  dxz    Ryd( 3d)     0.00000       0.68797
    28    P    1  dyz    Ryd( 3d)     0.00000       0.68797
    29    P    1  dx2y2  Ryd( 3d)     0.00000       0.68722
    30    P    1  dz2    Ryd( 3d)     0.00002       0.68988
 
    31    P    2  S      Cor( 1S)     1.00000     -77.84646
    32    P    2  S      Cor( 2S)     1.00000      -7.17748
    33    P    2  S      Val( 3S)     0.99909      -0.65953
    34    P    2  S      Ryd( 4S)     0.00028       0.10146
    35    P    2  S      Ryd( 5S)     0.00000       0.85199
    36    P    2  S      Ryd( 7S)     0.00000     160.86516
    37    P    2  S      Ryd( 6S)     0.00000       8.43457
    38    P    2  px     Cor( 2p)     1.00000      -5.04530
    39    P    2  px     Val( 3p)     0.49998      -0.21280
    40    P    2  px     Ryd( 4p)     0.00001       0.08740
    41    P    2  px     Ryd( 5p)     0.00000       0.33504
    42    P    2  px     Ryd( 6p)     0.00000       1.51215
    43    P    2  px     Ryd( 7p)     0.00000      13.87772
    44    P    2  py     Cor( 2p)     1.00000      -5.04530
    45    P    2  py     Val( 3p)     0.49998      -0.21280
    46    P    2  py     Ryd( 4p)     0.00001       0.08740
    47    P    2  py     Ryd( 5p)     0.00000       0.33504
    48    P    2  py     Ryd( 6p)     0.00000       1.51215
    49    P    2  py     Ryd( 7p)     0.00000      13.87772
    50    P    2  pz     Cor( 2p)     1.00000      -5.04542
    51    P    2  pz     Val( 3p)     0.50055      -0.21226
    52    P    2  pz     Ryd( 4p)     0.00006       0.08995
    53    P    2  pz     Ryd( 5p)     0.00000       0.32771
    54    P    2  pz     Ryd( 6p)     0.00000       1.51275
    55    P    2  pz     Ryd( 7p)     0.00000      13.88097
    56    P    2  dxy    Ryd( 3d)     0.00000       0.68722
    57    P    2  dxz    Ryd( 3d)     0.00000       0.68797
    58    P    2  dyz    Ryd( 3d)     0.00000       0.68797
    59    P    2  dx2y2  Ryd( 3d)     0.00000       0.68722
    60    P    2  dz2    Ryd( 3d)     0.00002       0.68988


 Summary of Natural Population Analysis:                  
                                                          
                                       Natural Population 
                Natural  -----------------------------------------------
    Atom  No    Charge         Core      Valence    Rydberg      Total
 -----------------------------------------------------------------------
      P    1   -0.00000      5.00000     2.49960    0.00040     7.50000
      P    2   -0.00000      5.00000     2.49960    0.00040     7.50000
 =======================================================================
   * Total *   -0.00000     10.00000     4.99920    0.00080    15.00000

                                 Natural Population      
 --------------------------------------------------------
   Core                      10.00000 (100.0000% of  10)
   Valence                    4.99920 ( 99.9840% of   5)
   Natural Minimal Basis     14.99920 ( 99.9946% of  15)
   Natural Rydberg Basis      0.00080 (  0.0054% of  15)
 --------------------------------------------------------

    Atom  No          Natural Electron Configuration
 ----------------------------------------------------------------------------
      P    1      [core]3S( 1.00)3p( 1.50)
      P    2      [core]3S( 1.00)3p( 1.50)


 NATURAL BOND ORBITAL ANALYSIS, alpha spin orbitals:

                       Occupancies       Lewis Structure    Low   High
           Occ.    -------------------  -----------------   occ   occ
  Cycle   Thresh.   Lewis   Non-Lewis     CR  BD  3C  LP    (L)   (NL)   Dev
 =============================================================================
   1(1)    0.90    14.99995   0.00005     10   3   0   2     0      0    0.00
 -----------------------------------------------------------------------------

 Structure accepted: No low occupancy Lewis orbitals

 --------------------------------------------------------
   Core                     10.00000 (100.000% of  10)
   Valence Lewis             4.99996 ( 99.999% of   5)
  ==================       ============================
   Total Lewis              14.99995 (100.000% of  15)
  -----------------------------------------------------
   Valence non-Lewis         0.00000 (  0.000% of  15)
   Rydberg non-Lewis         0.00005 (  0.000% of  15)
  ==================       ============================
   Total non-Lewis           0.00005 (  0.000% of  15)
 --------------------------------------------------------


       (Occupancy)   Bond orbital/ Coefficients/ Hybrids
 ---------------------------------------------------------------------------------
     1. (1.00000) BD ( 1) P   1 - P   2  
                ( 50.00%)   0.7071* P   1 s(  0.23%)p99.99( 99.77%)d 0.02(  0.00%)
                                           -0.0000 -0.0000 -0.0421 -0.0229 -0.0004
                                           -0.0000 -0.0000  0.0000  0.0000  0.0000
                                            0.0000  0.0000  0.0000  0.0000  0.0000
                                            0.0000  0.0000  0.0000  0.0000  0.0000
                                            0.9988  0.0107 -0.0003  0.0001 -0.0000
                                            0.0000  0.0000  0.0000  0.0000 -0.0062
                ( 50.00%)   0.7071* P   2 s(  0.23%)p99.99( 99.77%)d 0.02(  0.00%)
                                            0.0000 -0.0000 -0.0421 -0.0229 -0.0004
                                           -0.0000 -0.0000  0.0000  0.0000  0.0000
                                            0.0000  0.0000  0.0000  0.0000  0.0000
                                            0.0000  0.0000  0.0000  0.0000 -0.0000
                                           -0.9988 -0.0107  0.0003 -0.0001  0.0000
                                            0.0000  0.0000  0.0000  0.0000 -0.0062
     2. (1.00000) BD ( 2) P   1 - P   2  
                ( 50.00%)   0.7071* P   1 s(  0.00%)p 1.00(100.00%)d 0.00(  0.00%)
                                            0.0000  0.0000  0.0000  0.0000  0.0000
                                            0.0000  0.0000 -0.0000  1.0000 -0.0053
                                            0.0002 -0.0000 -0.0000  0.0000  0.0000
                                            0.0000  0.0000  0.0000  0.0000  0.0000
                                            0.0000  0.0000  0.0000  0.0000  0.0000
                                            0.0000 -0.0031  0.0000  0.0000  0.0000
                ( 50.00%)   0.7071* P   2 s(  0.00%)p 1.00(100.00%)d 0.00(  0.00%)
                                            0.0000  0.0000  0.0000  0.0000  0.0000
                                            0.0000  0.0000 -0.0000  1.0000 -0.0053
                                            0.0002 -0.0000 -0.0000  0.0000  0.0000
                                            0.0000  0.0000  0.0000  0.0000  0.0000
                                            0.0000  0.0000  0.0000  0.0000  0.0000
                                            0.0000  0.0031  0.0000  0.0000  0.0000
     3. (1.00000) BD ( 3) P   1 - P   2  
                ( 50.00%)   0.7071* P   1 s(  0.00%)p 1.00(100.00%)d 0.00(  0.00%)
                                            0.0000  0.0000  0.0000  0.0000  0.0000
                                            0.0000  0.0000  0.0000  0.0000  0.0000
                                            0.0000  0.0000  0.0000 -0.0000  1.0000
                                           -0.0053  0.0002 -0.0000 -0.0000  0.0000
                                            0.0000  0.0000  0.0000  0.0000  0.0000
                                            0.0000  0.0000 -0.0031  0.0000  0.0000
                ( 50.00%)   0.7071* P   2 s(  0.00%)p 1.00(100.00%)d 0.00(  0.00%)
                                            0.0000  0.0000  0.0000  0.0000  0.0000
                                            0.0000  0.0000  0.0000  0.0000  0.0000
                                            0.0000  0.0000  0.0000 -0.0000  1.0000
                                           -0.0053  0.0002 -0.0000 -0.0000  0.0000
                                            0.0000  0.0000  0.0000  0.0000  0.0000
                                            0.0000  0.0000  0.0031  0.0000  0.0000
     4. (1.00000) CR ( 1) P   1           s(100.00%)
                                            1.0000 -0.0000 -0.0000  0.0000  0.0000
                                            0.0000  0.0000  0.0000  0.0000  0.0000
                                            0.0000  0.0000  0.0000  0.0000  0.0000
                                            0.0000  0.0000  0.0000  0.0000 -0.0000
                                           -0.0000  0.0000 -0.0000 -0.0000 -0.0000
                                            0.0000  0.0000  0.0000  0.0000  0.0000
     5. (1.00000) CR ( 2) P   1           s(100.00%)
                                           -0.0000  1.0000 -0.0000  0.0000  0.0000
                                            0.0000  0.0000  0.0000  0.0000  0.0000
                                            0.0000  0.0000  0.0000  0.0000  0.0000
                                            0.0000  0.0000  0.0000  0.0000 -0.0000
                                           -0.0000  0.0000 -0.0000 -0.0000 -0.0000
                                            0.0000  0.0000  0.0000  0.0000  0.0000
     6. (1.00000) CR ( 3) P   1           s(  0.00%)p 1.00(100.00%)
                                            0.0000  0.0000  0.0000  0.0000  0.0000
                                            0.0000  0.0000  1.0000  0.0000  0.0000
                                            0.0000  0.0000  0.0000  0.0000  0.0000
                                            0.0000  0.0000  0.0000  0.0000  0.0000
                                            0.0000  0.0000  0.0000  0.0000  0.0000
                                            0.0000  0.0000  0.0000  0.0000  0.0000
     7. (1.00000) CR ( 4) P   1           s(  0.00%)p 1.00(100.00%)
                                            0.0000  0.0000  0.0000  0.0000  0.0000
                                            0.0000  0.0000  0.0000  0.0000  0.0000
                                            0.0000  0.0000  0.0000  1.0000  0.0000
                                            0.0000  0.0000  0.0000  0.0000  0.0000
                                            0.0000  0.0000  0.0000  0.0000  0.0000
                                            0.0000  0.0000  0.0000  0.0000  0.0000
     8. (1.00000) CR ( 5) P   1           s(  0.00%)p 1.00(100.00%)
                                           -0.0000 -0.0000 -0.0000  0.0000  0.0000
                                            0.0000  0.0000  0.0000  0.0000  0.0000
                                            0.0000  0.0000  0.0000  0.0000  0.0000
                                            0.0000  0.0000  0.0000  0.0000  1.0000
                                           -0.0000  0.0000 -0.0000 -0.0000 -0.0000
                                            0.0000  0.0000  0.0000  0.0000  0.0000
     9. (1.00000) CR ( 1) P   2           s(100.00%)
                                            1.0000 -0.0000 -0.0000  0.0000  0.0000
                                            0.0000  0.0000  0.0000  0.0000  0.0000
                                            0.0000  0.0000  0.0000  0.0000  0.0000
                                            0.0000  0.0000  0.0000  0.0000  0.0000
                                            0.0000 -0.0000  0.0000  0.0000  0.0000
                                            0.0000  0.0000  0.0000  0.0000  0.0000
    10. (1.00000) CR ( 2) P   2           s(100.00%)
                                           -0.0000  1.0000 -0.0000  0.0000  0.0000
                                            0.0000  0.0000  0.0000  0.0000  0.0000
                                            0.0000  0.0000  0.0000  0.0000  0.0000
                                            0.0000  0.0000  0.0000  0.0000  0.0000
                                            0.0000 -0.0000  0.0000  0.0000  0.0000
                                            0.0000  0.0000  0.0000  0.0000  0.0000
    11. (1.00000) CR ( 3) P   2           s(  0.00%)p 1.00(100.00%)
                                            0.0000  0.0000  0.0000  0.0000  0.0000
                                            0.0000  0.0000  1.0000  0.0000  0.0000
                                            0.0000  0.0000  0.0000  0.0000  0.0000
                                            0.0000  0.0000  0.0000  0.0000  0.0000
                                            0.0000  0.0000  0.0000  0.0000  0.0000
                                            0.0000  0.0000  0.0000  0.0000  0.0000
    12. (1.00000) CR ( 4) P   2           s(  0.00%)p 1.00(100.00%)
                                            0.0000  0.0000  0.0000  0.0000  0.0000
                                            0.0000  0.0000  0.0000  0.0000  0.0000
                                            0.0000  0.0000  0.0000  1.0000  0.0000
                                            0.0000  0.0000  0.0000  0.0000  0.0000
                                            0.0000  0.0000  0.0000  0.0000  0.0000
                                            0.0000  0.0000  0.0000  0.0000  0.0000
    13. (1.00000) CR ( 5) P   2           s(  0.00%)p 1.00(100.00%)
                                            0.0000  0.0000  0.0000 -0.0000 -0.0000
                                           -0.0000 -0.0000  0.0000  0.0000  0.0000
                                            0.0000  0.0000  0.0000  0.0000  0.0000
                                            0.0000  0.0000  0.0000  0.0000  1.0000
                                           -0.0000  0.0000 -0.0000 -0.0000 -0.0000
                                            0.0000  0.0000  0.0000  0.0000 -0.0000
    14. (0.99998) LP ( 1) P   1           s( 99.82%)p 0.00(  0.18%)d 0.00(  0.00%)
                                            0.0000  0.0000  0.9991 -0.0005 -0.0000
                                           -0.0000 -0.0000  0.0000  0.0000  0.0000
                                            0.0000  0.0000  0.0000  0.0000  0.0000
                                            0.0000  0.0000  0.0000  0.0000  0.0000
                                            0.0421 -0.0009  0.0001  0.0001  0.0001
                                            0.0000  0.0000  0.0000  0.0000 -0.0003
    15. (0.99998) LP ( 1) P   2           s( 99.82%)p 0.00(  0.18%)d 0.00(  0.00%)
                                            0.0000  0.0000  0.9991 -0.0005 -0.0000
                                           -0.0000 -0.0000  0.0000  0.0000  0.0000
                                            0.0000  0.0000  0.0000  0.0000  0.0000
                                            0.0000  0.0000  0.0000  0.0000 -0.0000
                                           -0.0421  0.0009 -0.0001 -0.0001 -0.0001
                                            0.0000  0.0000  0.0000  0.0000 -0.0003
    16. (0.00002) RY*( 1) P   1           s( 66.21%)p 0.50( 32.92%)d 0.01(  0.88%)
    17. (0.00000) RY*( 2) P   1           s( 99.99%)p 0.00(  0.01%)d 0.00(  0.00%)
    18. (0.00000) RY*( 3) P   1           s(100.00%)
    19. (0.00000) RY*( 4) P   1           s(100.00%)p 0.00(  0.00%)
    20. (0.00000) RY*( 5) P   1           s(  0.00%)p 1.00(100.00%)
    21. (0.00000) RY*( 6) P   1           s(  0.00%)p 1.00(100.00%)
    22. (0.00000) RY*( 7) P   1           s(  0.00%)p 1.00(100.00%)
    23. (0.00000) RY*( 8) P   1           s(  0.00%)p 1.00(100.00%)
    24. (0.00000) RY*( 9) P   1           s(  0.00%)p 1.00(100.00%)
    25. (0.00000) RY*(10) P   1           s(  0.00%)p 1.00(100.00%)
    26. (0.00000) RY*(11) P   1           s(  0.00%)p 1.00(100.00%)
    27. (0.00000) RY*(12) P   1           s(  0.00%)p 1.00(100.00%)
    28. (0.00000) RY*(13) P   1           s( 24.99%)p 2.99( 74.68%)d 0.01(  0.33%)
    29. (0.00000) RY*(14) P   1           s(  7.25%)p12.80( 92.75%)d 0.00(  0.00%)
    30. (0.00000) RY*(15) P   1           s(  0.39%)p99.99( 99.61%)
    31. (0.00000) RY*(16) P   1           s(  0.00%)p 1.00(100.00%)d 0.00(  0.00%)
    32. (0.00000) RY*(17) P   1           s(  0.00%)p 0.00(  0.00%)d 1.00(100.00%)
    33. (0.00000) RY*(18) P   1           s(  0.00%)p 0.00(  0.00%)d 1.00(100.00%)
    34. (0.00000) RY*(19) P   1           s(  0.00%)p 0.00(  0.00%)d 1.00(100.00%)
    35. (0.00000) RY*(20) P   1           s(  0.00%)p 0.00(  0.00%)d 1.00(100.00%)
    36. (0.00000) RY*(21) P   1           s(  1.11%)p 0.08(  0.09%)d88.61( 98.79%)
    37. (0.00002) RY*( 1) P   2           s( 66.21%)p 0.50( 32.92%)d 0.01(  0.88%)
    38. (0.00000) RY*( 2) P   2           s( 99.99%)p 0.00(  0.01%)d 0.00(  0.00%)
    39. (0.00000) RY*( 3) P   2           s(100.00%)
    40. (0.00000) RY*( 4) P   2           s(100.00%)p 0.00(  0.00%)
    41. (0.00000) RY*( 5) P   2           s(  0.00%)p 1.00(100.00%)
    42. (0.00000) RY*( 6) P   2           s(  0.00%)p 1.00(100.00%)
    43. (0.00000) RY*( 7) P   2           s(  0.00%)p 1.00(100.00%)
    44. (0.00000) RY*( 8) P   2           s(  0.00%)p 1.00(100.00%)
    45. (0.00000) RY*( 9) P   2           s(  0.00%)p 1.00(100.00%)
    46. (0.00000) RY*(10) P   2           s(  0.00%)p 1.00(100.00%)
    47. (0.00000) RY*(11) P   2           s(  0.00%)p 1.00(100.00%)
    48. (0.00000) RY*(12) P   2           s(  0.00%)p 1.00(100.00%)
    49. (0.00000) RY*(13) P   2           s( 24.99%)p 2.99( 74.68%)d 0.01(  0.33%)
    50. (0.00000) RY*(14) P   2           s(  7.25%)p12.80( 92.75%)d 0.00(  0.00%)
    51. (0.00000) RY*(15) P   2           s(  0.39%)p99.99( 99.61%)
    52. (0.00000) RY*(16) P   2           s(  0.00%)p 1.00(100.00%)d 0.00(  0.00%)
    53. (0.00000) RY*(17) P   2           s(  0.00%)p 0.00(  0.00%)d 1.00(100.00%)
    54. (0.00000) RY*(18) P   2           s(  0.00%)p 0.00(  0.00%)d 1.00(100.00%)
    55. (0.00000) RY*(19) P   2           s(  0.00%)p 0.00(  0.00%)d 1.00(100.00%)
    56. (0.00000) RY*(20) P   2           s(  0.00%)p 0.00(  0.00%)d 1.00(100.00%)
    57. (0.00000) RY*(21) P   2           s(  1.11%)p 0.08(  0.09%)d88.61( 98.79%)
    58. (0.00000) BD*( 1) P   1 - P   2  
                ( 50.00%)   0.7071* P   1 s(  0.23%)p99.99( 99.77%)d 0.02(  0.00%)
                ( 50.00%)  -0.7071* P   2 s(  0.23%)p99.99( 99.77%)d 0.02(  0.00%)
    59. (0.00000) BD*( 2) P   1 - P   2  
                ( 50.00%)   0.7071* P   1 s(  0.00%)p 1.00(100.00%)d 0.00(  0.00%)
                ( 50.00%)  -0.7071* P   2 s(  0.00%)p 1.00(100.00%)d 0.00(  0.00%)
    60. (0.00000) BD*( 3) P   1 - P   2  
                ( 50.00%)   0.7071* P   1 s(  0.00%)p 1.00(100.00%)d 0.00(  0.00%)
                ( 50.00%)  -0.7071* P   2 s(  0.00%)p 1.00(100.00%)d 0.00(  0.00%)


 NHO Directionality and "Bond Bending" (deviations from line of nuclear centers)

         [Thresholds for printing:  angular deviation  >  1.0 degree]
                                    hybrid p-character > 25.0%
                                    orbital occupancy  >  0.10e

                                Line of Centers        Hybrid 1              Hybrid 2
                                ---------------  -------------------   ------------------
                NBO               Theta   Phi    Theta   Phi    Dev    Theta   Phi    Dev
 ========================================================================================
     2. BD (   2) P   1 - P   2   180.0    0.0    90.0    0.0  90.0     90.0    0.0  90.0
     3. BD (   3) P   1 - P   2   180.0    0.0    90.0   90.0  90.0     90.0   90.0  90.0


 Second Order Perturbation Theory Analysis of Fock Matrix in NBO Basis

     Threshold for printing:   0.25 kcal/mol
                                                                              E(2)  E(j)-E(i) F(i,j)
         Donor NBO (i)                     Acceptor NBO (j)                 kcal/mol   a.u.    a.u. 
 ===================================================================================================

 within unit  1
       None above threshold


 Natural Bond Orbitals (Summary):

                                                            Principal Delocalizations
           NBO                        Occupancy    Energy   (geminal,vicinal,remote)
 ====================================================================================
 Molecular unit  1  (P2)
     1. BD (   1) P   1 - P   2          1.00000    -0.25488   
     2. BD (   2) P   1 - P   2          1.00000    -0.24403   
     3. BD (   3) P   1 - P   2          1.00000    -0.24403   
     4. CR (   1) P   1                  1.00000   -77.84646   
     5. CR (   2) P   1                  1.00000    -7.17748   
     6. CR (   3) P   1                  1.00000    -5.04530   
     7. CR (   4) P   1                  1.00000    -5.04530   
     8. CR (   5) P   1                  1.00000    -5.04542   
     9. CR (   1) P   2                  1.00000   -77.84646   
    10. CR (   2) P   2                  1.00000    -7.17748   
    11. CR (   3) P   2                  1.00000    -5.04530   
    12. CR (   4) P   2                  1.00000    -5.04530   
    13. CR (   5) P   2                  1.00000    -5.04542   
    14. LP (   1) P   1                  0.99998    -0.65914   
    15. LP (   1) P   2                  0.99998    -0.65914   
    16. RY*(   1) P   1                  0.00002     0.13268   
    17. RY*(   2) P   1                  0.00000     0.81853   
    18. RY*(   3) P   1                  0.00000   160.86493   
    19. RY*(   4) P   1                  0.00000     8.43430   
    20. RY*(   5) P   1                  0.00000     0.08735   
    21. RY*(   6) P   1                  0.00000     0.33504   
    22. RY*(   7) P   1                  0.00000     1.51215   
    23. RY*(   8) P   1                  0.00000    13.87772   
    24. RY*(   9) P   1                  0.00000     0.08735   
    25. RY*(  10) P   1                  0.00000     0.33504   
    26. RY*(  11) P   1                  0.00000     1.51215   
    27. RY*(  12) P   1                  0.00000    13.87772   
    28. RY*(  13) P   1                  0.00000     0.10620   
    29. RY*(  14) P   1                  0.00000     0.32879   
    30. RY*(  15) P   1                  0.00000     1.50758   
    31. RY*(  16) P   1                  0.00000    13.88141   
    32. RY*(  17) P   1                  0.00000     0.68722   
    33. RY*(  18) P   1                  0.00000     0.68796   
    34. RY*(  19) P   1                  0.00000     0.68796   
    35. RY*(  20) P   1                  0.00000     0.68722   
    36. RY*(  21) P   1                  0.00000     0.67999   
    37. RY*(   1) P   2                  0.00002     0.13268   
    38. RY*(   2) P   2                  0.00000     0.81853   
    39. RY*(   3) P   2                  0.00000   160.86493   
    40. RY*(   4) P   2                  0.00000     8.43430   
    41. RY*(   5) P   2                  0.00000     0.08735   
    42. RY*(   6) P   2                  0.00000     0.33504   
    43. RY*(   7) P   2                  0.00000     1.51215   
    44. RY*(   8) P   2                  0.00000    13.87772   
    45. RY*(   9) P   2                  0.00000     0.08735   
    46. RY*(  10) P   2                  0.00000     0.33504   
    47. RY*(  11) P   2                  0.00000     1.51215   
    48. RY*(  12) P   2                  0.00000    13.87772   
    49. RY*(  13) P   2                  0.00000     0.10620   
    50. RY*(  14) P   2                  0.00000     0.32879   
    51. RY*(  15) P   2                  0.00000     1.50758   
    52. RY*(  16) P   2                  0.00000    13.88141   
    53. RY*(  17) P   2                  0.00000     0.68722   
    54. RY*(  18) P   2                  0.00000     0.68796   
    55. RY*(  19) P   2                  0.00000     0.68796   
    56. RY*(  20) P   2                  0.00000     0.68722   
    57. RY*(  21) P   2                  0.00000     0.67999   
    58. BD*(   1) P   1 - P   2          0.00000    -0.17035   
    59. BD*(   2) P   1 - P   2          0.00000    -0.18146   
    60. BD*(   3) P   1 - P   2          0.00000    -0.18146   
       -------------------------------
              Total Lewis   14.99995  ( 99.9997%)
        Valence non-Lewis    0.00000  (  0.0000%)
        Rydberg non-Lewis    0.00005  (  0.0003%)
       -------------------------------
            Total unit  1   15.00000  (100.0000%)
           Charge unit  1    0.00000
 Sorting of NBOs:                    9    4    5   10   13    8   11   12    6    7
 Sorting of NBOs:                   14   15    1    3    2   60   59   58   24   20
 Sorting of NBOs:                   45   41   28   49   37   16   50   29   25   21
 Sorting of NBOs:                   46   42   57   36   32   53   56   35   55   33
 Sorting of NBOs:                   34   54   38   17   30   51   22   26   47   43
 Sorting of NBOs:                   19   40   44   48   27   23   52   31   39   18
 Reordering of NBOs for storage:     9    4    5   10   13    8   11   12    6    7
 Reordering of NBOs for storage:    14   15    1    3    2   60   59   58   24   20
 Reordering of NBOs for storage:    45   41   28   49   37   16   50   29   25   21
 Reordering of NBOs for storage:    46   42   57   36   32   53   56   35   55   33
 Reordering of NBOs for storage:    34   54   38   17   30   51   22   26   47   43
 Reordering of NBOs for storage:    19   40   44   48   27   23   52   31   39   18
 Labels of output orbitals:  CR  CR  CR  CR  CR  CR  CR  CR  CR  CR  LP  LP  BD  BD  BD  BD* BD* BD* RY* RY* 
 Labels of output orbitals:  RY* RY* RY* RY* RY* RY* RY* RY* RY* RY* RY* RY* RY* RY* RY* RY* RY* RY* RY* RY* 
 Labels of output orbitals:  RY* RY* RY* RY* RY* RY* RY* RY* RY* RY* RY* RY* RY* RY* RY* RY* RY* RY* RY* RY* 
 GSVD:  LWork=       -2385 too small for GESVD, short by       10800 words or       10800 for optimal perf.


 ***************************************************
 *******         Beta  spin orbitals         *******
 ***************************************************


 NATURAL POPULATIONS:  Natural atomic orbital occupancies 
                                                          
   NAO  Atom  No  lang   Type(AO)    Occupancy      Energy
 ----------------------------------------------------------
     1    P    1  S      Cor( 1S)     1.00000     -77.84646
     2    P    1  S      Cor( 2S)     1.00000      -7.17748
     3    P    1  S      Val( 3S)     0.99909      -0.65953
     4    P    1  S      Ryd( 4S)     0.00028       0.10146
     5    P    1  S      Ryd( 5S)     0.00000       0.85199
     6    P    1  S      Ryd( 7S)     0.00000     160.86516
     7    P    1  S      Ryd( 6S)     0.00000       8.43457
     8    P    1  px     Cor( 2p)     1.00000      -5.04530
     9    P    1  px     Val( 3p)     0.49998      -0.21280
    10    P    1  px     Ryd( 4p)     0.00001       0.08740
    11    P    1  px     Ryd( 5p)     0.00000       0.33504
    12    P    1  px     Ryd( 6p)     0.00000       1.51215
    13    P    1  px     Ryd( 7p)     0.00000      13.87772
    14    P    1  py     Cor( 2p)     1.00000      -5.04530
    15    P    1  py     Val( 3p)     0.49998      -0.21280
    16    P    1  py     Ryd( 4p)     0.00001       0.08740
    17    P    1  py     Ryd( 5p)     0.00000       0.33504
    18    P    1  py     Ryd( 6p)     0.00000       1.51215
    19    P    1  py     Ryd( 7p)     0.00000      13.87772
    20    P    1  pz     Cor( 2p)     1.00000      -5.04542
    21    P    1  pz     Val( 3p)     0.50055      -0.21226
    22    P    1  pz     Ryd( 4p)     0.00006       0.08995
    23    P    1  pz     Ryd( 5p)     0.00000       0.32771
    24    P    1  pz     Ryd( 6p)     0.00000       1.51275
    25    P    1  pz     Ryd( 7p)     0.00000      13.88097
    26    P    1  dxy    Ryd( 3d)     0.00000       0.68722
    27    P    1  dxz    Ryd( 3d)     0.00000       0.68797
    28    P    1  dyz    Ryd( 3d)     0.00000       0.68797
    29    P    1  dx2y2  Ryd( 3d)     0.00000       0.68722
    30    P    1  dz2    Ryd( 3d)     0.00002       0.68988
 
    31    P    2  S      Cor( 1S)     1.00000     -77.84646
    32    P    2  S      Cor( 2S)     1.00000      -7.17748
    33    P    2  S      Val( 3S)     0.99909      -0.65953
    34    P    2  S      Ryd( 4S)     0.00028       0.10146
    35    P    2  S      Ryd( 5S)     0.00000       0.85199
    36    P    2  S      Ryd( 7S)     0.00000     160.86516
    37    P    2  S      Ryd( 6S)     0.00000       8.43457
    38    P    2  px     Cor( 2p)     1.00000      -5.04530
    39    P    2  px     Val( 3p)     0.49998      -0.21280
    40    P    2  px     Ryd( 4p)     0.00001       0.08740
    41    P    2  px     Ryd( 5p)     0.00000       0.33504
    42    P    2  px     Ryd( 6p)     0.00000       1.51215
    43    P    2  px     Ryd( 7p)     0.00000      13.87772
    44    P    2  py     Cor( 2p)     1.00000      -5.04530
    45    P    2  py     Val( 3p)     0.49998      -0.21280
    46    P    2  py     Ryd( 4p)     0.00001       0.08740
    47    P    2  py     Ryd( 5p)     0.00000       0.33504
    48    P    2  py     Ryd( 6p)     0.00000       1.51215
    49    P    2  py     Ryd( 7p)     0.00000      13.87772
    50    P    2  pz     Cor( 2p)     1.00000      -5.04542
    51    P    2  pz     Val( 3p)     0.50055      -0.21226
    52    P    2  pz     Ryd( 4p)     0.00006       0.08995
    53    P    2  pz     Ryd( 5p)     0.00000       0.32771
    54    P    2  pz     Ryd( 6p)     0.00000       1.51275
    55    P    2  pz     Ryd( 7p)     0.00000      13.88097
    56    P    2  dxy    Ryd( 3d)     0.00000       0.68722
    57    P    2  dxz    Ryd( 3d)     0.00000       0.68797
    58    P    2  dyz    Ryd( 3d)     0.00000       0.68797
    59    P    2  dx2y2  Ryd( 3d)     0.00000       0.68722
    60    P    2  dz2    Ryd( 3d)     0.00002       0.68988


 Summary of Natural Population Analysis:                  
                                                          
                                       Natural Population 
                Natural  -----------------------------------------------
    Atom  No    Charge         Core      Valence    Rydberg      Total
 -----------------------------------------------------------------------
      P    1   -0.00000      5.00000     2.49960    0.00040     7.50000
      P    2   -0.00000      5.00000     2.49960    0.00040     7.50000
 =======================================================================
   * Total *   -0.00000     10.00000     4.99920    0.00080    15.00000

                                 Natural Population      
 --------------------------------------------------------
   Core                      10.00000 (100.0000% of  10)
   Valence                    4.99920 ( 99.9840% of   5)
   Natural Minimal Basis     14.99920 ( 99.9946% of  15)
   Natural Rydberg Basis      0.00080 (  0.0054% of  15)
 --------------------------------------------------------

    Atom  No          Natural Electron Configuration
 ----------------------------------------------------------------------------
      P    1      [core]3S( 1.00)3p( 1.50)
      P    2      [core]3S( 1.00)3p( 1.50)


 NATURAL BOND ORBITAL ANALYSIS, beta spin orbitals:

                       Occupancies       Lewis Structure    Low   High
           Occ.    -------------------  -----------------   occ   occ
  Cycle   Thresh.   Lewis   Non-Lewis     CR  BD  3C  LP    (L)   (NL)   Dev
 =============================================================================
   1(1)    0.90    14.99995   0.00005     10   3   0   2     0      0    0.00
 -----------------------------------------------------------------------------

 Structure accepted: No low occupancy Lewis orbitals

 --------------------------------------------------------
   Core                     10.00000 (100.000% of  10)
   Valence Lewis             4.99996 ( 99.999% of   5)
  ==================       ============================
   Total Lewis              14.99995 (100.000% of  15)
  -----------------------------------------------------
   Valence non-Lewis         0.00000 (  0.000% of  15)
   Rydberg non-Lewis         0.00005 (  0.000% of  15)
  ==================       ============================
   Total non-Lewis           0.00005 (  0.000% of  15)
 --------------------------------------------------------


       (Occupancy)   Bond orbital/ Coefficients/ Hybrids
 ---------------------------------------------------------------------------------
     1. (1.00000) BD ( 1) P   1 - P   2  
                ( 50.00%)   0.7071* P   1 s(  0.23%)p99.99( 99.77%)d 0.02(  0.00%)
                                           -0.0000 -0.0000 -0.0421 -0.0229 -0.0004
                                           -0.0000 -0.0000  0.0000  0.0000  0.0000
                                            0.0000  0.0000  0.0000  0.0000  0.0000
                                            0.0000  0.0000  0.0000  0.0000  0.0000
                                            0.9988  0.0107 -0.0003  0.0001 -0.0000
                                            0.0000  0.0000  0.0000  0.0000 -0.0062
                ( 50.00%)   0.7071* P   2 s(  0.23%)p99.99( 99.77%)d 0.02(  0.00%)
                                            0.0000 -0.0000 -0.0421 -0.0229 -0.0004
                                           -0.0000 -0.0000  0.0000  0.0000  0.0000
                                            0.0000  0.0000  0.0000  0.0000  0.0000
                                            0.0000  0.0000  0.0000  0.0000 -0.0000
                                           -0.9988 -0.0107  0.0003 -0.0001  0.0000
                                            0.0000  0.0000  0.0000  0.0000 -0.0062
     2. (1.00000) BD ( 2) P   1 - P   2  
                ( 50.00%)   0.7071* P   1 s(  0.00%)p 1.00(100.00%)d 0.00(  0.00%)
                                            0.0000  0.0000  0.0000  0.0000  0.0000
                                            0.0000  0.0000 -0.0000  1.0000 -0.0053
                                            0.0002 -0.0000 -0.0000  0.0000  0.0000
                                            0.0000  0.0000  0.0000  0.0000  0.0000
                                            0.0000  0.0000  0.0000  0.0000  0.0000
                                            0.0000 -0.0031  0.0000  0.0000  0.0000
                ( 50.00%)   0.7071* P   2 s(  0.00%)p 1.00(100.00%)d 0.00(  0.00%)
                                            0.0000  0.0000  0.0000  0.0000  0.0000
                                            0.0000  0.0000 -0.0000  1.0000 -0.0053
                                            0.0002 -0.0000 -0.0000  0.0000  0.0000
                                            0.0000  0.0000  0.0000  0.0000  0.0000
                                            0.0000  0.0000  0.0000  0.0000  0.0000
                                            0.0000  0.0031  0.0000  0.0000  0.0000
     3. (1.00000) BD ( 3) P   1 - P   2  
                ( 50.00%)   0.7071* P   1 s(  0.00%)p 1.00(100.00%)d 0.00(  0.00%)
                                            0.0000  0.0000  0.0000  0.0000  0.0000
                                            0.0000  0.0000  0.0000  0.0000  0.0000
                                            0.0000  0.0000  0.0000 -0.0000  1.0000
                                           -0.0053  0.0002 -0.0000 -0.0000  0.0000
                                            0.0000  0.0000  0.0000  0.0000  0.0000
                                            0.0000  0.0000 -0.0031  0.0000  0.0000
                ( 50.00%)   0.7071* P   2 s(  0.00%)p 1.00(100.00%)d 0.00(  0.00%)
                                            0.0000  0.0000  0.0000  0.0000  0.0000
                                            0.0000  0.0000  0.0000  0.0000  0.0000
                                            0.0000  0.0000  0.0000 -0.0000  1.0000
                                           -0.0053  0.0002 -0.0000 -0.0000  0.0000
                                            0.0000  0.0000  0.0000  0.0000  0.0000
                                            0.0000  0.0000  0.0031  0.0000  0.0000
     4. (1.00000) CR ( 1) P   1           s(100.00%)
                                            1.0000 -0.0000 -0.0000  0.0000  0.0000
                                            0.0000  0.0000  0.0000  0.0000  0.0000
                                            0.0000  0.0000  0.0000  0.0000  0.0000
                                            0.0000  0.0000  0.0000  0.0000 -0.0000
                                           -0.0000  0.0000 -0.0000 -0.0000 -0.0000
                                            0.0000  0.0000  0.0000  0.0000  0.0000
     5. (1.00000) CR ( 2) P   1           s(100.00%)
                                           -0.0000  1.0000 -0.0000  0.0000  0.0000
                                            0.0000  0.0000  0.0000  0.0000  0.0000
                                            0.0000  0.0000  0.0000  0.0000  0.0000
                                            0.0000  0.0000  0.0000  0.0000 -0.0000
                                           -0.0000  0.0000 -0.0000 -0.0000 -0.0000
                                            0.0000  0.0000  0.0000  0.0000  0.0000
     6. (1.00000) CR ( 3) P   1           s(  0.00%)p 1.00(100.00%)
                                            0.0000  0.0000  0.0000  0.0000  0.0000
                                            0.0000  0.0000  1.0000  0.0000  0.0000
                                            0.0000  0.0000  0.0000  0.0000  0.0000
                                            0.0000  0.0000  0.0000  0.0000  0.0000
                                            0.0000  0.0000  0.0000  0.0000  0.0000
                                            0.0000  0.0000  0.0000  0.0000  0.0000
     7. (1.00000) CR ( 4) P   1           s(  0.00%)p 1.00(100.00%)
                                            0.0000  0.0000  0.0000  0.0000  0.0000
                                            0.0000  0.0000  0.0000  0.0000  0.0000
                                            0.0000  0.0000  0.0000  1.0000  0.0000
                                            0.0000  0.0000  0.0000  0.0000  0.0000
                                            0.0000  0.0000  0.0000  0.0000  0.0000
                                            0.0000  0.0000  0.0000  0.0000  0.0000
     8. (1.00000) CR ( 5) P   1           s(  0.00%)p 1.00(100.00%)
                                           -0.0000 -0.0000 -0.0000  0.0000  0.0000
                                            0.0000  0.0000  0.0000  0.0000  0.0000
                                            0.0000  0.0000  0.0000  0.0000  0.0000
                                            0.0000  0.0000  0.0000  0.0000  1.0000
                                           -0.0000  0.0000 -0.0000 -0.0000 -0.0000
                                            0.0000  0.0000  0.0000  0.0000  0.0000
     9. (1.00000) CR ( 1) P   2           s(100.00%)
                                            1.0000 -0.0000 -0.0000  0.0000  0.0000
                                            0.0000  0.0000  0.0000  0.0000  0.0000
                                            0.0000  0.0000  0.0000  0.0000  0.0000
                                            0.0000  0.0000  0.0000  0.0000  0.0000
                                            0.0000 -0.0000  0.0000  0.0000  0.0000
                                            0.0000  0.0000  0.0000  0.0000  0.0000
    10. (1.00000) CR ( 2) P   2           s(100.00%)
                                           -0.0000  1.0000 -0.0000  0.0000  0.0000
                                            0.0000  0.0000  0.0000  0.0000  0.0000
                                            0.0000  0.0000  0.0000  0.0000  0.0000
                                            0.0000  0.0000  0.0000  0.0000  0.0000
                                            0.0000 -0.0000  0.0000  0.0000  0.0000
                                            0.0000  0.0000  0.0000  0.0000  0.0000
    11. (1.00000) CR ( 3) P   2           s(  0.00%)p 1.00(100.00%)
                                            0.0000  0.0000  0.0000  0.0000  0.0000
                                            0.0000  0.0000  1.0000  0.0000  0.0000
                                            0.0000  0.0000  0.0000  0.0000  0.0000
                                            0.0000  0.0000  0.0000  0.0000  0.0000
                                            0.0000  0.0000  0.0000  0.0000  0.0000
                                            0.0000  0.0000  0.0000  0.0000  0.0000
    12. (1.00000) CR ( 4) P   2           s(  0.00%)p 1.00(100.00%)
                                            0.0000  0.0000  0.0000  0.0000  0.0000
                                            0.0000  0.0000  0.0000  0.0000  0.0000
                                            0.0000  0.0000  0.0000  1.0000  0.0000
                                            0.0000  0.0000  0.0000  0.0000  0.0000
                                            0.0000  0.0000  0.0000  0.0000  0.0000
                                            0.0000  0.0000  0.0000  0.0000  0.0000
    13. (1.00000) CR ( 5) P   2           s(  0.00%)p 1.00(100.00%)
                                            0.0000  0.0000  0.0000 -0.0000 -0.0000
                                           -0.0000 -0.0000  0.0000  0.0000  0.0000
                                            0.0000  0.0000  0.0000  0.0000  0.0000
                                            0.0000  0.0000  0.0000  0.0000  1.0000
                                           -0.0000  0.0000 -0.0000 -0.0000 -0.0000
                                            0.0000  0.0000  0.0000  0.0000 -0.0000
    14. (0.99998) LP ( 1) P   1           s( 99.82%)p 0.00(  0.18%)d 0.00(  0.00%)
                                            0.0000  0.0000  0.9991 -0.0005 -0.0000
                                           -0.0000 -0.0000  0.0000  0.0000  0.0000
                                            0.0000  0.0000  0.0000  0.0000  0.0000
                                            0.0000  0.0000  0.0000  0.0000  0.0000
                                            0.0421 -0.0009  0.0001  0.0001  0.0001
                                            0.0000  0.0000  0.0000  0.0000 -0.0003
    15. (0.99998) LP ( 1) P   2           s( 99.82%)p 0.00(  0.18%)d 0.00(  0.00%)
                                            0.0000  0.0000  0.9991 -0.0005 -0.0000
                                           -0.0000 -0.0000  0.0000  0.0000  0.0000
                                            0.0000  0.0000  0.0000  0.0000  0.0000
                                            0.0000  0.0000  0.0000  0.0000 -0.0000
                                           -0.0421  0.0009 -0.0001 -0.0001 -0.0001
                                            0.0000  0.0000  0.0000  0.0000 -0.0003
    16. (0.00002) RY*( 1) P   1           s( 66.21%)p 0.50( 32.92%)d 0.01(  0.88%)
    17. (0.00000) RY*( 2) P   1           s( 99.99%)p 0.00(  0.01%)d 0.00(  0.00%)
    18. (0.00000) RY*( 3) P   1           s(100.00%)
    19. (0.00000) RY*( 4) P   1           s(100.00%)p 0.00(  0.00%)
    20. (0.00000) RY*( 5) P   1           s(  0.00%)p 1.00(100.00%)
    21. (0.00000) RY*( 6) P   1           s(  0.00%)p 1.00(100.00%)
    22. (0.00000) RY*( 7) P   1           s(  0.00%)p 1.00(100.00%)
    23. (0.00000) RY*( 8) P   1           s(  0.00%)p 1.00(100.00%)
    24. (0.00000) RY*( 9) P   1           s(  0.00%)p 1.00(100.00%)
    25. (0.00000) RY*(10) P   1           s(  0.00%)p 1.00(100.00%)
    26. (0.00000) RY*(11) P   1           s(  0.00%)p 1.00(100.00%)
    27. (0.00000) RY*(12) P   1           s(  0.00%)p 1.00(100.00%)
    28. (0.00000) RY*(13) P   1           s( 24.99%)p 2.99( 74.68%)d 0.01(  0.33%)
    29. (0.00000) RY*(14) P   1           s(  7.25%)p12.80( 92.75%)d 0.00(  0.00%)
    30. (0.00000) RY*(15) P   1           s(  0.39%)p99.99( 99.61%)
    31. (0.00000) RY*(16) P   1           s(  0.00%)p 1.00(100.00%)d 0.00(  0.00%)
    32. (0.00000) RY*(17) P   1           s(  0.00%)p 0.00(  0.00%)d 1.00(100.00%)
    33. (0.00000) RY*(18) P   1           s(  0.00%)p 0.00(  0.00%)d 1.00(100.00%)
    34. (0.00000) RY*(19) P   1           s(  0.00%)p 0.00(  0.00%)d 1.00(100.00%)
    35. (0.00000) RY*(20) P   1           s(  0.00%)p 0.00(  0.00%)d 1.00(100.00%)
    36. (0.00000) RY*(21) P   1           s(  1.11%)p 0.08(  0.09%)d88.61( 98.79%)
    37. (0.00002) RY*( 1) P   2           s( 66.21%)p 0.50( 32.92%)d 0.01(  0.88%)
    38. (0.00000) RY*( 2) P   2           s( 99.99%)p 0.00(  0.01%)d 0.00(  0.00%)
    39. (0.00000) RY*( 3) P   2           s(100.00%)
    40. (0.00000) RY*( 4) P   2           s(100.00%)p 0.00(  0.00%)
    41. (0.00000) RY*( 5) P   2           s(  0.00%)p 1.00(100.00%)
    42. (0.00000) RY*( 6) P   2           s(  0.00%)p 1.00(100.00%)
    43. (0.00000) RY*( 7) P   2           s(  0.00%)p 1.00(100.00%)
    44. (0.00000) RY*( 8) P   2           s(  0.00%)p 1.00(100.00%)
    45. (0.00000) RY*( 9) P   2           s(  0.00%)p 1.00(100.00%)
    46. (0.00000) RY*(10) P   2           s(  0.00%)p 1.00(100.00%)
    47. (0.00000) RY*(11) P   2           s(  0.00%)p 1.00(100.00%)
    48. (0.00000) RY*(12) P   2           s(  0.00%)p 1.00(100.00%)
    49. (0.00000) RY*(13) P   2           s( 24.99%)p 2.99( 74.68%)d 0.01(  0.33%)
    50. (0.00000) RY*(14) P   2           s(  7.25%)p12.80( 92.75%)d 0.00(  0.00%)
    51. (0.00000) RY*(15) P   2           s(  0.39%)p99.99( 99.61%)
    52. (0.00000) RY*(16) P   2           s(  0.00%)p 1.00(100.00%)d 0.00(  0.00%)
    53. (0.00000) RY*(17) P   2           s(  0.00%)p 0.00(  0.00%)d 1.00(100.00%)
    54. (0.00000) RY*(18) P   2           s(  0.00%)p 0.00(  0.00%)d 1.00(100.00%)
    55. (0.00000) RY*(19) P   2           s(  0.00%)p 0.00(  0.00%)d 1.00(100.00%)
    56. (0.00000) RY*(20) P   2           s(  0.00%)p 0.00(  0.00%)d 1.00(100.00%)
    57. (0.00000) RY*(21) P   2           s(  1.11%)p 0.08(  0.09%)d88.61( 98.79%)
    58. (0.00000) BD*( 1) P   1 - P   2  
                ( 50.00%)   0.7071* P   1 s(  0.23%)p99.99( 99.77%)d 0.02(  0.00%)
                ( 50.00%)  -0.7071* P   2 s(  0.23%)p99.99( 99.77%)d 0.02(  0.00%)
    59. (0.00000) BD*( 2) P   1 - P   2  
                ( 50.00%)   0.7071* P   1 s(  0.00%)p 1.00(100.00%)d 0.00(  0.00%)
                ( 50.00%)  -0.7071* P   2 s(  0.00%)p 1.00(100.00%)d 0.00(  0.00%)
    60. (0.00000) BD*( 3) P   1 - P   2  
                ( 50.00%)   0.7071* P   1 s(  0.00%)p 1.00(100.00%)d 0.00(  0.00%)
                ( 50.00%)  -0.7071* P   2 s(  0.00%)p 1.00(100.00%)d 0.00(  0.00%)


 NHO Directionality and "Bond Bending" (deviations from line of nuclear centers)

         [Thresholds for printing:  angular deviation  >  1.0 degree]
                                    hybrid p-character > 25.0%
                                    orbital occupancy  >  0.10e

                                Line of Centers        Hybrid 1              Hybrid 2
                                ---------------  -------------------   ------------------
                NBO               Theta   Phi    Theta   Phi    Dev    Theta   Phi    Dev
 ========================================================================================
     2. BD (   2) P   1 - P   2   180.0    0.0    90.0    0.0  90.0     90.0    0.0  90.0
     3. BD (   3) P   1 - P   2   180.0    0.0    90.0   90.0  90.0     90.0   90.0  90.0


 Second Order Perturbation Theory Analysis of Fock Matrix in NBO Basis

     Threshold for printing:   0.25 kcal/mol
                                                                              E(2)  E(j)-E(i) F(i,j)
         Donor NBO (i)                     Acceptor NBO (j)                 kcal/mol   a.u.    a.u. 
 ===================================================================================================

 within unit  1
       None above threshold


 Natural Bond Orbitals (Summary):

                                                            Principal Delocalizations
           NBO                        Occupancy    Energy   (geminal,vicinal,remote)
 ====================================================================================
 Molecular unit  1  (P2)
     1. BD (   1) P   1 - P   2          1.00000    -0.25488   
     2. BD (   2) P   1 - P   2          1.00000    -0.24403   
     3. BD (   3) P   1 - P   2          1.00000    -0.24403   
     4. CR (   1) P   1                  1.00000   -77.84646   
     5. CR (   2) P   1                  1.00000    -7.17748   
     6. CR (   3) P   1                  1.00000    -5.04530   
     7. CR (   4) P   1                  1.00000    -5.04530   
     8. CR (   5) P   1                  1.00000    -5.04542   
     9. CR (   1) P   2                  1.00000   -77.84646   
    10. CR (   2) P   2                  1.00000    -7.17748   
    11. CR (   3) P   2                  1.00000    -5.04530   
    12. CR (   4) P   2                  1.00000    -5.04530   
    13. CR (   5) P   2                  1.00000    -5.04542   
    14. LP (   1) P   1                  0.99998    -0.65914   
    15. LP (   1) P   2                  0.99998    -0.65914   
    16. RY*(   1) P   1                  0.00002     0.13268   
    17. RY*(   2) P   1                  0.00000     0.81853   
    18. RY*(   3) P   1                  0.00000   160.86493   
    19. RY*(   4) P   1                  0.00000     8.43430   
    20. RY*(   5) P   1                  0.00000     0.08735   
    21. RY*(   6) P   1                  0.00000     0.33504   
    22. RY*(   7) P   1                  0.00000     1.51215   
    23. RY*(   8) P   1                  0.00000    13.87772   
    24. RY*(   9) P   1                  0.00000     0.08735   
    25. RY*(  10) P   1                  0.00000     0.33504   
    26. RY*(  11) P   1                  0.00000     1.51215   
    27. RY*(  12) P   1                  0.00000    13.87772   
    28. RY*(  13) P   1                  0.00000     0.10620   
    29. RY*(  14) P   1                  0.00000     0.32879   
    30. RY*(  15) P   1                  0.00000     1.50758   
    31. RY*(  16) P   1                  0.00000    13.88141   
    32. RY*(  17) P   1                  0.00000     0.68722   
    33. RY*(  18) P   1                  0.00000     0.68796   
    34. RY*(  19) P   1                  0.00000     0.68796   
    35. RY*(  20) P   1                  0.00000     0.68722   
    36. RY*(  21) P   1                  0.00000     0.67999   
    37. RY*(   1) P   2                  0.00002     0.13268   
    38. RY*(   2) P   2                  0.00000     0.81853   
    39. RY*(   3) P   2                  0.00000   160.86493   
    40. RY*(   4) P   2                  0.00000     8.43430   
    41. RY*(   5) P   2                  0.00000     0.08735   
    42. RY*(   6) P   2                  0.00000     0.33504   
    43. RY*(   7) P   2                  0.00000     1.51215   
    44. RY*(   8) P   2                  0.00000    13.87772   
    45. RY*(   9) P   2                  0.00000     0.08735   
    46. RY*(  10) P   2                  0.00000     0.33504   
    47. RY*(  11) P   2                  0.00000     1.51215   
    48. RY*(  12) P   2                  0.00000    13.87772   
    49. RY*(  13) P   2                  0.00000     0.10620   
    50. RY*(  14) P   2                  0.00000     0.32879   
    51. RY*(  15) P   2                  0.00000     1.50758   
    52. RY*(  16) P   2                  0.00000    13.88141   
    53. RY*(  17) P   2                  0.00000     0.68722   
    54. RY*(  18) P   2                  0.00000     0.68796   
    55. RY*(  19) P   2                  0.00000     0.68796   
    56. RY*(  20) P   2                  0.00000     0.68722   
    57. RY*(  21) P   2                  0.00000     0.67999   
    58. BD*(   1) P   1 - P   2          0.00000    -0.17035   
    59. BD*(   2) P   1 - P   2          0.00000    -0.18146   
    60. BD*(   3) P   1 - P   2          0.00000    -0.18146   
       -------------------------------
              Total Lewis   14.99995  ( 99.9997%)
        Valence non-Lewis    0.00000  (  0.0000%)
        Rydberg non-Lewis    0.00005  (  0.0003%)
       -------------------------------
            Total unit  1   15.00000  (100.0000%)
           Charge unit  1    0.00000
 Sorting of NBOs:                    9    4    5   10   13    8   11   12    6    7
 Sorting of NBOs:                   15   14    1    3    2   60   59   58   24   20
 Sorting of NBOs:                   45   41   28   49   16   37   50   29   25   21
 Sorting of NBOs:                   46   42   36   57   32   53   56   35   55   33
 Sorting of NBOs:                   34   54   38   17   30   51   22   26   47   43
 Sorting of NBOs:                   19   40   44   48   27   23   52   31   39   18
 Reordering of NBOs for storage:     9    4    5   10   13    8   11   12    6    7
 Reordering of NBOs for storage:    15   14    1    3    2   60   59   58   24   20
 Reordering of NBOs for storage:    45   41   28   49   16   37   50   29   25   21
 Reordering of NBOs for storage:    46   42   36   57   32   53   56   35   55   33
 Reordering of NBOs for storage:    34   54   38   17   30   51   22   26   47   43
 Reordering of NBOs for storage:    19   40   44   48   27   23   52   31   39   18
 Labels of output orbitals:  CR  CR  CR  CR  CR  CR  CR  CR  CR  CR  LP  LP  BD  BD  BD  BD* BD* BD* RY* RY* 
 Labels of output orbitals:  RY* RY* RY* RY* RY* RY* RY* RY* RY* RY* RY* RY* RY* RY* RY* RY* RY* RY* RY* RY* 
 Labels of output orbitals:  RY* RY* RY* RY* RY* RY* RY* RY* RY* RY* RY* RY* RY* RY* RY* RY* RY* RY* RY* RY* 
 GSVD:  LWork=       -2385 too small for GESVD, short by       10800 words or       10800 for optimal perf.
 Leave Link  607 at Mon Apr 21 21:22:52 2025, MaxMem=   536870912 cpu:               6.8 elap:               1.0
 (Enter /home/szhao/Apps/g16/l701.exe)
 ... and contract with generalized density number  0.
 Compute integral first derivatives.
 Leave Link  701 at Mon Apr 21 21:22:53 2025, MaxMem=   536870912 cpu:               1.8 elap:               0.4
 (Enter /home/szhao/Apps/g16/l702.exe)
 L702 exits ... SP integral derivatives will be done elsewhere.
 Leave Link  702 at Mon Apr 21 21:22:54 2025, MaxMem=   536870912 cpu:               0.5 elap:               0.2
 (Enter /home/szhao/Apps/g16/l703.exe)
 Integral derivatives from FoFJK, PRISM(SPDF).
 Compute integral first derivatives, UseDBF=F ICtDFT=           0.
 Calling FoFJK, ICntrl=      2127 FMM=F ISym2X=1 I1Cent= 0 IOpClX= 1 NMat=1 NMatS=1 NMatT=0.
 FoFJK:  IHMeth= 1 ICntrl=    2127 DoSepK=F KAlg= 0 I1Cent=           0 FoldK=F
 IRaf=         0 NMat=       1 IRICut=       1 DoRegI=T DoRafI=F ISym2E= 1 IDoP0=0 IntGTp=1.
 FoFCou: FMM=F IPFlag=           0 FMFlag=      100000 FMFlg1=         800
         NFxFlg=           0 DoJE=F BraDBF=F KetDBF=F FulRan=T
         wScrn=  0.000000 ICntrl=      2127 IOpCl=  1 I1Cent=           0 NGrid=           0
         NMat0=    1 NMatS0=      1 NMatT0=    0 NMatD0=    1 NMtDS0=    0 NMtDT0=    0
 Petite list used in FoFCou.
 Leave Link  703 at Mon Apr 21 21:22:54 2025, MaxMem=   536870912 cpu:               2.2 elap:               0.3
 (Enter /home/szhao/Apps/g16/l716.exe)
 Dipole        = 1.38050658D-30-1.08006830D-33 2.66453526D-15
 ***** Axes restored to original set *****
 -------------------------------------------------------------------
 Center     Atomic                   Forces (Hartrees/Bohr)
 Number     Number              X              Y              Z
 -------------------------------------------------------------------
      1       15           0.024624068   -0.000000000    0.000000000
      2       15          -0.024624068    0.000000000   -0.000000000
 -------------------------------------------------------------------
 Cartesian Forces:  Max     0.024624068 RMS     0.014216712
 Z-matrix is all fixed cartesians, so copy forces.
 Force constants in Cartesian coordinates: 
                1             2             3             4             5 
      1  0.100000D+01
      2  0.000000D+00  0.100000D+01
      3  0.000000D+00  0.000000D+00  0.100000D+01
      4  0.000000D+00  0.000000D+00  0.000000D+00  0.100000D+01
      5  0.000000D+00  0.000000D+00  0.000000D+00  0.000000D+00  0.100000D+01
      6  0.000000D+00  0.000000D+00  0.000000D+00  0.000000D+00  0.000000D+00
                6 
      6  0.100000D+01
 Leave Link  716 at Mon Apr 21 21:22:55 2025, MaxMem=   536870912 cpu:               0.5 elap:               0.2
 (Enter /home/szhao/Apps/g16/l103.exe)

 GradGradGradGradGradGradGradGradGradGradGradGradGradGradGradGradGradGrad
 Berny optimization.
 Search for a local minimum.
 Step number   1 out of a maximum of    2
 All quantities printed in internal units (Hartrees-Bohrs-Radians)
 Second derivative matrix not updated -- first step.
 The second derivative matrix:
                          X1        Y1        Z1        X2        Y2
           X1           1.00000
           Y1           0.00000   1.00000
           Z1           0.00000   0.00000   1.00000
           X2           0.00000   0.00000   0.00000   1.00000
           Y2           0.00000   0.00000   0.00000   0.00000   1.00000
           Z2           0.00000   0.00000   0.00000   0.00000   0.00000
                          Z2
           Z2           1.00000
 ITU=  0
     Eigenvalues ---    1.00000   1.00000   1.00000   1.00000   1.00000
     Eigenvalues ---    1.00000
 Angle between quadratic step and forces=   0.00 degrees.
 ClnCor:  largest displacement from symmetrization is 4.89D-16 for atom     2.
 Linear search not attempted -- first point.
 ClnCor:  largest displacement from symmetrization is 0.00D+00 for atom     0.
 B after Tr=     0.000000    0.000000    0.000000
         Rot=    1.000000    0.000000    0.000000    0.000000 Ang=   0.00 deg.
 Variable       Old X    -DE/DX   Delta X   Delta X   Delta X     New X
                                 (Linear)    (Quad)   (Total)
    X1       -4.41912   0.02462   0.00000   0.02462   0.02462  -4.39449
    Y1        0.00000  -0.00000   0.00000   0.00000   0.00000   0.00000
    Z1        0.00000   0.00000   0.00000   0.00000   0.00000   0.00000
    X2        4.41912  -0.02462   0.00000  -0.02462  -0.02462   4.39449
    Y2        0.00000   0.00000   0.00000   0.00000   0.00000   0.00000
    Z2        0.00000  -0.00000   0.00000  -0.00000  -0.00000   0.00000
         Item               Value     Threshold  Converged?
 Maximum Force            0.024624     0.000450     NO 
 RMS     Force            0.014217     0.000300     NO 
 Maximum Displacement     0.024624     0.001800     NO 
 RMS     Displacement     0.014217     0.001200     NO 
 Predicted change in Energy=-6.063447D-04
 GradGradGradGradGradGradGradGradGradGradGradGradGradGradGradGradGradGrad

 Leave Link  103 at Mon Apr 21 21:22:55 2025, MaxMem=   536870912 cpu:               0.6 elap:               0.2
 (Enter /home/szhao/Apps/g16/l9999.exe)
 1\1\GINC-NODE05\Force\UM062X\6-311+G(d,p)\P2\SZHAO\21-Apr-2025\0\\#p U
 M062X/6-311+G** force int=superfine pop=saveNBO\\Title Card Required\\
 0,1\P,-2.338495,0.,0.\P,2.338495,0.,0.\\Version=ES64L-G16RevA.03\State
 =1-SGG\HF=-682.2451138\S2=0.\S2-1=0.\S2A=0.\RMSD=3.608e-09\RMSF=1.422e
 -02\Dipole=0.,0.,0.\Quadrupole=2.1015883,-1.0507941,-1.0507941,0.,0.,0
 .\PG=D*H [C*(P1.P1)]\\@


 IF YOU GET CONFUSED, LOGIC OUT YOUR DILEMMA

           --  PICKER X-RAY CORP.    DIGITAL PRINTER MANUAL CA. 1964
 Job cpu time:       0 days  0 hours  0 minutes 35.1 seconds.
 Elapsed time:       0 days  0 hours  0 minutes  6.5 seconds.
 File lengths (MBytes):  RWF=     17 Int=      0 D2E=      0 Chk=      2 Scr=      2
 Normal termination of Gaussian 16 at Mon Apr 21 21:22:55 2025.
